 Entering Link 1 = b:\programy\g09w\l1.exe PID=     15124.
  
 Copyright (c) 1988,1990,1992,1993,1995,1998,2003,2009, Gaussian, Inc.
                  All Rights Reserved.
  
 This is part of the Gaussian(R) 09 program.  It is based on
 the Gaussian(R) 03 system (copyright 2003, Gaussian, Inc.),
 the Gaussian(R) 98 system (copyright 1998, Gaussian, Inc.),
 the Gaussian(R) 94 system (copyright 1995, Gaussian, Inc.),
 the Gaussian 92(TM) system (copyright 1992, Gaussian, Inc.),
 the Gaussian 90(TM) system (copyright 1990, Gaussian, Inc.),
 the Gaussian 88(TM) system (copyright 1988, Gaussian, Inc.),
 the Gaussian 86(TM) system (copyright 1986, Carnegie Mellon
 University), and the Gaussian 82(TM) system (copyright 1983,
 Carnegie Mellon University). Gaussian is a federally registered
 trademark of Gaussian, Inc.
  
 This software contains proprietary and confidential information,
 including trade secrets, belonging to Gaussian, Inc.
  
 This software is provided under written license and may be
 used, copied, transmitted, or stored only in accord with that
 written license.
  
 The following legend is applicable only to US Government
 contracts under FAR:
  
                    RESTRICTED RIGHTS LEGEND
  
 Use, reproduction and disclosure by the US Government is
 subject to restrictions as set forth in subparagraphs (a)
 and (c) of the Commercial Computer Software - Restricted
 Rights clause in FAR 52.227-19.
  
 Gaussian, Inc.
 340 Quinnipiac St., Bldg. 40, Wallingford CT 06492
  
  
 ---------------------------------------------------------------
 Warning -- This program may not be used in any manner that
 competes with the business of Gaussian, Inc. or will provide
 assistance to any competitor of Gaussian, Inc.  The licensee
 of this program is prohibited from giving any competitor of
 Gaussian, Inc. access to this program.  By using this program,
 the user acknowledges that Gaussian, Inc. is engaged in the
 business of creating and licensing software in the field of
 computational chemistry and represents and warrants to the
 licensee that it is not a competitor of Gaussian, Inc. and that
 it will not use this program in any manner prohibited above.
 ---------------------------------------------------------------
  

 Cite this work as:
 Gaussian 09, Revision A.02,
 M. J. Frisch, G. W. Trucks, H. B. Schlegel, G. E. Scuseria, 
 M. A. Robb, J. R. Cheeseman, G. Scalmani, V. Barone, B. Mennucci, 
 G. A. Petersson, H. Nakatsuji, M. Caricato, X. Li, H. P. Hratchian, 
 A. F. Izmaylov, J. Bloino, G. Zheng, J. L. Sonnenberg, M. Hada, 
 M. Ehara, K. Toyota, R. Fukuda, J. Hasegawa, M. Ishida, T. Nakajima, 
 Y. Honda, O. Kitao, H. Nakai, T. Vreven, J. A. Montgomery, Jr., 
 J. E. Peralta, F. Ogliaro, M. Bearpark, J. J. Heyd, E. Brothers, 
 K. N. Kudin, V. N. Staroverov, R. Kobayashi, J. Normand, 
 K. Raghavachari, A. Rendell, J. C. Burant, S. S. Iyengar, J. Tomasi, 
 M. Cossi, N. Rega, J. M. Millam, M. Klene, J. E. Knox, J. B. Cross, 
 V. Bakken, C. Adamo, J. Jaramillo, R. Gomperts, R. E. Stratmann, 
 O. Yazyev, A. J. Austin, R. Cammi, C. Pomelli, J. W. Ochterski, 
 R. L. Martin, K. Morokuma, V. G. Zakrzewski, G. A. Voth, 
 P. Salvador, J. J. Dannenberg, S. Dapprich, A. D. Daniels, 
 O. Farkas, J. B. Foresman, J. V. Ortiz, J. Cioslowski, 
 and D. J. Fox, Gaussian, Inc., Wallingford CT, 2009.
 
 ******************************************
 Gaussian 09:  IA32W-G09RevA.02 11-Jun-2009
                06-Sep-2021 
 ******************************************
 %nprocshared=12
 Will use up to   12 processors via shared memory.
 ----------------------------------------------
 # opt freq=noraman hf/6-311g geom=connectivity
 ----------------------------------------------
 1/18=20,19=15,38=1,57=2/1,3;
 2/9=110,12=2,17=6,18=5,40=1/2;
 3/5=4,6=6,11=9,16=1,25=1,30=1,71=1/1,2,3;
 4//1;
 5/5=2,38=5/2;
 6/7=2,8=2,9=2,10=2,28=1/1;
 7//1,2,3,16;
 1/18=20,19=15/3(2);
 2/9=110/2;
 99//99;
 2/9=110/2;
 3/5=4,6=6,11=9,16=1,25=1,30=1,71=1/1,2,3;
 4/5=5,16=3/1;
 5/5=2,38=5/2;
 7//1,2,3,16;
 1/18=20,19=15/3(-5);
 2/9=110/2;
 6/7=2,8=2,9=2,10=2,19=2,28=1/1;
 99/9=1/99;
 -----
 M0001
 -----
 Symbolic Z-matrix:
 Charge =  0 Multiplicity = 1
 C                     0.0416   -0.11012  -0.76651 
 H                     0.09108  -0.31718  -1.86917 
 C                    -1.42784   0.0682   -0.47439 
 C                    -1.9823    1.30933  -0.16346 
 C                    -2.27041  -1.0437   -0.57814 
 C                    -3.35192   1.43639   0.04541 
 H                    -1.33577   2.19232  -0.0821 
 C                    -3.63681  -0.91502  -0.36766 
 H                    -1.84231  -2.02324  -0.82273 
 C                    -4.18157   0.32668  -0.05492 
 H                    -3.77472   2.41656   0.28867 
 H                    -4.28572  -1.79296  -0.44897 
 H                    -5.25878   0.42797   0.1105 
 C                     0.60832  -1.30814  -0.04294 
 C                     1.19688  -2.33889  -0.77866 
 C                     0.55298  -1.40909   1.34874 
 C                     1.71686  -3.4539   -0.13052 
 H                     1.25165  -2.27133  -1.87155 
 C                     1.07089  -2.52532   1.99383 
 H                     0.10973  -0.58423   1.9274 
 C                     1.65254  -3.55054   1.25506 
 H                     2.17757  -4.25732  -0.71454 
 H                     1.02133  -2.59585   3.08522 
 H                     2.06015  -4.43018   1.76335 
 C                     0.87951   1.11484  -0.49745 
 C                     1.03875   1.62726   0.79225 
 C                     1.5204    1.74837  -1.56458 
 C                     1.8229    2.75305   1.01077 
 H                     0.54553   1.11754   1.63498 
 C                     2.30486   2.87499  -1.3435 
 H                     1.40666   1.35752  -2.58269 
 C                     2.45689   3.37975  -0.05701 
 H                     1.94229   3.14505   2.02597 
 H                     2.80391   3.36453  -2.1861 
 H                     3.07489   4.26667   0.11544 
 

 GradGradGradGradGradGradGradGradGradGradGradGradGradGradGradGradGradGrad
 Berny optimization.
 Initialization pass.
                           ----------------------------
                           !    Initial Parameters    !
                           ! (Angstroms and Degrees)  !
 --------------------------                            --------------------------
 ! Name  Definition              Value          Derivative Info.                !
 --------------------------------------------------------------------------------
 ! R1    R(1,2)                  1.123          estimate D2E/DX2                !
 ! R2    R(1,3)                  1.5088         estimate D2E/DX2                !
 ! R3    R(1,14)                 1.51           estimate D2E/DX2                !
 ! R4    R(1,25)                 1.5083         estimate D2E/DX2                !
 ! R5    R(3,4)                  1.3945         estimate D2E/DX2                !
 ! R6    R(3,5)                  1.3989         estimate D2E/DX2                !
 ! R7    R(4,6)                  1.3913         estimate D2E/DX2                !
 ! R8    R(4,7)                  1.0974         estimate D2E/DX2                !
 ! R9    R(5,8)                  1.3885         estimate D2E/DX2                !
 ! R10   R(5,9)                  1.0966         estimate D2E/DX2                !
 ! R11   R(6,10)                 1.3892         estimate D2E/DX2                !
 ! R12   R(6,11)                 1.0948         estimate D2E/DX2                !
 ! R13   R(8,10)                 1.3915         estimate D2E/DX2                !
 ! R14   R(8,12)                 1.0948         estimate D2E/DX2                !
 ! R15   R(10,13)                1.0945         estimate D2E/DX2                !
 ! R16   R(14,15)                1.3965         estimate D2E/DX2                !
 ! R17   R(14,16)                1.3964         estimate D2E/DX2                !
 ! R18   R(15,17)                1.3906         estimate D2E/DX2                !
 ! R19   R(15,18)                1.0963         estimate D2E/DX2                !
 ! R20   R(16,19)                1.3894         estimate D2E/DX2                !
 ! R21   R(16,20)                1.1008         estimate D2E/DX2                !
 ! R22   R(17,21)                1.3904         estimate D2E/DX2                !
 ! R23   R(17,22)                1.0949         estimate D2E/DX2                !
 ! R24   R(19,21)                1.3911         estimate D2E/DX2                !
 ! R25   R(19,23)                1.0948         estimate D2E/DX2                !
 ! R26   R(21,24)                1.0947         estimate D2E/DX2                !
 ! R27   R(25,26)                1.3969         estimate D2E/DX2                !
 ! R28   R(25,27)                1.3967         estimate D2E/DX2                !
 ! R29   R(26,28)                1.3893         estimate D2E/DX2                !
 ! R30   R(26,29)                1.1015         estimate D2E/DX2                !
 ! R31   R(27,30)                1.3905         estimate D2E/DX2                !
 ! R32   R(27,31)                1.0965         estimate D2E/DX2                !
 ! R33   R(28,32)                1.391          estimate D2E/DX2                !
 ! R34   R(28,33)                1.0948         estimate D2E/DX2                !
 ! R35   R(30,32)                1.3903         estimate D2E/DX2                !
 ! R36   R(30,34)                1.0948         estimate D2E/DX2                !
 ! R37   R(32,35)                1.0947         estimate D2E/DX2                !
 ! A1    A(2,1,3)              104.7618         estimate D2E/DX2                !
 ! A2    A(2,1,14)             107.9197         estimate D2E/DX2                !
 ! A3    A(2,1,25)             107.4826         estimate D2E/DX2                !
 ! A4    A(3,1,14)             111.5015         estimate D2E/DX2                !
 ! A5    A(3,1,25)             114.2379         estimate D2E/DX2                !
 ! A6    A(14,1,25)            110.5106         estimate D2E/DX2                !
 ! A7    A(1,3,4)              122.3853         estimate D2E/DX2                !
 ! A8    A(1,3,5)              118.5742         estimate D2E/DX2                !
 ! A9    A(4,3,5)              118.979          estimate D2E/DX2                !
 ! A10   A(3,4,6)              120.4097         estimate D2E/DX2                !
 ! A11   A(3,4,7)              119.8962         estimate D2E/DX2                !
 ! A12   A(6,4,7)              119.6941         estimate D2E/DX2                !
 ! A13   A(3,5,8)              120.5177         estimate D2E/DX2                !
 ! A14   A(3,5,9)              119.4317         estimate D2E/DX2                !
 ! A15   A(8,5,9)              120.0498         estimate D2E/DX2                !
 ! A16   A(4,6,10)             120.2739         estimate D2E/DX2                !
 ! A17   A(4,6,11)             119.6884         estimate D2E/DX2                !
 ! A18   A(10,6,11)            120.0376         estimate D2E/DX2                !
 ! A19   A(5,8,10)             120.1336         estimate D2E/DX2                !
 ! A20   A(5,8,12)             119.8502         estimate D2E/DX2                !
 ! A21   A(10,8,12)            120.0161         estimate D2E/DX2                !
 ! A22   A(6,10,8)             119.6852         estimate D2E/DX2                !
 ! A23   A(6,10,13)            120.1937         estimate D2E/DX2                !
 ! A24   A(8,10,13)            120.1211         estimate D2E/DX2                !
 ! A25   A(1,14,15)            119.4292         estimate D2E/DX2                !
 ! A26   A(1,14,16)            121.3357         estimate D2E/DX2                !
 ! A27   A(15,14,16)           119.2348         estimate D2E/DX2                !
 ! A28   A(14,15,17)           120.2568         estimate D2E/DX2                !
 ! A29   A(14,15,18)           120.0498         estimate D2E/DX2                !
 ! A30   A(17,15,18)           119.6934         estimate D2E/DX2                !
 ! A31   A(14,16,19)           120.4002         estimate D2E/DX2                !
 ! A32   A(14,16,20)           119.0565         estimate D2E/DX2                !
 ! A33   A(19,16,20)           120.5344         estimate D2E/DX2                !
 ! A34   A(15,17,21)           120.1917         estimate D2E/DX2                !
 ! A35   A(15,17,22)           119.8077         estimate D2E/DX2                !
 ! A36   A(21,17,22)           120.0006         estimate D2E/DX2                !
 ! A37   A(16,19,21)           120.0914         estimate D2E/DX2                !
 ! A38   A(16,19,23)           119.8514         estimate D2E/DX2                !
 ! A39   A(21,19,23)           120.0572         estimate D2E/DX2                !
 ! A40   A(17,21,19)           119.8239         estimate D2E/DX2                !
 ! A41   A(17,21,24)           120.088          estimate D2E/DX2                !
 ! A42   A(19,21,24)           120.088          estimate D2E/DX2                !
 ! A43   A(1,25,26)            121.7316         estimate D2E/DX2                !
 ! A44   A(1,25,27)            119.1425         estimate D2E/DX2                !
 ! A45   A(26,25,27)           119.1245         estimate D2E/DX2                !
 ! A46   A(25,26,28)           120.4527         estimate D2E/DX2                !
 ! A47   A(25,26,29)           119.0507         estimate D2E/DX2                !
 ! A48   A(28,26,29)           120.4908         estimate D2E/DX2                !
 ! A49   A(25,27,30)           120.3237         estimate D2E/DX2                !
 ! A50   A(25,27,31)           120.0089         estimate D2E/DX2                !
 ! A51   A(30,27,31)           119.6674         estimate D2E/DX2                !
 ! A52   A(26,28,32)           120.1069         estimate D2E/DX2                !
 ! A53   A(26,28,33)           119.8387         estimate D2E/DX2                !
 ! A54   A(32,28,33)           120.0543         estimate D2E/DX2                !
 ! A55   A(27,30,32)           120.1964         estimate D2E/DX2                !
 ! A56   A(27,30,34)           119.8063         estimate D2E/DX2                !
 ! A57   A(32,30,34)           119.9973         estimate D2E/DX2                !
 ! A58   A(28,32,30)           119.7957         estimate D2E/DX2                !
 ! A59   A(28,32,35)           120.0943         estimate D2E/DX2                !
 ! A60   A(30,32,35)           120.1099         estimate D2E/DX2                !
 ! D1    D(2,1,3,4)           -108.8683         estimate D2E/DX2                !
 ! D2    D(2,1,3,5)             68.2483         estimate D2E/DX2                !
 ! D3    D(14,1,3,4)           134.6579         estimate D2E/DX2                !
 ! D4    D(14,1,3,5)           -48.2255         estimate D2E/DX2                !
 ! D5    D(25,1,3,4)             8.4759         estimate D2E/DX2                !
 ! D6    D(25,1,3,5)          -174.4076         estimate D2E/DX2                !
 ! D7    D(2,1,14,15)            6.6543         estimate D2E/DX2                !
 ! D8    D(2,1,14,16)         -173.1689         estimate D2E/DX2                !
 ! D9    D(3,1,14,15)          121.187          estimate D2E/DX2                !
 ! D10   D(3,1,14,16)          -58.6362         estimate D2E/DX2                !
 ! D11   D(25,1,14,15)        -110.6086         estimate D2E/DX2                !
 ! D12   D(25,1,14,16)          69.5682         estimate D2E/DX2                !
 ! D13   D(2,1,25,26)         -179.1677         estimate D2E/DX2                !
 ! D14   D(2,1,25,27)            0.3964         estimate D2E/DX2                !
 ! D15   D(3,1,25,26)           65.0618         estimate D2E/DX2                !
 ! D16   D(3,1,25,27)         -115.3741         estimate D2E/DX2                !
 ! D17   D(14,1,25,26)         -61.6356         estimate D2E/DX2                !
 ! D18   D(14,1,25,27)         117.9285         estimate D2E/DX2                !
 ! D19   D(1,3,4,6)            177.37           estimate D2E/DX2                !
 ! D20   D(1,3,4,7)             -2.6616         estimate D2E/DX2                !
 ! D21   D(5,3,4,6)              0.2647         estimate D2E/DX2                !
 ! D22   D(5,3,4,7)           -179.7669         estimate D2E/DX2                !
 ! D23   D(1,3,5,8)           -177.5625         estimate D2E/DX2                !
 ! D24   D(1,3,5,9)              2.7582         estimate D2E/DX2                !
 ! D25   D(4,3,5,8)             -0.3459         estimate D2E/DX2                !
 ! D26   D(4,3,5,9)            179.9747         estimate D2E/DX2                !
 ! D27   D(3,4,6,10)            -0.0493         estimate D2E/DX2                !
 ! D28   D(3,4,6,11)          -179.9848         estimate D2E/DX2                !
 ! D29   D(7,4,6,10)           179.9822         estimate D2E/DX2                !
 ! D30   D(7,4,6,11)             0.0468         estimate D2E/DX2                !
 ! D31   D(3,5,8,10)             0.2112         estimate D2E/DX2                !
 ! D32   D(3,5,8,12)          -179.8337         estimate D2E/DX2                !
 ! D33   D(9,5,8,10)           179.8886         estimate D2E/DX2                !
 ! D34   D(9,5,8,12)            -0.1564         estimate D2E/DX2                !
 ! D35   D(4,6,10,8)            -0.0896         estimate D2E/DX2                !
 ! D36   D(4,6,10,13)          179.9476         estimate D2E/DX2                !
 ! D37   D(11,6,10,8)          179.8456         estimate D2E/DX2                !
 ! D38   D(11,6,10,13)          -0.1172         estimate D2E/DX2                !
 ! D39   D(5,8,10,6)             0.0088         estimate D2E/DX2                !
 ! D40   D(5,8,10,13)          179.9717         estimate D2E/DX2                !
 ! D41   D(12,8,10,6)         -179.9461         estimate D2E/DX2                !
 ! D42   D(12,8,10,13)           0.0167         estimate D2E/DX2                !
 ! D43   D(1,14,15,17)        -179.6046         estimate D2E/DX2                !
 ! D44   D(1,14,15,18)           0.4549         estimate D2E/DX2                !
 ! D45   D(16,14,15,17)          0.2224         estimate D2E/DX2                !
 ! D46   D(16,14,15,18)       -179.7181         estimate D2E/DX2                !
 ! D47   D(1,14,16,19)         179.4763         estimate D2E/DX2                !
 ! D48   D(1,14,16,20)          -1.6002         estimate D2E/DX2                !
 ! D49   D(15,14,16,19)         -0.3473         estimate D2E/DX2                !
 ! D50   D(15,14,16,20)        178.5762         estimate D2E/DX2                !
 ! D51   D(14,15,17,21)          0.0818         estimate D2E/DX2                !
 ! D52   D(14,15,17,22)       -179.9412         estimate D2E/DX2                !
 ! D53   D(18,15,17,21)       -179.9775         estimate D2E/DX2                !
 ! D54   D(18,15,17,22)         -0.0005         estimate D2E/DX2                !
 ! D55   D(14,16,19,21)          0.168          estimate D2E/DX2                !
 ! D56   D(14,16,19,23)       -179.9045         estimate D2E/DX2                !
 ! D57   D(20,16,19,21)       -178.7395         estimate D2E/DX2                !
 ! D58   D(20,16,19,23)          1.188          estimate D2E/DX2                !
 ! D59   D(15,17,21,19)         -0.2637         estimate D2E/DX2                !
 ! D60   D(15,17,21,24)        179.8471         estimate D2E/DX2                !
 ! D61   D(22,17,21,19)        179.7593         estimate D2E/DX2                !
 ! D62   D(22,17,21,24)         -0.1299         estimate D2E/DX2                !
 ! D63   D(16,19,21,17)          0.1391         estimate D2E/DX2                !
 ! D64   D(16,19,21,24)       -179.9717         estimate D2E/DX2                !
 ! D65   D(23,19,21,17)       -179.7882         estimate D2E/DX2                !
 ! D66   D(23,19,21,24)          0.101          estimate D2E/DX2                !
 ! D67   D(1,25,26,28)         179.6381         estimate D2E/DX2                !
 ! D68   D(1,25,26,29)           0.5056         estimate D2E/DX2                !
 ! D69   D(27,25,26,28)          0.0739         estimate D2E/DX2                !
 ! D70   D(27,25,26,29)       -179.0586         estimate D2E/DX2                !
 ! D71   D(1,25,27,30)        -179.6446         estimate D2E/DX2                !
 ! D72   D(1,25,27,31)           0.3289         estimate D2E/DX2                !
 ! D73   D(26,25,27,30)         -0.0689         estimate D2E/DX2                !
 ! D74   D(26,25,27,31)        179.9045         estimate D2E/DX2                !
 ! D75   D(25,26,28,32)          0.0025         estimate D2E/DX2                !
 ! D76   D(25,26,28,33)       -179.8883         estimate D2E/DX2                !
 ! D77   D(29,26,28,32)        179.1225         estimate D2E/DX2                !
 ! D78   D(29,26,28,33)         -0.7683         estimate D2E/DX2                !
 ! D79   D(25,27,30,32)         -0.0124         estimate D2E/DX2                !
 ! D80   D(25,27,30,34)        179.9612         estimate D2E/DX2                !
 ! D81   D(31,27,30,32)       -179.986          estimate D2E/DX2                !
 ! D82   D(31,27,30,34)         -0.0123         estimate D2E/DX2                !
 ! D83   D(26,28,32,30)         -0.0845         estimate D2E/DX2                !
 ! D84   D(26,28,32,35)       -179.987          estimate D2E/DX2                !
 ! D85   D(33,28,32,30)        179.806          estimate D2E/DX2                !
 ! D86   D(33,28,32,35)         -0.0964         estimate D2E/DX2                !
 ! D87   D(27,30,32,28)          0.0895         estimate D2E/DX2                !
 ! D88   D(27,30,32,35)        179.9919         estimate D2E/DX2                !
 ! D89   D(34,30,32,28)       -179.8841         estimate D2E/DX2                !
 ! D90   D(34,30,32,35)          0.0183         estimate D2E/DX2                !
 --------------------------------------------------------------------------------
 Trust Radius=3.00D-01 FncErr=1.00D-07 GrdErr=1.00D-07
 Number of steps in this run= 197 maximum allowed number of steps= 210.
 GradGradGradGradGradGradGradGradGradGradGradGradGradGradGradGradGradGrad

                          Input orientation:                          
 ---------------------------------------------------------------------
 Center     Atomic      Atomic             Coordinates (Angstroms)
 Number     Number       Type             X           Y           Z
 ---------------------------------------------------------------------
      1          6           0        0.041602   -0.110117   -0.766510
      2          1           0        0.091078   -0.317180   -1.869173
      3          6           0       -1.427843    0.068199   -0.474390
      4          6           0       -1.982295    1.309333   -0.163462
      5          6           0       -2.270405   -1.043697   -0.578143
      6          6           0       -3.351919    1.436385    0.045409
      7          1           0       -1.335769    2.192317   -0.082097
      8          6           0       -3.636806   -0.915015   -0.367656
      9          1           0       -1.842314   -2.023242   -0.822730
     10          6           0       -4.181566    0.326678   -0.054923
     11          1           0       -3.774724    2.416559    0.288669
     12          1           0       -4.285717   -1.792958   -0.448965
     13          1           0       -5.258777    0.427969    0.110504
     14          6           0        0.608317   -1.308139   -0.042943
     15          6           0        1.196882   -2.338885   -0.778665
     16          6           0        0.552985   -1.409091    1.348738
     17          6           0        1.716857   -3.453905   -0.130519
     18          1           0        1.251646   -2.271327   -1.871549
     19          6           0        1.070885   -2.525320    1.993831
     20          1           0        0.109725   -0.584226    1.927395
     21          6           0        1.652537   -3.550535    1.255064
     22          1           0        2.177566   -4.257317   -0.714539
     23          1           0        1.021325   -2.595854    3.085221
     24          1           0        2.060150   -4.430183    1.763346
     25          6           0        0.879513    1.114841   -0.497451
     26          6           0        1.038751    1.627256    0.792253
     27          6           0        1.520402    1.748368   -1.564581
     28          6           0        1.822904    2.753050    1.010772
     29          1           0        0.545525    1.117538    1.634976
     30          6           0        2.304856    2.874986   -1.343502
     31          1           0        1.406656    1.357522   -2.582689
     32          6           0        2.456891    3.379745   -0.057007
     33          1           0        1.942286    3.145045    2.025973
     34          1           0        2.803909    3.364529   -2.186099
     35          1           0        3.074886    4.266672    0.115438
 ---------------------------------------------------------------------
                    Distance matrix (angstroms):
                    1          2          3          4          5
     1  C    0.000000
     2  H    1.123027   0.000000
     3  C    1.508774   2.097869   0.000000
     4  C    2.544537   3.139087   1.394456   0.000000
     5  C    2.500486   2.787685   1.398924   2.406599   0.000000
     6  C    3.816656   4.312173   2.417476   1.391272   2.776562
     7  H    2.768894   3.395159   2.162001   1.097395   3.404614
     8  C    3.786507   4.063137   2.420253   2.779718   1.388494
     9  H    2.685582   2.782750   2.160383   3.400043   1.096629
    10  C    4.304915   4.686313   2.797454   2.411261   2.409195
    11  H    4.697003   5.203271   3.406597   2.154802   3.871396
    12  H    4.653868   4.832313   3.410572   3.874465   2.153964
    13  H    5.399324   5.752852   3.891990   3.403996   3.401529
    14  C    1.509957   2.141180   2.495276   3.684692   2.939967
    15  C    2.510424   2.549374   3.574328   4.878027   3.706724
    16  C    2.534387   3.429370   3.070808   4.013007   3.437719
    17  C    3.793663   3.937654   4.734195   6.031024   4.680569
    18  H    2.712222   2.272800   3.821662   5.118307   3.947762
    19  C    3.809476   4.556172   4.366016   5.355408   4.469282
    20  H    2.736155   3.805994   2.925465   3.511951   3.486238
    21  C    4.303295   4.759580   5.057173   6.232379   5.003435
    22  H    4.665223   4.605572   5.636199   6.971064   5.489117
    23  H    4.687705   5.532065   5.076065   5.901370   5.163808
    24  H    5.397932   5.830029   6.116290   7.279835   5.975330
    25  C    1.508313   2.133995   2.533749   2.887789   3.819396
    26  C    2.538210   3.429592   3.181058   3.184523   4.467940
    27  C    2.505540   2.530263   3.564215   3.797996   4.810292
    28  C    3.811757   4.551880   4.470065   4.235880   5.804749
    29  H    2.743759   3.813660   3.073227   3.108222   4.183097
    30  C    3.790261   3.920085   4.750416   4.714173   6.072468
    31  H    2.704781   2.245991   3.760539   4.164128   4.827508
    32  C    4.303040   4.748503   5.121690   4.899420   6.495057
    33  H    4.691123   5.530473   5.203515   4.854462   6.486428
    34  H    4.660336   4.584198   5.630582   5.587722   6.911341
    35  H    5.397678   5.818375   6.184629   5.865042   7.566585
                    6          7          8          9         10
     6  C    0.000000
     7  H    2.156977   0.000000
     8  C    2.404344   3.877091   0.000000
     9  H    3.873189   4.309996   2.157652   0.000000
    10  C    1.389184   3.402926   1.391534   3.403491   0.000000
    11  H    1.094842   2.477146   3.398407   4.968023   2.156659
    12  H    3.397800   4.971841   1.094751   2.482529   2.158465
    13  H    2.158066   4.305811   2.159406   4.307155   1.094536
    14  C    4.819096   4.004273   4.275635   2.669275   5.061200
    15  C    5.968530   5.237492   5.055777   3.055861   6.046216
    16  C    5.004365   4.311012   4.554610   3.290883   5.234417
    17  C    7.045451   6.418777   5.929916   3.897903   7.006419
    18  H    6.214070   5.460859   5.291337   3.276302   6.290433
    19  C    6.249212   5.688371   5.507455   4.083114   6.318190
    20  H    4.428060   3.719772   4.406039   3.666662   4.813991
    21  C    7.167791   6.610472   6.128323   4.343252   7.126402
    22  H    7.973140   7.371654   6.715522   4.600242   7.866807
    23  H    6.680170   6.205996   6.037033   4.878565   6.743276
    24  H    8.164460   7.667818   7.025161   5.264064   8.055609
    25  C    4.278213   2.498190   4.953212   4.166739   5.141162
    26  C    4.457823   2.592707   5.446960   4.922890   5.446184
    27  C    5.140905   3.248471   5.926469   5.107176   6.067347
    28  C    5.426262   3.389100   6.720357   6.293530   6.563280
    29  H    4.221191   2.764555   5.062975   4.648290   5.081989
    30  C    5.999812   3.912970   7.114755   6.439166   7.087170
    31  H    5.436648   3.804042   5.958800   5.008275   6.219361
    32  C    6.126125   3.974279   7.461543   6.947070   7.306869
    33  H    5.905146   4.012144   7.303412   7.010670   7.055131
    34  H    6.825802   4.789346   7.943805   7.243910   7.909949
    35  H    7.022766   4.878099   8.492943   8.038783   8.258854
                   11         12         13         14         15
    11  H    0.000000
    12  H    4.304097   0.000000
    13  H    2.487698   2.488447   0.000000
    14  C    5.761457   4.934721   6.120490   0.000000
    15  C    6.962063   5.519569   7.079664   1.396472   0.000000
    16  C    5.872683   5.176112   6.219693   1.396435   2.409349
    17  C    8.049566   6.236269   7.986645   2.416783   1.390588
    18  H    7.204666   5.737158   7.321225   2.164579   1.096339
    19  C    7.128090   5.932689   7.234187   2.417425   2.781612
    20  H    5.174850   5.140821   5.757295   2.157517   3.403454
    21  C    8.123749   6.423057   8.056350   2.793485   2.410761
    22  H    8.998711   6.922256   8.827899   3.407526   2.155512
    23  H    7.479777   6.426493   7.578399   3.407961   3.876399
    24  H    9.115826   7.219370   8.938692   3.888143   3.403024
    25  C    4.896364   5.927668   6.206448   2.480112   3.479659
    26  C    4.903686   6.448911   6.446854   3.082105   4.268848
    27  C    5.649723   6.891778   7.106801   3.534051   4.174681
    28  C    5.654033   7.753210   7.507774   4.367928   5.433395
    29  H    4.707924   6.012878   6.040649   2.950130   4.265770
    30  C    6.311532   8.125611   8.081495   4.697684   5.360140
    31  H    6.017719   6.847000   7.248816   3.767413   4.118486
    32  C    6.315081   8.507248   8.262722   5.039215   5.900097
    33  H    6.019395   8.324495   7.931382   5.088294   6.204443
    34  H    7.092357   8.937567   8.882830   5.589953   6.090348
    35  H    7.097188   9.550714   9.175271   6.098161   6.925294
                   16         17         18         19         20
    16  C    0.000000
    17  C    2.779220   0.000000
    18  H    3.406145   2.155480   0.000000
    19  C    1.389364   2.406743   3.877930   0.000000
    20  H    1.100784   3.879812   4.310716   2.167046   0.000000
    21  C    2.409061   1.390437   3.401881   1.391101   3.410468
    22  H    3.874115   1.094899   2.477934   3.399974   4.974674
    23  H    2.154791   3.400147   4.972719   1.094790   2.493637
    24  H    3.401535   2.158169   4.304276   2.158766   4.315374
    25  C    3.144084   4.659315   3.673249   4.415187   3.059294
    26  C    3.124907   5.208601   4.726533   4.323044   2.653731
    27  C    4.403733   5.399886   4.040347   5.579316   4.430000
    28  C    4.364668   6.311899   5.820521   5.421542   3.861682
    29  H    2.542802   5.038559   4.927345   3.697999   1.780851
    30  C    5.354486   6.470852   5.279453   6.467130   5.242472
    31  H    4.882521   5.409176   3.701120   6.011134   5.078707
    32  C    5.341716   6.873997   6.056385   6.402870   5.015985
    33  H    4.809258   6.946036   6.708558   5.737021   4.156375
    34  H    6.352100   7.204036   5.854172   7.427348   6.306514
    35  H    6.332085   7.842961   7.072323   7.326359   5.967125
                   21         22         23         24         25
    21  C    0.000000
    22  H    2.157436   0.000000
    23  H    2.158546   4.305291   0.000000
    24  H    1.094659   2.486681   2.488227   0.000000
    25  C    5.043274   5.531017   5.159933   6.103474   0.000000
    26  C    5.234544   6.180252   4.805483   6.219231   1.396876
    27  C    6.003851   6.101039   6.382946   7.038530   1.396732
    28  C    6.310617   7.228258   5.792809   7.226443   2.418357
    29  H    4.812558   6.088747   4.014832   5.752197   2.158426
    30  C    6.961709   7.161113   7.154798   7.942158   2.417750
    31  H    6.235209   5.967470   6.921189   7.267227   2.164484
    32  C    7.099106   7.670404   6.902335   8.029076   2.794979
    33  H    6.746040   7.896881   5.910000   7.580695   3.408649
    34  H    7.809313   7.787832   8.154176   8.769767   3.408215
    35  H    8.026865   8.611180   7.754417   8.909578   3.889644
                   26         27         28         29         30
    26  C    0.000000
    27  C    2.408593   0.000000
    28  C    1.389265   2.780888   0.000000
    29  H    1.101484   3.403747   2.167077   0.000000
    30  C    2.778723   1.390508   2.406190   3.880103   0.000000
    31  H    3.405634   1.096468   3.877334   4.311361   2.155237
    32  C    2.409063   2.410640   1.390985   3.410822   1.390312
    33  H    2.154559   3.875664   1.094781   2.492910   3.399669
    34  H    3.873562   2.155377   3.399450   4.974925   1.094841
    35  H    3.401535   3.403049   2.158735   4.315519   2.158296
                   31         32         33         34         35
    31  H    0.000000
    32  C    3.401684   0.000000
    33  H    4.972113   2.158404   0.000000
    34  H    2.477434   2.157241   4.304895   0.000000
    35  H    4.304188   1.094666   2.488167   2.486838   0.000000
 Stoichiometry    C19H16
 Framework group  C1[X(C19H16)]
 Deg. of freedom    99
 Full point group                 C1      NOp   1
 Largest Abelian subgroup         C1      NOp   1
 Largest concise Abelian subgroup C1      NOp   1
                         Standard orientation:                         
 ---------------------------------------------------------------------
 Center     Atomic      Atomic             Coordinates (Angstroms)
 Number     Number       Type             X           Y           Z
 ---------------------------------------------------------------------
      1          6           0        0.010766    0.013191   -0.760988
      2          1           0       -0.018037    0.016913   -1.883639
      3          6           0       -0.672442    1.295576   -0.354643
      4          6           0        0.025014    2.373383    0.189779
      5          6           0       -2.045490    1.425496   -0.588837
      6          6           0       -0.637652    3.556807    0.499649
      7          1           0        1.103194    2.289232    0.376120
      8          6           0       -2.705216    2.606862   -0.277304
      9          1           0       -2.601208    0.582686   -1.017140
     10          6           0       -2.002204    3.676606    0.268397
     11          1           0       -0.078392    4.395715    0.926428
     12          1           0       -3.780508    2.695671   -0.462614
     13          1           0       -2.522378    4.607932    0.513467
     14          6           0       -0.753425   -1.197288   -0.280650
     15          6           0       -1.212411   -2.132472   -1.210647
     16          6           0       -1.014559   -1.399938    1.076100
     17          6           0       -1.925059   -3.249282   -0.788030
     18          1           0       -1.010928   -1.989002   -2.278720
     19          6           0       -1.729020   -2.515225    1.495638
     20          1           0       -0.631063   -0.673331    1.808698
     21          6           0       -2.186852   -3.441269    0.563976
     22          1           0       -2.280635   -3.978359   -1.523431
     23          1           0       -1.929986   -2.664415    2.561434
     24          1           0       -2.750159   -4.319727    0.894542
     25          6           0        1.457866   -0.076131   -0.345138
     26          6           0        1.834637   -0.118834    0.999289
     27          6           0        2.446790   -0.126502   -1.330203
     28          6           0        3.175297   -0.208656    1.352308
     29          1           0        1.052866   -0.094826    1.774869
     30          6           0        3.788029   -0.216500   -0.974546
     31          1           0        2.167241   -0.095553   -2.389985
     32          6           0        4.154846   -0.256785    0.365898
     33          1           0        3.459179   -0.243301    2.409075
     34          1           0        4.556179   -0.256090   -1.753682
     35          1           0        5.211138   -0.327774    0.644286
 ---------------------------------------------------------------------
 Rotational constants (GHZ):      0.4039987      0.3820037      0.2326123
 Standard basis: 6-311G (5D, 7F)
 There are   295 symmetry adapted basis functions of A   symmetry.
 Integral buffers will be    262144 words long.
 Raffenetti 1 integral format.
 Two-electron integral symmetry is turned on.
   295 basis functions,   574 primitive gaussians,   295 cartesian basis functions
    65 alpha electrons       65 beta electrons
       nuclear repulsion energy      1290.7026932519 Hartrees.
 NAtoms=   35 NActive=   35 NUniq=   35 SFac= 7.50D-01 NAtFMM=   80 NAOKFM=F Big=F
 One-electron integrals computed using PRISM.
 PrsmSu:  requested number of processors reduced to:  10 ShMem   1 Linda.
 NBasis=   295 RedAO= T  NBF=   295
 NBsUse=   295 1.00D-06 NBFU=   295
 Harris functional with IExCor=  205 diagonalized for initial guess.
 ExpMin= 1.03D-01 ExpMax= 4.56D+03 ExpMxC= 6.82D+02 IAcc=1 IRadAn=         1 AccDes= 0.00D+00
 HarFok:  IExCor=  205 AccDes= 0.00D+00 IRadAn=         1 IDoV= 1
 ScaDFX=  1.000000  1.000000  1.000000  1.000000
 FoFCou: FMM=F IPFlag=           0 FMFlag=      100000 FMFlg1=           0
         NFxFlg=           0 DoJE=T BraDBF=F KetDBF=T FulRan=T
         Omega=  0.000000  0.000000  1.000000  0.000000  0.000000 ICntrl=     500 IOpCl=  0
         NMat0=    1 NMatS0=    1 NMatT0=    0 NMatD0=    1 NMtDS0=    0 NMtDT0=    0
         I1Cent=           4 NGrid=           0.
 Petite list used in FoFCou.
 Initial guess orbital symmetries:
       Occupied  (A) (A) (A) (A) (A) (A) (A) (A) (A) (A) (A) (A)
                 (A) (A) (A) (A) (A) (A) (A) (A) (A) (A) (A) (A)
                 (A) (A) (A) (A) (A) (A) (A) (A) (A) (A) (A) (A)
                 (A) (A) (A) (A) (A) (A) (A) (A) (A) (A) (A) (A)
                 (A) (A) (A) (A) (A) (A) (A) (A) (A) (A) (A) (A)
                 (A) (A) (A) (A) (A)
       Virtual   (A) (A) (A) (A) (A) (A) (A) (A) (A) (A) (A) (A)
                 (A) (A) (A) (A) (A) (A) (A) (A) (A) (A) (A) (A)
                 (A) (A) (A) (A) (A) (A) (A) (A) (A) (A) (A) (A)
                 (A) (A) (A) (A) (A) (A) (A) (A) (A) (A) (A) (A)
                 (A) (A) (A) (A) (A) (A) (A) (A) (A) (A) (A) (A)
                 (A) (A) (A) (A) (A) (A) (A) (A) (A) (A) (A) (A)
                 (A) (A) (A) (A) (A) (A) (A) (A) (A) (A) (A) (A)
                 (A) (A) (A) (A) (A) (A) (A) (A) (A) (A) (A) (A)
                 (A) (A) (A) (A) (A) (A) (A) (A) (A) (A) (A) (A)
                 (A) (A) (A) (A) (A) (A) (A) (A) (A) (A) (A) (A)
                 (A) (A) (A) (A) (A) (A) (A) (A) (A) (A) (A) (A)
                 (A) (A) (A) (A) (A) (A) (A) (A) (A) (A) (A) (A)
                 (A) (A) (A) (A) (A) (A) (A) (A) (A) (A) (A) (A)
                 (A) (A) (A) (A) (A) (A) (A) (A) (A) (A) (A) (A)
                 (A) (A) (A) (A) (A) (A) (A) (A) (A) (A) (A) (A)
                 (A) (A) (A) (A) (A) (A) (A) (A) (A) (A) (A) (A)
                 (A) (A) (A) (A) (A) (A) (A) (A) (A) (A) (A) (A)
                 (A) (A) (A) (A) (A) (A) (A) (A) (A) (A) (A) (A)
                 (A) (A) (A) (A) (A) (A) (A) (A) (A) (A) (A) (A)
                 (A) (A)
 The electronic state of the initial guess is 1-A.
 Requested convergence on RMS density matrix=1.00D-08 within 128 cycles.
 Requested convergence on MAX density matrix=1.00D-06.
 Requested convergence on             energy=1.00D-06.
 No special actions if energy rises.
 Integral accuracy reduced to 1.0D-05 until final iterations.
 Initial convergence to 1.0D-05 achieved.  Increase integral accuracy.
 SCF Done:  E(RHF) =  -728.672409472     A.U. after   14 cycles
             Convg  =    0.8740D-08             -V/T =  2.0001

 **********************************************************************

            Population analysis using the SCF density.

 **********************************************************************

 Orbital symmetries:
       Occupied  (A) (A) (A) (A) (A) (A) (A) (A) (A) (A) (A) (A)
                 (A) (A) (A) (A) (A) (A) (A) (A) (A) (A) (A) (A)
                 (A) (A) (A) (A) (A) (A) (A) (A) (A) (A) (A) (A)
                 (A) (A) (A) (A) (A) (A) (A) (A) (A) (A) (A) (A)
                 (A) (A) (A) (A) (A) (A) (A) (A) (A) (A) (A) (A)
                 (A) (A) (A) (A) (A)
       Virtual   (A) (A) (A) (A) (A) (A) (A) (A) (A) (A) (A) (A)
                 (A) (A) (A) (A) (A) (A) (A) (A) (A) (A) (A) (A)
                 (A) (A) (A) (A) (A) (A) (A) (A) (A) (A) (A) (A)
                 (A) (A) (A) (A) (A) (A) (A) (A) (A) (A) (A) (A)
                 (A) (A) (A) (A) (A) (A) (A) (A) (A) (A) (A) (A)
                 (A) (A) (A) (A) (A) (A) (A) (A) (A) (A) (A) (A)
                 (A) (A) (A) (A) (A) (A) (A) (A) (A) (A) (A) (A)
                 (A) (A) (A) (A) (A) (A) (A) (A) (A) (A) (A) (A)
                 (A) (A) (A) (A) (A) (A) (A) (A) (A) (A) (A) (A)
                 (A) (A) (A) (A) (A) (A) (A) (A) (A) (A) (A) (A)
                 (A) (A) (A) (A) (A) (A) (A) (A) (A) (A) (A) (A)
                 (A) (A) (A) (A) (A) (A) (A) (A) (A) (A) (A) (A)
                 (A) (A) (A) (A) (A) (A) (A) (A) (A) (A) (A) (A)
                 (A) (A) (A) (A) (A) (A) (A) (A) (A) (A) (A) (A)
                 (A) (A) (A) (A) (A) (A) (A) (A) (A) (A) (A) (A)
                 (A) (A) (A) (A) (A) (A) (A) (A) (A) (A) (A) (A)
                 (A) (A) (A) (A) (A) (A) (A) (A) (A) (A) (A) (A)
                 (A) (A) (A) (A) (A) (A) (A) (A) (A) (A) (A) (A)
                 (A) (A) (A) (A) (A) (A) (A) (A) (A) (A) (A) (A)
                 (A) (A)
 The electronic state is 1-A.
 Alpha  occ. eigenvalues --  -11.25760 -11.25231 -11.25188 -11.24915 -11.24520
 Alpha  occ. eigenvalues --  -11.24433 -11.24422 -11.24375 -11.24220 -11.24166
 Alpha  occ. eigenvalues --  -11.24141 -11.24123 -11.24077 -11.24037 -11.24027
 Alpha  occ. eigenvalues --  -11.23966 -11.23728 -11.23626 -11.23500  -1.18616
 Alpha  occ. eigenvalues --   -1.15874  -1.15574  -1.09027  -1.02380  -1.02239
 Alpha  occ. eigenvalues --   -1.01879  -1.01488  -1.01085  -0.92919  -0.84281
 Alpha  occ. eigenvalues --   -0.83362  -0.82324  -0.81923  -0.81132  -0.77586
 Alpha  occ. eigenvalues --   -0.70871  -0.70365  -0.68984  -0.65683  -0.63901
 Alpha  occ. eigenvalues --   -0.63612  -0.62516  -0.61704  -0.61578  -0.59727
 Alpha  occ. eigenvalues --   -0.58847  -0.58493  -0.58318  -0.56756  -0.55086
 Alpha  occ. eigenvalues --   -0.51726  -0.50918  -0.50221  -0.49863  -0.49379
 Alpha  occ. eigenvalues --   -0.48421  -0.47960  -0.47500  -0.46314  -0.35024
 Alpha  occ. eigenvalues --   -0.34322  -0.33962  -0.33328  -0.32530  -0.31465
 Alpha virt. eigenvalues --    0.11538   0.12293   0.12746   0.13502   0.14994
 Alpha virt. eigenvalues --    0.15130   0.15647   0.16238   0.16485   0.16913
 Alpha virt. eigenvalues --    0.18903   0.19188   0.19233   0.21237   0.21294
 Alpha virt. eigenvalues --    0.21593   0.23562   0.24012   0.24940   0.25411
 Alpha virt. eigenvalues --    0.26797   0.31536   0.33140   0.34240   0.35777
 Alpha virt. eigenvalues --    0.37585   0.39786   0.40553   0.41496   0.43097
 Alpha virt. eigenvalues --    0.44095   0.44431   0.44941   0.45448   0.45603
 Alpha virt. eigenvalues --    0.45868   0.46749   0.47239   0.47943   0.50600
 Alpha virt. eigenvalues --    0.51068   0.51425   0.52210   0.54964   0.56083
 Alpha virt. eigenvalues --    0.57312   0.57836   0.58514   0.58883   0.59346
 Alpha virt. eigenvalues --    0.60235   0.60458   0.60627   0.61128   0.61475
 Alpha virt. eigenvalues --    0.62052   0.62208   0.62958   0.63370   0.63678
 Alpha virt. eigenvalues --    0.64256   0.64584   0.65225   0.65943   0.66398
 Alpha virt. eigenvalues --    0.67236   0.67821   0.68584   0.69832   0.72351
 Alpha virt. eigenvalues --    0.73105   0.73916   0.74503   0.75323   0.75735
 Alpha virt. eigenvalues --    0.76789   0.78857   0.79392   0.79944   0.81244
 Alpha virt. eigenvalues --    0.81507   0.82220   0.82494   0.82893   0.83306
 Alpha virt. eigenvalues --    0.83836   0.84371   0.84849   0.84962   0.85475
 Alpha virt. eigenvalues --    0.85929   0.86199   0.86497   0.87753   0.88144
 Alpha virt. eigenvalues --    0.90201   0.90863   0.92139   0.93484   0.95069
 Alpha virt. eigenvalues --    0.95930   0.96341   0.97027   0.98238   0.99736
 Alpha virt. eigenvalues --    1.00058   1.02339   1.03073   1.04828   1.06220
 Alpha virt. eigenvalues --    1.07132   1.08128   1.09348   1.10111   1.10912
 Alpha virt. eigenvalues --    1.11545   1.11722   1.12405   1.12789   1.13797
 Alpha virt. eigenvalues --    1.15010   1.16506   1.19783   1.20547   1.21165
 Alpha virt. eigenvalues --    1.23709   1.25684   1.27335   1.28047   1.29090
 Alpha virt. eigenvalues --    1.29452   1.31926   1.32836   1.46897   1.47757
 Alpha virt. eigenvalues --    1.51991   1.54219   1.56924   2.53502   2.55705
 Alpha virt. eigenvalues --    2.56042   2.57745   2.62083   2.62345   2.63877
 Alpha virt. eigenvalues --    2.66434   2.67087   2.68459   2.72090   2.74285
 Alpha virt. eigenvalues --    2.78349   2.83382   2.86680   2.91792   2.94352
 Alpha virt. eigenvalues --    2.94615   2.94745   2.96022   2.98124   2.98586
 Alpha virt. eigenvalues --    2.99936   3.02258   3.03925   3.04395   3.06519
 Alpha virt. eigenvalues --    3.08492   3.09280   3.09845   3.10063   3.13199
 Alpha virt. eigenvalues --    3.15129   3.16155   3.17724   3.18400   3.19425
 Alpha virt. eigenvalues --    3.21631   3.24090   3.25034   3.27683   3.28778
 Alpha virt. eigenvalues --    3.31457   3.33873   3.34342   3.35713   3.40867
 Alpha virt. eigenvalues --    3.41288   3.44151   3.45044   3.49945   3.52575
 Alpha virt. eigenvalues --    3.53526   3.55974   3.57608   3.58315   3.59545
 Alpha virt. eigenvalues --    3.62409   3.64053   3.65078   3.66259   3.66816
 Alpha virt. eigenvalues --    3.67687   3.69219   3.71259   3.72271   3.74324
 Alpha virt. eigenvalues --    3.76386   3.77559   3.78472   3.85607   3.88071
 Alpha virt. eigenvalues --    3.91066  24.26072  24.30020  24.31737  24.50532
 Alpha virt. eigenvalues --   24.50776  24.51043  24.53026  24.54608  24.56488
 Alpha virt. eigenvalues --   24.76186  24.77052  24.79110  24.80218  24.80737
 Alpha virt. eigenvalues --   24.82823  24.87459  25.04642  25.05802  25.07122
          Condensed to atoms (all electrons):
              1          2          3          4          5          6
     1  C    6.109851   0.472524   0.033415  -0.031112  -0.085555   0.012244
     2  H    0.472524   0.502485  -0.062333   0.000755  -0.004746  -0.000115
     3  C    0.033415  -0.062333   5.351810   0.500162   0.471641  -0.068731
     4  C   -0.031112   0.000755   0.500162   5.097396  -0.083954   0.454393
     5  C   -0.085555  -0.004746   0.471641  -0.083954   5.125078  -0.033338
     6  C    0.012244  -0.000115  -0.068731   0.454393  -0.033338   5.078606
     7  H   -0.011354  -0.000272  -0.034869   0.394065   0.004974  -0.036421
     8  C    0.008425   0.000606  -0.056865  -0.030206   0.463418  -0.073857
     9  H   -0.003205  -0.000138  -0.044896   0.004492   0.397451  -0.000471
    10  C    0.000378   0.000035  -0.020697  -0.089882  -0.085096   0.495374
    11  H   -0.000362   0.000014   0.006479  -0.036843  -0.000406   0.395638
    12  H   -0.000355   0.000005   0.006151  -0.000435  -0.038312   0.006001
    13  H   -0.000014  -0.000002  -0.001454   0.007662   0.007446  -0.042160
    14  C    0.148892  -0.070438  -0.094232   0.001426  -0.007242  -0.000816
    15  C   -0.024561   0.001760  -0.001489  -0.000445   0.000555   0.000007
    16  C   -0.056267   0.005437  -0.006799   0.001645  -0.009012   0.000050
    17  C    0.006851   0.001556  -0.000423   0.000020  -0.000098   0.000000
    18  H   -0.000113   0.002384   0.000149  -0.000034   0.000290   0.000000
    19  C    0.003301  -0.000261  -0.000539   0.000019  -0.000343   0.000004
    20  H    0.000135   0.000104   0.001139  -0.000176   0.000336  -0.000109
    21  C    0.001273   0.000000   0.000040  -0.000002   0.000114   0.000000
    22  H   -0.000340  -0.000039   0.000011   0.000000  -0.000002   0.000000
    23  H   -0.000350   0.000011   0.000025   0.000000   0.000016   0.000000
    24  H   -0.000012  -0.000001   0.000001   0.000000   0.000000   0.000000
    25  C    0.117772  -0.075197  -0.065193  -0.012593   0.011449  -0.001614
    26  C   -0.072160   0.004444   0.006681  -0.018442   0.000859  -0.000965
    27  C   -0.024122   0.006403  -0.000414   0.000886  -0.000284  -0.000112
    28  C    0.002669  -0.000225   0.000731  -0.001440   0.000015  -0.000040
    29  H    0.000692  -0.000021   0.001456   0.001692   0.000007   0.000121
    30  C    0.008206   0.001456  -0.000763   0.000344   0.000005   0.000004
    31  H   -0.002045   0.002832   0.000496   0.000132   0.000013   0.000004
    32  C    0.001695   0.000006  -0.000067   0.000142   0.000000   0.000004
    33  H   -0.000372   0.000011   0.000019   0.000003   0.000000  -0.000002
    34  H   -0.000409  -0.000034   0.000024  -0.000008   0.000000   0.000000
    35  H   -0.000026  -0.000002   0.000002  -0.000003   0.000000   0.000000
              7          8          9         10         11         12
     1  C   -0.011354   0.008425  -0.003205   0.000378  -0.000362  -0.000355
     2  H   -0.000272   0.000606  -0.000138   0.000035   0.000014   0.000005
     3  C   -0.034869  -0.056865  -0.044896  -0.020697   0.006479   0.006151
     4  C    0.394065  -0.030206   0.004492  -0.089882  -0.036843  -0.000435
     5  C    0.004974   0.463418   0.397451  -0.085096  -0.000406  -0.038312
     6  C   -0.036421  -0.073857  -0.000471   0.495374   0.395638   0.006001
     7  H    0.477529  -0.000440  -0.000195   0.005048  -0.003529   0.000017
     8  C   -0.000440   5.062266  -0.035153   0.480683   0.006013   0.397091
     9  H   -0.000195  -0.035153   0.489499   0.005226   0.000017  -0.003864
    10  C    0.005048   0.480683   0.005226   5.042808  -0.041256  -0.040861
    11  H   -0.003529   0.006013   0.000017  -0.041256   0.517804  -0.000213
    12  H    0.000017   0.397091  -0.003864  -0.040861  -0.000213   0.517606
    13  H   -0.000170  -0.043196  -0.000173   0.399494  -0.004468  -0.004408
    14  C    0.000430  -0.001637   0.004094   0.000129   0.000012   0.000016
    15  C   -0.000017  -0.000049   0.001576  -0.000003   0.000000  -0.000004
    16  C    0.000057  -0.000300  -0.000613   0.000033   0.000000   0.000014
    17  C    0.000000   0.000014   0.000119   0.000000   0.000000  -0.000001
    18  H    0.000001  -0.000008   0.000203   0.000001   0.000000   0.000000
    19  C    0.000000  -0.000010  -0.000259   0.000002   0.000000   0.000002
    20  H    0.000024   0.000072  -0.000058  -0.000039   0.000000   0.000005
    21  C    0.000000   0.000002  -0.000086   0.000000   0.000000   0.000000
    22  H    0.000000   0.000000   0.000007   0.000000   0.000000   0.000000
    23  H    0.000000   0.000001   0.000005   0.000000   0.000000   0.000000
    24  H    0.000000   0.000000   0.000001   0.000000   0.000000   0.000000
    25  C    0.001074  -0.000881   0.000810   0.000123   0.000058   0.000012
    26  C   -0.000993  -0.000023  -0.000041  -0.000016   0.000025   0.000000
    27  C   -0.001044   0.000009  -0.000006  -0.000004   0.000004   0.000000
    28  C    0.000261   0.000000   0.000000   0.000000  -0.000001   0.000000
    29  H    0.000045  -0.000056   0.000022   0.000000   0.000001  -0.000001
    30  C   -0.000125   0.000000   0.000000   0.000000   0.000000   0.000000
    31  H    0.000091   0.000000  -0.000001   0.000000   0.000000   0.000000
    32  C    0.000105   0.000000   0.000000   0.000000  -0.000001   0.000000
    33  H    0.000037   0.000000   0.000000   0.000000   0.000000   0.000000
    34  H    0.000011   0.000000   0.000000   0.000000   0.000000   0.000000
    35  H    0.000010   0.000000   0.000000   0.000000   0.000000   0.000000
             13         14         15         16         17         18
     1  C   -0.000014   0.148892  -0.024561  -0.056267   0.006851  -0.000113
     2  H   -0.000002  -0.070438   0.001760   0.005437   0.001556   0.002384
     3  C   -0.001454  -0.094232  -0.001489  -0.006799  -0.000423   0.000149
     4  C    0.007662   0.001426  -0.000445   0.001645   0.000020  -0.000034
     5  C    0.007446  -0.007242   0.000555  -0.009012  -0.000098   0.000290
     6  C   -0.042160  -0.000816   0.000007   0.000050   0.000000   0.000000
     7  H   -0.000170   0.000430  -0.000017   0.000057   0.000000   0.000001
     8  C   -0.043196  -0.001637  -0.000049  -0.000300   0.000014  -0.000008
     9  H   -0.000173   0.004094   0.001576  -0.000613   0.000119   0.000203
    10  C    0.399494   0.000129  -0.000003   0.000033   0.000000   0.000001
    11  H   -0.004468   0.000012   0.000000   0.000000   0.000000   0.000000
    12  H   -0.004408   0.000016  -0.000004   0.000014  -0.000001   0.000000
    13  H    0.519372   0.000002   0.000000   0.000000   0.000000   0.000000
    14  C    0.000002   5.392040   0.492553   0.447967  -0.073973  -0.050636
    15  C    0.000000   0.492553   5.091751  -0.072092   0.454391   0.400385
    16  C    0.000000   0.447967  -0.072092   5.067828  -0.026410   0.004331
    17  C    0.000000  -0.073973   0.454391  -0.026410   5.059168  -0.034786
    18  H    0.000000  -0.050636   0.400385   0.004331  -0.034786   0.509573
    19  C    0.000000  -0.058157  -0.030671   0.478828  -0.078650  -0.000280
    20  H    0.000001  -0.044529   0.004100   0.388618   0.000025  -0.000272
    21  C    0.000000  -0.018763  -0.086461  -0.091358   0.497910   0.005233
    22  H    0.000000   0.006924  -0.039664  -0.000686   0.396917  -0.004200
    23  H    0.000000   0.006020  -0.000475  -0.038887   0.005964   0.000025
    24  H    0.000000  -0.001549   0.007494   0.007893  -0.042567  -0.000184
    25  C    0.000001  -0.141705  -0.002161  -0.003252  -0.000519   0.000350
    26  C    0.000001  -0.003192   0.000516  -0.011731   0.000126  -0.000008
    27  C    0.000000  -0.004532   0.000623   0.000754  -0.000017   0.000272
    28  C    0.000000   0.001974   0.000042  -0.000102   0.000001  -0.000001
    29  H    0.000000  -0.003739  -0.000213   0.001836  -0.000056   0.000001
    30  C    0.000000  -0.000586  -0.000012   0.000056   0.000002   0.000006
    31  H    0.000000   0.000156   0.000214  -0.000025  -0.000002   0.000067
    32  C    0.000000  -0.000062  -0.000013  -0.000006   0.000000  -0.000002
    33  H    0.000000   0.000028   0.000002   0.000039   0.000000   0.000000
    34  H    0.000000   0.000021   0.000001  -0.000001   0.000000   0.000000
    35  H    0.000000  -0.000002   0.000000   0.000001   0.000000   0.000000
             19         20         21         22         23         24
     1  C    0.003301   0.000135   0.001273  -0.000340  -0.000350  -0.000012
     2  H   -0.000261   0.000104   0.000000  -0.000039   0.000011  -0.000001
     3  C   -0.000539   0.001139   0.000040   0.000011   0.000025   0.000001
     4  C    0.000019  -0.000176  -0.000002   0.000000   0.000000   0.000000
     5  C   -0.000343   0.000336   0.000114  -0.000002   0.000016   0.000000
     6  C    0.000004  -0.000109   0.000000   0.000000   0.000000   0.000000
     7  H    0.000000   0.000024   0.000000   0.000000   0.000000   0.000000
     8  C   -0.000010   0.000072   0.000002   0.000000   0.000001   0.000000
     9  H   -0.000259  -0.000058  -0.000086   0.000007   0.000005   0.000001
    10  C    0.000002  -0.000039   0.000000   0.000000   0.000000   0.000000
    11  H    0.000000   0.000000   0.000000   0.000000   0.000000   0.000000
    12  H    0.000002   0.000005   0.000000   0.000000   0.000000   0.000000
    13  H    0.000000   0.000001   0.000000   0.000000   0.000000   0.000000
    14  C   -0.058157  -0.044529  -0.018763   0.006924   0.006020  -0.001549
    15  C   -0.030671   0.004100  -0.086461  -0.039664  -0.000475   0.007494
    16  C    0.478828   0.388618  -0.091358  -0.000686  -0.038887   0.007893
    17  C   -0.078650   0.000025   0.497910   0.396917   0.005964  -0.042567
    18  H   -0.000280  -0.000272   0.005233  -0.004200   0.000025  -0.000184
    19  C    5.040776  -0.028525   0.491136   0.006237   0.397233  -0.042917
    20  H   -0.028525   0.497326   0.004555   0.000014  -0.003324  -0.000173
    21  C    0.491136   0.004555   5.034117  -0.040668  -0.039836   0.399653
    22  H    0.006237   0.000014  -0.040668   0.518068  -0.000205  -0.004585
    23  H    0.397233  -0.003324  -0.039836  -0.000205   0.514772  -0.004467
    24  H   -0.042917  -0.000173   0.399653  -0.004585  -0.004467   0.517421
    25  C    0.001899  -0.002870  -0.000088   0.000025   0.000028  -0.000003
    26  C   -0.000383  -0.000915  -0.000025   0.000000   0.000056   0.000000
    27  C    0.000029  -0.000200  -0.000009   0.000001   0.000000   0.000000
    28  C   -0.000101   0.000888   0.000001   0.000000   0.000002   0.000000
    29  H    0.001135   0.001512   0.000003   0.000001  -0.000057   0.000000
    30  C   -0.000001   0.000000   0.000000   0.000000   0.000000   0.000000
    31  H    0.000001  -0.000002  -0.000001   0.000000   0.000000   0.000000
    32  C    0.000002  -0.000015   0.000000   0.000000   0.000000   0.000000
    33  H    0.000000  -0.000033   0.000000   0.000000   0.000001   0.000000
    34  H    0.000000   0.000000   0.000000   0.000000   0.000000   0.000000
    35  H    0.000000   0.000000   0.000000   0.000000   0.000000   0.000000
             25         26         27         28         29         30
     1  C    0.117772  -0.072160  -0.024122   0.002669   0.000692   0.008206
     2  H   -0.075197   0.004444   0.006403  -0.000225  -0.000021   0.001456
     3  C   -0.065193   0.006681  -0.000414   0.000731   0.001456  -0.000763
     4  C   -0.012593  -0.018442   0.000886  -0.001440   0.001692   0.000344
     5  C    0.011449   0.000859  -0.000284   0.000015   0.000007   0.000005
     6  C   -0.001614  -0.000965  -0.000112  -0.000040   0.000121   0.000004
     7  H    0.001074  -0.000993  -0.001044   0.000261   0.000045  -0.000125
     8  C   -0.000881  -0.000023   0.000009   0.000000  -0.000056   0.000000
     9  H    0.000810  -0.000041  -0.000006   0.000000   0.000022   0.000000
    10  C    0.000123  -0.000016  -0.000004   0.000000   0.000000   0.000000
    11  H    0.000058   0.000025   0.000004  -0.000001   0.000001   0.000000
    12  H    0.000012   0.000000   0.000000   0.000000  -0.000001   0.000000
    13  H    0.000001   0.000001   0.000000   0.000000   0.000000   0.000000
    14  C   -0.141705  -0.003192  -0.004532   0.001974  -0.003739  -0.000586
    15  C   -0.002161   0.000516   0.000623   0.000042  -0.000213  -0.000012
    16  C   -0.003252  -0.011731   0.000754  -0.000102   0.001836   0.000056
    17  C   -0.000519   0.000126  -0.000017   0.000001  -0.000056   0.000002
    18  H    0.000350  -0.000008   0.000272  -0.000001   0.000001   0.000006
    19  C    0.001899  -0.000383   0.000029  -0.000101   0.001135  -0.000001
    20  H   -0.002870  -0.000915  -0.000200   0.000888   0.001512   0.000000
    21  C   -0.000088  -0.000025  -0.000009   0.000001   0.000003   0.000000
    22  H    0.000025   0.000000   0.000001   0.000000   0.000001   0.000000
    23  H    0.000028   0.000056   0.000000   0.000002  -0.000057   0.000000
    24  H   -0.000003   0.000000   0.000000   0.000000   0.000000   0.000000
    25  C    5.394322   0.451172   0.498378  -0.063684  -0.047392  -0.076767
    26  C    0.451172   5.096852  -0.063519   0.480155   0.386332  -0.029509
    27  C    0.498378  -0.063519   5.049346  -0.033899   0.004596   0.467969
    28  C   -0.063684   0.480155  -0.033899   5.046339  -0.027180  -0.077366
    29  H   -0.047392   0.386332   0.004596  -0.027180   0.497241  -0.000123
    30  C   -0.076767  -0.029509   0.467969  -0.077366  -0.000123   5.047463
    31  H   -0.045761   0.004758   0.394625  -0.000286  -0.000271  -0.033759
    32  C   -0.016135  -0.093562  -0.088994   0.490309   0.004628   0.499838
    33  H    0.005973  -0.038565  -0.000379   0.397017  -0.003387   0.005899
    34  H    0.007012  -0.000633  -0.039449   0.006268   0.000016   0.396360
    35  H   -0.001682   0.007992   0.007574  -0.042985  -0.000170  -0.042557
             31         32         33         34         35
     1  C   -0.002045   0.001695  -0.000372  -0.000409  -0.000026
     2  H    0.002832   0.000006   0.000011  -0.000034  -0.000002
     3  C    0.000496  -0.000067   0.000019   0.000024   0.000002
     4  C    0.000132   0.000142   0.000003  -0.000008  -0.000003
     5  C    0.000013   0.000000   0.000000   0.000000   0.000000
     6  C    0.000004   0.000004  -0.000002   0.000000   0.000000
     7  H    0.000091   0.000105   0.000037   0.000011   0.000010
     8  C    0.000000   0.000000   0.000000   0.000000   0.000000
     9  H   -0.000001   0.000000   0.000000   0.000000   0.000000
    10  C    0.000000   0.000000   0.000000   0.000000   0.000000
    11  H    0.000000  -0.000001   0.000000   0.000000   0.000000
    12  H    0.000000   0.000000   0.000000   0.000000   0.000000
    13  H    0.000000   0.000000   0.000000   0.000000   0.000000
    14  C    0.000156  -0.000062   0.000028   0.000021  -0.000002
    15  C    0.000214  -0.000013   0.000002   0.000001   0.000000
    16  C   -0.000025  -0.000006   0.000039  -0.000001   0.000001
    17  C   -0.000002   0.000000   0.000000   0.000000   0.000000
    18  H    0.000067  -0.000002   0.000000   0.000000   0.000000
    19  C    0.000001   0.000002   0.000000   0.000000   0.000000
    20  H   -0.000002  -0.000015  -0.000033   0.000000   0.000000
    21  C   -0.000001   0.000000   0.000000   0.000000   0.000000
    22  H    0.000000   0.000000   0.000000   0.000000   0.000000
    23  H    0.000000   0.000000   0.000001   0.000000   0.000000
    24  H    0.000000   0.000000   0.000000   0.000000   0.000000
    25  C   -0.045761  -0.016135   0.005973   0.007012  -0.001682
    26  C    0.004758  -0.093562  -0.038565  -0.000633   0.007992
    27  C    0.394625  -0.088994  -0.000379  -0.039449   0.007574
    28  C   -0.000286   0.490309   0.397017   0.006268  -0.042985
    29  H   -0.000271   0.004628  -0.003387   0.000016  -0.000170
    30  C   -0.033759   0.499838   0.005899   0.396360  -0.042557
    31  H    0.506572   0.005065   0.000025  -0.004075  -0.000178
    32  C    0.005065   5.033580  -0.039787  -0.041016   0.399459
    33  H    0.000025  -0.039787   0.514368  -0.000206  -0.004372
    34  H   -0.004075  -0.041016  -0.000206   0.517948  -0.004555
    35  H   -0.000178   0.399459  -0.004372  -0.004555   0.516959
 Mulliken atomic charges:
              1
     1  C   -0.615590
     2  H    0.210996
     3  C    0.079333
     4  C   -0.159657
     5  C   -0.135276
     6  C   -0.183700
     7  H    0.205651
     8  C   -0.175919
     9  H    0.185634
    10  C   -0.151480
    11  H    0.161015
    12  H    0.161533
    13  H    0.162067
    14  C    0.073105
    15  C   -0.197641
    16  C   -0.087846
    17  C   -0.165562
    18  H    0.167255
    19  C   -0.179508
    20  H    0.182382
    21  C   -0.156741
    22  H    0.162183
    23  H    0.163444
    24  H    0.163996
    25  C    0.067038
    26  C   -0.105288
    27  C   -0.174485
    28  C   -0.179363
    29  H    0.181330
    30  C   -0.166041
    31  H    0.171356
    32  C   -0.155174
    33  H    0.163683
    34  H    0.162726
    35  H    0.164539
 Sum of Mulliken atomic charges =   0.00000
 Mulliken charges with hydrogens summed into heavy atoms:
              1
     1  C   -0.404594
     3  C    0.079333
     4  C    0.045994
     5  C    0.050358
     6  C   -0.022685
     8  C   -0.014385
    10  C    0.010588
    14  C    0.073105
    15  C   -0.030385
    16  C    0.094536
    17  C   -0.003379
    19  C   -0.016064
    21  C    0.007255
    25  C    0.067038
    26  C    0.076042
    27  C   -0.003129
    28  C   -0.015680
    30  C   -0.003315
    32  C    0.009365
 Sum of Mulliken charges with hydrogens summed into heavy atoms =   0.00000
 Electronic spatial extent (au):  <R**2>=           4931.6581
 Charge=              0.0000 electrons
 Dipole moment (field-independent basis, Debye):
    X=              0.0947    Y=             -0.1683    Z=             -0.0185  Tot=              0.1939
 Quadrupole moment (field-independent basis, Debye-Ang):
   XX=           -107.6467   YY=           -113.2474   ZZ=           -106.8743
   XY=              2.7828   XZ=              0.8941   YZ=              2.6467
 Traceless Quadrupole moment (field-independent basis, Debye-Ang):
   XX=              1.6095   YY=             -3.9913   ZZ=              2.3818
   XY=              2.7828   XZ=              0.8941   YZ=              2.6467
 Octapole moment (field-independent basis, Debye-Ang**2):
  XXX=             27.7143  YYY=              9.9014  ZZZ=              0.7958  XYY=            -36.6778
  XXY=              1.0464  XXZ=             -2.7694  XZZ=             10.0333  YZZ=            -18.7329
  YYZ=             11.8176  XYZ=              1.4548
 Hexadecapole moment (field-independent basis, Debye-Ang**3):
 XXXX=          -3053.7861 YYYY=          -2915.3695 ZZZZ=           -664.6417 XXXY=            -63.1252
 XXXZ=             14.6127 YYYX=             66.8231 YYYZ=             73.7699 ZZZX=             -6.5116
 ZZZY=             -2.3747 XXYY=          -1017.8340 XXZZ=           -627.9513 YYZZ=           -636.5521
 XXYZ=             -7.8687 YYXZ=            -10.5754 ZZXY=             33.1644
 N-N= 1.290702693252D+03 E-N=-4.277482817465D+03  KE= 7.286028841515D+02
 PrsmSu:  requested number of processors reduced to:  10 ShMem   1 Linda.
 Calling FoFJK, ICntrl=      2127 FMM=F ISym2X=0 I1Cent= 0 IOpClX= 0 NMat=1 NMatS=1 NMatT=0.
 ***** Axes restored to original set *****
 -------------------------------------------------------------------
 Center     Atomic                   Forces (Hartrees/Bohr)
 Number     Number              X              Y              Z
 -------------------------------------------------------------------
      1        6           0.002335385   -0.003749680   -0.022760280
      2        1           0.003379980    0.003820916    0.024770274
      3        6          -0.014278107    0.003849790    0.002195049
      4        6           0.006880632    0.010013066    0.000242708
      5        6           0.000671423   -0.008561300   -0.001951541
      6        6          -0.007649473    0.009831490    0.002964028
      7        1          -0.014275838   -0.016548330   -0.002207715
      8        6          -0.005875757   -0.011147410   -0.001801928
      9        1          -0.008264583    0.016261136    0.004412050
     10        6          -0.013127261    0.003272176    0.002560743
     11        1           0.006390177   -0.014938598   -0.003683102
     12        1           0.009833882    0.013322565    0.001179422
     13        1           0.016359983   -0.001527370   -0.002431991
     14        6           0.005811950   -0.012673555   -0.003566595
     15        6           0.000420179    0.000919368   -0.005753878
     16        6          -0.004500777    0.007136873    0.007627988
     17        6           0.006278666   -0.011116709   -0.004943039
     18        1          -0.001260253   -0.000526589    0.017510909
     19        6          -0.001422167    0.001726220    0.012185331
     20        1           0.006005728   -0.025571652   -0.009638253
     21        6           0.005710033   -0.011754123    0.004305097
     22        1          -0.007034234    0.012077093    0.009061314
     23        1           0.000815261    0.001001242   -0.016680687
     24        1          -0.006297538    0.013480628   -0.007821158
     25        6           0.007333652    0.008481290   -0.007894052
     26        6          -0.003155379   -0.004848046    0.010931094
     27        6          -0.001386066   -0.002456378   -0.005343573
     28        6          -0.000116494    0.002659177    0.012281275
     29        1           0.012462204    0.019577167   -0.018336816
     30        6           0.007220954    0.007785693   -0.008722311
     31        1           0.001380085    0.005989944    0.016730665
     32        6           0.008087039    0.011128044   -0.000180298
     33        1          -0.001776970   -0.005921609   -0.015513444
     34        1          -0.007497536   -0.007353303    0.012948134
     35        1          -0.009458778   -0.013639227   -0.002675419
 -------------------------------------------------------------------
 Cartesian Forces:  Max     0.025571652 RMS     0.009553274

 GradGradGradGradGradGradGradGradGradGradGradGradGradGradGradGradGradGrad
 Berny optimization.
 Internal  Forces:  Max     0.028668940 RMS     0.007786583
 Search for a local minimum.
 Step number   1 out of a maximum of  197
 All quantities printed in internal units (Hartrees-Bohrs-Radians)
 Mixed Optimization -- RFO/linear search
 Second derivative matrix not updated -- first step.
     Eigenvalues ---    0.00634   0.00650   0.00656   0.01532   0.01538
     Eigenvalues ---    0.01540   0.02139   0.02142   0.02145   0.02171
     Eigenvalues ---    0.02173   0.02173   0.02182   0.02183   0.02184
     Eigenvalues ---    0.02201   0.02201   0.02203   0.02210   0.02212
     Eigenvalues ---    0.02212   0.02214   0.02214   0.02215   0.02216
     Eigenvalues ---    0.02218   0.02220   0.02220   0.02221   0.02226
     Eigenvalues ---    0.04557   0.06398   0.06628   0.15997   0.15998
     Eigenvalues ---    0.16000   0.16000   0.16000   0.16000   0.16000
     Eigenvalues ---    0.16000   0.16000   0.16000   0.16000   0.16000
     Eigenvalues ---    0.16000   0.16000   0.16000   0.18863   0.19342
     Eigenvalues ---    0.22000   0.22000   0.22000   0.22000   0.22000
     Eigenvalues ---    0.22000   0.23466   0.23477   0.23478   0.24968
     Eigenvalues ---    0.24999   0.25000   0.31259   0.31355   0.31474
     Eigenvalues ---    0.31521   0.33519   0.33596   0.33972   0.34058
     Eigenvalues ---    0.34076   0.34090   0.34253   0.34259   0.34259
     Eigenvalues ---    0.34265   0.34266   0.34269   0.34279   0.34280
     Eigenvalues ---    0.34294   0.42413   0.42458   0.42476   0.42567
     Eigenvalues ---    0.42575   0.42615   0.46345   0.46389   0.46429
     Eigenvalues ---    0.46729   0.46741   0.46809   0.47198   0.47217
     Eigenvalues ---    0.47225   0.47346   0.47362   0.474481000.00000
     Eigenvalues --- 1000.000001000.000001000.000001000.000001000.00000
     Eigenvalues --- 1000.000001000.000001000.000001000.000001000.00000
     Eigenvalues --- 1000.000001000.000001000.000001000.000001000.00000
     Eigenvalues --- 1000.000001000.000001000.000001000.000001000.00000
     Eigenvalues --- 1000.000001000.000001000.000001000.000001000.00000
     Eigenvalues --- 1000.000001000.000001000.000001000.000001000.00000
     Eigenvalues --- 1000.000001000.000001000.000001000.000001000.00000
     Eigenvalues --- 1000.000001000.000001000.000001000.000001000.00000
     Eigenvalues --- 1000.000001000.000001000.000001000.000001000.00000
     Eigenvalues --- 1000.000001000.000001000.000001000.000001000.00000
     Eigenvalues --- 1000.000001000.000001000.000001000.000001000.00000
     Eigenvalues --- 1000.000001000.000001000.000001000.000001000.00000
     Eigenvalues --- 1000.000001000.000001000.000001000.000001000.00000
     Eigenvalues --- 1000.000001000.000001000.000001000.000001000.00000
     Eigenvalues --- 1000.000001000.000001000.000001000.000001000.00000
     Eigenvalues --- 1000.000001000.000001000.000001000.000001000.00000
     Eigenvalues --- 1000.000001000.000001000.000001000.000001000.00000
     Eigenvalues --- 1000.000001000.00000
 RFO step:  Lambda=-4.18639543D-02 EMin= 6.34231463D-03
 Linear search not attempted -- first point.
 Maximum step size (   0.300) exceeded in Quadratic search.
    -- Step size scaled by   0.592
 Iteration  1 RMS(Cart)=  0.12554288 RMS(Int)=  0.00303428
 Iteration  2 RMS(Cart)=  0.00613386 RMS(Int)=  0.00028152
 Iteration  3 RMS(Cart)=  0.00001070 RMS(Int)=  0.00028145
 Iteration  4 RMS(Cart)=  0.00000000 RMS(Int)=  0.00028145
 Variable       Old X    -DE/DX   Delta X   Delta X   Delta X     New X
                                 (Linear)    (Quad)   (Total)
    R1        2.12221  -0.02488   0.00000  -0.04153  -0.04153   2.08068
    R2        2.85117   0.02347   0.00000   0.03894   0.03894   2.89011
    R3        2.85341   0.02287   0.00000   0.03808   0.03808   2.89148
    R4        2.85030   0.02363   0.00000   0.03915   0.03915   2.88945
    R5        2.63514  -0.00228   0.00000  -0.00253  -0.00253   2.63261
    R6        2.64358  -0.00187   0.00000  -0.00216  -0.00215   2.64143
    R7        2.62912  -0.00135   0.00000  -0.00148  -0.00148   2.62764
    R8        2.07378  -0.02189   0.00000  -0.03394  -0.03394   2.03983
    R9        2.62387  -0.00478   0.00000  -0.00554  -0.00554   2.61833
   R10        2.07233  -0.01874   0.00000  -0.02899  -0.02899   2.04334
   R11        2.62518  -0.00728   0.00000  -0.00840  -0.00840   2.61677
   R12        2.06895  -0.01666   0.00000  -0.02564  -0.02564   2.04331
   R13        2.62962  -0.00495   0.00000  -0.00585  -0.00585   2.62377
   R14        2.06878  -0.01660   0.00000  -0.02554  -0.02554   2.04324
   R15        2.06837  -0.01661   0.00000  -0.02554  -0.02554   2.04283
   R16        2.63895  -0.00433   0.00000  -0.00503  -0.00502   2.63393
   R17        2.63888  -0.00016   0.00000  -0.00008  -0.00006   2.63882
   R18        2.62783  -0.00225   0.00000  -0.00263  -0.00264   2.62519
   R19        2.07178  -0.01755   0.00000  -0.02713  -0.02713   2.04465
   R20        2.62552  -0.00464   0.00000  -0.00528  -0.00527   2.62025
   R21        2.08018  -0.02665   0.00000  -0.04173  -0.04173   2.03845
   R22        2.62755  -0.00884   0.00000  -0.01028  -0.01030   2.61725
   R23        2.06906  -0.01666   0.00000  -0.02564  -0.02564   2.04342
   R24        2.62880  -0.00538   0.00000  -0.00626  -0.00628   2.62252
   R25        2.06885  -0.01673   0.00000  -0.02575  -0.02575   2.04311
   R26        2.06861  -0.01681   0.00000  -0.02586  -0.02586   2.04275
   R27        2.63971   0.00070   0.00000   0.00096   0.00098   2.64069
   R28        2.63944  -0.00429   0.00000  -0.00498  -0.00496   2.63448
   R29        2.62533  -0.00431   0.00000  -0.00485  -0.00486   2.62047
   R30        2.08150  -0.02867   0.00000  -0.04499  -0.04499   2.03651
   R31        2.62768  -0.00232   0.00000  -0.00276  -0.00275   2.62493
   R32        2.07202  -0.01781   0.00000  -0.02755  -0.02755   2.04448
   R33        2.62858  -0.00557   0.00000  -0.00648  -0.00650   2.62208
   R34        2.06884  -0.01670   0.00000  -0.02570  -0.02570   2.04314
   R35        2.62731  -0.00919   0.00000  -0.01071  -0.01073   2.61658
   R36        2.06895  -0.01667   0.00000  -0.02566  -0.02566   2.04329
   R37        2.06862  -0.01681   0.00000  -0.02586  -0.02586   2.04276
    A1        1.82844   0.00382   0.00000   0.00019   0.00044   1.82888
    A2        1.88355  -0.00869   0.00000  -0.04843  -0.04762   1.83594
    A3        1.87593  -0.00998   0.00000  -0.05143  -0.05052   1.82541
    A4        1.94607  -0.00322   0.00000   0.01214   0.00998   1.95605
    A5        1.99383   0.00078   0.00000   0.02148   0.01957   2.01340
    A6        1.92877   0.01538   0.00000   0.05444   0.05328   1.98206
    A7        2.13603   0.00722   0.00000   0.01455   0.01454   2.15056
    A8        2.06951   0.00068   0.00000   0.00128   0.00127   2.07078
    A9        2.07658  -0.00792   0.00000  -0.01609  -0.01608   2.06050
   A10        2.10155   0.00349   0.00000   0.00800   0.00801   2.10955
   A11        2.09258  -0.00011   0.00000   0.00079   0.00078   2.09337
   A12        2.08906  -0.00338   0.00000  -0.00879  -0.00879   2.08027
   A13        2.10343   0.00471   0.00000   0.01030   0.01031   2.11374
   A14        2.08448  -0.00124   0.00000  -0.00190  -0.00190   2.08257
   A15        2.09526  -0.00346   0.00000  -0.00840  -0.00841   2.08686
   A16        2.09918   0.00113   0.00000   0.00230   0.00229   2.10147
   A17        2.08896  -0.00051   0.00000  -0.00100  -0.00099   2.08796
   A18        2.09505  -0.00062   0.00000  -0.00130  -0.00130   2.09375
   A19        2.09673   0.00080   0.00000   0.00111   0.00110   2.09783
   A20        2.09178  -0.00040   0.00000  -0.00056  -0.00055   2.09123
   A21        2.09468  -0.00040   0.00000  -0.00055  -0.00055   2.09413
   A22        2.08890  -0.00220   0.00000  -0.00564  -0.00565   2.08325
   A23        2.09778   0.00108   0.00000   0.00274   0.00275   2.10053
   A24        2.09651   0.00113   0.00000   0.00289   0.00290   2.09941
   A25        2.08443  -0.00790   0.00000  -0.01599  -0.01604   2.06839
   A26        2.11771   0.01868   0.00000   0.03791   0.03785   2.15555
   A27        2.08104  -0.01078   0.00000  -0.02196  -0.02196   2.05908
   A28        2.09888   0.00741   0.00000   0.01634   0.01635   2.11522
   A29        2.09526  -0.00440   0.00000  -0.01020  -0.01022   2.08505
   A30        2.08904  -0.00301   0.00000  -0.00614  -0.00615   2.08289
   A31        2.10138   0.00422   0.00000   0.00949   0.00944   2.11082
   A32        2.07793   0.00374   0.00000   0.01254   0.01244   2.09036
   A33        2.10372  -0.00792   0.00000  -0.02163  -0.02173   2.08199
   A34        2.09774  -0.00028   0.00000  -0.00135  -0.00137   2.09637
   A35        2.09104   0.00037   0.00000   0.00133   0.00134   2.09238
   A36        2.09440  -0.00008   0.00000   0.00002   0.00003   2.09443
   A37        2.09599   0.00227   0.00000   0.00470   0.00469   2.10068
   A38        2.09180  -0.00104   0.00000  -0.00206  -0.00207   2.08974
   A39        2.09539  -0.00123   0.00000  -0.00263  -0.00263   2.09276
   A40        2.09132  -0.00283   0.00000  -0.00714  -0.00717   2.08415
   A41        2.09593   0.00140   0.00000   0.00353   0.00354   2.09947
   A42        2.09593   0.00143   0.00000   0.00362   0.00362   2.09955
   A43        2.12462   0.02282   0.00000   0.04630   0.04628   2.17089
   A44        2.07943  -0.01096   0.00000  -0.02218  -0.02220   2.05723
   A45        2.07911  -0.01185   0.00000  -0.02408  -0.02405   2.05506
   A46        2.10230   0.00452   0.00000   0.01022   0.01020   2.11250
   A47        2.07783   0.00438   0.00000   0.01443   0.01439   2.09222
   A48        2.10296  -0.00888   0.00000  -0.02446  -0.02450   2.07846
   A49        2.10004   0.00816   0.00000   0.01793   0.01796   2.11800
   A50        2.09455  -0.00471   0.00000  -0.01080  -0.01082   2.08374
   A51        2.08859  -0.00346   0.00000  -0.00713  -0.00715   2.08144
   A52        2.09626   0.00240   0.00000   0.00500   0.00498   2.10124
   A53        2.09158  -0.00112   0.00000  -0.00227  -0.00226   2.08932
   A54        2.09534  -0.00128   0.00000  -0.00273  -0.00272   2.09262
   A55        2.09782  -0.00021   0.00000  -0.00139  -0.00140   2.09643
   A56        2.09101   0.00029   0.00000   0.00124   0.00125   2.09226
   A57        2.09435  -0.00008   0.00000   0.00014   0.00015   2.09450
[...]
 029903,0.00009591,-0.00001782,-0.00026989,-0.00013695,-0.00010777,0.00
 005850,-0.00011822,-0.00012762,0.00015979,-0.00016677,-0.00007986,0.00
 000929,0.00002045,-0.00004116,0.00002330,0.00017609,0.00012577,-0.0000
 0853,0.00002005,-0.00000133,-0.00002184,-0.00001446,0.00000715,-0.0000
 2588,-0.00000302,-0.00000228,0.00084929,0.00131680,0.00075617,0.000067
 55,-0.00018215,-0.00016014,-0.00016185,0.00024185,-0.00021834,-0.00009
 090,0.00006198,-0.00021673,-0.00001437,0.00008015,0.00012247,0.0000643
 5,-0.00023750,0.00001595,0.00003465,0.00003808,-0.00001111,-0.00014284
 ,0.00008800,0.00014308,-0.00001219,0.00001498,-0.00001256,-0.00000425,
 0.00000732,-0.00000648,0.00000439,0.00000355,0.00001327,0.03242936,0.0
 1419893,0.05551868,-0.03156840,-0.03363788,-0.02970127,-0.00751040,0.0
 4421737,-0.15154448,-0.00390007,0.04909424,-0.05922790,-0.00005491,-0.
 00106167,0.00008399,0.16964213,-0.15568175,0.71688298,-0.00246826,0.00
 055198,0.00131979,0.00051751,0.00047868,0.00094361,-0.00005680,-0.0002
 1652,0.00009501,-0.00002226,0.00000421,-0.00008116,-0.00016297,0.00001
 077,-0.00011132,-0.00006609,0.00006611,0.00001312,0.00006737,0.0000118
 6,0.00004736,-0.00000651,-0.00005612,-0.00001805,0.00000780,0.00001145
 ,0.00001113,0.00001029,0.00002193,0.00003323,-0.00000633,-0.00000512,0
 .00000050,0.00000511,0.00000495,0.00000938,0.00001210,0.00000044,0.000
 00212,0.00013636,0.00026028,0.00018113,0.00006371,0.00005000,-0.000182
 19,0.00004296,0.00001344,0.00005658,-0.00002182,-0.00002030,0.00003054
 ,-0.00002811,0.00001906,0.00002515,-0.00005258,-0.00001627,0.00002151,
 -0.00000621,0.00000244,0.00001666,0.00000459,0.00001953,-0.00001601,-0
 .00001107,0.00001281,-0.00000532,-0.00000594,-0.00000580,-0.00000389,-
 0.00000297,0.00000173,0.00000349,0.00496144,-0.00186281,0.00129351,0.0
 0543511,-0.00290378,-0.00170680,-0.14259491,-0.04081414,-0.13740706,-0
 .00043886,0.00015079,0.00086350,-0.00003540,-0.00002324,0.00014020,-0.
 00448559,-0.00161528,-0.01779055,0.13893037,0.00234907,0.00044777,0.00
 043925,-0.00001767,-0.00060404,-0.00053551,-0.00014630,0.00033938,0.00
 009517,0.00005706,-0.00002514,0.00011385,0.00015640,-0.00003025,0.0000
 6478,0.00010347,-0.00004832,0.00003048,-0.00004156,-0.00000342,-0.0001
 0254,-0.00007509,0.00003850,0.00001426,-0.00002590,-0.00004579,-0.0000
 1807,0.00003698,-0.00007562,-0.00003490,0.00001960,-0.00000654,-0.0000
 2483,0.00001669,0.00000644,-0.00000482,0.00001047,0.00000168,-0.000015
 49,0.00004797,-0.00010266,-0.00015296,-0.00004155,0.00002381,0.0000467
 2,-0.00006673,0.00004914,-0.00006579,0.00001726,-0.00000781,-0.0000244
 2,0.00003743,-0.00001395,-0.00000397,0.00001878,0.00002285,-0.00001171
 ,0.00001086,-0.00000596,-0.00000901,-0.00001072,0.00001940,-0.00001188
 ,-0.00000645,0.00000541,0.00000217,0.00000346,0.00001270,-0.00001337,-
 0.00000134,0.00000732,-0.00000802,0.01188905,0.00847010,0.02027822,-0.
 00295021,-0.00087364,0.00534403,-0.04051702,-0.07881556,-0.04447109,0.
 00012906,-0.00105884,0.00036199,0.00065090,0.00032251,0.00088844,-0.01
 762877,-0.00030895,-0.02745597,0.04963847,0.07574653,0.00108486,-0.002
 15752,-0.00013563,0.00016743,0.00095214,0.00046790,0.00028111,0.000380
 27,0.00023513,-0.00008321,-0.00028645,-0.00003712,0.00034430,0.0000169
 9,0.00010489,0.00017752,-0.00003631,0.00003361,-0.00011874,0.00008148,
 -0.00006744,0.00001003,0.00010354,0.00010009,-0.00000160,0.00003219,-0
 .00003398,-0.00003142,-0.00004569,-0.00005841,-0.00001480,0.00002338,-
 0.00000283,-0.00000473,-0.00000792,-0.00001538,-0.00001764,0.00000864,
 -0.00000131,-0.00027782,0.00009843,0.00038869,0.00005827,0.00000292,0.
 00004500,0.00012122,-0.00012750,0.00013679,0.00002998,-0.00000896,-0.0
 0001062,-0.00003608,-0.00000344,-0.00002991,-0.00001373,-0.00002554,0.
 00006478,-0.00001889,-0.00001391,-0.00003317,0.00000128,-0.00001049,0.
 00001021,0.00000247,-0.00001534,-0.00000032,0.00000012,-0.00001907,0.0
 0000799,-0.00000196,-0.00000782,0.00000036,-0.01720312,-0.00956075,-0.
 01715734,-0.00129767,0.00566517,-0.00159084,-0.13664695,-0.04383677,-0
 .26777135,0.00095023,0.00046267,0.00034262,-0.00077656,-0.00044849,-0.
 00103716,0.00134038,0.00387332,0.00360161,0.15212163,0.04528638,0.2796
 6196,-0.00149310,0.00048289,-0.00037781,-0.00009109,0.00004592,0.00047
 547,0.00016935,-0.00091635,0.00028027,-0.00012240,-0.00010409,-0.00006
 755,-0.00006164,0.00004346,0.00018685,0.00014541,0.00010889,0.00008180
 ,-0.00000640,0.00013532,0.00003381,-0.00008313,0.00008520,-0.00001865,
 0.00002315,-0.00000705,0.00001177,-0.00006681,-0.00008803,-0.00006562,
 -0.00001952,0.00000166,0.00001987,-0.00003065,0.00001112,-0.00001582,-
 0.00000122,0.00000995,0.00000605,0.00004057,-0.00010030,-0.00023844,-0
 .00004024,0.00011984,0.00005156,0.00008242,-0.00011267,0.00004116,0.00
 002286,-0.00004399,0.00012159,-0.00005101,0.00002433,-0.00003088,-0.00
 006758,0.00007594,-0.00003144,-0.00001517,-0.00000635,0.00000274,0.000
 08774,-0.00004367,-0.00004376,0.00000803,-0.00003352,-0.00000014,-0.00
 000385,-0.00001430,0.00000736,-0.00000085,-0.00000970,0.00000308,-0.01
 406834,0.01149834,-0.02923335,0.02663928,0.00183975,0.03180379,-0.0206
 8992,-0.04409872,-0.00806667,-0.11506811,-0.04943839,-0.00059247,0.003
 34901,-0.00631196,-0.00298442,-0.17155972,-0.03577532,-0.13279290,0.00
 421127,-0.00618341,-0.00214902,0.42352232,0.00053198,0.00048360,-0.000
 16491,-0.00006750,-0.00036503,-0.00012448,0.00035308,-0.00012125,-0.00
 010945,-0.00018865,-0.00003820,-0.00012622,-0.00025290,0.00012599,0.00
 008305,-0.00009575,-0.00005972,-0.00002548,-0.00004049,-0.00027027,-0.
 00009566,0.00003928,-0.00005678,-0.00005866,0.00002548,0.00000374,0.00
 000517,-0.00006130,0.00006579,0.00004965,-0.00006212,0.00001777,0.0000
 3049,-0.00003261,-0.00000484,0.00000947,-0.00001841,0.00000215,-0.0000
 0199,-0.00032744,0.00009566,-0.00003619,0.00000896,-0.00018136,0.00009
 750,0.00001958,-0.00001979,-0.00016502,-0.00001786,0.00011871,-0.00010
 356,-0.00001931,0.00001851,0.00001045,0.00009365,-0.00007531,-0.000009
 62,0.00001087,0.00000819,-0.00002059,-0.00005008,-0.00002249,0.0001554
 7,0.00001267,-0.00003301,-0.00000916,-0.00000226,-0.00001866,0.0000240
 2,0.00000320,-0.00002002,0.00000661,0.01156692,-0.00847837,0.02401589,
 -0.02547663,-0.04452471,0.01547193,-0.01696102,0.01462879,-0.03883282,
 -0.01431559,-0.22824537,0.15142402,-0.00636702,-0.00182745,0.00053760,
 -0.07034122,-0.15321027,-0.05489121,-0.00635740,-0.00266270,0.00163510
 ,0.26328476,0.68286675,-0.00203113,-0.00079051,-0.00119291,-0.00033568
 ,0.00013726,0.00111645,-0.00001895,-0.00110409,0.00081830,-0.00026620,
 -0.00028843,0.00018052,0.00042727,-0.00005800,0.00034246,0.00050976,0.
 00018638,0.00012483,-0.00010017,0.00033276,0.00002176,-0.00028916,0.00
 031162,0.00010903,0.00000407,-0.00000467,0.00000731,-0.00013727,-0.000
 31516,-0.00024999,-0.00001147,-0.00000897,0.00004273,-0.00001289,0.000
 02958,-0.00004398,0.00000330,0.00000919,0.00000258,0.00034180,-0.00039
 689,-0.00045132,0.00004967,0.00050452,-0.00004253,0.00015704,-0.000287
 58,0.00041578,0.00011291,-0.00028106,0.00040020,-0.00003980,-0.0000399
 5,-0.00009128,-0.00029304,0.00028118,-0.00005741,-0.00001762,-0.000021
 02,0.00001430,0.00025356,-0.00006956,-0.00031651,-0.00001015,0.0000066
 4,0.00001352,-0.00000421,-0.00000377,-0.00001312,-0.00000233,0.0000102
 7,-0.00001143,-0.02772754,0.02527158,-0.09675375,0.06529301,0.07113001
 ,0.05405196,-0.04085178,-0.09510745,0.04231758,-0.04467725,0.08152565,
 -0.27389360,-0.00321572,0.00015729,0.00270597,-0.08901973,0.01538503,-
 0.28347766,-0.00172554,0.00227019,0.00281988,0.17184880,-0.10461719,0.
 65242470,-0.00030597,0.00009567,-0.00066100,-0.00020159,-0.00023620,-0
 .00000480,0.00014031,-0.00014627,-0.00009437,-0.00010510,-0.00005293,0
 .00001965,-0.00010958,0.00004847,0.00003294,0.00001242,-0.00001294,-0.
 00000035,0.00003553,-0.00001095,-0.00005828,-0.00000168,-0.00000573,-0
 .00000238,0.00001140,0.00001981,0.00000698,-0.00002468,0.00000618,0.00
 000454,-0.00002869,0.00001482,0.00000723,-0.00001355,-0.00000131,0.000
 00119,-0.00000939,0.00000348,-0.00000172,-0.00006756,0.00021242,-0.000
 09760,0.00003285,0.00000749,0.00000225,0.00005897,-0.00006824,0.000058
 95,-0.00001014,-0.00001090,0.00002399,-0.00001375,0.00001245,0.0000199
 7,-0.00001518,0.00002888,0.00000345,-0.00001798,-0.00000045,-0.0000114
 0,0.00003083,-0.00002115,0.00000189,0.00000439,-0.00000248,0.00000122,
 -0.00000908,-0.00001897,0.00001548,0.00000209,-0.00001011,0.00000358,0
 .00412196,-0.00603804,-0.00154705,-0.00450313,-0.00171617,-0.01785853,
 -0.00041022,0.00015709,0.00091384,-0.14381333,-0.04098301,-0.13899505,
 -0.00257961,0.00204932,0.00228574,0.00605826,-0.00314488,-0.00186333,-
 0.00079505,0.00049233,0.00030596,0.00553468,-0.00215790,0.00252927,0.1
 3966159,-0.00032235,0.00026639,-0.00121778,-0.00018671,-0.00026483,-0.
 00010309,0.00004719,-0.00020082,-0.00002432,-0.00002899,0.00002658,0.0
 0003426,-0.00008499,0.00000759,0.00003559,0.00000283,-0.00000089,-0.00
 000284,0.00000005,-0.00000049,-0.00001680,-0.00001851,0.00000608,-0.00
 001127,0.00001117,0.00000512,0.00000805,-0.00001873,-0.00000584,-0.000
 00338,-0.00000537,0.00000754,0.00000276,-0.00001399,-0.00000179,-0.000
 00499,-0.00000848,0.00000019,0.00000178,-0.00004735,0.00019453,-0.0000
 7299,0.00003278,-0.00004905,0.00003554,0.00002932,0.00000930,0.0000166
 8,0.00001113,0.00002610,-0.00000652,-0.00002322,0.00000321,-0.00000785
 ,0.00002865,-0.00001126,0.00002366,-0.00001328,0.00000030,-0.00001651,
 0.00002334,-0.00003096,0.00005649,0.00000549,-0.00002433,-0.00000715,-
 0.00000974,-0.00001864,0.00000744,-0.00000434,-0.00001690,0.00000144,-
 0.00621257,-0.00286506,0.00201138,-0.01711591,-0.00019201,-0.02711687,
 0.00012462,-0.00122674,0.00052258,-0.04097521,-0.07924963,-0.04423565,
 0.00265400,-0.00011138,-0.00075293,-0.00329702,-0.00061952,0.00531525,
 0.00048128,-0.00023126,-0.00031400,0.01340040,0.01009990,0.02111568,0.
 04884540,0.07449958,0.00018359,0.00030623,-0.00010944,-0.00002867,-0.0
 0002214,-0.00001849,0.00002685,-0.00011462,0.00001877,-0.00002905,0.00
 002550,0.00002408,-0.00003621,0.00001757,0.00003406,0.00001426,-0.0000
 2382,-0.00001273,0.00001494,-0.00001769,-0.00003393,-0.00001334,0.0000
 0684,-0.00000332,0.00000859,0.00000049,-0.00000176,-0.00001551,-0.0000
 0877,-0.00000511,-0.00000688,0.00000955,0.00000262,-0.00001238,-0.0000
 0346,-0.00000552,-0.00001263,-0.00000014,-0.00000053,-0.00010133,0.000
 00289,-0.00002774,0.00000604,-0.00004845,0.00002872,0.00001854,-0.0000
 2112,-0.00003588,-0.00000359,0.00003438,-0.00000700,-0.00001825,0.0000
 1307,-0.00000515,0.00002374,-0.00000810,-0.00000123,0.00000608,0.00000
 663,-0.00000987,0.00000165,-0.00001155,0.00004114,0.00000885,-0.000022
 45,-0.00000826,-0.00000271,-0.00000795,0.00000918,0.00000024,-0.000014
 81,0.00000586,-0.00196378,0.00157944,0.00273757,0.00145410,0.00381901,
 0.00369776,0.00091599,0.00039217,0.00041018,-0.13883858,-0.04443193,-0
 .27066584,0.00163733,-0.00161687,0.00025150,-0.00159003,0.00574367,-0.
 00136530,0.00031734,-0.00030803,-0.00026030,-0.01687543,-0.00983169,-0
 .01580432,0.15333753,0.04560177,0.28188185,0.00013001,-0.00036913,0.00
 074537,0.00006545,0.00006687,-0.00000014,0.00005112,-0.00010125,-0.000
 00091,-0.00004105,0.00001679,-0.00001012,-0.00004356,0.00000274,0.0000
 1718,-0.00001068,0.00000894,-0.00001882,0.00001378,-0.00002866,0.00002
 101,-0.00000167,0.00000669,-0.00001383,0.00000584,0.00000141,0.0000121
 8,-0.00002995,0.00001253,-0.00000090,-0.00001290,0.00000074,0.00001787
 ,-0.00000572,-0.00000169,0.00000330,-0.00000391,-0.00000445,0.00000613
 ,-0.00029530,-0.00016216,0.00000467,0.00003872,-0.00005553,-0.00000860
 ,0.00002170,-0.00001093,0.00000024,-0.00000537,0.00004619,-0.00002562,
 -0.00000068,0.00000300,0.00000067,0.00004300,-0.00002045,0.00001889,-0
 .00001481,-0.00000730,-0.00000326,-0.00002523,-0.00001221,0.00004801,0
 .00000092,-0.00000135,-0.00000338,0.00000118,-0.00000517,0.00000904,-0
 .00000061,-0.00000383,0.00000125,0.00348367,-0.00620828,-0.00326118,-0
 .00104432,-0.00008456,-0.00014691,0.00552563,-0.01339620,0.01675506,0.
 00325825,-0.00426293,-0.00558937,-0.00072269,0.00048459,0.00045666,-0.
 05804073,-0.01003198,-0.00631419,-0.00265198,0.00273761,0.00165305,0.0
 0581005,0.01341968,-0.01619547,-0.00003856,0.00063676,-0.00070025,0.04
 701100,0.00043328,-0.00048342,0.00120167,0.00001134,-0.00001476,-0.000
 06994,0.00017510,-0.00010106,-0.00003890,-0.00004008,0.00004152,0.0000
 1677,-0.00010238,0.00004264,-0.00000806,-0.00000536,-0.00001131,-0.000
 00537,0.00001945,-0.00002738,-0.00002603,-0.00001095,-0.00000615,-0.00
 001951,0.00001403,-0.00000673,0.00001022,-0.00002454,0.00000634,-0.000
 00386,-0.00000912,0.00000590,0.00001096,-0.00001951,-0.00001161,0.0000
 0239,-0.00001449,-0.00000141,0.00000334,-0.00031968,-0.00012310,-0.000
 20718,-0.00000394,-0.00003747,0.00007818,0.00007350,-0.00008892,0.0000
 3819,-0.00000251,0.00001012,0.00002580,-0.00001364,0.00000971,-0.00000
 835,0.00000994,0.00003173,-0.00000086,-0.00000364,0.00000149,-0.000007
 16,0.00002375,-0.00003193,0.00000579,0.00001786,-0.00001750,0.00000290
 ,-0.00000133,-0.00001122,0.00001573,0.00000372,-0.00001239,0.00000580,
 -0.00665588,-0.00160355,0.00014847,-0.00020407,-0.00037901,-0.00110854
 ,0.00196290,-0.01224561,0.02657582,-0.00400843,0.00257700,-0.00045587,
 0.00052769,-0.00030236,-0.00014426,-0.01007532,-0.18438514,0.15037918,
 0.00219305,-0.00028188,-0.00174114,-0.00185741,0.00975360,-0.00915771,
 -0.00000071,0.00022620,-0.00039031,0.01533395,0.18775105,-0.00005816,-
 0.00025058,0.00004939,0.00003255,0.00002319,-0.00002389,-0.00001732,0.
 00014040,0.00000056,0.00003757,-0.00002824,-0.00001360,0.00003129,-0.0
 0002096,-0.00004301,-0.00001571,0.00001161,0.00003056,-0.00003560,0.00
 003047,-0.00000102,0.00001566,-0.00001307,0.00000411,-0.00000837,-0.00
 000230,-0.00000508,0.00003092,0.00000588,0.00001216,0.00001261,-0.0000
 0423,-0.00002119,0.00001162,0.00000357,0.00000220,0.00001315,0.0000039
 3,-0.00000390,0.00009349,-0.00000140,-0.00001634,0.00000008,0.00004017
 ,-0.00000245,-0.00001114,0.00002685,0.00002992,0.00002042,-0.00002741,
 0.00001552,0.00000238,-0.00001654,-0.00001284,-0.00001579,0.00001485,0
 .00000776,-0.00000704,-0.00000740,-0.00000024,0.00001614,0.00000145,-0
 .00002232,-0.00000772,0.00000329,0.00000144,-0.00000175,0.00000103,-0.
 00001082,-0.00000426,0.00000532,-0.00000667,-0.00292728,0.00045694,0.0
 0270972,-0.00009199,-0.00108801,0.00022184,-0.00275875,-0.00458494,0.0
 0592996,-0.00584925,-0.00088893,-0.00210961,0.00040791,-0.00015551,-0.
 00023749,-0.00620239,0.15059615,-0.25156784,0.00225164,-0.00070963,0.0
 0029311,0.00317351,0.02180937,-0.01564776,0.00009386,0.00093842,-0.001
 03348,0.01028166,-0.16462131,0.26112954,-0.00071774,0.00033230,0.00034
 712,0.00004980,0.00005238,0.00014353,-0.00000851,-0.00016941,-0.000047
 30,-0.00004638,0.00000436,0.00000375,-0.00006044,0.00003181,0.00002671
 ,0.00002172,-0.00001609,-0.00002042,0.00003554,-0.00002823,-0.00002030
 ,-0.00001163,0.00000465,-0.00000464,0.00000671,0.00000670,0.00000401,-
 0.00002011,-0.00000348,-0.00000550,-0.00001659,0.00000701,0.00001443,-
 0.00001065,-0.00000228,-0.00000091,-0.00001085,-0.00000177,0.00000156,
 -0.00005103,-0.00000919,0.00000277,-0.00001667,-0.00003486,-0.00001188
 ,0.00001707,-0.00001864,-0.00002188,-0.00001934,0.00001073,0.00000004,
 -0.00000128,0.00001044,0.00001371,0.00000520,0.00000557,-0.00000745,0.
 00000015,0.00000608,0.00000230,0.00000425,-0.00000780,0.00001056,0.000
 00634,0.00000096,0.00000019,-0.00000342,-0.00000595,0.00000832,0.00000
 330,-0.00000496,0.00000482,-0.00032009,0.00103043,-0.00005303,0.006050
 36,-0.00262136,-0.00260549,0.00405452,-0.00294379,-0.00566885,0.004969
 31,0.00179164,-0.00270131,-0.00004289,0.00010012,-0.00004195,-0.004433
 25,-0.01709599,0.00237943,-0.00048631,-0.00071020,0.00004410,-0.146105
 40,-0.14615664,-0.01454736,-0.00263151,0.00205236,0.00227296,-0.002470
 57,0.00257342,0.00148605,0.14226040,0.00051360,-0.00015823,-0.00020775
 ,-0.00006431,-0.00003084,-0.00009785,0.00009556,0.00000958,0.00002077,
 -0.00002330,0.00003335,0.00003459,-0.00000892,0.00001380,0.00001817,0.
 00001433,-0.00002666,-0.00001917,0.00002193,-0.00002727,-0.00002441,-0
 .00000833,0.00000952,0.00000611,0.00000745,0.00000261,-0.00000103,-0.0
 0001505,-0.00000696,-0.00000662,-0.00000525,0.00000858,0.00000582,-0.0
 0001088,-0.00000686,-0.00000425,-0.00001501,-0.00000067,0.00000004,-0.
 00008174,0.00003372,-0.00004375,-0.00001723,-0.00001056,0.00003266,0.0
 0002595,-0.00007009,-0.00001012,-0.00001479,0.00001238,0.00001468,-0.0
 0001147,0.00001809,0.00000090,-0.00000935,0.00001598,-0.00002680,0.000
 01969,0.00001283,-0.00000463,0.00001347,-0.00000675,0.00000259,0.00001
 296,-0.00001639,-0.00000397,-0.00000090,-0.00000436,0.00001397,0.00000
 502,-0.00001370,0.00000847,0.00090708,0.00032159,0.00017080,-0.0023029
 9,0.00098488,0.00539337,-0.00319951,0.00325549,0.00036104,-0.01383639,
 -0.01255501,-0.00552484,-0.00054738,-0.00081956,-0.00018039,-0.0017779
 4,-0.00090444,0.00391969,-0.00010850,-0.00031122,0.00004449,-0.1460225
 8,-0.27805355,-0.00611278,0.00264554,-0.00025723,-0.00065530,0.0019895
 6,-0.00027339,-0.00169239,0.16180967,0.28882134,0.00036779,-0.00023022
 ,-0.00008395,-0.00000800,0.00006994,-0.00001299,0.00004292,0.00004287,
 0.00004707,0.00000285,-0.00002334,0.00000943,0.00003017,-0.00000862,0.
 00000567,0.00000531,0.00000533,0.00000677,-0.00001904,0.00002270,-0.00
 000920,0.00000369,0.00000607,0.00000865,0.00000065,0.00000420,-0.00000
 460,0.00000183,-0.00000202,-0.00000524,0.00000332,-0.00000009,-0.00000
 093,0.00000046,-0.00000083,-0.00000216,-0.00000083,0.00000105,0.000000
 33,-0.00002575,0.00002880,0.00000798,0.00004919,-0.00000721,0.00000640
 ,0.00001574,0.00000772,0.00005097,0.00000790,0.00000121,-0.00000539,-0
 .00001067,0.00000098,-0.00000433,0.00001068,-0.00001882,0.00002347,-0.
 00001079,-0.00000722,-0.00000739,-0.00001019,-0.00000478,0.00000600,-0
 .00000134,-0.00000196,0.00000082,0.00000172,-0.00000005,-0.00000194,-0
 .00000164,0.00000209,-0.00000080,-0.00009914,0.00012251,-0.00134234,-0
 .00290684,0.00483930,-0.00279428,-0.00537138,0.00090609,-0.00338507,0.
 01681033,0.02546686,0.00711241,0.00075386,0.00106069,0.00010247,-0.017
 08644,-0.02713471,0.00474823,-0.00075022,-0.00125390,-0.00007151,-0.01
 456510,-0.00614186,-0.06988230,0.00152635,-0.00181383,0.00027190,0.002
 24070,-0.00050683,0.00034178,0.01899190,0.00456787,0.06486408||0.00000
 061,-0.00001703,0.00000851,-0.00000111,0.00000419,0.00000281,-0.000009
 47,-0.00003403,-0.00003515,-0.00005605,0.00003162,0.00003359,0.0000646
 2,0.00001769,0.00001668,0.00006521,0.00001327,0.00001581,-0.00000002,-
 0.00000150,-0.00000439,-0.00005061,0.00003235,0.00002944,-0.00000302,-
 0.00000465,-0.00000417,-0.00001442,-0.00004859,-0.00004699,-0.00000565
 ,-0.00000039,-0.00000171,0.00000598,-0.00000435,-0.00000309,0.00000109
 ,0.00000546,0.00000514,-0.00000191,0.00000094,-0.00000585,0.00000608,-
 0.00000099,-0.00000061,-0.00000089,0.00000357,-0.00000235,-0.00000096,
 0.00000290,-0.00000703,0.00000012,0.00000143,0.00000008,0.00000426,-0.
 00000282,0.00000313,0.00000025,0.00000271,0.00000013,-0.00000554,0.000
 00104,0.00000538,0.00000015,-0.00000004,0.00000064,-0.00000081,-0.0000
 0122,0.00000024,-0.00000013,0.00000020,0.00000039,-0.00001368,0.000025
 54,-0.00005287,0.00003216,0.00002385,0.00002466,-0.00001056,-0.0000475
 6,0.00001959,-0.00001961,-0.00004108,0.00002183,-0.00000149,-0.0000095
 2,0.00000118,0.00002551,0.00003232,0.00002371,0.00000151,0.00000324,-0
 .00000233,-0.00001237,0.00001085,-0.00004583,0.00000122,0.00000294,-0.
 00000155,-0.00000154,-0.00000216,-0.00000190,0.00000107,-0.00000015,0.
 00000290|||@


 LAWS OF PROGRAMMING DEFINITION:  A WORKING PROGRAM
                                  IS ONE THAT HAS
                                  ONLY UNOBSERVED
                                  BUGS.
 Job cpu time:  0 days  0 hours  6 minutes 31.0 seconds.
 File lengths (MBytes):  RWF=    350 Int=      0 D2E=      0 Chk=      7 Scr=      1
 Normal termination of Gaussian 09 at Mon Sep 06 23:36:17 2021.
