 Entering Link 1 = b:\programy\g09w\l1.exe PID=      8872.
  
 Copyright (c) 1988,1990,1992,1993,1995,1998,2003,2009, Gaussian, Inc.
                  All Rights Reserved.
  
 This is part of the Gaussian(R) 09 program.  It is based on
 the Gaussian(R) 03 system (copyright 2003, Gaussian, Inc.),
 the Gaussian(R) 98 system (copyright 1998, Gaussian, Inc.),
 the Gaussian(R) 94 system (copyright 1995, Gaussian, Inc.),
 the Gaussian 92(TM) system (copyright 1992, Gaussian, Inc.),
 the Gaussian 90(TM) system (copyright 1990, Gaussian, Inc.),
 the Gaussian 88(TM) system (copyright 1988, Gaussian, Inc.),
 the Gaussian 86(TM) system (copyright 1986, Carnegie Mellon
 University), and the Gaussian 82(TM) system (copyright 1983,
 Carnegie Mellon University). Gaussian is a federally registered
 trademark of Gaussian, Inc.
  
 This software contains proprietary and confidential information,
 including trade secrets, belonging to Gaussian, Inc.
  
 This software is provided under written license and may be
 used, copied, transmitted, or stored only in accord with that
 written license.
  
 The following legend is applicable only to US Government
 contracts under FAR:
  
                    RESTRICTED RIGHTS LEGEND
  
 Use, reproduction and disclosure by the US Government is
 subject to restrictions as set forth in subparagraphs (a)
 and (c) of the Commercial Computer Software - Restricted
 Rights clause in FAR 52.227-19.
  
 Gaussian, Inc.
 340 Quinnipiac St., Bldg. 40, Wallingford CT 06492
  
  
 ---------------------------------------------------------------
 Warning -- This program may not be used in any manner that
 competes with the business of Gaussian, Inc. or will provide
 assistance to any competitor of Gaussian, Inc.  The licensee
 of this program is prohibited from giving any competitor of
 Gaussian, Inc. access to this program.  By using this program,
 the user acknowledges that Gaussian, Inc. is engaged in the
 business of creating and licensing software in the field of
 computational chemistry and represents and warrants to the
 licensee that it is not a competitor of Gaussian, Inc. and that
 it will not use this program in any manner prohibited above.
 ---------------------------------------------------------------
  

 Cite this work as:
 Gaussian 09, Revision A.02,
 M. J. Frisch, G. W. Trucks, H. B. Schlegel, G. E. Scuseria, 
 M. A. Robb, J. R. Cheeseman, G. Scalmani, V. Barone, B. Mennucci, 
 G. A. Petersson, H. Nakatsuji, M. Caricato, X. Li, H. P. Hratchian, 
 A. F. Izmaylov, J. Bloino, G. Zheng, J. L. Sonnenberg, M. Hada, 
 M. Ehara, K. Toyota, R. Fukuda, J. Hasegawa, M. Ishida, T. Nakajima, 
 Y. Honda, O. Kitao, H. Nakai, T. Vreven, J. A. Montgomery, Jr., 
 J. E. Peralta, F. Ogliaro, M. Bearpark, J. J. Heyd, E. Brothers, 
 K. N. Kudin, V. N. Staroverov, R. Kobayashi, J. Normand, 
 K. Raghavachari, A. Rendell, J. C. Burant, S. S. Iyengar, J. Tomasi, 
 M. Cossi, N. Rega, J. M. Millam, M. Klene, J. E. Knox, J. B. Cross, 
 V. Bakken, C. Adamo, J. Jaramillo, R. Gomperts, R. E. Stratmann, 
 O. Yazyev, A. J. Austin, R. Cammi, C. Pomelli, J. W. Ochterski, 
 R. L. Martin, K. Morokuma, V. G. Zakrzewski, G. A. Voth, 
 P. Salvador, J. J. Dannenberg, S. Dapprich, A. D. Daniels, 
 O. Farkas, J. B. Foresman, J. V. Ortiz, J. Cioslowski, 
 and D. J. Fox, Gaussian, Inc., Wallingford CT, 2009.
 
 ******************************************
 Gaussian 09:  IA32W-G09RevA.02 11-Jun-2009
                07-Sep-2021 
 ******************************************
 %nprocshared=12
 Will use up to   12 processors via shared memory.
 ----------------------------------------------
 # opt freq=noraman hf/6-311g geom=connectivity
 ----------------------------------------------
 1/18=20,19=15,38=1,57=2/1,3;
 2/9=110,12=2,17=6,18=5,40=1/2;
 3/5=4,6=6,11=9,16=1,25=1,30=1,71=1/1,2,3;
 4//1;
 5/5=2,38=5/2;
 6/7=2,8=2,9=2,10=2,28=1/1;
 7//1,2,3,16;
 1/18=20,19=15/3(2);
 2/9=110/2;
 99//99;
 2/9=110/2;
 3/5=4,6=6,11=9,16=1,25=1,30=1,71=1/1,2,3;
 4/5=5,16=3/1;
 5/5=2,38=5/2;
 7//1,2,3,16;
 1/18=20,19=15/3(-5);
 2/9=110/2;
 6/7=2,8=2,9=2,10=2,19=2,28=1/1;
 99/9=1/99;
 -----
 M0001
 -----
 Symbolic Z-matrix:
 Charge =  0 Multiplicity = 1
 C                    -0.06561  -0.77581   0.04375 
 H                    -0.14006  -1.89496   0.09637 
 C                    -1.46481  -0.22723  -0.08997 
 C                    -2.53998  -1.11257  -0.19151 
 C                    -1.70927   1.14756  -0.12327 
 C                    -3.83734  -0.62851  -0.32104 
 H                    -2.36373  -2.1945   -0.17013 
 C                    -3.00631   1.62877  -0.2514 
 H                    -0.85753   1.84301  -0.06291 
 C                    -4.07313   0.74128  -0.34948 
 H                    -4.67432  -1.32974  -0.4011 
 H                    -3.18696   2.70824  -0.27677 
 H                    -5.09497   1.12056  -0.45064 
 C                     0.61957  -0.3787    1.3277 
 C                     2.00776  -0.50296   1.43646 
 C                    -0.11062   0.04283   2.4401 
 C                     2.65105  -0.20273   2.6306 
 H                     2.5907   -0.83633   0.56915 
 C                     0.53515   0.3418    3.63471 
 H                    -1.20111   0.14171   2.37055 
 C                     1.91638   0.2211    3.73307 
 H                     3.73901  -0.30143   2.70232 
 H                    -0.04907   0.67231   4.49974 
 H                     2.42369   0.45763   4.67366 
 C                     0.74977  -0.42011  -1.17594 
 C                     1.15126  -1.43066  -2.05195 
 C                     1.10884   0.90151  -1.44906 
 C                     1.90365  -1.12209  -3.18014 
 H                     0.87293  -2.47226  -1.85279 
 C                     1.86225   1.20695  -2.57573 
 H                     0.77167   1.69825  -0.76801 
 C                     2.26217   0.19523  -3.44276 
 H                     2.21371  -1.92025  -3.86246 
 H                     2.13937   2.24606  -2.78076 
 H                     2.85585   0.43603  -4.33036 
 

 GradGradGradGradGradGradGradGradGradGradGradGradGradGradGradGradGradGrad
 Berny optimization.
 Initialization pass.
                           ----------------------------
                           !    Initial Parameters    !
                           ! (Angstroms and Degrees)  !
 --------------------------                            --------------------------
 ! Name  Definition              Value          Derivative Info.                !
 --------------------------------------------------------------------------------
 ! R1    R(1,2)                  1.1229         estimate D2E/DX2                !
 ! R2    R(1,3)                  1.5088         estimate D2E/DX2                !
 ! R3    R(1,14)                 1.5085         estimate D2E/DX2                !
 ! R4    R(1,25)                 1.5096         estimate D2E/DX2                !
 ! R5    R(3,4)                  1.3965         estimate D2E/DX2                !
 ! R6    R(3,5)                  1.3968         estimate D2E/DX2                !
 ! R7    R(4,6)                  1.3908         estimate D2E/DX2                !
 ! R8    R(4,7)                  1.0964         estimate D2E/DX2                !
 ! R9    R(5,8)                  1.3893         estimate D2E/DX2                !
 ! R10   R(5,9)                  1.1012         estimate D2E/DX2                !
 ! R11   R(6,10)                 1.3902         estimate D2E/DX2                !
 ! R12   R(6,11)                 1.0948         estimate D2E/DX2                !
 ! R13   R(8,10)                 1.3912         estimate D2E/DX2                !
 ! R14   R(8,12)                 1.0948         estimate D2E/DX2                !
 ! R15   R(10,13)                1.0947         estimate D2E/DX2                !
 ! R16   R(14,15)                1.398          estimate D2E/DX2                !
 ! R17   R(14,16)                1.3958         estimate D2E/DX2                !
 ! R18   R(15,17)                1.3892         estimate D2E/DX2                !
 ! R19   R(15,18)                1.0969         estimate D2E/DX2                !
 ! R20   R(16,19)                1.3905         estimate D2E/DX2                !
 ! R21   R(16,20)                1.0972         estimate D2E/DX2                !
 ! R22   R(17,21)                1.391          estimate D2E/DX2                !
 ! R23   R(17,22)                1.0948         estimate D2E/DX2                !
 ! R24   R(19,21)                1.39           estimate D2E/DX2                !
 ! R25   R(19,23)                1.0949         estimate D2E/DX2                !
 ! R26   R(21,24)                1.0945         estimate D2E/DX2                !
 ! R27   R(25,26)                1.3964         estimate D2E/DX2                !
 ! R28   R(25,27)                1.3965         estimate D2E/DX2                !
 ! R29   R(26,28)                1.3907         estimate D2E/DX2                !
 ! R30   R(26,29)                1.0964         estimate D2E/DX2                !
 ! R31   R(27,30)                1.3894         estimate D2E/DX2                !
 ! R32   R(27,31)                1.101          estimate D2E/DX2                !
 ! R33   R(28,32)                1.3903         estimate D2E/DX2                !
 ! R34   R(28,33)                1.0949         estimate D2E/DX2                !
 ! R35   R(30,32)                1.3911         estimate D2E/DX2                !
 ! R36   R(30,34)                1.0948         estimate D2E/DX2                !
 ! R37   R(32,35)                1.0947         estimate D2E/DX2                !
 ! A1    A(2,1,3)              107.7611         estimate D2E/DX2                !
 ! A2    A(2,1,14)             104.6313         estimate D2E/DX2                !
 ! A3    A(2,1,25)             107.9696         estimate D2E/DX2                !
 ! A4    A(3,1,14)             113.636          estimate D2E/DX2                !
 ! A5    A(3,1,25)             110.0964         estimate D2E/DX2                !
 ! A6    A(14,1,25)            112.3524         estimate D2E/DX2                !
 ! A7    A(1,3,4)              119.3356         estimate D2E/DX2                !
 ! A8    A(1,3,5)              121.485          estimate D2E/DX2                !
 ! A9    A(4,3,5)              119.178          estimate D2E/DX2                !
 ! A10   A(3,4,6)              120.2869         estimate D2E/DX2                !
 ! A11   A(3,4,7)              120.028          estimate D2E/DX2                !
 ! A12   A(6,4,7)              119.6851         estimate D2E/DX2                !
 ! A13   A(3,5,8)              120.4306         estimate D2E/DX2                !
 ! A14   A(3,5,9)              119.0065         estimate D2E/DX2                !
 ! A15   A(8,5,9)              120.5555         estimate D2E/DX2                !
 ! A16   A(4,6,10)             120.202          estimate D2E/DX2                !
 ! A17   A(4,6,11)             119.8028         estimate D2E/DX2                !
 ! A18   A(10,6,11)            119.9952         estimate D2E/DX2                !
 ! A19   A(5,8,10)             120.0961         estimate D2E/DX2                !
 ! A20   A(5,8,12)             119.8474         estimate D2E/DX2                !
 ! A21   A(10,8,12)            120.0565         estimate D2E/DX2                !
 ! A22   A(6,10,8)             119.806          estimate D2E/DX2                !
 ! A23   A(6,10,13)            120.1062         estimate D2E/DX2                !
 ! A24   A(8,10,13)            120.0877         estimate D2E/DX2                !
 ! A25   A(1,14,15)            119.5935         estimate D2E/DX2                !
 ! A26   A(1,14,16)            121.3452         estimate D2E/DX2                !
 ! A27   A(15,14,16)           118.9669         estimate D2E/DX2                !
 ! A28   A(14,15,17)           120.4962         estimate D2E/DX2                !
 ! A29   A(14,15,18)           119.5525         estimate D2E/DX2                !
 ! A30   A(17,15,18)           119.9508         estimate D2E/DX2                !
 ! A31   A(14,16,19)           120.4419         estimate D2E/DX2                !
 ! A32   A(14,16,20)           119.7781         estimate D2E/DX2                !
 ! A33   A(19,16,20)           119.7798         estimate D2E/DX2                !
 ! A34   A(15,17,21)           120.1704         estimate D2E/DX2                !
 ! A35   A(15,17,22)           119.8018         estimate D2E/DX2                !
 ! A36   A(21,17,22)           120.0277         estimate D2E/DX2                !
 ! A37   A(16,19,21)           120.2396         estimate D2E/DX2                !
 ! A38   A(16,19,23)           119.7254         estimate D2E/DX2                !
 ! A39   A(21,19,23)           120.035          estimate D2E/DX2                !
 ! A40   A(17,21,19)           119.6836         estimate D2E/DX2                !
 ! A41   A(17,21,24)           120.1429         estimate D2E/DX2                !
 ! A42   A(19,21,24)           120.1735         estimate D2E/DX2                !
 ! A43   A(1,25,26)            119.4487         estimate D2E/DX2                !
 ! A44   A(1,25,27)            121.3238         estimate D2E/DX2                !
 ! A45   A(26,25,27)           119.2274         estimate D2E/DX2                !
 ! A46   A(25,26,28)           120.2591         estimate D2E/DX2                !
 ! A47   A(25,26,29)           120.039          estimate D2E/DX2                !
 ! A48   A(28,26,29)           119.7019         estimate D2E/DX2                !
 ! A49   A(25,27,30)           120.4032         estimate D2E/DX2                !
 ! A50   A(25,27,31)           119.0202         estimate D2E/DX2                !
 ! A51   A(30,27,31)           120.5685         estimate D2E/DX2                !
 ! A52   A(26,28,32)           120.1976         estimate D2E/DX2                !
 ! A53   A(26,28,33)           119.8027         estimate D2E/DX2                !
 ! A54   A(32,28,33)           119.9997         estimate D2E/DX2                !
 ! A55   A(27,30,32)           120.0944         estimate D2E/DX2                !
 ! A56   A(27,30,34)           119.8536         estimate D2E/DX2                !
 ! A57   A(32,30,34)           120.0519         estimate D2E/DX2                !
 ! A58   A(28,32,30)           119.8174         estimate D2E/DX2                !
 ! A59   A(28,32,35)           120.0968         estimate D2E/DX2                !
 ! A60   A(30,32,35)           120.0857         estimate D2E/DX2                !
 ! D1    D(2,1,3,4)             -3.1309         estimate D2E/DX2                !
 ! D2    D(2,1,3,5)            177.2884         estimate D2E/DX2                !
 ! D3    D(14,1,3,4)          -118.58           estimate D2E/DX2                !
 ! D4    D(14,1,3,5)            61.8392         estimate D2E/DX2                !
 ! D5    D(25,1,3,4)           114.3951         estimate D2E/DX2                !
 ! D6    D(25,1,3,5)           -65.1856         estimate D2E/DX2                !
 ! D7    D(2,1,14,15)           79.6507         estimate D2E/DX2                !
 ! D8    D(2,1,14,16)          -96.7812         estimate D2E/DX2                !
 ! D9    D(3,1,14,15)         -163.0658         estimate D2E/DX2                !
 ! D10   D(3,1,14,16)           20.5023         estimate D2E/DX2                !
 ! D11   D(25,1,14,15)         -37.2281         estimate D2E/DX2                !
 ! D12   D(25,1,14,16)         146.34           estimate D2E/DX2                !
 ! D13   D(2,1,25,26)            5.4805         estimate D2E/DX2                !
 ! D14   D(2,1,25,27)         -174.6866         estimate D2E/DX2                !
 ! D15   D(3,1,25,26)         -111.9162         estimate D2E/DX2                !
 ! D16   D(3,1,25,27)           67.9167         estimate D2E/DX2                !
 ! D17   D(14,1,25,26)         120.3461         estimate D2E/DX2                !
 ! D18   D(14,1,25,27)         -59.821          estimate D2E/DX2                !
 ! D19   D(1,3,4,6)           -179.7357         estimate D2E/DX2                !
 ! D20   D(1,3,4,7)              0.216          estimate D2E/DX2                !
 ! D21   D(5,3,4,6)             -0.1452         estimate D2E/DX2                !
 ! D22   D(5,3,4,7)            179.8065         estimate D2E/DX2                !
 ! D23   D(1,3,5,8)            179.7913         estimate D2E/DX2                !
 ! D24   D(1,3,5,9)              0.7722         estimate D2E/DX2                !
 ! D25   D(4,3,5,8)              0.2099         estimate D2E/DX2                !
 ! D26   D(4,3,5,9)           -178.8091         estimate D2E/DX2                !
 ! D27   D(3,4,6,10)            -0.0421         estimate D2E/DX2                !
 ! D28   D(3,4,6,11)           179.9359         estimate D2E/DX2                !
 ! D29   D(7,4,6,10)          -179.994          estimate D2E/DX2                !
 ! D30   D(7,4,6,11)            -0.016          estimate D2E/DX2                !
 ! D31   D(3,5,8,10)            -0.0872         estimate D2E/DX2                !
 ! D32   D(3,5,8,12)          -179.9816         estimate D2E/DX2                !
 ! D33   D(9,5,8,10)           178.9166         estimate D2E/DX2                !
 ! D34   D(9,5,8,12)            -0.9779         estimate D2E/DX2                !
 ! D35   D(4,6,10,8)             0.1666         estimate D2E/DX2                !
 ! D36   D(4,6,10,13)         -179.9488         estimate D2E/DX2                !
 ! D37   D(11,6,10,8)         -179.8114         estimate D2E/DX2                !
 ! D38   D(11,6,10,13)           0.0732         estimate D2E/DX2                !
 ! D39   D(5,8,10,6)            -0.1021         estimate D2E/DX2                !
 ! D40   D(5,8,10,13)         -179.9867         estimate D2E/DX2                !
 ! D41   D(12,8,10,6)          179.7921         estimate D2E/DX2                !
 ! D42   D(12,8,10,13)          -0.0925         estimate D2E/DX2                !
 ! D43   D(1,14,15,17)        -176.9504         estimate D2E/DX2                !
 ! D44   D(1,14,15,18)           3.3024         estimate D2E/DX2                !
 ! D45   D(16,14,15,17)         -0.4333         estimate D2E/DX2                !
 ! D46   D(16,14,15,18)        179.8195         estimate D2E/DX2                !
 ! D47   D(1,14,16,19)         176.8351         estimate D2E/DX2                !
 ! D48   D(1,14,16,20)          -3.3414         estimate D2E/DX2                !
 ! D49   D(15,14,16,19)          0.3813         estimate D2E/DX2                !
 ! D50   D(15,14,16,20)       -179.7952         estimate D2E/DX2                !
 ! D51   D(14,15,17,21)          0.2193         estimate D2E/DX2                !
 ! D52   D(14,15,17,22)       -179.8335         estimate D2E/DX2                !
 ! D53   D(18,15,17,21)        179.9654         estimate D2E/DX2                !
 ! D54   D(18,15,17,22)         -0.0874         estimate D2E/DX2                !
 ! D55   D(14,16,19,21)         -0.1155         estimate D2E/DX2                !
 ! D56   D(14,16,19,23)        179.9456         estimate D2E/DX2                !
 ! D57   D(20,16,19,21)       -179.939          estimate D2E/DX2                !
 ! D58   D(20,16,19,23)          0.1221         estimate D2E/DX2                !
 ! D59   D(15,17,21,19)          0.0526         estimate D2E/DX2                !
 ! D60   D(15,17,21,24)       -179.9934         estimate D2E/DX2                !
 ! D61   D(22,17,21,19)       -179.8945         estimate D2E/DX2                !
 ! D62   D(22,17,21,24)          0.0595         estimate D2E/DX2                !
 ! D63   D(16,19,21,17)         -0.1044         estimate D2E/DX2                !
 ! D64   D(16,19,21,24)        179.9417         estimate D2E/DX2                !
 ! D65   D(23,19,21,17)        179.8343         estimate D2E/DX2                !
 ! D66   D(23,19,21,24)         -0.1197         estimate D2E/DX2                !
 ! D67   D(1,25,26,28)        -179.9538         estimate D2E/DX2                !
 ! D68   D(1,25,26,29)           0.1094         estimate D2E/DX2                !
 ! D69   D(27,25,26,28)          0.2098         estimate D2E/DX2                !
 ! D70   D(27,25,26,29)       -179.727          estimate D2E/DX2                !
 ! D71   D(1,25,27,30)         179.859          estimate D2E/DX2                !
 ! D72   D(1,25,27,31)          -1.1675         estimate D2E/DX2                !
 ! D73   D(26,25,27,30)         -0.3077         estimate D2E/DX2                !
 ! D74   D(26,25,27,31)        178.6658         estimate D2E/DX2                !
 ! D75   D(25,26,28,32)          0.054          estimate D2E/DX2                !
 ! D76   D(25,26,28,33)       -179.9466         estimate D2E/DX2                !
 ! D77   D(29,26,28,32)        179.991          estimate D2E/DX2                !
 ! D78   D(29,26,28,33)         -0.0096         estimate D2E/DX2                !
 ! D79   D(25,27,30,32)          0.1419         estimate D2E/DX2                !
 ! D80   D(25,27,30,34)       -179.9534         estimate D2E/DX2                !
 ! D81   D(31,27,30,32)       -178.8156         estimate D2E/DX2                !
 ! D82   D(31,27,30,34)          1.0891         estimate D2E/DX2                !
 ! D83   D(26,28,32,30)         -0.2223         estimate D2E/DX2                !
 ! D84   D(26,28,32,35)        179.8964         estimate D2E/DX2                !
 ! D85   D(33,28,32,30)        179.7783         estimate D2E/DX2                !
 ! D86   D(33,28,32,35)         -0.103          estimate D2E/DX2                !
 ! D87   D(27,30,32,28)          0.1246         estimate D2E/DX2                !
 ! D88   D(27,30,32,35)       -179.9941         estimate D2E/DX2                !
 ! D89   D(34,30,32,28)       -179.78           estimate D2E/DX2                !
 ! D90   D(34,30,32,35)          0.1013         estimate D2E/DX2                !
 --------------------------------------------------------------------------------
 Trust Radius=3.00D-01 FncErr=1.00D-07 GrdErr=1.00D-07
 Number of steps in this run= 197 maximum allowed number of steps= 210.
 GradGradGradGradGradGradGradGradGradGradGradGradGradGradGradGradGradGrad

                          Input orientation:                          
 ---------------------------------------------------------------------
 Center     Atomic      Atomic             Coordinates (Angstroms)
 Number     Number       Type             X           Y           Z
 ---------------------------------------------------------------------
      1          6           0       -0.065612   -0.775808    0.043752
      2          1           0       -0.140056   -1.894961    0.096371
      3          6           0       -1.464805   -0.227234   -0.089968
      4          6           0       -2.539980   -1.112566   -0.191509
      5          6           0       -1.709266    1.147565   -0.123274
      6          6           0       -3.837343   -0.628508   -0.321038
      7          1           0       -2.363726   -2.194498   -0.170130
      8          6           0       -3.006308    1.628766   -0.251402
      9          1           0       -0.857529    1.843015   -0.062913
     10          6           0       -4.073126    0.741280   -0.349476
     11          1           0       -4.674318   -1.329744   -0.401097
     12          1           0       -3.186956    2.708235   -0.276773
     13          1           0       -5.094974    1.120561   -0.450640
     14          6           0        0.619572   -0.378702    1.327698
     15          6           0        2.007760   -0.502961    1.436461
     16          6           0       -0.110617    0.042834    2.440095
     17          6           0        2.651046   -0.202726    2.630598
     18          1           0        2.590702   -0.836329    0.569149
     19          6           0        0.535154    0.341803    3.634710
     20          1           0       -1.201114    0.141707    2.370549
     21          6           0        1.916381    0.221101    3.733074
     22          1           0        3.739009   -0.301430    2.702323
     23          1           0       -0.049072    0.672314    4.499740
     24          1           0        2.423686    0.457633    4.673657
     25          6           0        0.749766   -0.420108   -1.175938
     26          6           0        1.151265   -1.430659   -2.051948
     27          6           0        1.108838    0.901508   -1.449055
     28          6           0        1.903655   -1.122093   -3.180143
     29          1           0        0.872932   -2.472256   -1.852789
     30          6           0        1.862254    1.206946   -2.575731
     31          1           0        0.771675    1.698254   -0.768011
     32          6           0        2.262172    0.195228   -3.442763
     33          1           0        2.213714   -1.920251   -3.862464
     34          1           0        2.139371    2.246055   -2.780757
     35          1           0        2.855854    0.436027   -4.330359
 ---------------------------------------------------------------------
                    Distance matrix (angstroms):
                    1          2          3          4          5
     1  C    0.000000
     2  H    1.122860   0.000000
     3  C    1.508826   2.137989   0.000000
     4  C    2.508237   2.540601   1.396469   0.000000
     5  C    2.535519   3.430398   1.396761   2.408928   0.000000
     6  C    3.792192   3.930403   2.417303   1.390770   2.778895
     7  H    2.709198   2.259525   2.164397   1.096403   3.405862
     8  C    3.810090   4.555547   2.418063   2.781358   1.389349
     9  H    2.738018   3.809541   2.157648   3.403327   1.101249
    10  C    4.303063   4.755796   2.794406   2.410858   2.409164
    11  H    4.663143   4.596355   3.407830   2.155572   3.873730
    12  H    4.688718   5.532834   3.408471   3.876128   2.154721
    13  H    5.397696   5.826132   3.889057   3.403234   3.401606
    14  C    1.508539   2.095768   2.525341   3.581804   3.139792
    15  C    2.512561   2.889052   3.803252   4.868660   4.355834
    16  C    2.532718   3.041211   2.882357   3.763256   3.216670
    17  C    3.794789   4.132338   4.933792   5.978197   5.330986
    18  H    2.708452   2.966692   4.153621   5.194113   4.785917
    19  C    3.808538   4.240150   4.265779   5.119726   4.450743
    20  H    2.746850   3.231988   2.501958   3.151175   2.736626
    21  C    4.305024   4.683190   5.123385   6.086064   5.373553
    22  H    4.665638   4.937355   5.906105   6.961172   6.306130
    23  H    4.685420   5.097925   4.886604   5.603412   4.935013
    24  H    5.399445   5.749698   6.187207   7.125542   6.369289
    25  C    1.509638   2.141435   2.474036   3.503003   3.100409
    26  C    2.510294   2.549188   3.484453   4.145806   4.306931
    27  C    2.534008   3.430498   3.121669   4.353366   3.124092
    28  C    3.793603   3.938225   4.657947   5.355177   5.248713
    29  H    2.712134   2.271263   3.689536   4.031945   4.770961
    30  C    3.809156   4.557544   4.393770   5.517637   4.332878
    31  H    2.735140   3.806521   3.028050   4.381794   2.621833
    32  C    4.303171   4.760784   5.030911   5.944884   5.262915
    33  H    4.665147   4.605784   5.534396   6.060188   6.227585
    34  H    4.687372   5.533685   5.132990   6.315131   4.804259
    35  H    5.397810   5.831374   6.090068   6.974472   6.248694
                    6          7          8          9         10
     6  C    0.000000
     7  H    2.155608   0.000000
     8  C    2.406399   3.877740   0.000000
     9  H    3.879993   4.310642   2.167644   0.000000
    10  C    1.390224   3.401912   1.391168   3.411158   0.000000
    11  H    1.094837   2.477898   3.399625   4.974801   2.157137
    12  H    3.399826   4.972512   1.094774   2.494107   2.158587
    13  H    2.158165   4.304419   2.158818   4.316041   1.094652
    14  C    4.758658   3.800089   4.435143   3.008596   5.107709
    15  C    6.104900   4.955031   5.703861   3.995198   6.458706
    16  C    4.686475   4.110405   4.259620   3.172314   4.896020
    17  C    7.140913   6.079405   6.608021   4.873413   7.415286
    18  H    6.492718   5.190136   6.170618   4.412333   6.909365
    19  C    5.975632   5.414161   5.412957   4.226774   6.104881
    20  H    3.845461   3.642055   3.513502   2.989019   4.000809
    21  C    7.089641   6.276101   6.487715   4.973399   7.267186
    22  H    8.163872   7.005574   7.612454   5.776966   8.451638
    23  H    6.267618   5.948438   5.677446   4.779324   6.301798
    24  H    8.082522   7.308583   7.423786   5.926276   8.217110
    25  C    4.670744   3.722088   4.377299   2.990643   5.029130
    26  C    5.340946   4.059538   5.466943   4.325327   5.908468
    27  C    5.298876   4.824894   4.347150   2.583491   5.299764
    28  C    6.432508   5.331113   6.344485   5.112057   6.870717
    29  H    5.285108   3.658476   5.867822   4.981939   6.086893
    30  C    6.398276   5.934277   5.411408   3.757135   6.356241
    31  H    5.182340   5.034055   3.813774   1.781130   4.956114
    32  C    6.901289   6.149785   6.324295   4.885809   7.071252
    33  H    7.129207   5.887402   7.272134   6.166952   7.677838
    34  H    7.073503   6.841913   5.766862   4.065776   6.838903
    35  H    7.874438   7.174342   7.240543   5.829230   7.996961
                   11         12         13         14         15
    11  H    0.000000
    12  H    4.304995   0.000000
    13  H    2.486645   2.488267   0.000000
    14  C    5.649645   5.156856   6.169791   0.000000
    15  C    6.979281   6.342872   7.526342   1.397976   0.000000
    16  C    5.548307   4.893832   5.861883   1.395814   2.406802
    17  C    8.007640   7.142041   8.440731   2.419793   1.389215
    18  H    7.346111   6.830874   7.996187   2.161058   1.096899
    19  C    6.798560   5.895236   6.999636   2.418380   2.777498
    20  H    4.680847   4.187952   4.907078   2.161773   3.403674
    21  C    7.933083   6.950450   8.214110   2.797733   2.409782
    22  H    9.026224   8.118010   9.486965   3.409758   2.154122
    23  H    7.029889   6.066824   7.082960   3.407869   3.872403
    24  H    8.906712   7.813531   9.122947   3.892265   3.402230
    25  C    5.554143   5.108111   6.087750   2.507361   2.900698
    26  C    6.055816   6.253147   6.934581   3.579290   3.709880
    27  C    6.286621   4.805451   6.287456   3.096559   3.332687
    28  C    7.143944   7.001092   7.839674   4.745748   4.659098
    29  H    5.846771   6.767866   7.105650   3.816105   3.998141
    30  C    7.341022   5.747486   7.275060   4.392641   4.363788
    31  H    6.241974   4.114867   5.903560   2.954467   3.351560
    32  C    7.726071   6.784666   7.996039   5.077877   4.935486
    33  H    7.731413   7.965382   8.619977   5.644063   5.489057
    34  H    8.054532   5.903669   7.683224   5.106715   5.035806
    35  H    8.675284   7.622994   8.873358   6.138269   5.903997
                   16         17         18         19         20
    16  C    0.000000
    17  C    2.779095   0.000000
    18  H    3.401542   2.157468   0.000000
    19  C    1.390506   2.404527   3.874395   0.000000
    20  H    1.097177   3.876260   4.310391   2.157028   0.000000
    21  C    2.410870   1.390977   3.403424   1.389975   3.403169
    22  H    3.873874   1.094784   2.480959   3.398203   4.971043
    23  H    2.154569   3.398532   4.969302   1.094913   2.478346
    24  H    3.403461   2.159134   4.306881   2.158560   4.306193
    25  C    3.745700   4.260497   2.570528   4.875336   4.086458
    26  C    4.893054   5.067879   3.048828   5.988263   5.250190
    27  C    4.165319   4.499034   3.047810   5.146558   4.527975
    28  C    6.082879   5.930307   3.822418   7.103380   6.484363
    29  H    5.071676   5.330405   3.390099   6.176218   5.382477
    30  C    5.514153   5.451168   3.820455   6.409310   5.914782
    31  H    3.716288   4.323922   3.394255   4.613010   4.020609
    32  C    6.345185   6.098795   4.155416   7.286612   6.766965
    33  H    6.998462   6.730603   4.577794   8.008875   7.400215
    34  H    6.097042   5.961636   4.574567   6.881708   6.490230
    35  H    7.402270   6.993202   5.068962   8.296798   7.838864
                   21         22         23         24         25
    21  C    0.000000
    22  H    2.158115   0.000000
    23  H    2.157400   4.304468   0.000000
    24  H    1.094533   2.488456   2.488146   0.000000
    25  C    5.086309   4.898017   5.834796   6.147374   0.000000
    26  C    6.064668   5.529436   6.984834   7.100596   1.396355
    27  C    5.288624   5.059526   6.064771   6.278014   1.396493
    28  C    7.042507   6.216544   8.124878   8.027960   2.416833
    29  H    6.288468   5.803096   7.147939   7.320081   2.164396
    30  C    6.385597   5.801316   7.348557   7.309604   2.417510
    31  H    4.873613   4.984679   5.429123   5.820656   2.157391
    32  C    7.184211   6.339543   8.285699   8.122267   2.793655
    33  H    7.897215   6.931345   9.042569   8.863622   3.407492
    34  H    6.824966   6.254014   7.763477   7.671218   3.408060
    35  H    8.120823   7.126179   9.298660   9.014408   3.888309
                   26         27         28         29         30
    26  C    0.000000
    27  C    2.409208   0.000000
    28  C    1.390729   2.779093   0.000000
    29  H    1.096384   3.406015   2.155736   0.000000
    30  C    2.781513   1.389362   2.406544   3.877878   0.000000
    31  H    3.403333   1.101047   3.879963   4.310470   2.167625
    32  C    2.410807   2.409125   1.390266   3.401982   1.391134
    33  H    2.155567   3.873967   1.094877   2.478145   3.399790
    34  H    3.876306   2.154817   3.399926   4.972671   1.094795
    35  H    3.403131   3.401566   2.158106   4.304468   2.158767
                   31         32         33         34         35
    31  H    0.000000
    32  C    3.411007   0.000000
    33  H    4.974806   2.157255   0.000000
    34  H    2.494359   2.158524   4.305082   0.000000
    35  H    4.315940   1.094655   2.486628   2.488135   0.000000
 Stoichiometry    C19H16
 Framework group  C1[X(C19H16)]
 Deg. of freedom    99
 Full point group                 C1      NOp   1
 Largest Abelian subgroup         C1      NOp   1
 Largest concise Abelian subgroup C1      NOp   1
                         Standard orientation:                         
 ---------------------------------------------------------------------
 Center     Atomic      Atomic             Coordinates (Angstroms)
 Number     Number       Type             X           Y           Z
 ---------------------------------------------------------------------
      1          6           0        0.002812    0.013379   -0.765139
      2          1           0       -0.013843    0.026739   -1.887796
      3          6           0        1.412374   -0.302651   -0.329461
      4          6           0        2.381967   -0.577235   -1.296218
      5          6           0        1.768557   -0.335472    1.020723
      6          6           0        3.686037   -0.876369   -0.916533
      7          1           0        2.116903   -0.558465   -2.359932
      8          6           0        3.072257   -0.633247    1.397537
      9          1           0        0.997167   -0.137971    1.781446
     10          6           0        4.033898   -0.903274    0.429198
     11          1           0        4.439633   -1.091428   -1.681067
     12          1           0        3.340887   -0.656650    2.458584
     13          1           0        5.060976   -1.138085    0.726247
     14          6           0       -0.460759    1.390790   -0.360748
     15          6           0       -1.826000    1.691263   -0.373837
     16          6           0        0.450346    2.399236   -0.042600
     17          6           0       -2.269104    2.971435   -0.066045
     18          1           0       -2.550224    0.906803   -0.625450
     19          6           0        0.004746    3.680201    0.264118
     20          1           0        1.525128    2.178959   -0.031654
     21          6           0       -1.354757    3.969490    0.254383
     22          1           0       -3.341069    3.193515   -0.077115
     23          1           0        0.729673    4.462148    0.512864
     24          1           0       -1.704374    4.977928    0.496918
     25          6           0       -0.939565   -1.069636   -0.298221
     26          6           0       -1.544920   -1.905383   -1.238901
     27          6           0       -1.216628   -1.255932    1.057774
     28          6           0       -2.416586   -2.907930   -0.827528
     29          1           0       -1.333387   -1.773826   -2.306611
     30          6           0       -2.089368   -2.256908    1.466061
     31          1           0       -0.720349   -0.609442    1.798086
     32          6           0       -2.692021   -3.084024    0.523755
     33          1           0       -2.886425   -3.559546   -1.571439
     34          1           0       -2.300731   -2.394506    2.531411
     35          1           0       -3.379689   -3.872569    0.845590
 ---------------------------------------------------------------------
 Rotational constants (GHZ):      0.4005922      0.3878372      0.2319525
 Standard basis: 6-311G (5D, 7F)
 There are   295 symmetry adapted basis functions of A   symmetry.
 Integral buffers will be    262144 words long.
 Raffenetti 1 integral format.
 Two-electron integral symmetry is turned on.
   295 basis functions,   574 primitive gaussians,   295 cartesian basis functions
    65 alpha electrons       65 beta electrons
       nuclear repulsion energy      1291.2296051456 Hartrees.
 NAtoms=   35 NActive=   35 NUniq=   35 SFac= 7.50D-01 NAtFMM=   80 NAOKFM=F Big=F
 One-electron integrals computed using PRISM.
 PrsmSu:  requested number of processors reduced to:  10 ShMem   1 Linda.
 NBasis=   295 RedAO= T  NBF=   295
 NBsUse=   295 1.00D-06 NBFU=   295
 Harris functional with IExCor=  205 diagonalized for initial guess.
 ExpMin= 1.03D-01 ExpMax= 4.56D+03 ExpMxC= 6.82D+02 IAcc=1 IRadAn=         1 AccDes= 0.00D+00
 HarFok:  IExCor=  205 AccDes= 0.00D+00 IRadAn=         1 IDoV= 1
 ScaDFX=  1.000000  1.000000  1.000000  1.000000
 FoFCou: FMM=F IPFlag=           0 FMFlag=      100000 FMFlg1=           0
         NFxFlg=           0 DoJE=T BraDBF=F KetDBF=T FulRan=T
         Omega=  0.000000  0.000000  1.000000  0.000000  0.000000 ICntrl=     500 IOpCl=  0
         NMat0=    1 NMatS0=    1 NMatT0=    0 NMatD0=    1 NMtDS0=    0 NMtDT0=    0
         I1Cent=           4 NGrid=           0.
 Petite list used in FoFCou.
 Initial guess orbital symmetries:
       Occupied  (A) (A) (A) (A) (A) (A) (A) (A) (A) (A) (A) (A)
                 (A) (A) (A) (A) (A) (A) (A) (A) (A) (A) (A) (A)
                 (A) (A) (A) (A) (A) (A) (A) (A) (A) (A) (A) (A)
                 (A) (A) (A) (A) (A) (A) (A) (A) (A) (A) (A) (A)
                 (A) (A) (A) (A) (A) (A) (A) (A) (A) (A) (A) (A)
                 (A) (A) (A) (A) (A)
       Virtual   (A) (A) (A) (A) (A) (A) (A) (A) (A) (A) (A) (A)
                 (A) (A) (A) (A) (A) (A) (A) (A) (A) (A) (A) (A)
                 (A) (A) (A) (A) (A) (A) (A) (A) (A) (A) (A) (A)
                 (A) (A) (A) (A) (A) (A) (A) (A) (A) (A) (A) (A)
                 (A) (A) (A) (A) (A) (A) (A) (A) (A) (A) (A) (A)
                 (A) (A) (A) (A) (A) (A) (A) (A) (A) (A) (A) (A)
                 (A) (A) (A) (A) (A) (A) (A) (A) (A) (A) (A) (A)
                 (A) (A) (A) (A) (A) (A) (A) (A) (A) (A) (A) (A)
                 (A) (A) (A) (A) (A) (A) (A) (A) (A) (A) (A) (A)
                 (A) (A) (A) (A) (A) (A) (A) (A) (A) (A) (A) (A)
                 (A) (A) (A) (A) (A) (A) (A) (A) (A) (A) (A) (A)
                 (A) (A) (A) (A) (A) (A) (A) (A) (A) (A) (A) (A)
                 (A) (A) (A) (A) (A) (A) (A) (A) (A) (A) (A) (A)
                 (A) (A) (A) (A) (A) (A) (A) (A) (A) (A) (A) (A)
                 (A) (A) (A) (A) (A) (A) (A) (A) (A) (A) (A) (A)
                 (A) (A) (A) (A) (A) (A) (A) (A) (A) (A) (A) (A)
                 (A) (A) (A) (A) (A) (A) (A) (A) (A) (A) (A) (A)
                 (A) (A) (A) (A) (A) (A) (A) (A) (A) (A) (A) (A)
                 (A) (A) (A) (A) (A) (A) (A) (A) (A) (A) (A) (A)
                 (A) (A)
 The electronic state of the initial guess is 1-A.
 Requested convergence on RMS density matrix=1.00D-08 within 128 cycles.
 Requested convergence on MAX density matrix=1.00D-06.
 Requested convergence on             energy=1.00D-06.
 No special actions if energy rises.
 Integral accuracy reduced to 1.0D-05 until final iterations.
 Initial convergence to 1.0D-05 achieved.  Increase integral accuracy.
 SCF Done:  E(RHF) =  -728.672706138     A.U. after   14 cycles
             Convg  =    0.9003D-08             -V/T =  2.0001

 **********************************************************************

            Population analysis using the SCF density.

 **********************************************************************

 Orbital symmetries:
       Occupied  (A) (A) (A) (A) (A) (A) (A) (A) (A) (A) (A) (A)
                 (A) (A) (A) (A) (A) (A) (A) (A) (A) (A) (A) (A)
                 (A) (A) (A) (A) (A) (A) (A) (A) (A) (A) (A) (A)
                 (A) (A) (A) (A) (A) (A) (A) (A) (A) (A) (A) (A)
                 (A) (A) (A) (A) (A) (A) (A) (A) (A) (A) (A) (A)
                 (A) (A) (A) (A) (A)
       Virtual   (A) (A) (A) (A) (A) (A) (A) (A) (A) (A) (A) (A)
                 (A) (A) (A) (A) (A) (A) (A) (A) (A) (A) (A) (A)
                 (A) (A) (A) (A) (A) (A) (A) (A) (A) (A) (A) (A)
                 (A) (A) (A) (A) (A) (A) (A) (A) (A) (A) (A) (A)
                 (A) (A) (A) (A) (A) (A) (A) (A) (A) (A) (A) (A)
                 (A) (A) (A) (A) (A) (A) (A) (A) (A) (A) (A) (A)
                 (A) (A) (A) (A) (A) (A) (A) (A) (A) (A) (A) (A)
                 (A) (A) (A) (A) (A) (A) (A) (A) (A) (A) (A) (A)
                 (A) (A) (A) (A) (A) (A) (A) (A) (A) (A) (A) (A)
                 (A) (A) (A) (A) (A) (A) (A) (A) (A) (A) (A) (A)
                 (A) (A) (A) (A) (A) (A) (A) (A) (A) (A) (A) (A)
                 (A) (A) (A) (A) (A) (A) (A) (A) (A) (A) (A) (A)
                 (A) (A) (A) (A) (A) (A) (A) (A) (A) (A) (A) (A)
                 (A) (A) (A) (A) (A) (A) (A) (A) (A) (A) (A) (A)
                 (A) (A) (A) (A) (A) (A) (A) (A) (A) (A) (A) (A)
                 (A) (A) (A) (A) (A) (A) (A) (A) (A) (A) (A) (A)
                 (A) (A) (A) (A) (A) (A) (A) (A) (A) (A) (A) (A)
                 (A) (A) (A) (A) (A) (A) (A) (A) (A) (A) (A) (A)
                 (A) (A) (A) (A) (A) (A) (A) (A) (A) (A) (A) (A)
                 (A) (A)
 The electronic state is 1-A.
 Alpha  occ. eigenvalues --  -11.25744 -11.25201 -11.25177 -11.24888 -11.24494
 Alpha  occ. eigenvalues --  -11.24443 -11.24422 -11.24393 -11.24199 -11.24149
 Alpha  occ. eigenvalues --  -11.24142 -11.24116 -11.24090 -11.24067 -11.23994
 Alpha  occ. eigenvalues --  -11.23956 -11.23726 -11.23575 -11.23521  -1.18619
 Alpha  occ. eigenvalues --   -1.15869  -1.15560  -1.09024  -1.02354  -1.02252
 Alpha  occ. eigenvalues --   -1.01877  -1.01485  -1.01044  -0.92910  -0.84218
 Alpha  occ. eigenvalues --   -0.83429  -0.82254  -0.82003  -0.81058  -0.77561
 Alpha  occ. eigenvalues --   -0.70891  -0.70351  -0.68972  -0.65613  -0.63935
 Alpha  occ. eigenvalues --   -0.63643  -0.62530  -0.61668  -0.61517  -0.59743
 Alpha  occ. eigenvalues --   -0.58840  -0.58513  -0.58295  -0.56513  -0.55365
 Alpha  occ. eigenvalues --   -0.51718  -0.50869  -0.50153  -0.49899  -0.49358
 Alpha  occ. eigenvalues --   -0.48330  -0.48061  -0.47468  -0.46283  -0.35076
 Alpha  occ. eigenvalues --   -0.34290  -0.34091  -0.33289  -0.32232  -0.31648
 Alpha virt. eigenvalues --    0.11663   0.12323   0.12528   0.13312   0.15124
 Alpha virt. eigenvalues --    0.15235   0.15833   0.16239   0.16496   0.16878
 Alpha virt. eigenvalues --    0.18908   0.19164   0.19276   0.21177   0.21277
 Alpha virt. eigenvalues --    0.21637   0.23501   0.24147   0.24711   0.25362
 Alpha virt. eigenvalues --    0.26397   0.32001   0.32892   0.34143   0.35796
 Alpha virt. eigenvalues --    0.37997   0.39166   0.40768   0.41483   0.43004
 Alpha virt. eigenvalues --    0.44123   0.44434   0.45114   0.45330   0.45481
 Alpha virt. eigenvalues --    0.46038   0.46799   0.47283   0.47620   0.50492
 Alpha virt. eigenvalues --    0.51150   0.51339   0.52592   0.55071   0.56358
 Alpha virt. eigenvalues --    0.56969   0.57804   0.58395   0.58694   0.59457
 Alpha virt. eigenvalues --    0.60355   0.60607   0.60829   0.61142   0.61633
 Alpha virt. eigenvalues --    0.61944   0.62024   0.62568   0.63028   0.63400
 Alpha virt. eigenvalues --    0.64260   0.64875   0.65217   0.65832   0.66346
 Alpha virt. eigenvalues --    0.67384   0.67915   0.68749   0.69727   0.72128
 Alpha virt. eigenvalues --    0.73018   0.73701   0.75122   0.75414   0.75724
 Alpha virt. eigenvalues --    0.77169   0.78681   0.79935   0.80180   0.80974
 Alpha virt. eigenvalues --    0.81453   0.82349   0.82458   0.82717   0.83593
 Alpha virt. eigenvalues --    0.83858   0.84426   0.85085   0.85323   0.85495
 Alpha virt. eigenvalues --    0.85889   0.86143   0.86890   0.87866   0.87944
 Alpha virt. eigenvalues --    0.89859   0.90403   0.92649   0.93564   0.95171
 Alpha virt. eigenvalues --    0.95757   0.96369   0.96720   0.98891   0.99807
 Alpha virt. eigenvalues --    1.00665   1.02820   1.03519   1.05601   1.06412
 Alpha virt. eigenvalues --    1.07163   1.07752   1.09275   1.10110   1.10685
 Alpha virt. eigenvalues --    1.11455   1.12016   1.12268   1.13185   1.13897
 Alpha virt. eigenvalues --    1.14808   1.16854   1.19609   1.20466   1.22191
 Alpha virt. eigenvalues --    1.22661   1.23744   1.27831   1.28091   1.28874
 Alpha virt. eigenvalues --    1.29812   1.31850   1.32367   1.47861   1.48128
 Alpha virt. eigenvalues --    1.51153   1.54933   1.55988   2.53437   2.55740
 Alpha virt. eigenvalues --    2.55814   2.57722   2.62129   2.62659   2.63734
 Alpha virt. eigenvalues --    2.66372   2.67394   2.68171   2.72826   2.74137
 Alpha virt. eigenvalues --    2.78532   2.83212   2.87276   2.92285   2.94272
 Alpha virt. eigenvalues --    2.94676   2.94760   2.96086   2.98450   2.98581
 Alpha virt. eigenvalues --    2.99726   3.02459   3.03729   3.04474   3.07392
 Alpha virt. eigenvalues --    3.08331   3.09381   3.09610   3.10219   3.13264
 Alpha virt. eigenvalues --    3.14878   3.15648   3.17949   3.18187   3.19768
 Alpha virt. eigenvalues --    3.21698   3.24012   3.24448   3.27871   3.28782
 Alpha virt. eigenvalues --    3.31886   3.33831   3.34675   3.36016   3.40246
 Alpha virt. eigenvalues --    3.40753   3.44234   3.44623   3.50446   3.52467
 Alpha virt. eigenvalues --    3.53729   3.56144   3.58289   3.59022   3.59384
 Alpha virt. eigenvalues --    3.62571   3.63621   3.65320   3.66073   3.67376
 Alpha virt. eigenvalues --    3.67852   3.69262   3.71116   3.71506   3.74965
 Alpha virt. eigenvalues --    3.76686   3.77732   3.78533   3.85856   3.89029
 Alpha virt. eigenvalues --    3.90584  24.26367  24.30009  24.31460  24.50559
 Alpha virt. eigenvalues --   24.50780  24.51130  24.52783  24.54670  24.56369
 Alpha virt. eigenvalues --   24.75884  24.77090  24.79129  24.80288  24.80929
 Alpha virt. eigenvalues --   24.83179  24.87842  25.04735  25.05797  25.07101
          Condensed to atoms (all electrons):
              1          2          3          4          5          6
     1  C    6.149248   0.468262   0.118748  -0.023130  -0.074329   0.007740
     2  H    0.468262   0.498296  -0.071645   0.005432   0.004506   0.001420
     3  C    0.118748  -0.071645   5.408525   0.492302   0.451800  -0.075726
     4  C   -0.023130   0.005432   0.492302   5.063718  -0.066570   0.464055
     5  C   -0.074329   0.004506   0.451800  -0.066570   5.084930  -0.028730
     6  C    0.007740   0.001420  -0.075726   0.464055  -0.028730   5.050679
     7  H   -0.001598   0.002856  -0.047505   0.396464   0.004721  -0.033887
     8  C    0.003857  -0.000226  -0.059827  -0.032857   0.478671  -0.077771
     9  H   -0.000603   0.000030  -0.045362   0.004550   0.386661  -0.000067
    10  C    0.001476   0.000008  -0.017229  -0.088634  -0.092930   0.499907
    11  H   -0.000380  -0.000036   0.006916  -0.039394  -0.000646   0.396433
    12  H   -0.000366   0.000011   0.006015  -0.000413  -0.038605   0.005916
    13  H   -0.000025  -0.000002  -0.001681   0.007582   0.008010  -0.042585
    14  C    0.024867  -0.060746  -0.064353   0.000059   0.004996  -0.000667
    15  C   -0.077414  -0.003519   0.010840  -0.000368   0.001213   0.000008
    16  C   -0.048649  -0.000985  -0.013338   0.001003  -0.018418   0.000195
    17  C    0.010341   0.000275  -0.000890   0.000009  -0.000015   0.000000
    18  H   -0.007309  -0.000121   0.000686  -0.000008  -0.000034   0.000000
    19  C    0.012347  -0.000014  -0.002082  -0.000092  -0.001056   0.000007
    20  H   -0.011321  -0.000216   0.002478  -0.000430  -0.000472  -0.000112
    21  C    0.000174   0.000049   0.000140  -0.000004   0.000000   0.000000
    22  H   -0.000359   0.000009   0.000012   0.000000   0.000000   0.000000
    23  H   -0.000364   0.000013   0.000053   0.000002   0.000015   0.000000
    24  H   -0.000014  -0.000002   0.000001   0.000000   0.000001   0.000000
    25  C    0.136346  -0.069904  -0.150114  -0.004572  -0.002799  -0.000546
    26  C   -0.023848   0.003286  -0.003266   0.000642   0.000580  -0.000015
    27  C   -0.064223   0.004881  -0.002455   0.000758  -0.011312   0.000074
    28  C    0.007004   0.001475  -0.000530  -0.000017   0.000104   0.000002
    29  H   -0.000607   0.002619   0.000252   0.000297  -0.000013   0.000003
    30  C    0.003881  -0.000242   0.001886   0.000027  -0.000214   0.000000
    31  H   -0.000614   0.000065  -0.003326  -0.000204  -0.000052  -0.000013
    32  C    0.001316   0.000003  -0.000091  -0.000011  -0.000025   0.000000
    33  H   -0.000347  -0.000038   0.000026   0.000001   0.000000   0.000000
    34  H   -0.000358   0.000011   0.000031   0.000001   0.000051   0.000000
    35  H   -0.000017  -0.000002  -0.000002   0.000000   0.000000   0.000000
              7          8          9         10         11         12
     1  C   -0.001598   0.003857  -0.000603   0.001476  -0.000380  -0.000366
     2  H    0.002856  -0.000226   0.000030   0.000008  -0.000036   0.000011
     3  C   -0.047505  -0.059827  -0.045362  -0.017229   0.006916   0.006015
     4  C    0.396464  -0.032857   0.004550  -0.088634  -0.039394  -0.000413
     5  C    0.004721   0.478671   0.386661  -0.092930  -0.000646  -0.038605
     6  C   -0.033887  -0.077771  -0.000067   0.499907   0.396433   0.005916
     7  H    0.507205  -0.000298  -0.000272   0.005108  -0.004095   0.000025
     8  C   -0.000298   5.046438  -0.028307   0.490424   0.006242   0.397114
     9  H   -0.000272  -0.028307   0.497900   0.004615   0.000015  -0.003380
    10  C    0.005108   0.490424   0.004615   5.033195  -0.040830  -0.039801
    11  H   -0.004095   0.006242   0.000015  -0.040830   0.517881  -0.000205
    12  H    0.000025   0.397114  -0.003380  -0.039801  -0.000205   0.514286
    13  H   -0.000178  -0.043076  -0.000168   0.399553  -0.004562  -0.004404
    14  C    0.000422   0.000222   0.001996  -0.000044   0.000019   0.000025
    15  C    0.000003   0.000010  -0.000121   0.000000   0.000000   0.000000
    16  C    0.000149  -0.001238   0.002033   0.000206  -0.000008  -0.000005
    17  C    0.000000   0.000000  -0.000118   0.000000   0.000000   0.000000
    18  H    0.000000   0.000000   0.000025   0.000000   0.000000   0.000000
    19  C   -0.000001  -0.000039   0.000215   0.000004   0.000000  -0.000003
    20  H    0.000146  -0.000292   0.000235   0.000146   0.000012   0.000018
    21  C    0.000000   0.000000  -0.000005   0.000000   0.000000   0.000000
    22  H    0.000000   0.000000  -0.000001   0.000000   0.000000   0.000000
    23  H    0.000000   0.000000   0.000002  -0.000001   0.000000   0.000000
    24  H    0.000000   0.000000   0.000000   0.000000   0.000000   0.000000
    25  C    0.000145   0.001912  -0.003830  -0.000086   0.000024   0.000032
    26  C    0.000289   0.000032  -0.000203  -0.000012   0.000001   0.000001
    27  C   -0.000021  -0.000139   0.000970  -0.000015   0.000000   0.000045
    28  C   -0.000001   0.000001  -0.000035   0.000000   0.000000   0.000000
    29  H    0.000086  -0.000001   0.000002  -0.000001   0.000000   0.000000
    30  C    0.000000  -0.000102   0.001079   0.000002   0.000000   0.000000
    31  H    0.000000   0.000991   0.000859  -0.000017   0.000001  -0.000030
    32  C   -0.000001   0.000001  -0.000010   0.000000   0.000000   0.000000
    33  H    0.000000   0.000000   0.000001   0.000000   0.000000   0.000000
    34  H    0.000000   0.000001  -0.000041   0.000000   0.000000   0.000001
    35  H    0.000000   0.000000   0.000000   0.000000   0.000000   0.000000
             13         14         15         16         17         18
     1  C   -0.000025   0.024867  -0.077414  -0.048649   0.010341  -0.007309
     2  H   -0.000002  -0.060746  -0.003519  -0.000985   0.000275  -0.000121
     3  C   -0.001681  -0.064353   0.010840  -0.013338  -0.000890   0.000686
     4  C    0.007582   0.000059  -0.000368   0.001003   0.000009  -0.000008
     5  C    0.008010   0.004996   0.001213  -0.018418  -0.000015  -0.000034
     6  C   -0.042585  -0.000667   0.000008   0.000195   0.000000   0.000000
     7  H   -0.000178   0.000422   0.000003   0.000149   0.000000   0.000000
     8  C   -0.043076   0.000222   0.000010  -0.001238   0.000000   0.000000
     9  H   -0.000168   0.001996  -0.000121   0.002033  -0.000118   0.000025
    10  C    0.399553  -0.000044   0.000000   0.000206   0.000000   0.000000
    11  H   -0.004562   0.000019   0.000000  -0.000008   0.000000   0.000000
    12  H   -0.004404   0.000025   0.000000  -0.000005   0.000000   0.000000
    13  H    0.517120   0.000002   0.000000  -0.000002   0.000000   0.000000
    14  C    0.000002   5.343184   0.477715   0.491265  -0.058504  -0.041009
    15  C    0.000000   0.477715   5.129272  -0.087126   0.458631   0.396861
    16  C   -0.000002   0.491265  -0.087126   5.113837  -0.031540   0.004762
    17  C    0.000000  -0.058504   0.458631  -0.031540   5.070256  -0.035731
    18  H    0.000000  -0.041009   0.396861   0.004762  -0.035731   0.484766
    19  C    0.000000  -0.064407  -0.033051   0.453975  -0.072955  -0.000508
    20  H    0.000010  -0.036348   0.005017   0.395582  -0.000502  -0.000186
    21  C    0.000000  -0.021267  -0.085733  -0.087802   0.483263   0.005225
    22  H    0.000000   0.006170  -0.037671  -0.000401   0.396618  -0.003752
    23  H    0.000000   0.006373  -0.000395  -0.037079   0.005981   0.000017
    24  H    0.000000  -0.001437   0.007485   0.007574  -0.042889  -0.000172
    25  C   -0.000002  -0.078079  -0.010932   0.006505  -0.002047   0.004166
    26  C    0.000000  -0.000645   0.000649  -0.000438  -0.000060   0.000693
    27  C    0.000000  -0.001841  -0.013326   0.001515  -0.000680  -0.000653
    28  C    0.000000  -0.000486  -0.000019   0.000014   0.000012   0.000058
    29  H    0.000000   0.000250   0.000240  -0.000020  -0.000006   0.000190
    30  C    0.000000  -0.000321  -0.000590   0.000009  -0.000026  -0.000394
    31  H    0.000000   0.001576   0.001175  -0.000343   0.000193   0.000081
    32  C    0.000000  -0.000003   0.000178  -0.000001   0.000003   0.000000
    33  H    0.000000   0.000013  -0.000005   0.000000   0.000000   0.000011
    34  H    0.000000   0.000028   0.000007   0.000000  -0.000001   0.000007
    35  H    0.000000   0.000001  -0.000001   0.000000   0.000000   0.000005
             19         20         21         22         23         24
     1  C    0.012347  -0.011321   0.000174  -0.000359  -0.000364  -0.000014
     2  H   -0.000014  -0.000216   0.000049   0.000009   0.000013  -0.000002
     3  C   -0.002082   0.002478   0.000140   0.000012   0.000053   0.000001
     4  C   -0.000092  -0.000430  -0.000004   0.000000   0.000002   0.000000
     5  C   -0.001056  -0.000472   0.000000   0.000000   0.000015   0.000001
     6  C    0.000007  -0.000112   0.000000   0.000000   0.000000   0.000000
     7  H   -0.000001   0.000146   0.000000   0.000000   0.000000   0.000000
     8  C   -0.000039  -0.000292   0.000000   0.000000   0.000000   0.000000
     9  H    0.000215   0.000235  -0.000005  -0.000001   0.000002   0.000000
    10  C    0.000004   0.000146   0.000000   0.000000  -0.000001   0.000000
    11  H    0.000000   0.000012   0.000000   0.000000   0.000000   0.000000
    12  H   -0.000003   0.000018   0.000000   0.000000   0.000000   0.000000
    13  H    0.000000   0.000010   0.000000   0.000000   0.000000   0.000000
    14  C   -0.064407  -0.036348  -0.021267   0.006170   0.006373  -0.001437
    15  C   -0.033051   0.005017  -0.085733  -0.037671  -0.000395   0.007485
    16  C    0.453975   0.395582  -0.087802  -0.000401  -0.037079   0.007574
    17  C   -0.072955  -0.000502   0.483263   0.396618   0.005981  -0.042889
    18  H   -0.000508  -0.000186   0.005225  -0.003752   0.000017  -0.000172
    19  C    5.078415  -0.036728   0.490110   0.005963   0.395962  -0.042388
    20  H   -0.036728   0.480205   0.005171   0.000017  -0.003647  -0.000171
    21  C    0.490110   0.005171   5.043608  -0.040943  -0.041197   0.399448
    22  H    0.005963   0.000017  -0.040943   0.517430  -0.000214  -0.004403
    23  H    0.395962  -0.003647  -0.041197  -0.000214   0.517671  -0.004433
    24  H   -0.042388  -0.000171   0.399448  -0.004403  -0.004433   0.519441
    25  C   -0.000877   0.000528   0.000142   0.000029   0.000012   0.000002
    26  C    0.000008  -0.000013  -0.000003  -0.000002   0.000000   0.000000
    27  C    0.000027   0.000000   0.000020   0.000013   0.000000   0.000001
    28  C    0.000000   0.000000   0.000000   0.000000   0.000000   0.000000
    29  H    0.000000   0.000001   0.000001   0.000000   0.000000   0.000000
    30  C    0.000001   0.000001   0.000001   0.000001   0.000000   0.000000
    31  H   -0.000163   0.000032  -0.000023   0.000004  -0.000001   0.000000
    32  C    0.000000   0.000000   0.000000   0.000000   0.000000   0.000000
    33  H    0.000000   0.000000   0.000000   0.000000   0.000000   0.000000
    34  H    0.000000   0.000000   0.000000   0.000000   0.000000   0.000000
    35  H    0.000000   0.000000   0.000000   0.000000   0.000000   0.000000
             25         26         27         28         29         30
     1  C    0.136346  -0.023848  -0.064223   0.007004  -0.000607   0.003881
     2  H   -0.069904   0.003286   0.004881   0.001475   0.002619  -0.000242
     3  C   -0.150114  -0.003266  -0.002455  -0.000530   0.000252   0.001886
     4  C   -0.004572   0.000642   0.000758  -0.000017   0.000297   0.000027
     5  C   -0.002799   0.000580  -0.011312   0.000104  -0.000013  -0.000214
     6  C   -0.000546  -0.000015   0.000074   0.000002   0.000003   0.000000
     7  H    0.000145   0.000289  -0.000021  -0.000001   0.000086   0.000000
     8  C    0.001912   0.000032  -0.000139   0.000001  -0.000001  -0.000102
     9  H   -0.003830  -0.000203   0.000970  -0.000035   0.000002   0.001079
    10  C   -0.000086  -0.000012  -0.000015   0.000000  -0.000001   0.000002
    11  H    0.000024   0.000001   0.000000   0.000000   0.000000   0.000000
    12  H    0.000032   0.000001   0.000045   0.000000   0.000000   0.000000
    13  H   -0.000002   0.000000   0.000000   0.000000   0.000000   0.000000
    14  C   -0.078079  -0.000645  -0.001841  -0.000486   0.000250  -0.000321
    15  C   -0.010932   0.000649  -0.013326  -0.000019   0.000240  -0.000590
    16  C    0.006505  -0.000438   0.001515   0.000014  -0.000020   0.000009
    17  C   -0.002047  -0.000060  -0.000680   0.000012  -0.000006  -0.000026
    18  H    0.004166   0.000693  -0.000653   0.000058   0.000190  -0.000394
    19  C   -0.000877   0.000008   0.000027   0.000000   0.000000   0.000001
    20  H    0.000528  -0.000013   0.000000   0.000000   0.000001   0.000001
    21  C    0.000142  -0.000003   0.000020   0.000000   0.000001   0.000001
    22  H    0.000029  -0.000002   0.000013   0.000000   0.000000   0.000001
    23  H    0.000012   0.000000   0.000000   0.000000   0.000000   0.000000
    24  H    0.000002   0.000000   0.000001   0.000000   0.000000   0.000000
    25  C    5.406121   0.490415   0.452640  -0.075223  -0.049767  -0.057538
    26  C    0.490415   5.084083  -0.071232   0.457897   0.399256  -0.031143
    27  C    0.452640  -0.071232   5.067397  -0.026612   0.004472   0.478036
    28  C   -0.075223   0.457897  -0.026612   5.055617  -0.034333  -0.078818
    29  H   -0.049767   0.399256   0.004472  -0.034333   0.508434  -0.000288
    30  C   -0.057538  -0.031143   0.478036  -0.078818  -0.000288   5.044033
    31  H   -0.044186   0.004282   0.387406   0.000025  -0.000273  -0.028951
    32  C   -0.018492  -0.087418  -0.092028   0.499209   0.005182   0.490782
    33  H    0.006893  -0.039557  -0.000683   0.396766  -0.004163   0.006246
    34  H    0.006033  -0.000457  -0.038741   0.005941   0.000025   0.397263
    35  H   -0.001594   0.007525   0.007945  -0.042577  -0.000182  -0.042990
             31         32         33         34         35
     1  C   -0.000614   0.001316  -0.000347  -0.000358  -0.000017
     2  H    0.000065   0.000003  -0.000038   0.000011  -0.000002
     3  C   -0.003326  -0.000091   0.000026   0.000031  -0.000002
     4  C   -0.000204  -0.000011   0.000001   0.000001   0.000000
     5  C   -0.000052  -0.000025   0.000000   0.000051   0.000000
     6  C   -0.000013   0.000000   0.000000   0.000000   0.000000
     7  H    0.000000  -0.000001   0.000000   0.000000   0.000000
     8  C    0.000991   0.000001   0.000000   0.000001   0.000000
     9  H    0.000859  -0.000010   0.000001  -0.000041   0.000000
    10  C   -0.000017   0.000000   0.000000   0.000000   0.000000
    11  H    0.000001   0.000000   0.000000   0.000000   0.000000
    12  H   -0.000030   0.000000   0.000000   0.000001   0.000000
    13  H    0.000000   0.000000   0.000000   0.000000   0.000000
    14  C    0.001576  -0.000003   0.000013   0.000028   0.000001
    15  C    0.001175   0.000178  -0.000005   0.000007  -0.000001
    16  C   -0.000343  -0.000001   0.000000   0.000000   0.000000
    17  C    0.000193   0.000003   0.000000  -0.000001   0.000000
    18  H    0.000081   0.000000   0.000011   0.000007   0.000005
    19  C   -0.000163   0.000000   0.000000   0.000000   0.000000
    20  H    0.000032   0.000000   0.000000   0.000000   0.000000
    21  C   -0.000023   0.000000   0.000000   0.000000   0.000000
    22  H    0.000004   0.000000   0.000000   0.000000   0.000000
    23  H   -0.000001   0.000000   0.000000   0.000000   0.000000
    24  H    0.000000   0.000000   0.000000   0.000000   0.000000
    25  C   -0.044186  -0.018492   0.006893   0.006033  -0.001594
    26  C    0.004282  -0.087418  -0.039557  -0.000457   0.007525
    27  C    0.387406  -0.092028  -0.000683  -0.038741   0.007945
    28  C    0.000025   0.499209   0.396766   0.005941  -0.042577
    29  H   -0.000273   0.005182  -0.004163   0.000025  -0.000182
    30  C   -0.028951   0.490782   0.006246   0.397263  -0.042990
    31  H    0.498681   0.004583   0.000014  -0.003337  -0.000173
    32  C    0.004583   5.033853  -0.040716  -0.039864   0.399624
    33  H    0.000014  -0.040716   0.517982  -0.000204  -0.004582
    34  H   -0.003337  -0.039864  -0.000204   0.514537  -0.004446
    35  H   -0.000173   0.399624  -0.004582  -0.004446   0.517318
 Mulliken atomic charges:
              1
     1  C   -0.609730
     2  H    0.214186
     3  C    0.058711
     4  C   -0.180197
     5  C   -0.090039
     6  C   -0.166321
     7  H    0.170238
     8  C   -0.181742
     9  H    0.181336
    10  C   -0.155043
    11  H    0.162615
    12  H    0.163722
    13  H    0.164408
    14  C    0.070973
    15  C   -0.139034
    16  C   -0.151231
    17  C   -0.179619
    18  H    0.192325
    19  C   -0.182672
    20  H    0.200837
    21  C   -0.150376
    22  H    0.161479
    23  H    0.161230
    24  H    0.161956
    25  C    0.058643
    26  C   -0.191325
    27  C   -0.082238
    28  C   -0.165474
    29  H    0.168347
    30  C   -0.181631
    31  H    0.181738
    32  C   -0.156074
    33  H    0.162343
    34  H    0.163511
    35  H    0.164147
 Sum of Mulliken atomic charges =   0.00000
 Mulliken charges with hydrogens summed into heavy atoms:
              1
     1  C   -0.395545
     3  C    0.058711
     4  C   -0.009959
     5  C    0.091297
     6  C   -0.003706
     8  C   -0.018020
    10  C    0.009365
    14  C    0.070973
    15  C    0.053291
    16  C    0.049606
    17  C   -0.018140
    19  C   -0.021442
    21  C    0.011581
    25  C    0.058643
    26  C   -0.022979
    27  C    0.099500
    28  C   -0.003130
    30  C   -0.018119
    32  C    0.008073
 Sum of Mulliken charges with hydrogens summed into heavy atoms =   0.00000
 Electronic spatial extent (au):  <R**2>=           4928.7059
 Charge=              0.0000 electrons
 Dipole moment (field-independent basis, Debye):
    X=              0.0670    Y=             -0.1864    Z=             -0.0160  Tot=              0.1987
 Quadrupole moment (field-independent basis, Debye-Ang):
   XX=           -106.6197   YY=           -113.6231   ZZ=           -107.5664
   XY=              2.2106   XZ=              0.2111   YZ=              2.4205
 Traceless Quadrupole moment (field-independent basis, Debye-Ang):
   XX=              2.6501   YY=             -4.3534   ZZ=              1.7033
   XY=              2.2106   XZ=              0.2111   YZ=              2.4205
 Octapole moment (field-independent basis, Debye-Ang**2):
  XXX=             22.7081  YYY=             28.3489  ZZZ=              1.1721  XYY=            -28.7677
  XXY=            -14.2216  XXZ=              0.9840  XZZ=              7.4945  YZZ=            -22.3139
  YYZ=              8.7224  XYZ=              1.1588
 Hexadecapole moment (field-independent basis, Debye-Ang**3):
 XXXX=          -3066.7463 YYYY=          -2987.8513 ZZZZ=           -640.1975 XXXY=            -67.7541
 XXXZ=              4.0636 YYYX=             72.0264 YYYZ=             64.6124 ZZZX=             -3.8613
 ZZZY=              0.4573 XXYY=           -977.5430 XXZZ=           -615.1510 YYZZ=           -657.5105
 XXYZ=              0.5226 YYXZ=             -8.2408 ZZXY=             24.6688
 N-N= 1.291229605146D+03 E-N=-4.278547592587D+03  KE= 7.286023504267D+02
 PrsmSu:  requested number of processors reduced to:  10 ShMem   1 Linda.
 Calling FoFJK, ICntrl=      2127 FMM=F ISym2X=0 I1Cent= 0 IOpClX= 0 NMat=1 NMatS=1 NMatT=0.
 ***** Axes restored to original set *****
 -------------------------------------------------------------------
 Center     Atomic                   Forces (Hartrees/Bohr)
 Number     Number              X              Y              Z
 -------------------------------------------------------------------
      1        6          -0.002285184   -0.022895982    0.000247319
      2        1          -0.000496237    0.024206865   -0.005762138
      3        6          -0.012732511   -0.005727391   -0.000612436
      4        6           0.001709451   -0.005711523    0.000376522
      5        6           0.007553564    0.009281356   -0.000528127
      6        6          -0.011978868   -0.006654134   -0.001306274
      7        1          -0.002257220    0.017589279   -0.000091024
      8        6           0.000714416    0.012483533   -0.000096454
      9        1          -0.025957739   -0.012817739    0.002750709
     10        6          -0.013436641    0.002485895   -0.001287161
     11        1           0.012608010    0.010808363    0.001224862
     12        1           0.002675613   -0.016484158    0.000352041
     13        1           0.015672402   -0.005852619    0.001550799
     14        6           0.005769549    0.004092631    0.012928440
     15        6           0.006866896   -0.003117279   -0.006309789
     16        6          -0.011301879    0.000669185    0.000419832
     17        6           0.012335612   -0.001841427    0.000437587
     18        1          -0.009412834    0.006195915    0.016175678
     19        6          -0.005010397    0.003599994    0.010999689
     20        1           0.020832275   -0.001930479    0.002817959
     21        6           0.005314404    0.003294508    0.012003261
     22        1          -0.016525287    0.001495500   -0.001072862
     23        1           0.008956718   -0.005002031   -0.013189855
     24        1          -0.007689299   -0.003452397   -0.014297028
     25        6           0.006369216   -0.007283484   -0.010565835
     26        6          -0.001984609   -0.005411007    0.001464598
     27        6          -0.002404264    0.009782717    0.005871112
     28        6           0.004905541   -0.008120998   -0.010018711
     29        1           0.004305644    0.016899899   -0.002585986
     30        6           0.001541545    0.012379446   -0.000092036
     31        1           0.015820398   -0.016383038   -0.017182112
     32        6           0.007389879    0.000776608   -0.011594684
     33        1          -0.004573706    0.012270210    0.010282635
     34        1          -0.004207382   -0.015900275    0.003054629
     35        1          -0.009087076   -0.003725941    0.013634840
 -------------------------------------------------------------------
 Cartesian Forces:  Max     0.025957739 RMS     0.009531095

 GradGradGradGradGradGradGradGradGradGradGradGradGradGradGradGradGradGrad
 Berny optimization.
 Internal  Forces:  Max     0.028020200 RMS     0.007765773
 Search for a local minimum.
 Step number   1 out of a maximum of  197
 All quantities printed in internal units (Hartrees-Bohrs-Radians)
 Mixed Optimization -- RFO/linear search
 Second derivative matrix not updated -- first step.
     Eigenvalues ---    0.00638   0.00649   0.00653   0.01534   0.01537
     Eigenvalues ---    0.01542   0.02140   0.02143   0.02146   0.02171
     Eigenvalues ---    0.02172   0.02172   0.02180   0.02182   0.02184
     Eigenvalues ---    0.02200   0.02201   0.02202   0.02211   0.02211
     Eigenvalues ---    0.02214   0.02214   0.02214   0.02215   0.02215
     Eigenvalues ---    0.02217   0.02218   0.02220   0.02220   0.02222
     Eigenvalues ---    0.04581   0.06449   0.06563   0.15998   0.15998
     Eigenvalues ---    0.16000   0.16000   0.16000   0.16000   0.16000
     Eigenvalues ---    0.16000   0.16000   0.16000   0.16000   0.16000
     Eigenvalues ---    0.16000   0.16000   0.16000   0.18864   0.19290
     Eigenvalues ---    0.22000   0.22000   0.22000   0.22000   0.22000
     Eigenvalues ---    0.22000   0.23459   0.23478   0.23478   0.24950
     Eigenvalues ---    0.24999   0.25000   0.31275   0.31387   0.31469
     Eigenvalues ---    0.31498   0.33544   0.33567   0.33996   0.34027
     Eigenvalues ---    0.34083   0.34085   0.34251   0.34255   0.34260
     Eigenvalues ---    0.34264   0.34266   0.34267   0.34280   0.34281
     Eigenvalues ---    0.34294   0.42441   0.42469   0.42482   0.42560
     Eigenvalues ---    0.42570   0.42577   0.46367   0.46406   0.46431
     Eigenvalues ---    0.46734   0.46748   0.46757   0.47200   0.47201
     Eigenvalues ---    0.47241   0.47342   0.47342   0.473721000.00000
     Eigenvalues --- 1000.000001000.000001000.000001000.000001000.00000
     Eigenvalues --- 1000.000001000.000001000.000001000.000001000.00000
     Eigenvalues --- 1000.000001000.000001000.000001000.000001000.00000
     Eigenvalues --- 1000.000001000.000001000.000001000.000001000.00000
     Eigenvalues --- 1000.000001000.000001000.000001000.000001000.00000
     Eigenvalues --- 1000.000001000.000001000.000001000.000001000.00000
     Eigenvalues --- 1000.000001000.000001000.000001000.000001000.00000
     Eigenvalues --- 1000.000001000.000001000.000001000.000001000.00000
     Eigenvalues --- 1000.000001000.000001000.000001000.000001000.00000
     Eigenvalues --- 1000.000001000.000001000.000001000.000001000.00000
     Eigenvalues --- 1000.000001000.000001000.000001000.000001000.00000
     Eigenvalues --- 1000.000001000.000001000.000001000.000001000.00000
     Eigenvalues --- 1000.000001000.000001000.000001000.000001000.00000
     Eigenvalues --- 1000.000001000.000001000.000001000.000001000.00000
     Eigenvalues --- 1000.000001000.000001000.000001000.000001000.00000
     Eigenvalues --- 1000.000001000.000001000.000001000.000001000.00000
     Eigenvalues --- 1000.000001000.000001000.000001000.000001000.00000
     Eigenvalues --- 1000.000001000.00000
 RFO step:  Lambda=-4.16023443D-02 EMin= 6.38456221D-03
 Linear search not attempted -- first point.
 Maximum step size (   0.300) exceeded in Quadratic search.
    -- Step size scaled by   0.596
 Iteration  1 RMS(Cart)=  0.12586022 RMS(Int)=  0.00306683
 Iteration  2 RMS(Cart)=  0.00621129 RMS(Int)=  0.00028277
 Iteration  3 RMS(Cart)=  0.00001091 RMS(Int)=  0.00028271
 Iteration  4 RMS(Cart)=  0.00000000 RMS(Int)=  0.00028271
 Variable       Old X    -DE/DX   Delta X   Delta X   Delta X     New X
                                 (Linear)    (Quad)   (Total)
    R1        2.12190  -0.02436   0.00000  -0.04096  -0.04096   2.08094
    R2        2.85127   0.02316   0.00000   0.03872   0.03872   2.88999
    R3        2.85073   0.02346   0.00000   0.03919   0.03919   2.88991
    R4        2.85280   0.02298   0.00000   0.03851   0.03851   2.89131
    R5        2.63894  -0.00442   0.00000  -0.00517  -0.00515   2.63379
    R6        2.63950   0.00049   0.00000   0.00070   0.00072   2.64021
    R7        2.62817  -0.00234   0.00000  -0.00278  -0.00278   2.62539
    R8        2.07190  -0.01772   0.00000  -0.02761  -0.02761   2.04429
    R9        2.62549  -0.00466   0.00000  -0.00531  -0.00531   2.62017
   R10        2.08106  -0.02802   0.00000  -0.04427  -0.04427   2.03679
   R11        2.62714  -0.00906   0.00000  -0.01061  -0.01063   2.61651
   R12        2.06894  -0.01665   0.00000  -0.02582  -0.02582   2.04312
   R13        2.62893  -0.00544   0.00000  -0.00638  -0.00639   2.62253
   R14        2.06882  -0.01670   0.00000  -0.02589  -0.02589   2.04293
   R15        2.06859  -0.01680   0.00000  -0.02604  -0.02604   2.04255
   R16        2.64179  -0.00191   0.00000  -0.00218  -0.00217   2.63962
   R17        2.63771  -0.00206   0.00000  -0.00230  -0.00229   2.63541
   R18        2.62524  -0.00383   0.00000  -0.00446  -0.00446   2.62078
   R19        2.07284  -0.01968   0.00000  -0.03069  -0.03069   2.04214
   R20        2.62768  -0.00220   0.00000  -0.00251  -0.00251   2.62516
   R21        2.07336  -0.02106   0.00000  -0.03288  -0.03288   2.04049
   R22        2.62856  -0.00560   0.00000  -0.00663  -0.00664   2.62192
   R23        2.06884  -0.01663   0.00000  -0.02578  -0.02578   2.04306
   R24        2.62667  -0.00684   0.00000  -0.00800  -0.00801   2.61866
   R25        2.06909  -0.01671   0.00000  -0.02592  -0.02592   2.04317
   R26        2.06837  -0.01660   0.00000  -0.02571  -0.02571   2.04266
   R27        2.63873  -0.00432   0.00000  -0.00505  -0.00504   2.63369
   R28        2.63899   0.00005   0.00000   0.00017   0.00019   2.63918
   R29        2.62810  -0.00226   0.00000  -0.00268  -0.00268   2.62542
   R30        2.07187  -0.01762   0.00000  -0.02744  -0.02744   2.04442
   R31        2.62551  -0.00471   0.00000  -0.00539  -0.00538   2.62013
   R32        2.08068  -0.02733   0.00000  -0.04315  -0.04315   2.03753
   R33        2.62722  -0.00887   0.00000  -0.01038  -0.01040   2.61682
   R34        2.06902  -0.01665   0.00000  -0.02582  -0.02582   2.04320
   R35        2.62886  -0.00534   0.00000  -0.00626  -0.00628   2.62259
   R36        2.06886  -0.01673   0.00000  -0.02594  -0.02594   2.04293
   R37        2.06860  -0.01680   0.00000  -0.02604  -0.02604   2.04256
    A1        1.88079  -0.00982   0.00000  -0.05179  -0.05089   1.82990
    A2        1.82616   0.00447   0.00000   0.00298   0.00323   1.82939
    A3        1.88442  -0.00942   0.00000  -0.05116  -0.05030   1.83412
    A4        1.98332  -0.00069   0.00000   0.01817   0.01618   1.99950
    A5        1.92154   0.01578   0.00000   0.05562   0.05449   1.97603
    A6        1.96092  -0.00224   0.00000   0.01456   0.01247   1.97339
    A7        2.08280  -0.01019   0.00000  -0.02075  -0.02079   2.06201
    A8        2.12031   0.02162   0.00000   0.04423   0.04420   2.16451
    A9        2.08005  -0.01143   0.00000  -0.02341  -0.02339   2.05666
   A10        2.09940   0.00790   0.00000   0.01751   0.01753   2.11693
   A11        2.09488  -0.00459   0.00000  -0.01066  -0.01067   2.08421
   A12        2.08890  -0.00331   0.00000  -0.00685  -0.00686   2.08204
   A13        2.10191   0.00439   0.00000   0.00997   0.00994   2.11185
   A14        2.07705   0.00426   0.00000   0.01420   0.01414   2.09119
   A15        2.10409  -0.00863   0.00000  -0.02389  -0.02395   2.08014
   A16        2.09792  -0.00029   0.00000  -0.00150  -0.00151   2.09641
   A17        2.09095   0.00034   0.00000   0.00132   0.00133   2.09228
   A18        2.09431  -0.00005   0.00000   0.00018   0.00018   2.09450
   A19        2.09607   0.00235   0.00000   0.00492   0.00491   2.10098
   A20        2.09173  -0.00109   0.00000  -0.00220  -0.00220   2.08953
   A21        2.09538  -0.00126   0.00000  -0.00271  -0.00271   2.09267
   A22        2.09101  -0.00292   0.00000  -0.00745  -0.00749   2.08352
   A23        2.09625   0.00143   0.00000   0.00363   0.00364   2.09989
   A24        2.09593   0.00149   0.00000   0.00383   0.00384   2.09977
   A25        2.08730   0.00252   0.00000   0.00499   0.00497   2.09228
   A26        2.11787   0.00536   0.00000   0.01080   0.01078   2.12866
   A27        2.07636  -0.00792   0.00000  -0.01620  -0.01619   2.06017
   A28        2.10305   0.00430   0.00000   0.00961   0.00962   2.11267
   A29        2.08659  -0.00088   0.00000  -0.00105  -0.00106   2.08553
   A30        2.09354  -0.00342   0.00000  -0.00855  -0.00856   2.08498
   A31        2.10211   0.00379   0.00000   0.00866   0.00867   2.11077
   A32        2.09052  -0.00043   0.00000  -0.00001  -0.00002   2.09050
   A33        2.09055  -0.00335   0.00000  -0.00864  -0.00864   2.08191
   A34        2.09737   0.00095   0.00000   0.00156   0.00155   2.09892
   A35        2.09094  -0.00046   0.00000  -0.00074  -0.00073   2.09020
   A36        2.09488  -0.00049   0.00000  -0.00083  -0.00082   2.09406
   A37        2.09858   0.00105   0.00000   0.00200   0.00199   2.10057
   A38        2.08960  -0.00048   0.00000  -0.00087  -0.00086   2.08874
   A39        2.09501  -0.00057   0.00000  -0.00113  -0.00113   2.09388
   A40        2.08887  -0.00216   0.00000  -0.00565  -0.00566   2.08321
   A41        2.09689   0.00110   0.00000   0.00286   0.00287   2.09976
   A42        2.09742   0.00107   0.00000   0.00278   0.00279   2.10021
   A43        2.08477  -0.00895   0.00000  -0.01822  -0.01827   2.06650
   A44        2.11750   0.01996   0.00000   0.04084   0.04079   2.15829
   A45        2.08091  -0.01101   0.00000  -0.02258  -0.02257   2.05834
   A46        2.09892   0.00760   0.00000   0.01688   0.01689   2.11581
   A47        2.09508  -0.00446   0.00000  -0.01039  -0.01040   2.08467
   A48        2.08919  -0.00314   0.00000  -0.00649  -0.00651   2.08268
   A49        2.10143   0.00429   0.00000   0.00970   0.00966   2.11109
   A50        2.07729   0.00399   0.00000   0.01339   0.01331   2.09060
   A51        2.10432  -0.00824   0.00000  -0.02275  -0.02283   2.08149
   A52        2.09784  -0.00033   0.00000  -0.00150  -0.00152   2.09633
   A53        2.09095   0.00038   0.00000   0.00139   0.00140   2.09235
   A54        2.09439  -0.00005   0.00000   0.00011   0.00012   2.09451
   A55        2.09604   0.00231   0.00000   0.00482   0.00481   2.10085
   A56        2.09184  -0.00107   0.00000  -0.00215  -0.00215   2.08969
   A57        2.09530  -0.00124   0.00000  -0.00266  -0.00266   2.09264
[...]
 6,-0.00193446,-0.00035104,-0.00032593,-0.00009504,0.00024456,0.0001468
 2,-0.00058134,0.00027883,-0.00019679,0.00023925,-0.00001783,-0.0000128
 4,-0.00002657,-0.00056412,-0.00027858,0.00025901,0.00012433,-0.0002204
 7,0.00043656,0.00010922,0.00036107,-0.00020600,0.00002340,0.00002295,0
 .00004302,0.00000869,-0.00003183,-0.00003679,-0.00002024,-0.00001718,0
 .00001420,-0.00024119,0.00081116,-0.00055978,0.00031632,-0.00022215,0.
 00067333,-0.00013308,0.00002659,-0.00057125,-0.00015067,-0.00037180,-0
 .00051990,0.00002036,0.00015511,0.00001118,0.00047315,-0.00000059,0.00
 049945,-0.00004784,-0.00005548,-0.00001511,-0.00035873,0.00044080,0.00
 011143,-0.00000332,-0.00000948,-0.00000964,-0.00000077,0.00000070,0.00
 000514,-0.00000780,0.00000478,0.00000969,0.04316815,0.08746801,0.06625
 857,0.02425617,-0.00709264,-0.10246466,0.06867496,0.00457461,-0.282011
 29,-0.07159167,-0.08454637,0.03962795,0.00014347,0.00008134,-0.0011708
 8,-0.10255685,0.09527531,0.70601192,-0.00232304,0.00267265,-0.00118443
 ,0.00048079,0.00031728,-0.00034672,-0.00025943,-0.00051293,0.00053242,
 -0.00020667,0.00010868,0.00000153,-0.00008461,-0.00018172,0.00027791,0
 .00003091,-0.00005904,-0.00000146,0.00000253,0.00001490,-0.00000724,-0
 .00001581,0.00011272,-0.00002797,-0.00001584,0.00000220,-0.00034242,0.
 00001072,0.00002443,-0.00002452,-0.00000525,0.00000902,-0.00001305,-0.
 00000961,-0.00000951,-0.00000314,0.00002245,0.00000548,-0.00000914,-0.
 00020104,-0.00045490,0.00066898,0.00019375,-0.00017796,0.00032944,0.00
 001063,-0.00016361,0.00012495,-0.00025764,-0.00017453,-0.00036017,0.00
 000909,0.00015604,-0.00000594,0.00031592,0.00007165,0.00035693,-0.0003
 3561,-0.00002744,0.00015692,-0.00029587,0.00022429,0.00001190,-0.00001
 619,0.00003868,-0.00004271,0.00000991,-0.00000660,-0.00000185,-0.00001
 590,0.00002709,-0.00003934,0.00441166,-0.00984954,-0.01978301,0.002820
 58,-0.00686681,0.00192333,-0.06078326,-0.02291488,-0.01813668,-0.00102
 529,0.00001308,0.00010341,-0.00010035,-0.00049376,-0.00093794,0.006587
 06,0.00945828,0.01826404,0.05077071,0.00242537,-0.00101490,-0.00019571
 ,-0.00009421,0.00005305,0.00018608,0.00011795,0.00035372,-0.00021029,0
 .00009973,-0.00005953,0.00001845,0.00005488,0.00010685,-0.00004737,0.0
 0000262,-0.00000092,0.00002022,-0.00000649,-0.00003682,-0.00001450,-0.
 00003846,-0.00001350,0.00004596,-0.00001272,-0.00004462,0.00001319,0.0
 0001600,0.00000532,-0.00001266,0.00000740,-0.00000292,0.00000045,0.000
 01711,-0.00001124,0.00000201,-0.00000148,-0.00000886,-0.00000296,-0.00
 062492,-0.00025158,0.00026593,0.00066264,-0.00017197,0.00012571,0.0000
 0031,0.00055883,0.00021382,0.00017898,-0.00011093,0.00003354,-0.000084
 26,-0.00005021,-0.00001144,0.00008142,0.00007330,0.00026983,0.00002360
 ,-0.00003833,-0.00002237,-0.00021424,0.00006751,-0.00001205,-0.0000385
 7,0.00000122,-0.00000926,0.00002902,-0.00003084,-0.00006445,-0.0000143
 3,-0.00000313,-0.00004614,-0.00126781,-0.00777050,-0.02728302,-0.00713
 189,-0.00137106,-0.00077409,-0.02249065,-0.13490234,-0.12990526,-0.000
 12436,-0.00074448,0.00100054,0.00002236,-0.00067591,-0.00127141,-0.000
 37472,0.01079173,0.01371531,0.03022793,0.13357845,-0.00094120,0.000768
 54,-0.00079386,-0.00007189,-0.00001948,-0.00005732,0.00002477,-0.00027
 766,0.00028567,-0.00012375,0.00007425,0.00000060,-0.00013803,-0.000118
 40,0.00025130,0.00000924,-0.00000996,-0.00000376,0.00000910,0.00001064
 ,-0.00001106,0.00002447,0.00007328,-0.00002293,-0.00004262,0.00000069,
 -0.00021969,-0.00000315,0.00000093,-0.00000873,-0.00000863,0.00000280,
 -0.00000541,-0.00002036,0.00000236,-0.00000669,0.00000714,0.00000408,-
 0.00000800,0.00127499,0.00210630,-0.00106444,0.00058058,0.00017138,-0.
 00002045,0.00060925,0.00074063,-0.00085374,-0.00003650,-0.00002063,-0.
 00000216,-0.00003892,-0.00008509,0.00003778,0.00018290,-0.00002936,-0.
 00003817,-0.00013870,-0.00003838,0.00009355,-0.00018828,0.00000770,-0.
 00002614,0.00000938,-0.00001436,0.00000036,-0.00001303,-0.00000053,0.0
 0002206,-0.00000083,-0.00000691,0.00001811,0.00150336,0.00079728,0.002
 17278,0.00147459,-0.00052156,0.00186921,-0.01795374,-0.13191072,-0.301
 44163,0.00021517,0.00089609,0.00046912,0.00008014,0.00006251,0.0000262
 4,-0.00480178,-0.01666076,-0.01769009,0.01525588,0.14156225,0.31926270
 ,-0.00166298,-0.00018794,-0.00045400,-0.00007924,0.00053124,0.00014623
 ,0.00021130,-0.00006661,0.00101291,-0.00001726,0.00020127,0.00004506,-
 0.00012696,-0.00008813,0.00009769,-0.00010538,0.00003382,-0.00009472,0
 .00002320,0.00000742,0.00001006,0.00017709,0.00012235,-0.00008932,-0.0
 0001493,0.00009850,-0.00013723,-0.00007173,-0.00011361,0.00007377,-0.0
 0003146,-0.00001127,-0.00001720,-0.00001636,0.00002019,0.00000851,-0.0
 0000035,0.00000970,-0.00000722,0.00006352,-0.00029221,0.00001420,-0.00
 004142,0.00010160,-0.00012444,0.00009922,0.00001436,0.00013944,0.00004
 073,0.00011142,0.00011338,-0.00005508,-0.00002366,-0.00003020,-0.00009
 328,0.00000725,-0.00009509,-0.00001594,0.00000171,0.00000988,0.0001016
 0,-0.00008403,0.00001147,0.00000826,-0.00001130,0.00002929,-0.00000309
 ,0.00000018,0.00001502,-0.00000065,-0.00000108,0.00000853,-0.01855611,
 -0.02733401,-0.02462219,-0.02034500,-0.02179997,0.04596667,0.03279221,
 0.03331694,0.00385907,-0.17977437,-0.13958819,-0.01810210,0.00448686,-
 0.00429772,0.00446017,-0.11619420,-0.02960159,0.03131594,0.00351022,-0
 .00510230,0.00447817,0.42266492,-0.00166219,-0.00122182,0.00018808,-0.
 00027748,0.00090413,0.00039464,0.00019106,0.00025915,0.00121509,0.0003
 2095,0.00030218,0.00011724,-0.00029406,0.00001956,0.00032118,-0.000255
 64,0.00018212,-0.00019955,0.00001308,0.00000620,0.00000485,0.00042909,
 0.00013472,-0.00012191,-0.00011681,0.00006379,-0.00018612,-0.00014829,
 -0.00028867,0.00017388,-0.00002615,-0.00002351,-0.00003561,-0.00003038
 ,0.00004717,0.00002238,-0.00000413,0.00000481,-0.00000753,0.00018074,-
 0.00052139,0.00013315,0.00003437,0.00014259,-0.00036893,0.00017842,0.0
 0018986,0.00036059,0.00012370,0.00021809,0.00031434,-0.00004535,-0.000
 08346,0.00000130,-0.00024520,0.00004346,-0.00021870,-0.00001066,-0.000
 00069,0.00001763,0.00020176,-0.00024974,-0.00003387,-0.00000418,0.0000
 0664,0.00000840,-0.00000437,-0.00000670,0.00000828,-0.00000147,-0.0000
 0667,-0.00000515,-0.02599014,-0.06527688,-0.04682690,-0.03862583,-0.00
 598414,0.08671182,0.05076573,0.06728087,-0.02774798,-0.11620993,-0.269
 61112,-0.05909357,-0.00400749,0.00370751,0.00026177,-0.05308391,-0.183
 49681,-0.06291699,-0.00531516,0.00268567,0.00167199,0.26731936,0.56460
 345,-0.00114559,-0.00050148,0.00068157,-0.00004557,0.00061577,-0.00016
 445,-0.00031101,0.00028145,0.00039612,0.00040489,-0.00003012,0.0001219
 8,0.00009518,0.00014625,0.00012760,-0.00014085,0.00015611,-0.00010765,
 -0.00002331,-0.00000350,0.00000480,0.00026918,0.00009562,-0.00010129,-
 0.00000953,0.00022599,-0.00030400,0.00000877,-0.00019154,0.00010937,0.
 00002512,-0.00001787,-0.00002452,0.00005427,-0.00002186,0.00001019,0.0
 0001840,0.00000193,-0.00000098,0.00043029,-0.00021515,0.00014309,-0.00
 000768,0.00003037,-0.00036515,0.00005634,0.00025063,0.00018914,0.00007
 941,0.00013839,0.00028263,0.00000494,-0.00005169,0.00001492,-0.0001995
 4,0.00006143,-0.00015033,-0.00001376,0.00001733,0.00002399,0.00012131,
 -0.00024633,-0.00010299,-0.00001665,0.00002632,-0.00002636,-0.00000150
 ,-0.00001925,-0.00002583,-0.00000531,-0.00000098,-0.00002498,-0.024072
 31,-0.04550911,-0.03546355,0.00644353,0.03074163,0.06258445,0.04379065
 ,0.02762811,-0.06390807,0.03294773,0.01088039,-0.15876712,0.00480430,0
 .00090254,-0.00382315,-0.02035317,-0.13249870,-0.31762916,0.00442715,0
 .00128061,-0.00197114,-0.15696110,0.05491867,0.77156261,0.00016220,0.0
 0050424,0.00059019,0.00006373,0.00002476,-0.00006691,0.00004642,-0.000
 03446,0.00008005,-0.00003654,0.00001524,0.00000805,-0.00003832,-0.0000
 0425,-0.00001458,-0.00000131,-0.00000946,-0.00001049,0.00000534,0.0000
 1100,0.00000257,-0.00001264,-0.00001139,-0.00001492,0.00001321,0.00001
 022,0.00003142,-0.00002760,0.00000567,-0.00001005,-0.00000401,0.000002
 84,0.00000243,-0.00001087,0.00001551,0.00000653,-0.00000207,0.00000385
 ,0.00000616,-0.00026839,-0.00003782,0.00016599,0.00004014,-0.00003193,
 0.00004096,0.00001820,-0.00000249,0.00000438,-0.00000736,-0.00000701,-
 0.00005023,-0.00000003,0.00000090,-0.00000143,0.00004343,0.00000849,0.
 00002407,-0.00001484,-0.00000513,0.00000695,-0.00002212,0.00003977,0.0
 0002887,-0.00000042,-0.00000331,-0.00000086,0.00000176,0.00000539,0.00
 000713,-0.00000084,-0.00000051,0.00000308,0.00365591,-0.00530844,0.004
 26834,0.00669831,0.00962202,0.01780210,-0.00103597,-0.00009343,0.00014
 843,-0.05942776,-0.02021650,-0.01209532,-0.00261875,0.00272290,-0.0016
 9530,0.00294373,-0.00702636,0.00176794,-0.00071316,0.00062468,-0.00024
 014,0.00451807,-0.01027136,-0.01974341,0.04856644,0.00014761,0.0002816
 6,0.00054148,0.00002868,-0.00004097,-0.00003252,0.00004335,0.00002120,
 -0.00009649,-0.00001035,-0.00004123,-0.00001266,0.00002123,-0.00001040
 ,0.00000677,0.00001083,-0.00000873,0.00001180,-0.00000253,-0.00000288,
 0.00000404,-0.00001488,0.00002784,0.00000535,-0.00002746,-0.00000259,-
 0.00002026,0.00002064,0.00001113,-0.00000435,0.00000379,0.00000209,0.0
 0000179,0.00000785,-0.00001588,-0.00000497,0.00000655,-0.00000140,-0.0
 0000439,-0.00002676,-0.00010140,0.00000506,-0.00000231,0.00003504,-0.0
 0001267,0.00001928,0.00003518,0.00002246,0.00002045,0.00001372,0.00002
 978,-0.00000327,-0.00001825,0.00000540,-0.00001313,0.00001613,-0.00002
 142,-0.00000723,-0.00000460,0.00000495,0.00002403,-0.00002347,0.000000
 44,-0.00000016,0.00000105,0.00000422,-0.00000228,-0.00000516,0.0000013
 4,-0.00000275,-0.00000349,-0.00000172,-0.00518604,0.00269304,0.0012810
 9,-0.00083025,0.01070644,0.01345566,-0.00008806,-0.00061967,0.00099061
 ,-0.02014008,-0.13597729,-0.13038645,0.00301138,-0.00084758,0.00045307
 ,-0.00714582,-0.00140848,-0.00058423,0.00059648,-0.00039494,0.00011032
 ,0.00008673,-0.00730923,-0.02824825,0.02696198,0.13434754,-0.00050841,
 -0.00089539,-0.00074807,0.00000020,0.00005863,0.00000403,-0.00017532,0
 .00009720,-0.00011698,0.00011015,-0.00003084,0.00003385,0.00005441,-0.
 00003935,0.00003561,0.00001720,0.00001845,0.00000633,-0.00001732,-0.00
 000859,-0.00000843,0.00000008,0.00002164,-0.00000663,-0.00003241,0.000
 03646,-0.00002526,0.00003662,0.00000461,0.00000500,0.00002210,0.000002
 30,-0.00001321,0.00001312,-0.00002090,-0.00000144,0.00001812,-0.000004
 08,-0.00000576,0.00035271,0.00020523,-0.00006492,-0.00000486,-0.000047
 38,-0.00007642,-0.00007844,0.00001543,-0.00009070,0.00001024,-0.000024
 12,0.00001389,0.00001430,-0.00000361,0.00001448,-0.00001655,-0.0000054
 7,0.00002291,0.00000213,0.00000476,0.00000587,-0.00001659,-0.00000318,
 -0.00003386,-0.00002025,0.00000551,-0.00001577,-0.00000103,-0.00001355
 ,-0.00001745,-0.00000600,-0.00000200,-0.00001535,0.00481964,0.00157796
 ,-0.00175618,-0.00490509,-0.01757470,-0.01819371,0.00028015,0.00100645
 ,0.00045424,-0.01200347,-0.13016809,-0.29858624,-0.00092806,0.00147631
 ,0.00082396,0.00141902,-0.00101285,0.00218762,-0.00029880,0.00009941,-
 0.00015451,0.00282464,0.00258763,0.00270580,0.01060980,0.14228190,0.31
 297543,-0.00031955,-0.00052100,-0.00030805,-0.00018536,-0.00007967,0.0
 0022003,0.00013997,-0.00014463,0.00009049,-0.00010772,0.00005323,-0.00
 002650,-0.00010179,0.00000215,0.00006209,-0.00000155,-0.00000399,0.000
 00448,0.00001092,0.00001301,-0.00001633,0.00001358,-0.00000672,0.00001
 202,0.00003337,-0.00006073,-0.00001338,-0.00002466,0.00000718,-0.00000
 237,-0.00001348,0.00000096,0.00000253,-0.00002893,0.00001341,-0.000009
 47,-0.00000994,-0.00000004,-0.00000330,-0.00008470,-0.00000916,-0.0002
 2051,0.00003154,0.00000360,-0.00000717,0.00006452,0.00002350,0.0000819
 2,-0.00000902,0.00001862,0.00001879,-0.00001315,0.00002387,-0.00000375
 ,-0.00001597,0.00001363,-0.00002483,-0.00001764,-0.00000982,-0.0000031
 2,0.00003072,-0.00000706,0.00001788,0.00000481,-0.00000022,0.00000264,
 -0.00000714,0.00000779,0.00002359,0.00000291,-0.00000038,0.00001076,0.
 00440321,-0.00371185,0.00457731,-0.00032059,0.00094486,0.00015234,-0.0
 0455812,-0.01568858,-0.00458359,0.00607173,-0.00326771,0.00141394,-0.0
 0079615,0.00049219,-0.00028633,-0.15602196,-0.15033388,-0.01100782,-0.
 00253466,0.00298392,-0.00078701,0.00418825,-0.00061136,0.00293504,-0.0
 0010241,-0.00001083,0.00003457,0.15287371,0.00001361,-0.00035506,-0.00
 055660,-0.00008791,-0.00009058,0.00008777,0.00004536,-0.00005723,0.000
 16543,-0.00005970,0.00004929,0.00000397,-0.00003346,0.00004657,-0.0000
 1794,-0.00001999,-0.00000267,-0.00000973,0.00001171,0.00000126,-0.0000
 0181,0.00001397,-0.00002066,0.00001465,0.00001121,-0.00003952,0.000000
 85,-0.00002038,-0.00000894,0.00000866,-0.00001644,-0.00000736,0.000001
 87,-0.00000761,0.00000744,-0.00000867,-0.00001449,0.00000068,0.0000011
 2,-0.00011450,-0.00001622,-0.00007540,0.00002158,0.00001232,0.00007277
 ,0.00002494,-0.00003292,0.00000015,-0.00000102,0.00000677,-0.00004262,
 -0.00002608,-0.00000206,-0.00001357,0.00003418,0.00000105,0.00001272,0
 .00000017,-0.00001152,-0.00001147,0.00001342,0.00004636,0.00004167,0.0
 0001072,-0.00002124,0.00002313,-0.00000467,0.00000499,0.00001705,-0.00
 000035,-0.00000198,0.00002052,-0.00413661,0.00348076,0.00095556,0.0009
 4223,0.00042996,0.00024713,-0.00542467,-0.00419185,-0.00527548,-0.0030
 9772,0.00281612,-0.00432997,0.00049814,-0.00050828,0.00019226,-0.15017
 555,-0.26376139,-0.02571874,0.00266195,-0.00082664,0.00128714,-0.01089
 955,-0.00782205,0.00292714,-0.00042798,-0.00064992,0.00005221,0.167293
 21,0.27238614,0.00045270,0.00097500,0.00052591,0.00016814,0.00017042,-
 0.00020898,-0.00004607,0.00009120,-0.00012450,0.00007026,-0.00002433,-
 0.00000946,0.00002127,-0.00002736,0.00000077,0.00001283,0.00000716,0.0
 0000528,-0.00000801,-0.00000976,0.00000256,0.00000217,-0.00000481,0.00
 000588,0.00000401,0.00000360,0.00000726,0.00001292,0.00000106,-0.00000
 203,0.00000920,0.00000213,-0.00000002,0.00000414,-0.00000361,0.0000029
 6,0.00000358,-0.00000191,-0.00000047,0.00002120,-0.00001438,0.00020013
 ,-0.00003228,-0.00000939,-0.00003134,-0.00002492,-0.00003379,0.0000008
 1,-0.00001046,-0.00000176,0.00001122,0.00001560,0.00000372,-0.00000046
 ,-0.00001816,-0.00001812,-0.00001271,0.00001619,0.00001161,0.00000161,
 -0.00002586,-0.00002371,-0.00003616,-0.00000241,0.00000864,-0.00001176
 ,0.00000763,0.00000146,-0.00001637,0.00000357,0.00000449,-0.00000987,0
 .00456608,0.00049751,-0.00389237,0.00017771,0.00011555,-0.00133614,0.0
 1807576,0.02551947,0.00775004,0.00167364,-0.00389976,-0.00481189,-0.00
 027168,0.00019807,0.00001791,-0.01096342,-0.02590575,-0.07394459,-0.00
 162219,0.00043236,0.00092346,-0.01990573,-0.02787625,0.00346566,-0.000
 90320,-0.00127033,-0.00009348,0.00930374,0.02954726,0.07078312,-0.0007
 0871,0.00047271,-0.00012713,0.00005758,0.00015536,-0.00000130,-0.00000
 569,-0.00010468,0.00013808,-0.00005789,0.00003796,-0.00001512,-0.00004
 495,0.00000490,0.00000219,-0.00001147,-0.00000194,-0.00000524,0.000006
 34,0.00000584,-0.00000527,0.00002086,-0.00002408,0.00000510,0.00003337
 ,-0.00002923,0.00001445,-0.00001947,-0.00000565,0.00000213,-0.00001009
 ,-0.00000119,0.00000217,-0.00001559,0.00001614,0.00000011,-0.00001007,
 0.00000119,0.00000275,-0.00004818,0.00000302,0.00001304,-0.00001245,-0
 .00002449,0.00002808,0.00001640,-0.00002355,0.00000620,-0.00001866,0.0
 0000375,-0.00000872,-0.00000105,0.00001612,-0.00000390,0.00000570,-0.0
 0000341,-0.00000582,-0.00000135,0.00000390,-0.00000389,0.00000404,0.00
 000690,0.00001104,0.00000566,0.00000074,-0.00000159,-0.00000261,0.0000
 0500,0.00000837,0.00000341,0.00000237,0.00000543,-0.00041100,0.0002736
 1,-0.00097421,0.00366207,-0.00670183,0.00036791,0.00588664,-0.00387255
 ,0.00073737,-0.00439074,-0.00450554,0.01839105,-0.00048771,-0.00023457
 ,0.00075374,0.00618363,-0.00074362,-0.00460860,0.00001232,0.00004547,-
 0.00019058,-0.13567965,-0.06251671,0.12613378,-0.00243150,0.00250330,-
 0.00162662,-0.00259478,0.00297230,-0.00078799,0.13106561,0.00056115,-0
 .00028390,0.00016711,-0.00003853,-0.00002956,-0.00006569,0.00007682,0.
 00006507,-0.00003037,0.00002749,0.00000784,0.00000622,-0.00000286,0.00
 001672,0.00001688,0.00000090,0.00001308,-0.00000447,0.00000270,-0.0000
 0281,-0.00000626,0.00000969,-0.00000227,0.00000355,-0.00001206,-0.0000
 1090,-0.00001661,-0.00000346,-0.00000814,0.00000156,-0.00000334,-0.000
 00442,0.00000188,0.00000162,0.00000178,-0.00000248,-0.00000604,0.00000
 076,-0.00000027,-0.00005483,0.00000839,-0.00003703,0.00004096,0.000012
 29,0.00001337,0.00002691,0.00003295,0.00003235,0.00000224,0.00000245,-
 0.00000495,-0.00001464,-0.00000056,-0.00000752,0.00000730,0.00000640,0
 .00001482,-0.00000296,-0.00000871,-0.00000119,-0.00000388,0.00000334,0
 .00000875,0.00000370,-0.00000384,0.00000694,0.00000162,0.00000233,0.00
 000247,0.00000051,0.00000095,0.00000367,0.00018757,-0.00102315,-0.0006
 3894,-0.00655464,-0.00153370,-0.00268189,-0.00399937,0.00158069,-0.004
 52259,-0.01493510,-0.00341962,0.02610895,-0.00066708,-0.00049342,0.001
 18173,0.00961564,0.01096397,-0.01624162,0.00046555,0.00026052,-0.00063
 735,-0.06248090,-0.09889909,0.07622914,0.00291238,-0.00070450,0.000302
 01,0.00257250,-0.00086163,0.00153431,0.07226245,0.09431068,-0.00028794
 ,0.00015569,0.00003262,0.00005562,0.00008896,-0.00002203,-0.00007228,0
 .00001025,-0.00001124,0.00002291,-0.00002265,0.00000909,0.00002535,-0.
 00004252,0.00002463,0.00000992,-0.00000490,0.00000491,-0.00000704,-0.0
 0000115,0.00000118,-0.00001246,0.00003076,-0.00001676,-0.00002978,0.00
 003325,-0.00002339,0.00001577,0.00000581,-0.00000470,0.00001077,0.0000
 0487,-0.00000517,0.00000705,-0.00000952,0.00000487,0.00001414,-0.00000
 010,-0.00000188,0.00007207,0.00003005,0.00003057,0.00003336,-0.0000229
 4,-0.00002071,-0.00002023,0.00005418,-0.00005141,0.00001733,-0.0000194
 8,0.00000386,0.00000718,-0.00000966,0.00001409,0.00001513,0.00002268,0
 .00003253,-0.00002154,-0.00000355,0.00001566,-0.00001674,0.00000174,-0
 .00000386,-0.00001320,0.00000957,-0.00001104,0.00000070,-0.00001150,-0
 .00000944,-0.00000648,-0.00000240,-0.00001556,-0.00087915,-0.00069568,
 0.00009332,0.00073669,-0.00214041,0.00179399,0.00030899,-0.00506999,-0
 .00322354,-0.00425445,-0.00481494,0.00721997,-0.00014984,-0.00011259,0
 .00011206,0.01834010,0.01460507,-0.01761920,0.00075391,0.00059731,-0.0
 0103300,0.12600043,0.07620615,-0.25946321,-0.00075863,0.00148316,0.000
 73538,-0.00166065,0.00038096,0.00083803,-0.13825703,-0.08073649,0.2705
 6940||0.00000606,0.00000685,0.00000580,0.00000043,-0.00000249,-0.00000
 301,-0.00001359,-0.00002339,0.00002075,0.00003045,0.00000791,-0.000011
 17,-0.00002481,0.00001888,-0.00001187,-0.00002314,0.00002199,-0.000006
 08,-0.00000212,-0.00000087,0.00000100,0.00002881,0.00000635,-0.0000050
 3,0.00000138,-0.00000176,0.00000214,-0.00000508,-0.00002828,0.00001257
 ,0.00000133,-0.00000198,0.00000098,-0.00000287,0.00000009,0.00000036,-
 0.00000015,0.00000242,-0.00000118,0.00000739,-0.00001487,-0.00001254,-
 0.00000868,0.00000202,0.00000068,0.00000078,0.00000736,0.00000953,0.00
 000111,0.00000745,0.00000833,0.00000005,0.00000098,0.00000002,-0.00000
 777,-0.00000103,-0.00000500,0.00000077,-0.00000090,-0.00000062,0.00000
 605,-0.00000720,-0.00000360,0.00000053,-0.00000035,0.00000078,0.000000
 63,0.00000073,0.00000031,0.00000049,0.00000005,0.00000065,-0.00000096,
 -0.00000928,-0.00000459,-0.00000252,0.00000366,0.00000966,0.00000527,0
 .00001018,-0.00000468,0.00001099,0.00000630,-0.00000277,-0.00000070,0.
 00000028,-0.00000127,-0.00000153,-0.00000215,0.00001116,-0.00000115,-0
 .00000123,-0.00000168,-0.00000770,-0.00000812,-0.00000773,-0.00000093,
 -0.00000098,-0.00000058,0.00000046,0.00000018,-0.00000132,0.00000071,0
 .00000117,0.00000003|||@


 MY DESCRIPTION OF EXPERIENCE IS NOT WHAT HAPPENS
 TO A MAN.  EXPERIENCE IS WHAT A MAN DOES WITH WHAT
 HAPPENS TO HIM.
                         - CHUCK KNOX, SEATTLE SEAHAWKS, 1985
 Job cpu time:  0 days  0 hours  6 minutes 25.0 seconds.
 File lengths (MBytes):  RWF=    350 Int=      0 D2E=      0 Chk=      7 Scr=      1
 Normal termination of Gaussian 09 at Tue Sep 07 10:00:10 2021.
