 Entering Link 1 = b:\programy\g09w\l1.exe PID=     18364.
  
 Copyright (c) 1988,1990,1992,1993,1995,1998,2003,2009, Gaussian, Inc.
                  All Rights Reserved.
  
 This is part of the Gaussian(R) 09 program.  It is based on
 the Gaussian(R) 03 system (copyright 2003, Gaussian, Inc.),
 the Gaussian(R) 98 system (copyright 1998, Gaussian, Inc.),
 the Gaussian(R) 94 system (copyright 1995, Gaussian, Inc.),
 the Gaussian 92(TM) system (copyright 1992, Gaussian, Inc.),
 the Gaussian 90(TM) system (copyright 1990, Gaussian, Inc.),
 the Gaussian 88(TM) system (copyright 1988, Gaussian, Inc.),
 the Gaussian 86(TM) system (copyright 1986, Carnegie Mellon
 University), and the Gaussian 82(TM) system (copyright 1983,
 Carnegie Mellon University). Gaussian is a federally registered
 trademark of Gaussian, Inc.
  
 This software contains proprietary and confidential information,
 including trade secrets, belonging to Gaussian, Inc.
  
 This software is provided under written license and may be
 used, copied, transmitted, or stored only in accord with that
 written license.
  
 The following legend is applicable only to US Government
 contracts under FAR:
  
                    RESTRICTED RIGHTS LEGEND
  
 Use, reproduction and disclosure by the US Government is
 subject to restrictions as set forth in subparagraphs (a)
 and (c) of the Commercial Computer Software - Restricted
 Rights clause in FAR 52.227-19.
  
 Gaussian, Inc.
 340 Quinnipiac St., Bldg. 40, Wallingford CT 06492
  
  
 ---------------------------------------------------------------
 Warning -- This program may not be used in any manner that
 competes with the business of Gaussian, Inc. or will provide
 assistance to any competitor of Gaussian, Inc.  The licensee
 of this program is prohibited from giving any competitor of
 Gaussian, Inc. access to this program.  By using this program,
 the user acknowledges that Gaussian, Inc. is engaged in the
 business of creating and licensing software in the field of
 computational chemistry and represents and warrants to the
 licensee that it is not a competitor of Gaussian, Inc. and that
 it will not use this program in any manner prohibited above.
 ---------------------------------------------------------------
  

 Cite this work as:
 Gaussian 09, Revision A.02,
 M. J. Frisch, G. W. Trucks, H. B. Schlegel, G. E. Scuseria, 
 M. A. Robb, J. R. Cheeseman, G. Scalmani, V. Barone, B. Mennucci, 
 G. A. Petersson, H. Nakatsuji, M. Caricato, X. Li, H. P. Hratchian, 
 A. F. Izmaylov, J. Bloino, G. Zheng, J. L. Sonnenberg, M. Hada, 
 M. Ehara, K. Toyota, R. Fukuda, J. Hasegawa, M. Ishida, T. Nakajima, 
 Y. Honda, O. Kitao, H. Nakai, T. Vreven, J. A. Montgomery, Jr., 
 J. E. Peralta, F. Ogliaro, M. Bearpark, J. J. Heyd, E. Brothers, 
 K. N. Kudin, V. N. Staroverov, R. Kobayashi, J. Normand, 
 K. Raghavachari, A. Rendell, J. C. Burant, S. S. Iyengar, J. Tomasi, 
 M. Cossi, N. Rega, J. M. Millam, M. Klene, J. E. Knox, J. B. Cross, 
 V. Bakken, C. Adamo, J. Jaramillo, R. Gomperts, R. E. Stratmann, 
 O. Yazyev, A. J. Austin, R. Cammi, C. Pomelli, J. W. Ochterski, 
 R. L. Martin, K. Morokuma, V. G. Zakrzewski, G. A. Voth, 
 P. Salvador, J. J. Dannenberg, S. Dapprich, A. D. Daniels, 
 O. Farkas, J. B. Foresman, J. V. Ortiz, J. Cioslowski, 
 and D. J. Fox, Gaussian, Inc., Wallingford CT, 2009.
 
 ******************************************
 Gaussian 09:  IA32W-G09RevA.02 11-Jun-2009
                07-Sep-2021 
 ******************************************
 %nprocshared=12
 Will use up to   12 processors via shared memory.
 ----------------------------------------------
 # opt freq=noraman hf/6-311g geom=connectivity
 ----------------------------------------------
 1/18=20,19=15,38=1,57=2/1,3;
 2/9=110,12=2,17=6,18=5,40=1/2;
 3/5=4,6=6,11=9,16=1,25=1,30=1,71=1/1,2,3;
 4//1;
 5/5=2,38=5/2;
 6/7=2,8=2,9=2,10=2,28=1/1;
 7//1,2,3,16;
 1/18=20,19=15/3(2);
 2/9=110/2;
 99//99;
 2/9=110/2;
 3/5=4,6=6,11=9,16=1,25=1,30=1,71=1/1,2,3;
 4/5=5,16=3/1;
 5/5=2,38=5/2;
 7//1,2,3,16;
 1/18=20,19=15/3(-5);
 2/9=110/2;
 6/7=2,8=2,9=2,10=2,19=2,28=1/1;
 99/9=1/99;
 -----
 M0001
 -----
 Symbolic Z-matrix:
 Charge =  0 Multiplicity = 1
 C                    -0.76453   0.07635   0.10587 
 H                    -1.87732   0.18966   0.20678 
 C                    -0.24981   1.48182  -0.08407 
 C                     0.49751   2.14374   0.88936 
 C                    -0.58595   2.16198  -1.25966 
 C                     0.9062    3.45868   0.69002 
 H                     0.76626   1.62605   1.81904 
 C                    -0.17573   3.47357  -1.45736 
 H                    -1.17361   1.64834  -2.03009 
 C                     0.57225   4.12598  -0.48188 
 H                     1.49262   3.96714   1.46227 
 H                    -0.44243   3.99448  -2.38271 
 H                     0.89504   5.16022  -0.63763 
 C                    -0.26395  -0.60434   1.35509 
 C                     1.08649  -0.91438   1.53263 
 C                    -1.17622  -0.94175   2.35756 
 C                     1.51706  -1.54864   2.69143 
 H                     1.80293  -0.66165   0.7349 
 C                    -0.74316  -1.57678   3.5164 
 H                    -2.23999  -0.7064    2.233 
 C                     0.60298  -1.8804    3.68615 
 H                     2.57778  -1.78825   2.81917 
 H                    -1.46596  -1.83821   4.29623 
 H                     0.94242  -2.38035   4.59891 
 C                    -0.49304  -0.77853  -1.1087 
 C                     0.80601  -0.97961  -1.57957 
 C                    -1.56146  -1.37773  -1.779 
 C                     1.03257  -1.76017  -2.70667 
 H                     1.64829  -0.52598  -1.03501 
 C                    -1.33203  -2.16017  -2.90573 
 H                    -2.58623  -1.23362  -1.41757 
 C                    -0.03656  -2.35038  -3.37299 
 H                     2.05485  -1.91044  -3.06879 
 H                    -2.17516  -2.62609  -3.42571 
 H                     0.1419   -2.96412  -4.26168 
 

 GradGradGradGradGradGradGradGradGradGradGradGradGradGradGradGradGradGrad
 Berny optimization.
 Initialization pass.
                           ----------------------------
                           !    Initial Parameters    !
                           ! (Angstroms and Degrees)  !
 --------------------------                            --------------------------
 ! Name  Definition              Value          Derivative Info.                !
 --------------------------------------------------------------------------------
 ! R1    R(1,2)                  1.1231         estimate D2E/DX2                !
 ! R2    R(1,3)                  1.5088         estimate D2E/DX2                !
 ! R3    R(1,14)                 1.5081         estimate D2E/DX2                !
 ! R4    R(1,25)                 1.5099         estimate D2E/DX2                !
 ! R5    R(3,4)                  1.3943         estimate D2E/DX2                !
 ! R6    R(3,5)                  1.3992         estimate D2E/DX2                !
 ! R7    R(4,6)                  1.3913         estimate D2E/DX2                !
 ! R8    R(4,7)                  1.0975         estimate D2E/DX2                !
 ! R9    R(5,8)                  1.3884         estimate D2E/DX2                !
 ! R10   R(5,9)                  1.0967         estimate D2E/DX2                !
 ! R11   R(6,10)                 1.3893         estimate D2E/DX2                !
 ! R12   R(6,11)                 1.0949         estimate D2E/DX2                !
 ! R13   R(8,10)                 1.3916         estimate D2E/DX2                !
 ! R14   R(8,12)                 1.0949         estimate D2E/DX2                !
 ! R15   R(10,13)                1.0946         estimate D2E/DX2                !
 ! R16   R(14,15)                1.3969         estimate D2E/DX2                !
 ! R17   R(14,16)                1.3968         estimate D2E/DX2                !
 ! R18   R(15,17)                1.3894         estimate D2E/DX2                !
 ! R19   R(15,18)                1.1016         estimate D2E/DX2                !
 ! R20   R(16,19)                1.3906         estimate D2E/DX2                !
 ! R21   R(16,20)                1.0966         estimate D2E/DX2                !
 ! R22   R(17,21)                1.3911         estimate D2E/DX2                !
 ! R23   R(17,22)                1.0949         estimate D2E/DX2                !
 ! R24   R(19,21)                1.3904         estimate D2E/DX2                !
 ! R25   R(19,23)                1.095          estimate D2E/DX2                !
 ! R26   R(21,24)                1.0947         estimate D2E/DX2                !
 ! R27   R(25,26)                1.3963         estimate D2E/DX2                !
 ! R28   R(25,27)                1.3964         estimate D2E/DX2                !
 ! R29   R(26,28)                1.3896         estimate D2E/DX2                !
 ! R30   R(26,29)                1.1008         estimate D2E/DX2                !
 ! R31   R(27,30)                1.3908         estimate D2E/DX2                !
 ! R32   R(27,31)                1.0962         estimate D2E/DX2                !
 ! R33   R(28,32)                1.3912         estimate D2E/DX2                !
 ! R34   R(28,33)                1.0949         estimate D2E/DX2                !
 ! R35   R(30,32)                1.3902         estimate D2E/DX2                !
 ! R36   R(30,34)                1.0947         estimate D2E/DX2                !
 ! R37   R(32,35)                1.0947         estimate D2E/DX2                !
 ! A1    A(2,1,3)              104.794          estimate D2E/DX2                !
 ! A2    A(2,1,14)             107.4568         estimate D2E/DX2                !
 ! A3    A(2,1,25)             107.9129         estimate D2E/DX2                !
 ! A4    A(3,1,14)             114.2982         estimate D2E/DX2                !
 ! A5    A(3,1,25)             111.3968         estimate D2E/DX2                !
 ! A6    A(14,1,25)            110.5539         estimate D2E/DX2                !
 ! A7    A(1,3,4)              122.4922         estimate D2E/DX2                !
 ! A8    A(1,3,5)              118.4671         estimate D2E/DX2                !
 ! A9    A(4,3,5)              118.9842         estimate D2E/DX2                !
 ! A10   A(3,4,6)              120.4022         estimate D2E/DX2                !
 ! A11   A(3,4,7)              119.9132         estimate D2E/DX2                !
 ! A12   A(6,4,7)              119.6846         estimate D2E/DX2                !
 ! A13   A(3,5,8)              120.5235         estimate D2E/DX2                !
 ! A14   A(3,5,9)              119.4269         estimate D2E/DX2                !
 ! A15   A(8,5,9)              120.0488         estimate D2E/DX2                !
 ! A16   A(4,6,10)             120.2772         estimate D2E/DX2                !
 ! A17   A(4,6,11)             119.6807         estimate D2E/DX2                !
 ! A18   A(10,6,11)            120.042          estimate D2E/DX2                !
 ! A19   A(5,8,10)             120.1235         estimate D2E/DX2                !
 ! A20   A(5,8,12)             119.8565         estimate D2E/DX2                !
 ! A21   A(10,8,12)            120.02           estimate D2E/DX2                !
 ! A22   A(6,10,8)             119.6886         estimate D2E/DX2                !
 ! A23   A(6,10,13)            120.1973         estimate D2E/DX2                !
 ! A24   A(8,10,13)            120.1141         estimate D2E/DX2                !
 ! A25   A(1,14,15)            121.7576         estimate D2E/DX2                !
 ! A26   A(1,14,16)            119.1257         estimate D2E/DX2                !
 ! A27   A(15,14,16)           119.1153         estimate D2E/DX2                !
 ! A28   A(14,15,17)           120.4579         estimate D2E/DX2                !
 ! A29   A(14,15,18)           119.0635         estimate D2E/DX2                !
 ! A30   A(17,15,18)           120.4732         estimate D2E/DX2                !
 ! A31   A(14,16,19)           120.3313         estimate D2E/DX2                !
 ! A32   A(14,16,20)           120.0137         estimate D2E/DX2                !
 ! A33   A(19,16,20)           119.6549         estimate D2E/DX2                !
 ! A34   A(15,17,21)           120.1072         estimate D2E/DX2                !
 ! A35   A(15,17,22)           119.8296         estimate D2E/DX2                !
 ! A36   A(21,17,22)           120.0632         estimate D2E/DX2                !
 ! A37   A(16,19,21)           120.1983         estimate D2E/DX2                !
 ! A38   A(16,19,23)           119.7993         estimate D2E/DX2                !
 ! A39   A(21,19,23)           120.0024         estimate D2E/DX2                !
 ! A40   A(17,21,19)           119.7899         estimate D2E/DX2                !
 ! A41   A(17,21,24)           120.0935         estimate D2E/DX2                !
 ! A42   A(19,21,24)           120.1165         estimate D2E/DX2                !
 ! A43   A(1,25,26)            121.3384         estimate D2E/DX2                !
 ! A44   A(1,25,27)            119.4408         estimate D2E/DX2                !
 ! A45   A(26,25,27)           119.2204         estimate D2E/DX2                !
 ! A46   A(25,26,28)           120.4043         estimate D2E/DX2                !
 ! A47   A(25,26,29)           119.0577         estimate D2E/DX2                !
 ! A48   A(28,26,29)           120.5291         estimate D2E/DX2                !
 ! A49   A(25,27,30)           120.2695         estimate D2E/DX2                !
 ! A50   A(25,27,31)           120.0411         estimate D2E/DX2                !
 ! A51   A(30,27,31)           119.6894         estimate D2E/DX2                !
 ! A52   A(26,28,32)           120.0994         estimate D2E/DX2                !
 ! A53   A(26,28,33)           119.8406         estimate D2E/DX2                !
 ! A54   A(32,28,33)           120.06           estimate D2E/DX2                !
 ! A55   A(27,30,32)           120.1971         estimate D2E/DX2                !
 ! A56   A(27,30,34)           119.8147         estimate D2E/DX2                !
 ! A57   A(32,30,34)           119.9882         estimate D2E/DX2                !
 ! A58   A(28,32,30)           119.8079         estimate D2E/DX2                !
 ! A59   A(28,32,35)           120.0937         estimate D2E/DX2                !
 ! A60   A(30,32,35)           120.0983         estimate D2E/DX2                !
 ! D1    D(2,1,3,4)            110.3246         estimate D2E/DX2                !
 ! D2    D(2,1,3,5)            -66.9116         estimate D2E/DX2                !
 ! D3    D(14,1,3,4)            -7.0408         estimate D2E/DX2                !
 ! D4    D(14,1,3,5)           175.723          estimate D2E/DX2                !
 ! D5    D(25,1,3,4)          -133.2427         estimate D2E/DX2                !
 ! D6    D(25,1,3,5)            49.5211         estimate D2E/DX2                !
 ! D7    D(2,1,14,15)          178.8562         estimate D2E/DX2                !
 ! D8    D(2,1,14,16)           -0.7146         estimate D2E/DX2                !
 ! D9    D(3,1,14,15)          -65.3161         estimate D2E/DX2                !
 ! D10   D(3,1,14,16)          115.1131         estimate D2E/DX2                !
 ! D11   D(25,1,14,15)          61.3237         estimate D2E/DX2                !
 ! D12   D(25,1,14,16)        -118.2471         estimate D2E/DX2                !
 ! D13   D(2,1,25,26)          173.0175         estimate D2E/DX2                !
 ! D14   D(2,1,25,27)           -6.769          estimate D2E/DX2                !
 ! D15   D(3,1,25,26)           58.5062         estimate D2E/DX2                !
 ! D16   D(3,1,25,27)         -121.2804         estimate D2E/DX2                !
 ! D17   D(14,1,25,26)         -69.7306         estimate D2E/DX2                !
 ! D18   D(14,1,25,27)         110.4828         estimate D2E/DX2                !
 ! D19   D(1,3,4,6)           -177.4832         estimate D2E/DX2                !
 ! D20   D(1,3,4,7)              2.5338         estimate D2E/DX2                !
 ! D21   D(5,3,4,6)             -0.2607         estimate D2E/DX2                !
 ! D22   D(5,3,4,7)            179.7563         estimate D2E/DX2                !
 ! D23   D(1,3,5,8)            177.6769         estimate D2E/DX2                !
 ! D24   D(1,3,5,9)             -2.6593         estimate D2E/DX2                !
 ! D25   D(4,3,5,8)              0.3417         estimate D2E/DX2                !
 ! D26   D(4,3,5,9)           -179.9945         estimate D2E/DX2                !
 ! D27   D(3,4,6,10)             0.0517         estimate D2E/DX2                !
 ! D28   D(3,4,6,11)          -179.9996         estimate D2E/DX2                !
 ! D29   D(7,4,6,10)          -179.9654         estimate D2E/DX2                !
 ! D30   D(7,4,6,11)            -0.0166         estimate D2E/DX2                !
 ! D31   D(3,5,8,10)            -0.213          estimate D2E/DX2                !
 ! D32   D(3,5,8,12)           179.8206         estimate D2E/DX2                !
 ! D33   D(9,5,8,10)          -179.8748         estimate D2E/DX2                !
 ! D34   D(9,5,8,12)             0.1589         estimate D2E/DX2                !
 ! D35   D(4,6,10,8)             0.0812         estimate D2E/DX2                !
 ! D36   D(4,6,10,13)         -179.9585         estimate D2E/DX2                !
 ! D37   D(11,6,10,8)         -179.8674         estimate D2E/DX2                !
 ! D38   D(11,6,10,13)           0.0929         estimate D2E/DX2                !
 ! D39   D(5,8,10,6)            -0.0007         estimate D2E/DX2                !
 ! D40   D(5,8,10,13)         -179.961          estimate D2E/DX2                !
 ! D41   D(12,8,10,6)          179.9656         estimate D2E/DX2                !
 ! D42   D(12,8,10,13)           0.0052         estimate D2E/DX2                !
 ! D43   D(1,14,15,17)        -179.6383         estimate D2E/DX2                !
 ! D44   D(1,14,15,18)          -0.4884         estimate D2E/DX2                !
 ! D45   D(16,14,15,17)         -0.0674         estimate D2E/DX2                !
 ! D46   D(16,14,15,18)        179.0825         estimate D2E/DX2                !
 ! D47   D(1,14,16,19)         179.6354         estimate D2E/DX2                !
 ! D48   D(1,14,16,20)          -0.3417         estimate D2E/DX2                !
 ! D49   D(15,14,16,19)          0.0531         estimate D2E/DX2                !
 ! D50   D(15,14,16,20)       -179.924          estimate D2E/DX2                !
 ! D51   D(14,15,17,21)          0.0014         estimate D2E/DX2                !
 ! D52   D(14,15,17,22)        179.9046         estimate D2E/DX2                !
 ! D53   D(18,15,17,21)       -179.1365         estimate D2E/DX2                !
 ! D54   D(18,15,17,22)          0.7668         estimate D2E/DX2                !
 ! D55   D(14,16,19,21)          0.0273         estimate D2E/DX2                !
 ! D56   D(14,16,19,23)       -179.9392         estimate D2E/DX2                !
 ! D57   D(20,16,19,21)       -179.9955         estimate D2E/DX2                !
 ! D58   D(20,16,19,23)          0.038          estimate D2E/DX2                !
 ! D59   D(15,17,21,19)          0.0796         estimate D2E/DX2                !
 ! D60   D(15,17,21,24)        179.9834         estimate D2E/DX2                !
 ! D61   D(22,17,21,19)       -179.8235         estimate D2E/DX2                !
 ! D62   D(22,17,21,24)          0.0804         estimate D2E/DX2                !
 ! D63   D(16,19,21,17)         -0.0939         estimate D2E/DX2                !
 ! D64   D(16,19,21,24)       -179.9977         estimate D2E/DX2                !
 ! D65   D(23,19,21,17)        179.8725         estimate D2E/DX2                !
 ! D66   D(23,19,21,24)         -0.0313         estimate D2E/DX2                !
 ! D67   D(1,25,26,28)        -179.4025         estimate D2E/DX2                !
 ! D68   D(1,25,26,29)           1.6752         estimate D2E/DX2                !
 ! D69   D(27,25,26,28)          0.3845         estimate D2E/DX2                !
 ! D70   D(27,25,26,29)       -178.5378         estimate D2E/DX2                !
 ! D71   D(1,25,27,30)         179.502          estimate D2E/DX2                !
 ! D72   D(1,25,27,31)          -0.5633         estimate D2E/DX2                !
 ! D73   D(26,25,27,30)         -0.2891         estimate D2E/DX2                !
 ! D74   D(26,25,27,31)        179.6456         estimate D2E/DX2                !
 ! D75   D(25,26,28,32)         -0.1494         estimate D2E/DX2                !
 ! D76   D(25,26,28,33)        179.9048         estimate D2E/DX2                !
 ! D77   D(29,26,28,32)        178.757          estimate D2E/DX2                !
 ! D78   D(29,26,28,33)         -1.1888         estimate D2E/DX2                !
 ! D79   D(25,27,30,32)         -0.0414         estimate D2E/DX2                !
 ! D80   D(25,27,30,34)       -179.9762         estimate D2E/DX2                !
 ! D81   D(31,27,30,32)       -179.9763         estimate D2E/DX2                !
 ! D82   D(31,27,30,34)          0.0889         estimate D2E/DX2                !
 ! D83   D(26,28,32,30)         -0.1845         estimate D2E/DX2                !
 ! D84   D(26,28,32,35)        179.9147         estimate D2E/DX2                !
 ! D85   D(33,28,32,30)        179.7612         estimate D2E/DX2                !
 ! D86   D(33,28,32,35)         -0.1396         estimate D2E/DX2                !
 ! D87   D(27,30,32,28)          0.2797         estimate D2E/DX2                !
 ! D88   D(27,30,32,35)       -179.8196         estimate D2E/DX2                !
 ! D89   D(34,30,32,28)       -179.7856         estimate D2E/DX2                !
 ! D90   D(34,30,32,35)          0.1151         estimate D2E/DX2                !
 --------------------------------------------------------------------------------
 Trust Radius=3.00D-01 FncErr=1.00D-07 GrdErr=1.00D-07
 Number of steps in this run= 197 maximum allowed number of steps= 210.
 GradGradGradGradGradGradGradGradGradGradGradGradGradGradGradGradGradGrad

                          Input orientation:                          
 ---------------------------------------------------------------------
 Center     Atomic      Atomic             Coordinates (Angstroms)
 Number     Number       Type             X           Y           Z
 ---------------------------------------------------------------------
      1          6           0       -0.764531    0.076346    0.105867
      2          1           0       -1.877316    0.189665    0.206779
      3          6           0       -0.249812    1.481817   -0.084066
      4          6           0        0.497506    2.143743    0.889361
      5          6           0       -0.585954    2.161978   -1.259662
      6          6           0        0.906197    3.458679    0.690024
      7          1           0        0.766265    1.626049    1.819037
      8          6           0       -0.175733    3.473570   -1.457364
      9          1           0       -1.173612    1.648338   -2.030088
     10          6           0        0.572255    4.125982   -0.481884
     11          1           0        1.492623    3.967139    1.462274
     12          1           0       -0.442428    3.994477   -2.382713
     13          1           0        0.895039    5.160217   -0.637632
     14          6           0       -0.263954   -0.604345    1.355094
     15          6           0        1.086485   -0.914379    1.532633
     16          6           0       -1.176223   -0.941748    2.357562
     17          6           0        1.517062   -1.548639    2.691427
     18          1           0        1.802927   -0.661652    0.734905
     19          6           0       -0.743155   -1.576777    3.516400
     20          1           0       -2.239992   -0.706396    2.233004
     21          6           0        0.602984   -1.880398    3.686149
     22          1           0        2.577775   -1.788251    2.819175
     23          1           0       -1.465960   -1.838214    4.296225
     24          1           0        0.942425   -2.380349    4.598909
     25          6           0       -0.493040   -0.778534   -1.108700
     26          6           0        0.806009   -0.979608   -1.579572
     27          6           0       -1.561463   -1.377728   -1.779004
     28          6           0        1.032568   -1.760169   -2.706666
     29          1           0        1.648293   -0.525984   -1.035007
     30          6           0       -1.332028   -2.160170   -2.905727
     31          1           0       -2.586232   -1.233624   -1.417574
     32          6           0       -0.036564   -2.350383   -3.372988
     33          1           0        2.054850   -1.910444   -3.068787
     34          1           0       -2.175163   -2.626088   -3.425707
     35          1           0        0.141896   -2.964122   -4.261682
 ---------------------------------------------------------------------
                    Distance matrix (angstroms):
                    1          2          3          4          5
     1  C    0.000000
     2  H    1.123084   0.000000
     3  C    1.508760   2.098337   0.000000
     4  C    2.545728   3.150258   1.394343   0.000000
     5  C    2.499283   2.776343   1.399155   2.406765   0.000000
     6  C    3.817426   4.320640   2.417345   1.391338   2.776549
     7  H    2.771257   3.413370   2.162179   1.097513   3.405011
     8  C    3.785697   4.055711   2.420437   2.780074   1.388395
     9  H    2.683432   2.761612   2.160587   3.400183   1.096687
    10  C    4.304880   4.687136   2.797438   2.411467   2.409087
    11  H    4.698176   5.215561   3.406476   2.154823   3.871437
    12  H    4.652798   4.820889   3.410915   3.874941   2.154042
    13  H    5.399324   5.753727   3.892010   3.404241   3.401426
    14  C    1.508140   2.133545   2.534453   2.889414   3.820101
    15  C    2.538397   3.429420   3.184519   3.180063   4.478608
    16  C    2.505222   2.529327   3.562787   3.804896   4.802690
    17  C    3.812002   4.551591   4.473128   4.233275   5.813988
    18  H    2.744479   3.814164   3.078784   3.098099   4.202134
    19  C    3.790120   3.919213   4.749920   4.720470   6.067434
    20  H    2.704512   2.245005   3.757380   4.174035   4.812705
    21  C    4.303181   4.747954   5.123112   4.901720   6.497339
    22  H    4.691458   5.530335   5.207438   4.848946   6.500031
    23  H    4.660113   4.583130   5.629261   5.596240   6.902451
    24  H    5.397822   5.817793   6.186114   5.867376   7.569116
    25  C    1.509867   2.141054   2.493636   3.676021   2.945850
    26  C    2.534233   3.429064   3.067557   3.993259   3.451009
    27  C    2.510412   2.549474   3.573547   4.874452   3.708214
    28  C    3.809553   4.556034   4.362683   5.334626   4.482932
    29  H    2.736076   3.805799   2.922047   3.486394   3.502495
    30  C    3.793910   3.937862   4.732550   6.022753   4.684775
    31  H    2.712101   2.273067   3.822398   5.122304   3.944130
    32  C    4.303648   4.759721   5.054527   6.216914   5.012922
    33  H    4.687714   5.531882   5.072224   5.876111   5.179903
    34  H    4.665302   4.605663   5.634574   6.965218   5.490256
    35  H    5.398291   5.830157   6.113288   7.262919   5.984881
                    6          7          8          9         10
     6  C    0.000000
     7  H    2.157031   0.000000
     8  C    2.404593   3.877563   0.000000
     9  H    3.873234   4.310380   2.157602   0.000000
    10  C    1.389308   3.403166   1.391650   3.403484   0.000000
    11  H    1.094896   2.477011   3.398722   4.968122   2.156863
    12  H    3.398173   4.972434   1.094871   2.482608   2.158710
    13  H    2.158246   4.306059   2.159465   4.307150   1.094572
    14  C    4.280156   2.500250   4.954502   4.166715   5.142929
    15  C    4.457143   2.576498   5.457780   4.936449   5.452334
    16  C    5.145961   3.264483   5.920276   5.095098   6.066425
    17  C    5.426970   3.376893   6.730572   6.305005   6.569923
    18  H    4.217020   2.735614   5.081456   4.673437   5.090831
    19  C    6.005379   3.926510   7.110998   6.430411   7.087879
    20  H    5.443082   3.827434   5.945763   4.985568   6.215402
    21  C    6.129800   3.975920   7.465059   6.948643   7.310953
    22  H    5.904044   3.992404   7.318289   7.028400   7.063799
    23  H    6.832927   4.808369   7.936216   7.229367   7.909253
    24  H    7.026730   4.879543   8.496887   8.040617   8.263402
    25  C    4.811158   3.992431   4.278158   2.683625   5.057868
    26  C    4.985929   4.282705   4.561748   3.320837   5.227486
    27  C    5.964585   5.233249   5.055571   3.061136   6.043683
    28  C    6.228150   5.658567   5.514778   4.116177   6.309384
    29  H    4.404994   3.681682   4.416094   3.698785   4.806723
    30  C    7.036372   6.407939   5.930750   3.911084   7.001215
    31  H    6.217455   5.467414   5.288645   3.267473   6.291020
    32  C    7.151368   6.588905   6.132489   4.368757   7.118459
    33  H    6.653987   6.169121   6.046469   4.915973   6.732651
    34  H    7.966079   7.364781   6.714010   4.606689   7.861606
    35  H    8.145915   7.644256   7.029151   5.290120   8.046221
                   11         12         13         14         15
    11  H    0.000000
    12  H    4.304544   0.000000
    13  H    2.488000   2.488589   0.000000
    14  C    4.898522   5.928930   6.208413   0.000000
    15  C    4.898889   6.462536   6.453480   1.396900   0.000000
    16  C    5.658750   6.882948   7.106003   1.396788   2.408549
    17  C    5.651126   7.766121   7.515204   2.418573   1.389419
    18  H    4.695856   6.036613   6.049981   2.158684   1.101603
    19  C    6.320850   8.119657   8.082496   2.417954   2.778792
    20  H    6.030619   6.828931   7.244730   2.164686   3.405764
    21  C    6.319080   8.511059   8.267444   2.795302   2.409273
    22  H    6.011926   8.343933   7.941179   3.408900   2.154714
    23  H    7.105394   8.926148   8.882302   3.408446   3.873744
    24  H    7.101535   9.555065   9.180617   3.889972   3.401746
    25  C    5.751015   4.940375   6.116978   2.480545   3.080583
    26  C    5.847612   5.190871   6.212296   3.146094   3.125498
    27  C    6.957078   5.520625   7.076854   3.479112   4.265355
    28  C    7.098858   5.949497   7.224373   4.417555   4.323185
    29  H    5.142840   5.159650   5.749624   3.061930   2.656925
    30  C    8.037537   6.240562   7.980736   4.660040   5.205789
    31  H    7.209614   5.732402   7.321800   3.671056   4.721704
    32  C    8.101189   6.434487   8.047308   5.045307   5.233399
    33  H    7.442620   6.447882   7.566367   5.162700   4.806552
    34  H    8.989753   6.922578   8.821907   5.531385   6.176846
    35  H    9.090134   7.231463   8.927813   6.105853   6.218342
                   16         17         18         19         20
    16  C    0.000000
    17  C    2.780929   0.000000
    18  H    3.403939   2.167128   0.000000
    19  C    1.390581   2.406232   3.880296   0.000000
    20  H    1.096590   3.877496   4.311786   2.155270   0.000000
    21  C    2.410765   1.391069   3.411018   1.390357   3.401827
    22  H    3.875843   1.094919   2.492749   3.399915   4.972413
    23  H    2.155462   3.399655   4.975231   1.094954   2.477301
    24  H    3.403216   2.158804   4.315659   2.158410   4.304347
    25  C    3.536714   4.367440   2.946863   4.700138   3.771476
    26  C    4.408140   4.367015   2.540028   5.359612   4.887587
    27  C    4.177279   5.430587   4.260471   5.361953   4.123991
    28  C    5.585246   5.423918   3.693860   6.474054   6.018342
    29  H    4.433991   3.866440   1.781826   5.247713   5.082442
    30  C    5.404724   6.310263   5.032663   6.475402   5.417049
    31  H    4.040417   5.815509   4.921893   5.278142   3.704669
    32  C    6.010181   6.311393   4.807320   6.968601   6.243793
    33  H    6.389324   5.796566   4.011361   7.162740   6.928520
    34  H    6.105823   7.225838   6.082343   7.165510   5.975821
    35  H    7.045695   7.227752   5.746849   7.950258   7.276790
                   21         22         23         24         25
    21  C    0.000000
    22  H    2.158688   0.000000
    23  H    2.157430   4.305342   0.000000
    24  H    1.094670   2.488454   2.487136   0.000000
    25  C    5.040431   5.087007   5.593095   6.099440   0.000000
    26  C    5.346069   4.810617   6.357990   6.336743   1.396309
    27  C    5.899610   6.200409   6.093405   6.924772   1.396377
    28  C    6.408360   5.737889   7.435673   7.332406   2.417558
    29  H    5.021595   4.160766   6.312096   5.973100   2.157434
    30  C    6.875709   6.942578   7.210390   7.844819   2.417049
    31  H    6.052884   6.702584   5.853891   7.068555   2.164247
    32  C    7.103613   6.744898   7.818077   8.031841   2.793937
    33  H    6.909267   5.912400   8.163622   7.762207   3.408065
    34  H    7.671547   7.892461   7.794354   8.612444   3.407567
    35  H    8.034617   7.579889   8.780128   8.915812   3.888604
                   26         27         28         29         30
    26  C    0.000000
    27  C    2.408982   0.000000
    28  C    1.389586   2.781333   0.000000
    29  H    1.100804   3.403165   2.167205   0.000000
    30  C    2.779139   1.390813   2.406437   3.879752   0.000000
    31  H    3.405593   1.096152   3.877463   4.310257   2.155485
    32  C    2.409419   2.410842   1.391180   3.410768   1.390230
    33  H    2.154953   3.876215   1.094885   2.493648   3.399984
    34  H    3.873822   2.155611   3.399466   4.974405   1.094685
    35  H    3.401920   3.403199   2.158906   4.315691   2.158102
                   31         32         33         34         35
    31  H    0.000000
    32  C    3.401706   0.000000
    33  H    4.972346   2.158726   0.000000
    34  H    2.478009   2.156942   4.304944   0.000000
    35  H    4.304214   1.094669   2.488500   2.486339   0.000000
 Stoichiometry    C19H16
 Framework group  C1[X(C19H16)]
 Deg. of freedom    99
 Full point group                 C1      NOp   1
 Largest Abelian subgroup         C1      NOp   1
 Largest concise Abelian subgroup C1      NOp   1
                         Standard orientation:                         
 ---------------------------------------------------------------------
 Center     Atomic      Atomic             Coordinates (Angstroms)
 Number     Number       Type             X           Y           Z
 ---------------------------------------------------------------------
      1          6           0       -0.012133    0.013045   -0.761031
      2          1           0        0.017662    0.015279   -1.883717
      3          6           0        0.686280    1.287160   -0.354571
      4          6           0        0.008316    2.363731    0.216000
      5          6           0        2.055733    1.409030   -0.614148
      6          6           0        0.686564    3.538174    0.526617
      7          1           0       -1.066821    2.286151    0.422392
      8          6           0        2.731048    2.581248   -0.301905
      9          1           0        2.596134    0.566804   -1.062864
     10          6           0        2.047367    3.650016    0.269937
     11          1           0        0.142516    4.376225    0.974366
     12          1           0        3.803366    2.663702   -0.507030
     13          1           0        2.579789    4.574320    0.515452
     14          6           0       -1.460497   -0.059964   -0.347032
     15          6           0       -1.839778   -0.103633    0.996682
     16          6           0       -2.448709   -0.093708   -1.333599
     17          6           0       -3.182095   -0.178215    1.347552
     18          1           0       -1.059022   -0.092373    1.773742
     19          6           0       -3.791545   -0.168660   -0.980200
     20          1           0       -2.167463   -0.061464   -2.393019
     21          6           0       -4.160848   -0.210044    0.359574
     22          1           0       -3.467746   -0.213494    2.403964
     23          1           0       -4.558962   -0.195627   -1.760757
     24          1           0       -5.218327   -0.269079    0.636260
     25          6           0        0.739022   -1.204772   -0.278965
     26          6           0        0.999699   -1.407296    1.077762
     27          6           0        1.186980   -2.146865   -1.207223
     28          6           0        1.703593   -2.528970    1.498867
     29          1           0        0.624325   -0.675450    1.809380
     30          6           0        1.889588   -3.269747   -0.783149
     31          1           0        0.984722   -2.004243   -2.275071
     32          6           0        2.151539   -3.461409    0.568660
     33          1           0        1.904195   -2.677806    2.564878
     34          1           0        2.237636   -4.003376   -1.517306
     35          1           0        2.707245   -4.344281    0.900365
 ---------------------------------------------------------------------
 Rotational constants (GHZ):      0.4044177      0.3812486      0.2327440
 Standard basis: 6-311G (5D, 7F)
 There are   295 symmetry adapted basis functions of A   symmetry.
 Integral buffers will be    262144 words long.
 Raffenetti 1 integral format.
 Two-electron integral symmetry is turned on.
   295 basis functions,   574 primitive gaussians,   295 cartesian basis functions
    65 alpha electrons       65 beta electrons
       nuclear repulsion energy      1290.6357908925 Hartrees.
 NAtoms=   35 NActive=   35 NUniq=   35 SFac= 7.50D-01 NAtFMM=   80 NAOKFM=F Big=F
 One-electron integrals computed using PRISM.
 PrsmSu:  requested number of processors reduced to:  10 ShMem   1 Linda.
 NBasis=   295 RedAO= T  NBF=   295
 NBsUse=   295 1.00D-06 NBFU=   295
 Harris functional with IExCor=  205 diagonalized for initial guess.
 ExpMin= 1.03D-01 ExpMax= 4.56D+03 ExpMxC= 6.82D+02 IAcc=1 IRadAn=         1 AccDes= 0.00D+00
 HarFok:  IExCor=  205 AccDes= 0.00D+00 IRadAn=         1 IDoV= 1
 ScaDFX=  1.000000  1.000000  1.000000  1.000000
 FoFCou: FMM=F IPFlag=           0 FMFlag=      100000 FMFlg1=           0
         NFxFlg=           0 DoJE=T BraDBF=F KetDBF=T FulRan=T
         Omega=  0.000000  0.000000  1.000000  0.000000  0.000000 ICntrl=     500 IOpCl=  0
         NMat0=    1 NMatS0=    1 NMatT0=    0 NMatD0=    1 NMtDS0=    0 NMtDT0=    0
         I1Cent=           4 NGrid=           0.
 Petite list used in FoFCou.
 Initial guess orbital symmetries:
       Occupied  (A) (A) (A) (A) (A) (A) (A) (A) (A) (A) (A) (A)
                 (A) (A) (A) (A) (A) (A) (A) (A) (A) (A) (A) (A)
                 (A) (A) (A) (A) (A) (A) (A) (A) (A) (A) (A) (A)
                 (A) (A) (A) (A) (A) (A) (A) (A) (A) (A) (A) (A)
                 (A) (A) (A) (A) (A) (A) (A) (A) (A) (A) (A) (A)
                 (A) (A) (A) (A) (A)
       Virtual   (A) (A) (A) (A) (A) (A) (A) (A) (A) (A) (A) (A)
                 (A) (A) (A) (A) (A) (A) (A) (A) (A) (A) (A) (A)
                 (A) (A) (A) (A) (A) (A) (A) (A) (A) (A) (A) (A)
                 (A) (A) (A) (A) (A) (A) (A) (A) (A) (A) (A) (A)
                 (A) (A) (A) (A) (A) (A) (A) (A) (A) (A) (A) (A)
                 (A) (A) (A) (A) (A) (A) (A) (A) (A) (A) (A) (A)
                 (A) (A) (A) (A) (A) (A) (A) (A) (A) (A) (A) (A)
                 (A) (A) (A) (A) (A) (A) (A) (A) (A) (A) (A) (A)
                 (A) (A) (A) (A) (A) (A) (A) (A) (A) (A) (A) (A)
                 (A) (A) (A) (A) (A) (A) (A) (A) (A) (A) (A) (A)
                 (A) (A) (A) (A) (A) (A) (A) (A) (A) (A) (A) (A)
                 (A) (A) (A) (A) (A) (A) (A) (A) (A) (A) (A) (A)
                 (A) (A) (A) (A) (A) (A) (A) (A) (A) (A) (A) (A)
                 (A) (A) (A) (A) (A) (A) (A) (A) (A) (A) (A) (A)
                 (A) (A) (A) (A) (A) (A) (A) (A) (A) (A) (A) (A)
                 (A) (A) (A) (A) (A) (A) (A) (A) (A) (A) (A) (A)
                 (A) (A) (A) (A) (A) (A) (A) (A) (A) (A) (A) (A)
                 (A) (A) (A) (A) (A) (A) (A) (A) (A) (A) (A) (A)
                 (A) (A) (A) (A) (A) (A) (A) (A) (A) (A) (A) (A)
                 (A) (A)
 The electronic state of the initial guess is 1-A.
 Requested convergence on RMS density matrix=1.00D-08 within 128 cycles.
 Requested convergence on MAX density matrix=1.00D-06.
 Requested convergence on             energy=1.00D-06.
 No special actions if energy rises.
 Integral accuracy reduced to 1.0D-05 until final iterations.
 Initial convergence to 1.0D-05 achieved.  Increase integral accuracy.
 SCF Done:  E(RHF) =  -728.672332697     A.U. after   14 cycles
             Convg  =    0.8654D-08             -V/T =  2.0001

 **********************************************************************

            Population analysis using the SCF density.

 **********************************************************************

 Orbital symmetries:
       Occupied  (A) (A) (A) (A) (A) (A) (A) (A) (A) (A) (A) (A)
                 (A) (A) (A) (A) (A) (A) (A) (A) (A) (A) (A) (A)
                 (A) (A) (A) (A) (A) (A) (A) (A) (A) (A) (A) (A)
                 (A) (A) (A) (A) (A) (A) (A) (A) (A) (A) (A) (A)
                 (A) (A) (A) (A) (A) (A) (A) (A) (A) (A) (A) (A)
                 (A) (A) (A) (A) (A)
       Virtual   (A) (A) (A) (A) (A) (A) (A) (A) (A) (A) (A) (A)
                 (A) (A) (A) (A) (A) (A) (A) (A) (A) (A) (A) (A)
                 (A) (A) (A) (A) (A) (A) (A) (A) (A) (A) (A) (A)
                 (A) (A) (A) (A) (A) (A) (A) (A) (A) (A) (A) (A)
                 (A) (A) (A) (A) (A) (A) (A) (A) (A) (A) (A) (A)
                 (A) (A) (A) (A) (A) (A) (A) (A) (A) (A) (A) (A)
                 (A) (A) (A) (A) (A) (A) (A) (A) (A) (A) (A) (A)
                 (A) (A) (A) (A) (A) (A) (A) (A) (A) (A) (A) (A)
                 (A) (A) (A) (A) (A) (A) (A) (A) (A) (A) (A) (A)
                 (A) (A) (A) (A) (A) (A) (A) (A) (A) (A) (A) (A)
                 (A) (A) (A) (A) (A) (A) (A) (A) (A) (A) (A) (A)
                 (A) (A) (A) (A) (A) (A) (A) (A) (A) (A) (A) (A)
                 (A) (A) (A) (A) (A) (A) (A) (A) (A) (A) (A) (A)
                 (A) (A) (A) (A) (A) (A) (A) (A) (A) (A) (A) (A)
                 (A) (A) (A) (A) (A) (A) (A) (A) (A) (A) (A) (A)
                 (A) (A) (A) (A) (A) (A) (A) (A) (A) (A) (A) (A)
                 (A) (A) (A) (A) (A) (A) (A) (A) (A) (A) (A) (A)
                 (A) (A) (A) (A) (A) (A) (A) (A) (A) (A) (A) (A)
                 (A) (A) (A) (A) (A) (A) (A) (A) (A) (A) (A) (A)
                 (A) (A)
 The electronic state is 1-A.
 Alpha  occ. eigenvalues --  -11.25762 -11.25237 -11.25186 -11.24923 -11.24527
 Alpha  occ. eigenvalues --  -11.24437 -11.24421 -11.24369 -11.24225 -11.24172
 Alpha  occ. eigenvalues --  -11.24148 -11.24118 -11.24075 -11.24036 -11.24032
 Alpha  occ. eigenvalues --  -11.23973 -11.23733 -11.23637 -11.23503  -1.18616
 Alpha  occ. eigenvalues --   -1.15870  -1.15572  -1.09028  -1.02378  -1.02236
 Alpha  occ. eigenvalues --   -1.01873  -1.01488  -1.01094  -0.92921  -0.84292
 Alpha  occ. eigenvalues --   -0.83348  -0.82332  -0.81915  -0.81141  -0.77589
 Alpha  occ. eigenvalues --   -0.70865  -0.70366  -0.68985  -0.65693  -0.63895
 Alpha  occ. eigenvalues --   -0.63606  -0.62512  -0.61709  -0.61588  -0.59719
 Alpha  occ. eigenvalues --   -0.58849  -0.58490  -0.58317  -0.56792  -0.55046
 Alpha  occ. eigenvalues --   -0.51724  -0.50926  -0.50236  -0.49852  -0.49379
 Alpha  occ. eigenvalues --   -0.48432  -0.47949  -0.47505  -0.46319  -0.35017
 Alpha  occ. eigenvalues --   -0.34323  -0.33941  -0.33333  -0.32566  -0.31445
 Alpha virt. eigenvalues --    0.11524   0.12285   0.12778   0.13523   0.14978
 Alpha virt. eigenvalues --    0.15108   0.15617   0.16239   0.16483   0.16917
 Alpha virt. eigenvalues --    0.18902   0.19188   0.19230   0.21244   0.21296
 Alpha virt. eigenvalues --    0.21586   0.23568   0.24001   0.24968   0.25424
 Alpha virt. eigenvalues --    0.26847   0.31474   0.33166   0.34248   0.35772
 Alpha virt. eigenvalues --    0.37558   0.39821   0.40512   0.41506   0.43111
 Alpha virt. eigenvalues --    0.44091   0.44426   0.44920   0.45452   0.45613
 Alpha virt. eigenvalues --    0.45856   0.46740   0.47224   0.47994   0.50588
 Alpha virt. eigenvalues --    0.51089   0.51442   0.52147   0.54951   0.56057
 Alpha virt. eigenvalues --    0.57331   0.57839   0.58498   0.58936   0.59357
 Alpha virt. eigenvalues --    0.60189   0.60452   0.60623   0.61131   0.61464
 Alpha virt. eigenvalues --    0.62070   0.62233   0.62954   0.63442   0.63699
 Alpha virt. eigenvalues --    0.64272   0.64568   0.65228   0.65950   0.66417
 Alpha virt. eigenvalues --    0.67213   0.67816   0.68585   0.69844   0.72355
 Alpha virt. eigenvalues --    0.73112   0.73938   0.74414   0.75291   0.75737
 Alpha virt. eigenvalues --    0.76743   0.78859   0.79350   0.79906   0.81271
 Alpha virt. eigenvalues --    0.81511   0.82205   0.82494   0.82897   0.83265
 Alpha virt. eigenvalues --    0.83831   0.84362   0.84819   0.84901   0.85468
 Alpha virt. eigenvalues --    0.85959   0.86215   0.86474   0.87703   0.88162
 Alpha virt. eigenvalues --    0.90260   0.90834   0.92167   0.93441   0.95034
 Alpha virt. eigenvalues --    0.95954   0.96363   0.97039   0.98201   0.99712
 Alpha virt. eigenvalues --    0.99964   1.02330   1.03054   1.04748   1.06199
 Alpha virt. eigenvalues --    1.07117   1.08176   1.09271   1.10175   1.10813
 Alpha virt. eigenvalues --    1.11490   1.11732   1.12436   1.12738   1.13813
 Alpha virt. eigenvalues --    1.14994   1.16555   1.19645   1.20560   1.21028
 Alpha virt. eigenvalues --    1.23795   1.25799   1.27287   1.28172   1.29037
 Alpha virt. eigenvalues --    1.29453   1.32019   1.32971   1.46806   1.47677
 Alpha virt. eigenvalues --    1.52080   1.54184   1.57053   2.53517   2.55696
 Alpha virt. eigenvalues --    2.56074   2.57743   2.62080   2.62302   2.63894
 Alpha virt. eigenvalues --    2.66377   2.67140   2.68480   2.71994   2.74284
 Alpha virt. eigenvalues --    2.78357   2.83405   2.86607   2.91719   2.94352
 Alpha virt. eigenvalues --    2.94603   2.94735   2.96026   2.98082   2.98577
 Alpha virt. eigenvalues --    2.99962   3.02225   3.03910   3.04437   3.06466
 Alpha virt. eigenvalues --    3.08515   3.09240   3.09815   3.10108   3.13186
 Alpha virt. eigenvalues --    3.15166   3.16203   3.17700   3.18406   3.19403
 Alpha virt. eigenvalues --    3.21627   3.24103   3.25098   3.27659   3.28776
 Alpha virt. eigenvalues --    3.31436   3.33874   3.34278   3.35687   3.40962
 Alpha virt. eigenvalues --    3.41374   3.44158   3.45095   3.49910   3.52485
 Alpha virt. eigenvalues --    3.53522   3.55952   3.57535   3.58270   3.59616
 Alpha virt. eigenvalues --    3.62371   3.64102   3.65035   3.66254   3.66727
 Alpha virt. eigenvalues --    3.67686   3.69207   3.71267   3.72386   3.74180
 Alpha virt. eigenvalues --    3.76230   3.77529   3.78523   3.85547   3.87966
 Alpha virt. eigenvalues --    3.91123  24.26031  24.30024  24.31773  24.50529
 Alpha virt. eigenvalues --   24.50785  24.51033  24.53064  24.54596  24.56503
 Alpha virt. eigenvalues --   24.76226  24.77063  24.79107  24.80209  24.80690
 Alpha virt. eigenvalues --   24.82778  24.87369  25.04630  25.05799  25.07118
          Condensed to atoms (all electrons):
              1          2          3          4          5          6
     1  C    6.102592   0.473041   0.035442  -0.029768  -0.085671   0.012144
     2  H    0.473041   0.502995  -0.062527   0.000951  -0.004828  -0.000123
     3  C    0.035442  -0.062527   5.352799   0.501040   0.471185  -0.069161
     4  C   -0.029768   0.000951   0.501040   5.096051  -0.083449   0.454508
     5  C   -0.085671  -0.004828   0.471185  -0.083449   5.123626  -0.033289
     6  C    0.012144  -0.000123  -0.069161   0.454508  -0.033289   5.078353
     7  H   -0.011194  -0.000277  -0.034796   0.393864   0.004948  -0.036275
     8  C    0.008217   0.000650  -0.056845  -0.030047   0.463884  -0.073972
     9  H   -0.002741  -0.000143  -0.045326   0.004458   0.397528  -0.000465
    10  C    0.000408   0.000032  -0.020573  -0.090130  -0.085103   0.495986
    11  H   -0.000362   0.000014   0.006483  -0.036831  -0.000407   0.395595
    12  H   -0.000355   0.000004   0.006154  -0.000440  -0.038375   0.006000
    13  H   -0.000014  -0.000002  -0.001457   0.007672   0.007444  -0.042139
    14  C    0.118820  -0.075546  -0.065770  -0.012318   0.011414  -0.001520
    15  C   -0.071421   0.004451   0.006630  -0.018377   0.000819  -0.000939
    16  C   -0.024354   0.006436  -0.000451   0.000907  -0.000274  -0.000112
    17  C    0.002502  -0.000226   0.000793  -0.001458   0.000016  -0.000041
    18  H    0.000897  -0.000027   0.001347   0.001628   0.000015   0.000111
    19  C    0.008237   0.001460  -0.000772   0.000357   0.000005   0.000004
    20  H   -0.002056   0.002818   0.000502   0.000129   0.000013   0.000005
    21  C    0.001718   0.000005  -0.000068   0.000130   0.000000   0.000004
    22  H   -0.000372   0.000012   0.000019   0.000005   0.000000  -0.000002
    23  H   -0.000411  -0.000034   0.000024  -0.000007   0.000000   0.000000
    24  H   -0.000026  -0.000002   0.000002  -0.000003   0.000000   0.000000
    25  C    0.149880  -0.070559  -0.096375   0.000767  -0.006795  -0.000802
    26  C   -0.055552   0.005497  -0.007330   0.001654  -0.008513   0.000051
    27  C   -0.024580   0.001619  -0.001603  -0.000444   0.000577   0.000007
    28  C    0.003236  -0.000262  -0.000558   0.000021  -0.000334   0.000005
    29  H    0.000218   0.000108   0.001097  -0.000128   0.000254  -0.000097
    30  C    0.006841   0.001565  -0.000419   0.000020  -0.000105   0.000000
    31  H   -0.000074   0.002358   0.000142  -0.000035   0.000294   0.000000
    32  C    0.001265  -0.000001   0.000046  -0.000002   0.000108   0.000000
    33  H   -0.000348   0.000011   0.000024   0.000000   0.000017   0.000000
    34  H   -0.000339  -0.000039   0.000011   0.000000  -0.000002   0.000000
    35  H   -0.000012  -0.000001   0.000001   0.000000   0.000000   0.000000
              7          8          9         10         11         12
     1  C   -0.011194   0.008217  -0.002741   0.000408  -0.000362  -0.000355
     2  H   -0.000277   0.000650  -0.000143   0.000032   0.000014   0.000004
     3  C   -0.034796  -0.056845  -0.045326  -0.020573   0.006483   0.006154
     4  C    0.393864  -0.030047   0.004458  -0.090130  -0.036831  -0.000440
     5  C    0.004948   0.463884   0.397528  -0.085103  -0.000407  -0.038375
     6  C   -0.036275  -0.073972  -0.000465   0.495986   0.395595   0.006000
     7  H    0.477141  -0.000429  -0.000197   0.005023  -0.003511   0.000017
     8  C   -0.000429   5.061460  -0.035135   0.480492   0.006011   0.397113
     9  H   -0.000197  -0.035135   0.490199   0.005230   0.000017  -0.003881
    10  C    0.005023   0.480492   0.005230   5.042646  -0.041234  -0.040841
    11  H   -0.003511   0.006011   0.000017  -0.041234   0.517798  -0.000213
    12  H    0.000017   0.397113  -0.003881  -0.040841  -0.000213   0.517597
    13  H   -0.000170  -0.043224  -0.000173   0.399484  -0.004466  -0.004406
    14  C    0.000868  -0.000880   0.000824   0.000119   0.000059   0.000012
    15  C   -0.001112  -0.000022  -0.000041  -0.000017   0.000027   0.000000
    16  C   -0.001099   0.000009  -0.000005  -0.000004   0.000004   0.000000
    17  C    0.000350   0.000000   0.000000   0.000000  -0.000001   0.000000
    18  H    0.000003  -0.000051   0.000021   0.000001   0.000001  -0.000001
    19  C   -0.000123   0.000000   0.000000   0.000000   0.000000   0.000000
    20  H    0.000083   0.000000  -0.000002   0.000000   0.000000   0.000000
    21  C    0.000095   0.000000   0.000000   0.000000  -0.000001   0.000000
    22  H    0.000040   0.000000   0.000000   0.000000   0.000000   0.000000
    23  H    0.000010   0.000000   0.000000   0.000000   0.000000   0.000000
    24  H    0.000009   0.000000   0.000000   0.000000   0.000000   0.000000
    25  C    0.000419  -0.001584   0.003993   0.000127   0.000012   0.000015
    26  C    0.000066  -0.000259  -0.000592   0.000035   0.000000   0.000014
    27  C   -0.000017  -0.000048   0.001677  -0.000003   0.000000  -0.000005
    28  C    0.000000  -0.000008  -0.000244   0.000002   0.000000   0.000002
    29  H    0.000022   0.000058  -0.000067  -0.000041   0.000000   0.000005
    30  C    0.000000   0.000014   0.000121   0.000000   0.000000  -0.000001
    31  H    0.000001  -0.000008   0.000207   0.000001   0.000000   0.000000
    32  C    0.000000   0.000002  -0.000089   0.000000   0.000000   0.000000
    33  H    0.000000   0.000001   0.000005   0.000000   0.000000   0.000000
    34  H    0.000000   0.000000   0.000006   0.000000   0.000000   0.000000
    35  H    0.000000   0.000000   0.000001   0.000000   0.000000   0.000000
             13         14         15         16         17         18
     1  C   -0.000014   0.118820  -0.071421  -0.024354   0.002502   0.000897
     2  H   -0.000002  -0.075546   0.004451   0.006436  -0.000226  -0.000027
     3  C   -0.001457  -0.065770   0.006630  -0.000451   0.000793   0.001347
     4  C    0.007672  -0.012318  -0.018377   0.000907  -0.001458   0.001628
     5  C    0.007444   0.011414   0.000819  -0.000274   0.000016   0.000015
     6  C   -0.042139  -0.001520  -0.000939  -0.000112  -0.000041   0.000111
     7  H   -0.000170   0.000868  -0.001112  -0.001099   0.000350   0.000003
     8  C   -0.043224  -0.000880  -0.000022   0.000009   0.000000  -0.000051
     9  H   -0.000173   0.000824  -0.000041  -0.000005   0.000000   0.000021
    10  C    0.399484   0.000119  -0.000017  -0.000004   0.000000   0.000001
    11  H   -0.004466   0.000059   0.000027   0.000004  -0.000001   0.000001
    12  H   -0.004406   0.000012   0.000000   0.000000   0.000000  -0.000001
    13  H    0.519366   0.000001   0.000001   0.000000   0.000000   0.000000
    14  C    0.000001   5.392033   0.450809   0.499048  -0.064139  -0.047678
    15  C    0.000001   0.450809   5.099437  -0.063238   0.480050   0.386427
    16  C    0.000000   0.499048  -0.063238   5.047932  -0.033967   0.004583
    17  C    0.000000  -0.064139   0.480050  -0.033967   5.046547  -0.027039
    18  H    0.000000  -0.047678   0.386427   0.004583  -0.027039   0.497033
    19  C    0.000000  -0.076837  -0.029554   0.468395  -0.077338  -0.000126
    20  H    0.000000  -0.045620   0.004756   0.394464  -0.000285  -0.000270
    21  C    0.000000  -0.016004  -0.093580  -0.089006   0.490249   0.004624
    22  H    0.000000   0.005966  -0.038572  -0.000376   0.396992  -0.003381
    23  H    0.000000   0.007024  -0.000634  -0.039453   0.006270   0.000016
    24  H    0.000000  -0.001680   0.007988   0.007567  -0.042973  -0.000170
    25  C    0.000002  -0.140886  -0.003282  -0.004516   0.001982  -0.003707
    26  C    0.000000  -0.003375  -0.011765   0.000749  -0.000104   0.001914
    27  C    0.000000  -0.002068   0.000514   0.000626   0.000044  -0.000215
    28  C    0.000000   0.001902  -0.000402   0.000029  -0.000101   0.001134
    29  H    0.000001  -0.002846  -0.000965  -0.000200   0.000880   0.001577
    30  C    0.000000  -0.000516   0.000127  -0.000017   0.000001  -0.000058
    31  H    0.000000   0.000359  -0.000007   0.000270  -0.000001   0.000001
    32  C    0.000000  -0.000087  -0.000024  -0.000009   0.000001   0.000004
    33  H    0.000000   0.000027   0.000056   0.000000   0.000002  -0.000059
    34  H    0.000000   0.000025   0.000000   0.000001   0.000000   0.000001
    35  H    0.000000  -0.000003   0.000000   0.000000   0.000000   0.000000
             19         20         21         22         23         24
     1  C    0.008237  -0.002056   0.001718  -0.000372  -0.000411  -0.000026
     2  H    0.001460   0.002818   0.000005   0.000012  -0.000034  -0.000002
     3  C   -0.000772   0.000502  -0.000068   0.000019   0.000024   0.000002
     4  C    0.000357   0.000129   0.000130   0.000005  -0.000007  -0.000003
     5  C    0.000005   0.000013   0.000000   0.000000   0.000000   0.000000
     6  C    0.000004   0.000005   0.000004  -0.000002   0.000000   0.000000
     7  H   -0.000123   0.000083   0.000095   0.000040   0.000010   0.000009
     8  C    0.000000   0.000000   0.000000   0.000000   0.000000   0.000000
     9  H    0.000000  -0.000002   0.000000   0.000000   0.000000   0.000000
    10  C    0.000000   0.000000   0.000000   0.000000   0.000000   0.000000
    11  H    0.000000   0.000000  -0.000001   0.000000   0.000000   0.000000
    12  H    0.000000   0.000000   0.000000   0.000000   0.000000   0.000000
    13  H    0.000000   0.000000   0.000000   0.000000   0.000000   0.000000
    14  C   -0.076837  -0.045620  -0.016004   0.005966   0.007024  -0.001680
    15  C   -0.029554   0.004756  -0.093580  -0.038572  -0.000634   0.007988
    16  C    0.468395   0.394464  -0.089006  -0.000376  -0.039453   0.007567
    17  C   -0.077338  -0.000285   0.490249   0.396992   0.006270  -0.042973
    18  H   -0.000126  -0.000270   0.004624  -0.003381   0.000016  -0.000170
    19  C    5.047156  -0.033749   0.499747   0.005894   0.396348  -0.042545
    20  H   -0.033749   0.506537   0.005065   0.000025  -0.004075  -0.000178
    21  C    0.499747   0.005065   5.033631  -0.039769  -0.041039   0.399443
    22  H    0.005894   0.000025  -0.039769   0.514378  -0.000206  -0.004365
    23  H    0.396348  -0.004075  -0.041039  -0.000206   0.517954  -0.004552
    24  H   -0.042545  -0.000178   0.399443  -0.004365  -0.004552   0.516914
    25  C   -0.000590   0.000156  -0.000058   0.000027   0.000020  -0.000003
    26  C    0.000055  -0.000026  -0.000005   0.000038  -0.000001   0.000001
    27  C   -0.000012   0.000207  -0.000013   0.000002   0.000001   0.000000
    28  C   -0.000001   0.000001   0.000002   0.000000   0.000000   0.000000
    29  H    0.000001  -0.000002  -0.000014  -0.000034   0.000000   0.000000
    30  C    0.000002  -0.000002   0.000000   0.000000   0.000000   0.000000
    31  H    0.000007   0.000066  -0.000002   0.000000   0.000000   0.000000
    32  C    0.000000  -0.000001   0.000000   0.000000   0.000000   0.000000
    33  H    0.000000   0.000000   0.000000   0.000001   0.000000   0.000000
    34  H    0.000000   0.000000   0.000000   0.000000   0.000000   0.000000
    35  H    0.000000   0.000000   0.000000   0.000000   0.000000   0.000000
             25         26         27         28         29         30
     1  C    0.149880  -0.055552  -0.024580   0.003236   0.000218   0.006841
     2  H   -0.070559   0.005497   0.001619  -0.000262   0.000108   0.001565
     3  C   -0.096375  -0.007330  -0.001603  -0.000558   0.001097  -0.000419
     4  C    0.000767   0.001654  -0.000444   0.000021  -0.000128   0.000020
     5  C   -0.006795  -0.008513   0.000577  -0.000334   0.000254  -0.000105
     6  C   -0.000802   0.000051   0.000007   0.000005  -0.000097   0.000000
     7  H    0.000419   0.000066  -0.000017   0.000000   0.000022   0.000000
     8  C   -0.001584  -0.000259  -0.000048  -0.000008   0.000058   0.000014
     9  H    0.003993  -0.000592   0.001677  -0.000244  -0.000067   0.000121
    10  C    0.000127   0.000035  -0.000003   0.000002  -0.000041   0.000000
    11  H    0.000012   0.000000   0.000000   0.000000   0.000000   0.000000
    12  H    0.000015   0.000014  -0.000005   0.000002   0.000005  -0.000001
    13  H    0.000002   0.000000   0.000000   0.000000   0.000001   0.000000
    14  C   -0.140886  -0.003375  -0.002068   0.001902  -0.002846  -0.000516
    15  C   -0.003282  -0.011765   0.000514  -0.000402  -0.000965   0.000127
    16  C   -0.004516   0.000749   0.000626   0.000029  -0.000200  -0.000017
    17  C    0.001982  -0.000104   0.000044  -0.000101   0.000880   0.000001
    18  H   -0.003707   0.001914  -0.000215   0.001134   0.001577  -0.000058
    19  C   -0.000590   0.000055  -0.000012  -0.000001   0.000001   0.000002
    20  H    0.000156  -0.000026   0.000207   0.000001  -0.000002  -0.000002
    21  C   -0.000058  -0.000005  -0.000013   0.000002  -0.000014   0.000000
    22  H    0.000027   0.000038   0.000002   0.000000  -0.000034   0.000000
    23  H    0.000020  -0.000001   0.000001   0.000000   0.000000   0.000000
    24  H   -0.000003   0.000001   0.000000   0.000000   0.000000   0.000000
    25  C    5.391353   0.447084   0.492844  -0.058200  -0.044641  -0.073717
    26  C    0.447084   5.068295  -0.072082   0.479126   0.388706  -0.026456
    27  C    0.492844  -0.072082   5.091995  -0.030701   0.004098   0.454231
    28  C   -0.058200   0.479126  -0.030701   5.040458  -0.028457  -0.078637
    29  H   -0.044641   0.388706   0.004098  -0.028457   0.497253   0.000020
    30  C   -0.073717  -0.026456   0.454231  -0.078637   0.000020   5.059347
    31  H   -0.050710   0.004331   0.400481  -0.000281  -0.000273  -0.034852
    32  C   -0.018833  -0.091216  -0.086301   0.491053   0.004554   0.497700
    33  H    0.006026  -0.038901  -0.000477   0.397210  -0.003325   0.005972
    34  H    0.006926  -0.000685  -0.039680   0.006245   0.000015   0.396963
    35  H   -0.001546   0.007879   0.007486  -0.042889  -0.000173  -0.042552
             31         32         33         34         35
     1  C   -0.000074   0.001265  -0.000348  -0.000339  -0.000012
     2  H    0.002358  -0.000001   0.000011  -0.000039  -0.000001
     3  C    0.000142   0.000046   0.000024   0.000011   0.000001
     4  C   -0.000035  -0.000002   0.000000   0.000000   0.000000
     5  C    0.000294   0.000108   0.000017  -0.000002   0.000000
     6  C    0.000000   0.000000   0.000000   0.000000   0.000000
     7  H    0.000001   0.000000   0.000000   0.000000   0.000000
     8  C   -0.000008   0.000002   0.000001   0.000000   0.000000
     9  H    0.000207  -0.000089   0.000005   0.000006   0.000001
    10  C    0.000001   0.000000   0.000000   0.000000   0.000000
    11  H    0.000000   0.000000   0.000000   0.000000   0.000000
    12  H    0.000000   0.000000   0.000000   0.000000   0.000000
    13  H    0.000000   0.000000   0.000000   0.000000   0.000000
    14  C    0.000359  -0.000087   0.000027   0.000025  -0.000003
    15  C   -0.000007  -0.000024   0.000056   0.000000   0.000000
    16  C    0.000270  -0.000009   0.000000   0.000001   0.000000
    17  C   -0.000001   0.000001   0.000002   0.000000   0.000000
    18  H    0.000001   0.000004  -0.000059   0.000001   0.000000
    19  C    0.000007   0.000000   0.000000   0.000000   0.000000
    20  H    0.000066  -0.000001   0.000000   0.000000   0.000000
    21  C   -0.000002   0.000000   0.000000   0.000000   0.000000
    22  H    0.000000   0.000000   0.000001   0.000000   0.000000
    23  H    0.000000   0.000000   0.000000   0.000000   0.000000
    24  H    0.000000   0.000000   0.000000   0.000000   0.000000
    25  C   -0.050710  -0.018833   0.006026   0.006926  -0.001546
    26  C    0.004331  -0.091216  -0.038901  -0.000685   0.007879
    27  C    0.400481  -0.086301  -0.000477  -0.039680   0.007486
    28  C   -0.000281   0.491053   0.397210   0.006245  -0.042889
    29  H   -0.000273   0.004554  -0.003325   0.000015  -0.000173
    30  C   -0.034852   0.497700   0.005972   0.396963  -0.042552
    31  H    0.509777   0.005241   0.000025  -0.004201  -0.000184
    32  C    0.005241   5.034209  -0.039845  -0.040690   0.399647
    33  H    0.000025  -0.039845   0.514858  -0.000206  -0.004464
    34  H   -0.004201  -0.040690  -0.000206   0.518111  -0.004590
    35  H   -0.000184   0.399647  -0.004464  -0.004590   0.517373
 Mulliken atomic charges:
              1
     1  C   -0.615805
     2  H    0.210570
     3  C    0.080289
     4  C   -0.160724
     5  C   -0.135001
     6  C   -0.183832
     7  H    0.206242
     8  C   -0.175398
     9  H    0.184814
    10  C   -0.151640
    11  H    0.161005
    12  H    0.161583
    13  H    0.162081
    14  C    0.068465
    15  C   -0.108137
    16  C   -0.173941
    17  C   -0.179005
    18  H    0.181446
    19  C   -0.166023
    20  H    0.171438
    21  C   -0.155152
    22  H    0.163682
    23  H    0.162743
    24  H    0.164573
    25  C    0.075171
    26  C   -0.088629
    27  C   -0.198157
    28  C   -0.179350
    29  H    0.182397
    30  C   -0.165592
    31  H    0.167071
    32  C   -0.156730
    33  H    0.163392
    34  H    0.162128
    35  H    0.164027
 Sum of Mulliken atomic charges =   0.00000
 Mulliken charges with hydrogens summed into heavy atoms:
              1
     1  C   -0.405235
     3  C    0.080289
     4  C    0.045518
     5  C    0.049812
     6  C   -0.022827
     8  C   -0.013815
    10  C    0.010441
    14  C    0.068465
    15  C    0.073309
    16  C   -0.002503
    17  C   -0.015323
    19  C   -0.003280
    21  C    0.009421
    25  C    0.075171
    26  C    0.093768
    27  C   -0.031086
    28  C   -0.015958
    30  C   -0.003464
    32  C    0.007297
 Sum of Mulliken charges with hydrogens summed into heavy atoms =   0.00000
 Electronic spatial extent (au):  <R**2>=           4931.7542
 Charge=              0.0000 electrons
 Dipole moment (field-independent basis, Debye):
    X=             -0.0953    Y=             -0.1654    Z=             -0.0184  Tot=              0.1918
 Quadrupole moment (field-independent basis, Debye-Ang):
   XX=           -107.7446   YY=           -113.2558   ZZ=           -106.7655
   XY=             -2.7837   XZ=             -0.9757   YZ=              2.6923
 Traceless Quadrupole moment (field-independent basis, Debye-Ang):
   XX=              1.5107   YY=             -4.0005   ZZ=              2.4898
   XY=             -2.7837   XZ=             -0.9757   YZ=              2.6923
 Octapole moment (field-independent basis, Debye-Ang**2):
  XXX=            -27.8995  YYY=              8.2791  ZZZ=              0.7628  XYY=             37.0851
  XXY=              2.2183  XXZ=             -3.1823  XZZ=            -10.0932  YZZ=            -18.2617
  YYZ=             12.1125  XYZ=             -1.4931
 Hexadecapole moment (field-independent basis, Debye-Ang**3):
 XXXX=          -3054.9356 YYYY=          -2909.0173 ZZZZ=           -668.6435 XXXY=             61.5438
 XXXZ=            -16.1322 YYYX=            -65.0989 YYYZ=             74.7994 ZZZX=              6.5994
 ZZZY=             -2.4133 XXYY=          -1019.5812 XXZZ=           -629.0662 YYZZ=           -634.1576
 XXYZ=             -8.8287 YYXZ=             10.9753 ZZXY=            -33.4924
 N-N= 1.290635790892D+03 E-N=-4.277344403031D+03  KE= 7.285999464895D+02
 PrsmSu:  requested number of processors reduced to:  10 ShMem   1 Linda.
 Calling FoFJK, ICntrl=      2127 FMM=F ISym2X=0 I1Cent= 0 IOpClX= 0 NMat=1 NMatS=1 NMatT=0.
 ***** Axes restored to original set *****
 -------------------------------------------------------------------
 Center     Atomic                   Forces (Hartrees/Bohr)
 Number     Number              X              Y              Z
 -------------------------------------------------------------------
      1        6          -0.023058033    0.001115336    0.002870304
      2        1           0.024294548   -0.006966482   -0.002226129
      3        6           0.004881637    0.014213230    0.000349787
      4        6           0.002449776   -0.005411040    0.010684323
      5        6          -0.004484150   -0.001530056   -0.007259953
      6        6           0.006826721    0.008481052    0.006744257
      7        1          -0.005485999    0.012033279   -0.017738757
      8        6          -0.004411466    0.004396727   -0.011119520
      9        1           0.010201507    0.009530325    0.012468659
     10        6           0.005140675    0.012749153    0.000029784
     11        1          -0.008946944   -0.007693430   -0.011812729
     12        1           0.004003984   -0.007907715    0.014132404
     13        1          -0.004822034   -0.015744440    0.002368989
     14        6          -0.005940899   -0.004482371    0.011577880
     15        6           0.009466430    0.000258729   -0.008005387
     16        6          -0.005634581    0.001924671   -0.001103279
     17        6           0.012403769   -0.001658190   -0.000734713
     18        1          -0.013450837   -0.006066839    0.025722134
     19        6          -0.007005670   -0.004277459    0.011003952
     20        1           0.017498510   -0.003481509    0.001531142
     21        6           0.002039932   -0.006144243    0.012037837
     22        1          -0.016286522    0.003625587   -0.001879125
     23        1           0.011192968    0.003901051   -0.011832381
     24        1          -0.005257264    0.007647324   -0.014025819
     25        6          -0.007741945   -0.007022143   -0.010049701
     26        6           0.010018023    0.004002771    0.003680304
     27        6          -0.005241621    0.000576290    0.002266925
     28        6           0.012288820   -0.000375160   -0.001721038
     29        1          -0.017240164   -0.007892955   -0.020526782
     30        6          -0.008759388   -0.006700537   -0.007818669
     31        1           0.016498397   -0.001813375   -0.005335786
     32        6           0.000202165   -0.007962090   -0.011113417
     33        1          -0.015711204    0.002240705    0.005483836
     34        1           0.012826168    0.006980661    0.007712116
     35        1          -0.002755306    0.009453145    0.013638554
 -------------------------------------------------------------------
 Cartesian Forces:  Max     0.025722134 RMS     0.009562609

 GradGradGradGradGradGradGradGradGradGradGradGradGradGradGradGradGradGrad
 Berny optimization.
 Internal  Forces:  Max     0.028766494 RMS     0.007798216
 Search for a local minimum.
 Step number   1 out of a maximum of  197
 All quantities printed in internal units (Hartrees-Bohrs-Radians)
 Mixed Optimization -- RFO/linear search
 Second derivative matrix not updated -- first step.
     Eigenvalues ---    0.00635   0.00650   0.00658   0.01533   0.01538
     Eigenvalues ---    0.01539   0.02137   0.02141   0.02147   0.02170
     Eigenvalues ---    0.02172   0.02173   0.02181   0.02183   0.02184
     Eigenvalues ---    0.02200   0.02200   0.02202   0.02211   0.02211
     Eigenvalues ---    0.02211   0.02214   0.02214   0.02214   0.02215
     Eigenvalues ---    0.02217   0.02218   0.02219   0.02219   0.02226
     Eigenvalues ---    0.04557   0.06391   0.06637   0.15997   0.15998
     Eigenvalues ---    0.16000   0.16000   0.16000   0.16000   0.16000
     Eigenvalues ---    0.16000   0.16000   0.16000   0.16000   0.16000
     Eigenvalues ---    0.16000   0.16000   0.16000   0.18858   0.19347
     Eigenvalues ---    0.22000   0.22000   0.22000   0.22000   0.22000
     Eigenvalues ---    0.22000   0.23466   0.23477   0.23478   0.24970
     Eigenvalues ---    0.24999   0.25000   0.31253   0.31364   0.31475
     Eigenvalues ---    0.31538   0.33505   0.33593   0.33959   0.34051
     Eigenvalues ---    0.34062   0.34111   0.34246   0.34250   0.34253
     Eigenvalues ---    0.34254   0.34256   0.34277   0.34279   0.34279
     Eigenvalues ---    0.34290   0.42392   0.42452   0.42488   0.42555
     Eigenvalues ---    0.42562   0.42618   0.46326   0.46380   0.46436
     Eigenvalues ---    0.46720   0.46752   0.46806   0.47196   0.47206
     Eigenvalues ---    0.47210   0.47314   0.47341   0.474531000.00000
     Eigenvalues --- 1000.000001000.000001000.000001000.000001000.00000
     Eigenvalues --- 1000.000001000.000001000.000001000.000001000.00000
     Eigenvalues --- 1000.000001000.000001000.000001000.000001000.00000
     Eigenvalues --- 1000.000001000.000001000.000001000.000001000.00000
     Eigenvalues --- 1000.000001000.000001000.000001000.000001000.00000
     Eigenvalues --- 1000.000001000.000001000.000001000.000001000.00000
     Eigenvalues --- 1000.000001000.000001000.000001000.000001000.00000
     Eigenvalues --- 1000.000001000.000001000.000001000.000001000.00000
     Eigenvalues --- 1000.000001000.000001000.000001000.000001000.00000
     Eigenvalues --- 1000.000001000.000001000.000001000.000001000.00000
     Eigenvalues --- 1000.000001000.000001000.000001000.000001000.00000
     Eigenvalues --- 1000.000001000.000001000.000001000.000001000.00000
     Eigenvalues --- 1000.000001000.000001000.000001000.000001000.00000
     Eigenvalues --- 1000.000001000.000001000.000001000.000001000.00000
     Eigenvalues --- 1000.000001000.000001000.000001000.000001000.00000
     Eigenvalues --- 1000.000001000.000001000.000001000.000001000.00000
     Eigenvalues --- 1000.000001000.000001000.000001000.000001000.00000
     Eigenvalues --- 1000.000001000.00000
 RFO step:  Lambda=-4.19339811D-02 EMin= 6.35423342D-03
 Linear search not attempted -- first point.
 Maximum step size (   0.300) exceeded in Quadratic search.
    -- Step size scaled by   0.592
 Iteration  1 RMS(Cart)=  0.12548674 RMS(Int)=  0.00302321
 Iteration  2 RMS(Cart)=  0.00612037 RMS(Int)=  0.00028224
 Iteration  3 RMS(Cart)=  0.00001063 RMS(Int)=  0.00028218
 Iteration  4 RMS(Cart)=  0.00000000 RMS(Int)=  0.00028218
 Variable       Old X    -DE/DX   Delta X   Delta X   Delta X     New X
                                 (Linear)    (Quad)   (Total)
    R1        2.12232  -0.02497   0.00000  -0.04170  -0.04170   2.08062
    R2        2.85114   0.02351   0.00000   0.03900   0.03900   2.89014
    R3        2.84997   0.02375   0.00000   0.03933   0.03933   2.88930
    R4        2.85324   0.02294   0.00000   0.03818   0.03818   2.89142
    R5        2.63493  -0.00233   0.00000  -0.00258  -0.00258   2.63235
    R6        2.64402  -0.00204   0.00000  -0.00236  -0.00235   2.64167
    R7        2.62925  -0.00127   0.00000  -0.00139  -0.00139   2.62786
    R8        2.07400  -0.02205   0.00000  -0.03420  -0.03420   2.03980
    R9        2.62369  -0.00484   0.00000  -0.00561  -0.00560   2.61808
   R10        2.07244  -0.01869   0.00000  -0.02892  -0.02892   2.04352
   R11        2.62541  -0.00753   0.00000  -0.00868  -0.00869   2.61673
   R12        2.06905  -0.01670   0.00000  -0.02570  -0.02570   2.04335
   R13        2.62984  -0.00497   0.00000  -0.00587  -0.00588   2.62396
   R14        2.06901  -0.01668   0.00000  -0.02568  -0.02568   2.04333
   R15        2.06844  -0.01664   0.00000  -0.02558  -0.02558   2.04286
   R16        2.63976   0.00070   0.00000   0.00097   0.00099   2.64075
   R17        2.63955  -0.00431   0.00000  -0.00501  -0.00499   2.63456
   R18        2.62562  -0.00442   0.00000  -0.00499  -0.00499   2.62063
   R19        2.08173  -0.02877   0.00000  -0.04516  -0.04516   2.03657
   R20        2.62782  -0.00243   0.00000  -0.00288  -0.00288   2.62494
   R21        2.07225  -0.01790   0.00000  -0.02768  -0.02768   2.04457
   R22        2.62874  -0.00570   0.00000  -0.00663  -0.00665   2.62209
   R23        2.06910  -0.01679   0.00000  -0.02585  -0.02585   2.04325
   R24        2.62739  -0.00925   0.00000  -0.01078  -0.01079   2.61660
   R25        2.06916  -0.01675   0.00000  -0.02578  -0.02578   2.04338
   R26        2.06863  -0.01682   0.00000  -0.02587  -0.02587   2.04276
   R27        2.63864  -0.00002   0.00000   0.00008   0.00010   2.63874
   R28        2.63877  -0.00427   0.00000  -0.00494  -0.00493   2.63384
   R29        2.62594  -0.00489   0.00000  -0.00557  -0.00557   2.62037
   R30        2.08022  -0.02660   0.00000  -0.04166  -0.04166   2.03856
   R31        2.62826  -0.00248   0.00000  -0.00290  -0.00291   2.62535
   R32        2.07143  -0.01742   0.00000  -0.02692  -0.02692   2.04451
   R33        2.62895  -0.00543   0.00000  -0.00633  -0.00634   2.62261
   R34        2.06903  -0.01679   0.00000  -0.02584  -0.02584   2.04319
   R35        2.62715  -0.00863   0.00000  -0.01003  -0.01005   2.61711
   R36        2.06865  -0.01651   0.00000  -0.02540  -0.02540   2.04325
   R37        2.06862  -0.01682   0.00000  -0.02588  -0.02588   2.04275
    A1        1.82900   0.00367   0.00000  -0.00041  -0.00016   1.82884
    A2        1.87547  -0.00998   0.00000  -0.05134  -0.05043   1.82505
    A3        1.88343  -0.00859   0.00000  -0.04810  -0.04729   1.83615
    A4        1.99488   0.00102   0.00000   0.02204   0.02014   2.01502
    A5        1.94424  -0.00328   0.00000   0.01202   0.00984   1.95408
    A6        1.92953   0.01525   0.00000   0.05420   0.05303   1.98256
    A7        2.13789   0.00748   0.00000   0.01509   0.01508   2.15297
    A8        2.06764   0.00046   0.00000   0.00084   0.00083   2.06847
    A9        2.07667  -0.00797   0.00000  -0.01617  -0.01616   2.06050
   A10        2.10142   0.00349   0.00000   0.00801   0.00801   2.10943
   A11        2.09288  -0.00009   0.00000   0.00084   0.00084   2.09372
   A12        2.08889  -0.00340   0.00000  -0.00885  -0.00885   2.08004
   A13        2.10353   0.00474   0.00000   0.01037   0.01038   2.11391
   A14        2.08439  -0.00131   0.00000  -0.00209  -0.00209   2.08230
   A15        2.09525  -0.00343   0.00000  -0.00828  -0.00829   2.08696
   A16        2.09923   0.00115   0.00000   0.00235   0.00234   2.10157
   A17        2.08882  -0.00050   0.00000  -0.00096  -0.00096   2.08787
   A18        2.09513  -0.00065   0.00000  -0.00139  -0.00138   2.09375
   A19        2.09655   0.00082   0.00000   0.00114   0.00113   2.09768
   A20        2.09189  -0.00040   0.00000  -0.00055  -0.00055   2.09134
   A21        2.09474  -0.00042   0.00000  -0.00059  -0.00058   2.09416
   A22        2.08896  -0.00223   0.00000  -0.00570  -0.00572   2.08324
   A23        2.09784   0.00107   0.00000   0.00273   0.00274   2.10058
   A24        2.09639   0.00116   0.00000   0.00297   0.00298   2.09937
   A25        2.12507   0.02292   0.00000   0.04650   0.04648   2.17155
   A26        2.07914  -0.01103   0.00000  -0.02232  -0.02235   2.05679
   A27        2.07895  -0.01189   0.00000  -0.02414  -0.02411   2.05484
   A28        2.10239   0.00453   0.00000   0.01024   0.01022   2.11261
   A29        2.07805   0.00437   0.00000   0.01440   0.01436   2.09241
   A30        2.10265  -0.00888   0.00000  -0.02446  -0.02449   2.07816
   A31        2.10018   0.00817   0.00000   0.01795   0.01797   2.11815
   A32        2.09464  -0.00473   0.00000  -0.01086  -0.01087   2.08376
   A33        2.08837  -0.00344   0.00000  -0.00709  -0.00710   2.08127
   A34        2.09627   0.00241   0.00000   0.00502   0.00500   2.10126
   A35        2.09142  -0.00111   0.00000  -0.00222  -0.00221   2.08921
   A36        2.09550  -0.00130   0.00000  -0.00279  -0.00278   2.09271
   A37        2.09786  -0.00021   0.00000  -0.00138  -0.00139   2.09646
   A38        2.09089   0.00030   0.00000   0.00127   0.00128   2.09217
   A39        2.09444  -0.00009   0.00000   0.00011   0.00011   2.09455
   A40        2.09073  -0.00301   0.00000  -0.00766  -0.00770   2.08303
   A41        2.09603   0.00154   0.00000   0.00395   0.00397   2.09999
   A42        2.09643   0.00146   0.00000   0.00372   0.00373   2.10016
   A43        2.11775   0.01852   0.00000   0.03757   0.03751   2.15526
   A44        2.08464  -0.00785   0.00000  -0.01589  -0.01595   2.06869
   A45        2.08079  -0.01068   0.00000  -0.02173  -0.02173   2.05906
   A46        2.10145   0.00420   0.00000   0.00944   0.00938   2.11083
   A47        2.07795   0.00374   0.00000   0.01253   0.01243   2.09038
   A48        2.10363  -0.00790   0.00000  -0.02157  -0.02167   2.08196
   A49        2.09910   0.00731   0.00000   0.01614   0.01615   2.11525
   A50        2.09511  -0.00433   0.00000  -0.01005  -0.01006   2.08506
   A51        2.08897  -0.00298   0.00000  -0.00610  -0.00611   2.08286
   A52        2.09613   0.00222   0.00000   0.00457   0.00456   2.10069
   A53        2.09161  -0.00101   0.00000  -0.00198  -0.00199   2.08963
   A54        2.09544  -0.00121   0.00000  -0.00258  -0.00259   2.09286
   A55        2.09783  -0.00031   0.00000  -0.00140  -0.00142   2.09642
   A56        2.09116   0.00033   0.00000   0.00123   0.00124   2.09240
   A57        2.09419  -0.00003   0.00000   0.00017   0.00018   2.09437
[...]
 00038985,0.00004573,-0.00033163,0.00019305,-0.00082552,0.00036999,0.00
 025472,-0.00000861,-0.00003325,-0.00044331,-0.00023095,0.00001284,-0.0
 0032143,0.00018483,0.00001398,0.00001127,0.00002147,0.00029183,0.00040
 640,0.00004478,-0.00005322,-0.00003275,0.00005595,-0.00032666,0.000036
 43,-0.00022070,-0.00002126,-0.00001063,0.00000946,0.00001669,-0.000017
 58,0.00000486,-0.00000127,-0.00001617,-0.00000295,0.00026114,0.0016709
 5,0.00073849,0.00023152,0.00012769,0.00027784,0.00035152,0.00014693,-0
 .00016523,0.00009649,0.00005448,-0.00045734,-0.00004666,-0.00029471,0.
 00004433,0.00010651,-0.00031612,0.00022149,0.00000470,0.00003090,-0.00
 000381,-0.00028328,0.00014875,0.00020736,0.00004255,0.00001638,0.00001
 456,-0.00003036,-0.00004317,0.00001849,0.00000450,-0.00000624,0.000004
 90,-0.06973655,-0.06684098,0.00581418,0.04834874,-0.01668601,-0.065961
 29,0.09132418,-0.09545187,-0.26310375,0.01564683,0.06609046,0.06102532
 ,0.00050633,0.00025249,-0.00096802,-0.16798837,0.21862601,0.54607143,-
 0.00070121,0.00235940,-0.00105736,0.00043751,-0.00054888,-0.00034966,0
 .00033900,-0.00004607,0.00024241,0.00007222,0.00016113,-0.00005067,0.0
 0006235,0.00002509,-0.00003881,0.00005139,0.00002986,0.00001329,-0.000
 03713,-0.00000067,0.00001755,-0.00002200,0.00001505,-0.00003027,-0.000
 03092,-0.00000867,0.00002326,0.00000566,0.00000673,0.00000398,0.000000
 12,0.00001486,0.00000367,-0.00000329,0.00001319,0.00000343,-0.00000332
 ,0.00000390,0.00000373,0.00035130,-0.00028132,-0.00036334,-0.00007366,
 0.00023527,0.00015209,0.00010184,0.00015031,-0.00035779,0.00001422,0.0
 0012279,-0.00017244,-0.00006397,-0.00013714,0.00009281,0.00012800,-0.0
 0007823,-0.00002299,-0.00003134,-0.00002957,0.00000096,-0.00008121,0.0
 0003433,0.00003823,-0.00000297,-0.00002438,0.00000095,-0.00001756,0.00
 000098,0.00000165,-0.00000221,-0.00001421,0.00001088,-0.01183609,-0.00
 123424,0.01462106,0.00155162,-0.00561482,0.00044188,-0.26202732,-0.059
 25466,0.13679957,0.00035940,0.00028027,-0.00095119,-0.00079998,-0.0000
 8073,0.00061914,-0.00172168,-0.00523299,0.00170252,0.27165146,-0.00009
 029,-0.00012205,0.00275325,0.00112923,-0.00054795,-0.00049174,0.000349
 67,-0.00012726,0.00001633,0.00008500,0.00013355,-0.00007226,-0.0000908
 6,0.00000407,-0.00007217,0.00002687,0.00002708,0.00004783,0.00000594,-
 0.00000646,0.00001543,0.00002827,0.00000487,0.00001561,0.00001102,-0.0
 0003235,0.00004420,0.00000367,0.00001877,-0.00000597,0.00000779,0.0000
 1871,0.00001132,-0.00000510,0.00000437,-0.00000132,0.00000599,0.000009
 63,0.00000328,-0.00007577,0.00031314,-0.00008990,-0.00014440,-0.000015
 89,0.00008863,-0.00004921,-0.00008310,0.00008153,0.00000460,-0.0000759
 1,0.00004482,0.00009303,0.00000698,-0.00003164,-0.00000226,0.00004726,
 -0.00005633,0.00002358,-0.00003766,-0.00004129,0.00004458,-0.00006273,
 0.00001701,0.00002514,-0.00001140,0.00001994,0.00000218,0.00000188,0.0
 0001614,0.00001462,-0.00000033,0.00001004,-0.02395214,-0.00074438,0.01
 567213,-0.00544287,-0.00150483,-0.00454704,-0.05891594,-0.07782224,0.0
 2567124,0.00034802,-0.00101671,-0.00036582,-0.00107261,-0.00016271,0.0
 0086123,0.01877887,0.00953467,-0.01350323,0.06778042,0.07260077,-0.001
 62674,0.00082869,-0.00133096,-0.00070476,-0.00014695,0.00049176,-0.000
 14938,0.00010985,0.00021057,-0.00003381,0.00001911,0.00002309,0.000140
 16,0.00007829,0.00006619,-0.00001367,0.00000395,-0.00004339,-0.0000139
 4,-0.00000248,-0.00000175,-0.00001559,-0.00001985,-0.00002313,-0.00002
 708,0.00001010,-0.00000872,0.00001192,0.00002782,0.00000974,0.00000796
 ,0.00000320,-0.00000408,-0.00000040,0.00001840,-0.00000706,-0.00000197
 ,0.00000477,-0.00000160,-0.00008340,-0.00009261,-0.00014663,0.00003462
 ,0.00001675,0.00000490,0.00007909,0.00006147,-0.00010702,-0.00003494,0
 .00004968,-0.00001910,-0.00001254,-0.00001552,0.00005354,0.00002627,-0
 .00002595,-0.00004320,-0.00000438,-0.00000621,-0.00000296,-0.00001980,
 -0.00001541,0.00002018,0.00000940,-0.00000548,-0.00000132,-0.00000898,
 0.00000090,0.00001188,0.00000351,-0.00000369,0.00001502,-0.00810457,-0
 .00405076,0.00885227,0.00090412,-0.00437595,0.00292020,0.13777378,0.02
 562253,-0.14933484,-0.00084593,-0.00031565,-0.00049780,-0.00046302,-0.
 00010175,0.00021265,0.02487701,0.00864063,-0.00900302,-0.15294309,-0.0
 2236269,0.15008890,-0.00121558,-0.00028619,0.00180461,0.00100320,0.000
 13733,0.00034908,-0.00052158,0.00027862,-0.00012894,0.00025811,0.00039
 509,-0.00003920,0.00009629,-0.00037788,-0.00019045,0.00002505,-0.00032
 059,0.00015661,0.00000366,0.00001393,0.00001861,0.00026876,0.00034225,
 -0.00000565,-0.00008749,-0.00000439,0.00004648,-0.00028098,0.00006693,
 -0.00020103,-0.00000819,0.00000395,0.00000653,0.00001029,0.00000135,0.
 00000709,-0.00000761,-0.00000750,-0.00000074,0.00042992,0.00117305,0.0
 0030797,0.00007736,0.00019739,0.00038167,0.00030501,0.00022684,-0.0003
 0529,0.00012396,0.00003497,-0.00047894,0.00006390,-0.00025457,0.000022
 34,0.00017547,-0.00031509,0.00016124,0.00000619,0.00000808,-0.00000770
 ,-0.00028347,0.00014715,0.00021956,0.00004676,0.00000797,0.00002850,-0
 .00002933,-0.00004101,0.00000825,0.00000404,-0.00000819,-0.00000123,-0
 .07494460,-0.04986336,0.01111446,0.06479823,-0.01863517,-0.06770659,0.
 00878252,0.07173225,0.06946434,-0.20693874,-0.09137682,0.02315595,0.00
 303775,-0.00081386,0.00482249,-0.27152708,-0.08468103,0.08691181,0.003
 80056,-0.00189817,0.00293599,0.57577315,-0.00034034,-0.00012211,0.0015
 8153,0.00065331,-0.00021223,-0.00004558,-0.00024168,0.00029070,-0.0003
 1303,0.00023647,0.00017850,-0.00000586,0.00001169,-0.00033297,-0.00010
 692,0.00003854,-0.00021811,0.00012000,0.00001941,0.00001376,0.00002434
 ,0.00017638,0.00026230,0.00002318,-0.00004731,0.00000271,0.00001387,-0
 .00024218,-0.00000750,-0.00014032,-0.00001902,-0.00001652,-0.00000428,
 0.00001765,-0.00001945,0.00000468,-0.00000281,-0.00001954,-0.00000252,
 0.00027882,0.00046418,0.00043050,0.00011218,0.00012763,-0.00002526,0.0
 0002727,0.00023146,-0.00026589,0.00010399,-0.00001607,-0.00029903,0.00
 020118,-0.00031314,-0.00012650,0.00012482,-0.00017306,0.00008288,-0.00
 000006,0.00000189,0.00001599,-0.00017530,0.00011997,0.00005410,-0.0000
 1651,0.00002892,-0.00003881,-0.00002117,-0.00001620,-0.00002150,0.0000
 0443,0.00000336,-0.00001728,-0.04917093,-0.03938096,0.01300545,0.02413
 993,-0.03558799,-0.06581836,0.02815285,0.05943044,0.02141126,-0.144470
 38,-0.26209426,-0.04363555,-0.00109422,0.00206139,-0.00557120,-0.03115
 407,-0.14323695,-0.03061792,-0.00143013,0.00085333,-0.00668422,0.16643
 729,0.58005647,0.00011570,0.00105820,-0.00086516,-0.00033209,-0.000141
 22,-0.00013048,0.00021875,0.00004296,-0.00008408,0.00006177,-0.0001082
 1,0.00004188,-0.00008994,0.00002013,-0.00002750,0.00001865,0.00004750,
 -0.00000729,0.00000467,0.00000230,-0.00001011,-0.00006402,-0.00001330,
 0.00001068,0.00001025,0.00005089,-0.00003903,-0.00000625,-0.00006569,0
 .00003727,-0.00000972,-0.00002039,-0.00001092,0.00001563,-0.00004164,-
 0.00000230,-0.00000098,-0.00001620,-0.00000515,0.00005709,-0.00092196,
 -0.00002787,0.00012606,-0.00000535,-0.00018466,-0.00021316,0.00007659,
 -0.00012950,-0.00007745,0.00002371,0.00010270,-0.00000768,0.00002863,-
 0.00000580,0.00002361,0.00007329,-0.00003323,-0.00000908,-0.00001789,0
 .00002612,0.00004342,-0.00000951,-0.00008766,-0.00002997,0.00001210,-0
 .00003467,0.00000560,0.00002240,-0.00003396,-0.00000775,0.00000984,-0.
 00000391,0.01290355,0.01340719,-0.00497180,-0.02668392,-0.02770322,0.0
 0695433,0.02883332,-0.01637329,-0.03195740,-0.02997996,-0.09283243,-0.
 14832853,0.00447392,-0.00560070,-0.00087554,0.14003565,0.01797933,-0.1
 9333501,0.00347981,-0.00637044,-0.00028160,-0.20088190,0.24824729,0.60
 299201,-0.00029175,-0.00040095,-0.00023374,-0.00006166,0.00003872,0.00
 008803,-0.00002239,-0.00008586,0.00008471,-0.00003679,0.00001142,-0.00
 001813,0.00001880,0.00006877,0.00000889,-0.00000008,0.00002268,-0.0000
 2536,-0.00001126,-0.00000845,-0.00000568,0.00000158,-0.00003946,-0.000
 01368,-0.00000316,-0.00002128,0.00001731,0.00004731,0.00003345,0.00000
 229,0.00000676,0.00001177,0.00000871,-0.00001758,0.00002587,-0.0000005
 0,0.00000077,0.00001780,0.00000718,-0.00002801,0.00015663,0.00002217,0
 .00004097,-0.00003252,0.00001876,0.00004618,-0.00002083,0.00004546,-0.
 00001926,0.00002137,-0.00000627,-0.00003798,0.00000987,-0.00000787,-0.
 00000267,-0.00001511,0.00001372,-0.00000022,0.00000274,-0.00001035,-0.
 00000764,0.00000165,0.00002077,0.00000593,-0.00001083,0.00000294,-0.00
 000669,-0.00000328,0.00001508,0.00000070,-0.00000428,0.00001326,0.0036
 0492,-0.00130074,0.00334683,-0.00156229,-0.00508650,0.00148159,0.00043
 218,0.00039911,-0.00087694,-0.26466377,-0.06007239,0.13894231,-0.00065
 085,0.00229530,-0.00173729,0.00182482,-0.00583019,0.00078496,-0.000464
 37,0.00040706,-0.00033809,-0.01041115,-0.00078812,0.01396559,0.2737096
 0,0.00078034,0.00042682,-0.00015238,0.00012098,-0.00008804,-0.00013853
 ,-0.00000236,0.00010190,0.00004189,-0.00001509,0.00003054,0.00001388,-
 0.00001284,-0.00004270,0.00000449,-0.00001394,-0.00002929,0.00001660,0
 .00000824,0.00000363,-0.00000750,0.00000728,0.00001477,0.00001986,0.00
 001240,0.00000286,-0.00001202,-0.00003256,-0.00003053,0.00000260,0.000
 00278,-0.00000591,-0.00000763,0.00000861,-0.00001288,-0.00000366,0.000
 00330,-0.00000537,-0.00000698,0.00002398,-0.00009158,-0.00004335,-0.00
 002591,0.00002115,0.00002527,-0.00000987,-0.00000538,-0.00003487,-0.00
 000386,0.00001038,-0.00000187,-0.00001528,0.00000871,-0.00001261,0.000
 00610,0.00001141,-0.00000978,-0.00000457,-0.00000456,0.00000303,0.0000
 0411,-0.00000206,-0.00000599,0.00000100,-0.00000240,0.00000579,0.00000
 310,0.00000229,-0.00000461,-0.00000204,-0.00000106,-0.00000155,-0.0015
 6683,0.00069249,-0.00649142,0.01846977,0.00944619,-0.01304921,0.000276
 99,-0.00116706,-0.00041722,-0.06030691,-0.07858132,0.02609333,0.001665
 59,-0.00080205,0.00259755,-0.00550795,-0.00108938,-0.00486740,0.000409
 50,-0.00037183,0.00049425,-0.02433374,0.00039566,0.01724132,0.06866896
 ,0.07234506,0.00091322,0.00055440,-0.00028404,0.00010607,-0.00018842,-
 0.00033522,0.00003570,0.00029461,0.00001969,-0.00004061,-0.00009269,0.
 00003865,-0.00000806,-0.00002314,0.00003643,-0.00001735,0.00002061,0.0
 0000171,0.00001420,0.00001070,-0.00001992,-0.00001945,-0.00000662,-0.0
 0000738,-0.00002019,0.00001307,-0.00001539,-0.00000800,-0.00004372,0.0
 0002420,-0.00001027,-0.00002218,-0.00001938,0.00000361,-0.00001006,0.0
 0000226,0.00000044,-0.00001425,-0.00000433,0.00015503,-0.00020147,0.00
 007784,-0.00002179,-0.00001126,-0.00011657,-0.00005916,0.00007400,-0.0
 0010868,0.00000444,-0.00001419,0.00000768,0.00006122,-0.00000359,0.000
 03039,0.00000620,0.00000050,-0.00000766,-0.00001368,0.00001137,0.00001
 953,-0.00000589,0.00001231,-0.00002593,-0.00001311,0.00002177,-0.00002
 207,-0.00000015,0.00000402,-0.00001645,-0.00000048,0.00000692,-0.00000
 937,0.00278263,-0.00645734,-0.00030650,0.02485709,0.00853282,-0.008883
 68,-0.00092611,-0.00039328,-0.00049192,0.13902363,0.02611702,-0.150484
 19,-0.00244156,0.00179791,-0.00098436,0.00112993,-0.00462530,0.0033417
 5,-0.00032894,0.00050815,-0.00045040,-0.00945562,-0.00451735,0.0098483
 8,-0.15370748,-0.02385977,0.14998833,0.00022224,0.00042645,0.00007742,
 -0.00003775,-0.00001475,-0.00003585,-0.00007690,0.00001049,-0.00001250
 ,0.00003780,0.00001087,-0.00000669,0.00002697,-0.00002428,-0.00000666,
 0.00001318,-0.00002471,0.00000639,-0.00000327,0.00000295,0.00000858,0.
 00001431,0.00003609,-0.00000875,-0.00001762,0.00000780,0.00000505,-0.0
 0002446,0.00000741,-0.00002069,-0.00000676,-0.00000089,0.00000229,0.00
 000199,0.00000109,0.00000310,-0.00000404,-0.00000412,0.00000205,0.0000
 1948,-0.00009615,-0.00006355,-0.00001370,0.00002201,-0.00002079,-0.000
 04536,-0.00000244,-0.00000347,0.00003070,-0.00000433,0.00001380,-0.000
 00090,-0.00003330,0.00002007,-0.00000510,0.00001701,-0.00000681,-0.000
 00352,0.00000148,0.00000554,0.00001084,0.00000482,-0.00002507,-0.00001
 886,0.00000068,-0.00000969,0.00000227,0.00000236,-0.00000590,-0.000002
 53,-0.00000124,-0.00000977,0.00303819,-0.00108724,0.00452634,-0.000376
 21,0.00098714,0.00045432,0.00976993,0.00882024,0.00505157,-0.00143034,
 -0.00278237,0.00639415,-0.00037728,0.00033843,-0.00046799,-0.16752474,
 -0.14313259,-0.03405440,-0.00064997,0.00167936,-0.00244940,-0.01000801
 ,-0.02454883,-0.01027827,-0.00077727,-0.00110132,-0.00043373,0.1687402
 7,-0.00071621,-0.00057168,0.00023022,0.00006483,-0.00001569,-0.0000298
 2,0.00018239,0.00006803,-0.00021862,0.00000042,-0.00010388,0.00003059,
 -0.00006509,-0.00003917,-0.00002702,0.00000019,0.00003109,0.00000996,0
 .00000380,0.00000553,0.00000530,-0.00002720,-0.00000402,-0.00000633,0.
 00000019,0.00001646,-0.00000790,0.00001224,-0.00003005,0.00001585,-0.0
 0001140,-0.00001145,-0.00000450,0.00000209,-0.00002152,0.00001153,-0.0
 0000309,-0.00001369,0.00000046,0.00006728,-0.00012580,0.00010861,-0.00
 003373,0.00004090,-0.00001923,-0.00001492,0.00006797,-0.00006807,0.000
 01129,-0.00001380,-0.00000233,0.00003655,-0.00002079,0.00001502,0.0000
 1420,0.00000448,-0.00001366,-0.00000416,-0.00001143,0.00001015,0.00000
 516,0.00000861,-0.00001943,-0.00001156,0.00000543,-0.00000544,0.000001
 49,-0.00000390,-0.00002150,-0.00000256,0.00000362,-0.00001495,-0.00088
 543,0.00234028,-0.00589533,0.00099295,0.00019726,0.00020362,-0.0148816
 2,-0.00984737,-0.00180175,-0.00311724,0.00406283,-0.00172581,0.0003417
 4,-0.00049020,0.00045098,-0.14296322,-0.24497755,-0.06436228,0.0024810
 7,-0.00099640,0.00189524,-0.00098538,-0.00016316,-0.00468857,-0.000079
 14,-0.00026839,-0.00010222,0.15809819,0.25181194,-0.00090506,-0.000831
 81,0.00004540,0.00000898,0.00003715,0.00008023,0.00009216,-0.00003282,
 -0.00042591,0.00000219,-0.00005428,0.00002880,0.00000284,-0.00007628,0
 .00001101,-0.00001175,-0.00002780,0.00003820,0.00000608,0.00000076,-0.
 00001583,0.00000255,0.00005020,0.00000997,-0.00000056,0.00000815,-0.00
 000265,-0.00004126,-0.00002753,-0.00002497,-0.00001122,-0.00001184,-0.
 00000266,0.00000449,-0.00000809,0.00000440,-0.00000107,-0.00000830,-0.
 00000194,0.00005455,-0.00015243,0.00005696,-0.00000756,0.00004597,-0.0
 0004031,-0.00002331,0.00003615,-0.00006653,0.00001827,0.00001313,-0.00
 000833,0.00000011,-0.00004360,0.00000705,0.00001724,0.00001157,-0.0000
 0309,-0.00001372,-0.00000815,0.00000898,-0.00000308,0.00002528,-0.0000
 3091,-0.00002206,0.00000185,-0.00001476,-0.00000280,-0.00000207,-0.000
 01351,-0.00000593,-0.00000337,-0.00001032,0.00480744,-0.00535953,-0.00
 078507,0.00047898,0.00033367,-0.00102245,-0.01859199,-0.02341095,-0.00
 071030,0.00608682,-0.00206215,0.00108930,-0.00050411,0.00039586,-0.000
 39507,-0.03389209,-0.06427832,-0.08149217,-0.00171949,0.00263271,-0.00
 099662,0.01319082,0.01679229,0.01008463,0.00054484,0.00079223,0.000199
 83,0.03288044,0.07355703,0.07534062,-0.00025096,0.00038432,-0.00041389
 ,-0.00002782,-0.00007244,0.00000578,0.00000825,-0.00004917,0.00002936,
 0.00004170,0.00002919,-0.00001470,0.00001058,0.00002555,-0.00003789,0.
 00001099,0.00001946,-0.00000183,-0.00000891,-0.00000049,0.00000570,-0.
 00000036,-0.00000240,-0.00000569,-0.00000236,-0.00001033,0.00001063,0.
 00000440,0.00000497,0.00000824,0.00000107,0.00000174,-0.00000115,-0.00
 000207,0.00000627,0.00000028,0.00000085,0.00000150,0.00000089,0.000061
 93,-0.00001131,-0.00007858,0.00001385,0.00001699,0.00000628,0.00000543
 ,0.00001771,-0.00002569,0.00000159,0.00000429,-0.00000692,-0.00000880,
 -0.00002298,0.00000768,0.00001191,-0.00000401,-0.00000404,-0.00000366,
 -0.00000457,-0.00000379,-0.00000720,0.00000112,0.00000210,0.00000029,-
 0.00000085,-0.00000310,-0.00000363,0.00000080,0.00000251,0.00000070,-0
 .00000215,0.00000375,-0.00116282,-0.00042019,-0.00025587,0.00048526,-0
 .00608806,0.00182652,-0.00193300,-0.00451626,0.00515207,0.01031352,-0.
 01362216,-0.01815045,0.00023414,-0.00051826,-0.00080498,-0.00070140,0.
 01916108,0.02428336,-0.00035646,0.00088472,0.00109166,-0.08282635,0.03
 302688,0.06427908,-0.00066369,0.00248206,-0.00156177,-0.00052362,0.001
 48586,-0.00244174,0.07727664,0.00034903,-0.00029029,0.00051550,0.00014
 019,0.00000117,-0.00008374,0.00003156,0.00005133,-0.00003760,0.0000319
 5,-0.00005416,-0.00000577,-0.00003269,0.00000237,-0.00002230,0.0000217
 0,0.00002796,-0.00000539,0.00000077,0.00000460,0.00002346,-0.00001666,
 0.00000575,-0.00000695,-0.00000142,0.00001452,-0.00000245,0.00000390,-
 0.00000576,0.00001219,-0.00000956,-0.00000461,-0.00000125,0.00000819,-
 0.00001547,0.00000489,-0.00000283,-0.00001329,-0.00000026,-0.00003065,
 0.00001612,0.00008954,-0.00003634,0.00002661,0.00000386,-0.00000708,0.
 00000132,0.00000439,0.00001782,-0.00001654,-0.00000188,0.00001908,-0.0
 0002053,0.00000621,-0.00000624,0.00000524,-0.00000292,0.00000143,-0.00
 000202,0.00000389,0.00000355,-0.00000097,-0.00000859,-0.00000232,0.000
 00487,0.00000150,0.00000394,-0.00000184,-0.00000776,0.00000012,0.00000
 306,-0.00000940,-0.00044542,-0.00052258,0.00085328,-0.00652629,-0.0003
 0057,-0.00320744,-0.00408824,0.00337996,-0.00154182,0.00993203,-0.0093
 8103,-0.02355796,0.00042117,-0.00069230,-0.00098698,-0.00445335,0.0090
 8649,0.00807019,-0.00010742,0.00016311,0.00033952,0.03299851,-0.162592
 49,-0.14341364,0.00160676,-0.00091204,0.00260664,0.00238367,-0.0009344
 8,0.00166533,-0.03220887,0.16296650,-0.00035345,0.00034550,-0.00041869
 ,-0.00010872,-0.00000358,0.00003263,0.00000746,0.00002819,-0.00006883,
 0.00003722,-0.00003765,0.00001042,0.00000932,-0.00002491,-0.00003379,0
 .00001313,0.00001423,0.00000570,-0.00000332,0.00000672,0.00000989,-0.0
 0000983,0.00001904,-0.00001772,-0.00001737,0.00001208,0.00000031,-0.00
 000722,-0.00001421,0.00000483,-0.00001031,-0.00000859,-0.00000620,0.00
 000280,-0.00000697,0.00000832,-0.00000434,-0.00001192,0.00000125,0.000
 08206,-0.00013993,-0.00002994,-0.00002081,0.00002727,-0.00004405,-0.00
 004225,0.00004313,-0.00004770,0.00003259,-0.00002297,0.00001679,0.0000
 3767,-0.00003929,0.00002841,-0.00000002,0.00001181,-0.00001062,-0.0000
 0494,0.00000253,0.00001039,0.00000712,0.00000475,-0.00002414,-0.000018
 40,0.00001001,-0.00001411,0.00000255,0.00000105,-0.00001420,-0.0000016
 7,0.00000275,-0.00001496,-0.00034655,0.00095725,0.00034458,0.00145948,
 -0.00362280,0.00405996,0.00552940,-0.00118791,0.00247422,0.00536388,-0
 .00169975,-0.00140339,0.00014388,-0.00008691,-0.00030193,0.00070752,-0
 .01348001,-0.00897666,0.00011317,-0.00051898,-0.00067567,0.06428886,-0
 .14355000,-0.24862481,-0.00245400,0.00177622,-0.00104321,-0.00153112,0
 .00249017,-0.00094197,-0.07290378,0.15870370,0.25570490||0.00000242,-0
 .00000780,-0.00001388,0.00000406,0.00000035,0.00000172,-0.00003241,0.0
 0001141,-0.00001397,0.00003779,0.00003826,0.00000572,0.00001157,-0.000
 04857,0.00001517,0.00000848,-0.00004807,0.00001539,-0.00000384,0.00000
 084,-0.00000064,0.00003310,0.00003674,0.00000899,-0.00000367,0.0000022
 1,-0.00000241,-0.00004430,0.00001250,-0.00002574,-0.00000118,0.0000044
 4,-0.00000108,-0.00000376,-0.00000460,-0.00000123,0.00000523,-0.000001
 40,0.00000274,-0.00003519,0.00002177,0.00002729,0.00002165,-0.00002709
 ,0.00001927,0.00000551,0.00000062,-0.00004385,0.00000986,0.00000775,-0
 .00004015,-0.00000141,0.00000050,-0.00000746,0.00002465,-0.00002027,0.
 00002484,-0.00000078,-0.00000069,0.00000334,-0.00003289,0.00001740,0.0
 0001729,-0.00000105,-0.00000030,0.00000318,-0.00000172,0.00000123,-0.0
 0000214,0.00000250,-0.00000127,-0.00000106,-0.00000616,0.00000463,0.00
 000187,-0.00000126,0.00000211,0.00000355,-0.00000139,-0.00000557,0.000
 00041,0.00000135,-0.00000361,-0.00000259,0.00000107,0.00000021,0.00000
 260,-0.00000539,0.00000185,0.00000347,0.00000079,0.00000008,0.00000100
 ,0.00000552,0.00000355,-0.00000145,-0.00000022,0.00000037,-0.00000066,
 0.00000075,0.00000017,0.00000003,0.00000033,0.00000028,0.00000045|||@


 ABSOLUTISM, OBSOLETISM -- IF IT WORKS, IT'S OUT OF DATE

                          -- STAFFORD BEER
 Job cpu time:  0 days  0 hours  6 minutes 24.0 seconds.
 File lengths (MBytes):  RWF=    350 Int=      0 D2E=      0 Chk=      7 Scr=      1
 Normal termination of Gaussian 09 at Tue Sep 07 03:59:53 2021.
