 Entering Link 1 = b:\programy\g09w\l1.exe PID=     14456.
  
 Copyright (c) 1988,1990,1992,1993,1995,1998,2003,2009, Gaussian, Inc.
                  All Rights Reserved.
  
 This is part of the Gaussian(R) 09 program.  It is based on
 the Gaussian(R) 03 system (copyright 2003, Gaussian, Inc.),
 the Gaussian(R) 98 system (copyright 1998, Gaussian, Inc.),
 the Gaussian(R) 94 system (copyright 1995, Gaussian, Inc.),
 the Gaussian 92(TM) system (copyright 1992, Gaussian, Inc.),
 the Gaussian 90(TM) system (copyright 1990, Gaussian, Inc.),
 the Gaussian 88(TM) system (copyright 1988, Gaussian, Inc.),
 the Gaussian 86(TM) system (copyright 1986, Carnegie Mellon
 University), and the Gaussian 82(TM) system (copyright 1983,
 Carnegie Mellon University). Gaussian is a federally registered
 trademark of Gaussian, Inc.
  
 This software contains proprietary and confidential information,
 including trade secrets, belonging to Gaussian, Inc.
  
 This software is provided under written license and may be
 used, copied, transmitted, or stored only in accord with that
 written license.
  
 The following legend is applicable only to US Government
 contracts under FAR:
  
                    RESTRICTED RIGHTS LEGEND
  
 Use, reproduction and disclosure by the US Government is
 subject to restrictions as set forth in subparagraphs (a)
 and (c) of the Commercial Computer Software - Restricted
 Rights clause in FAR 52.227-19.
  
 Gaussian, Inc.
 340 Quinnipiac St., Bldg. 40, Wallingford CT 06492
  
  
 ---------------------------------------------------------------
 Warning -- This program may not be used in any manner that
 competes with the business of Gaussian, Inc. or will provide
 assistance to any competitor of Gaussian, Inc.  The licensee
 of this program is prohibited from giving any competitor of
 Gaussian, Inc. access to this program.  By using this program,
 the user acknowledges that Gaussian, Inc. is engaged in the
 business of creating and licensing software in the field of
 computational chemistry and represents and warrants to the
 licensee that it is not a competitor of Gaussian, Inc. and that
 it will not use this program in any manner prohibited above.
 ---------------------------------------------------------------
  

 Cite this work as:
 Gaussian 09, Revision A.02,
 M. J. Frisch, G. W. Trucks, H. B. Schlegel, G. E. Scuseria, 
 M. A. Robb, J. R. Cheeseman, G. Scalmani, V. Barone, B. Mennucci, 
 G. A. Petersson, H. Nakatsuji, M. Caricato, X. Li, H. P. Hratchian, 
 A. F. Izmaylov, J. Bloino, G. Zheng, J. L. Sonnenberg, M. Hada, 
 M. Ehara, K. Toyota, R. Fukuda, J. Hasegawa, M. Ishida, T. Nakajima, 
 Y. Honda, O. Kitao, H. Nakai, T. Vreven, J. A. Montgomery, Jr., 
 J. E. Peralta, F. Ogliaro, M. Bearpark, J. J. Heyd, E. Brothers, 
 K. N. Kudin, V. N. Staroverov, R. Kobayashi, J. Normand, 
 K. Raghavachari, A. Rendell, J. C. Burant, S. S. Iyengar, J. Tomasi, 
 M. Cossi, N. Rega, J. M. Millam, M. Klene, J. E. Knox, J. B. Cross, 
 V. Bakken, C. Adamo, J. Jaramillo, R. Gomperts, R. E. Stratmann, 
 O. Yazyev, A. J. Austin, R. Cammi, C. Pomelli, J. W. Ochterski, 
 R. L. Martin, K. Morokuma, V. G. Zakrzewski, G. A. Voth, 
 P. Salvador, J. J. Dannenberg, S. Dapprich, A. D. Daniels, 
 O. Farkas, J. B. Foresman, J. V. Ortiz, J. Cioslowski, 
 and D. J. Fox, Gaussian, Inc., Wallingford CT, 2009.
 
 ******************************************
 Gaussian 09:  IA32W-G09RevA.02 11-Jun-2009
                06-Sep-2021 
 ******************************************
 %nprocshared=12
 Will use up to   12 processors via shared memory.
 ----------------------------------------------
 # opt freq=noraman hf/6-311g geom=connectivity
 ----------------------------------------------
 1/18=20,19=15,38=1,57=2/1,3;
 2/9=110,12=2,17=6,18=5,40=1/2;
 3/5=4,6=6,11=9,16=1,25=1,30=1,71=1/1,2,3;
 4//1;
 5/5=2,38=5/2;
 6/7=2,8=2,9=2,10=2,28=1/1;
 7//1,2,3,16;
 1/18=20,19=15/3(2);
 2/9=110/2;
 99//99;
 2/9=110/2;
 3/5=4,6=6,11=9,16=1,25=1,30=1,71=1/1,2,3;
 4/5=5,16=3/1;
 5/5=2,38=5/2;
 7//1,2,3,16;
 1/18=20,19=15/3(-5);
 2/9=110/2;
 6/7=2,8=2,9=2,10=2,19=2,28=1/1;
 99/9=1/99;
 -----
 M0001
 -----
 Symbolic Z-matrix:
 Charge =  0 Multiplicity = 1
 C                    -0.05009  -0.02653   0.76686 
 H                    -0.06313  -0.03945   1.89066 
 C                    -0.2145    1.41143   0.3394 
 C                    -0.10013   1.80065  -0.9962 
 C                    -0.46693   2.38345   1.31041 
 C                    -0.22537   3.13726  -1.35511 
 H                     0.06963   1.02942  -1.76288 
 C                    -0.59562   3.7199    0.94956 
 H                    -0.56359   2.0942    2.36358 
 C                    -0.47152   4.09999  -0.38225 
 H                    -0.13045   3.43042  -2.40559 
 H                    -0.79385   4.4745    1.71767 
 H                    -0.56883   5.15322  -0.66412 
 C                     1.3049   -0.54517   0.34853 
 C                     2.39678  -0.30038   1.18758 
 C                     1.50794  -1.24744  -0.83899 
 C                     3.66498  -0.74964   0.84183 
 H                     2.25411   0.25312   2.12306 
 C                     2.77827  -1.69857  -1.18199 
 H                     0.65977  -1.45436  -1.50403 
 C                     3.85879  -1.45059  -0.34418 
 H                     4.51313  -0.55121   1.50508 
 H                     2.92438  -2.25141  -2.11566 
 H                     4.85804  -1.8057   -0.61528 
 C                    -1.18617  -0.9124    0.31965 
 C                    -1.71911  -0.86369  -0.96956 
 C                    -1.72103  -1.82098   1.23803 
 C                    -2.76701  -1.70207  -1.33289 
 H                    -1.30823  -0.14797  -1.69975 
 C                    -2.76644  -2.66056   0.8723 
 H                    -1.31446  -1.87505   2.25499 
 C                    -3.29268  -2.60262  -0.41374 
 H                    -3.17791  -1.65044  -2.34638 
 H                    -3.17623  -3.36863   1.59981 
 H                    -4.11745  -3.26269  -0.70043 
 

 GradGradGradGradGradGradGradGradGradGradGradGradGradGradGradGradGradGrad
 Berny optimization.
 Initialization pass.
                           ----------------------------
                           !    Initial Parameters    !
                           ! (Angstroms and Degrees)  !
 --------------------------                            --------------------------
 ! Name  Definition              Value          Derivative Info.                !
 --------------------------------------------------------------------------------
 ! R1    R(1,2)                  1.124          estimate D2E/DX2                !
 ! R2    R(1,3)                  1.5091         estimate D2E/DX2                !
 ! R3    R(1,14)                 1.51           estimate D2E/DX2                !
 ! R4    R(1,25)                 1.5085         estimate D2E/DX2                !
 ! R5    R(3,4)                  1.3959         estimate D2E/DX2                !
 ! R6    R(3,5)                  1.3969         estimate D2E/DX2                !
 ! R7    R(4,6)                  1.3896         estimate D2E/DX2                !
 ! R8    R(4,7)                  1.1006         estimate D2E/DX2                !
 ! R9    R(5,8)                  1.3903         estimate D2E/DX2                !
 ! R10   R(5,9)                  1.0964         estimate D2E/DX2                !
 ! R11   R(6,10)                 1.3907         estimate D2E/DX2                !
 ! R12   R(6,11)                 1.0947         estimate D2E/DX2                !
 ! R13   R(8,10)                 1.3905         estimate D2E/DX2                !
 ! R14   R(8,12)                 1.0949         estimate D2E/DX2                !
 ! R15   R(10,13)                1.0946         estimate D2E/DX2                !
 ! R16   R(14,15)                1.3986         estimate D2E/DX2                !
 ! R17   R(14,16)                1.3945         estimate D2E/DX2                !
 ! R18   R(15,17)                1.3891         estimate D2E/DX2                !
 ! R19   R(15,18)                1.0963         estimate D2E/DX2                !
 ! R20   R(16,19)                1.391          estimate D2E/DX2                !
 ! R21   R(16,20)                1.0975         estimate D2E/DX2                !
 ! R22   R(17,21)                1.3912         estimate D2E/DX2                !
 ! R23   R(17,22)                1.0948         estimate D2E/DX2                !
 ! R24   R(19,21)                1.3896         estimate D2E/DX2                !
 ! R25   R(19,23)                1.0949         estimate D2E/DX2                !
 ! R26   R(21,24)                1.0946         estimate D2E/DX2                !
 ! R27   R(25,26)                1.3959         estimate D2E/DX2                !
 ! R28   R(25,27)                1.3982         estimate D2E/DX2                !
 ! R29   R(26,28)                1.3903         estimate D2E/DX2                !
 ! R30   R(26,29)                1.1019         estimate D2E/DX2                !
 ! R31   R(27,30)                1.3898         estimate D2E/DX2                !
 ! R32   R(27,31)                1.0965         estimate D2E/DX2                !
 ! R33   R(28,32)                1.39           estimate D2E/DX2                !
 ! R34   R(28,33)                1.0948         estimate D2E/DX2                !
 ! R35   R(30,32)                1.3908         estimate D2E/DX2                !
 ! R36   R(30,34)                1.0948         estimate D2E/DX2                !
 ! R37   R(32,35)                1.0946         estimate D2E/DX2                !
 ! A1    A(2,1,3)              107.0314         estimate D2E/DX2                !
 ! A2    A(2,1,14)             106.4676         estimate D2E/DX2                !
 ! A3    A(2,1,25)             106.316          estimate D2E/DX2                !
 ! A4    A(3,1,14)             110.2779         estimate D2E/DX2                !
 ! A5    A(3,1,25)             113.1757         estimate D2E/DX2                !
 ! A6    A(14,1,25)            113.0785         estimate D2E/DX2                !
 ! A7    A(1,3,4)              121.8555         estimate D2E/DX2                !
 ! A8    A(1,3,5)              119.0659         estimate D2E/DX2                !
 ! A9    A(4,3,5)              119.0704         estimate D2E/DX2                !
 ! A10   A(3,4,6)              120.5272         estimate D2E/DX2                !
 ! A11   A(3,4,7)              118.9313         estimate D2E/DX2                !
 ! A12   A(6,4,7)              120.529          estimate D2E/DX2                !
 ! A13   A(3,5,8)              120.3448         estimate D2E/DX2                !
 ! A14   A(3,5,9)              120.0026         estimate D2E/DX2                !
 ! A15   A(8,5,9)              119.6526         estimate D2E/DX2                !
 ! A16   A(4,6,10)             120.0765         estimate D2E/DX2                !
 ! A17   A(4,6,11)             119.8412         estimate D2E/DX2                !
 ! A18   A(10,6,11)            120.0823         estimate D2E/DX2                !
 ! A19   A(5,8,10)             120.2042         estimate D2E/DX2                !
 ! A20   A(5,8,12)             119.8155         estimate D2E/DX2                !
 ! A21   A(10,8,12)            119.9802         estimate D2E/DX2                !
 ! A22   A(6,10,8)             119.7748         estimate D2E/DX2                !
 ! A23   A(6,10,13)            120.1126         estimate D2E/DX2                !
 ! A24   A(8,10,13)            120.1125         estimate D2E/DX2                !
 ! A25   A(1,14,15)            118.31           estimate D2E/DX2                !
 ! A26   A(1,14,16)            122.6541         estimate D2E/DX2                !
 ! A27   A(15,14,16)           119.0348         estimate D2E/DX2                !
 ! A28   A(14,15,17)           120.4509         estimate D2E/DX2                !
 ! A29   A(14,15,18)           119.913          estimate D2E/DX2                !
 ! A30   A(17,15,18)           119.6356         estimate D2E/DX2                !
 ! A31   A(14,16,19)           120.417          estimate D2E/DX2                !
 ! A32   A(14,16,20)           119.8973         estimate D2E/DX2                !
 ! A33   A(19,16,20)           119.6833         estimate D2E/DX2                !
 ! A34   A(15,17,21)           120.1529         estimate D2E/DX2                !
 ! A35   A(15,17,22)           119.8579         estimate D2E/DX2                !
 ! A36   A(21,17,22)           119.9891         estimate D2E/DX2                !
 ! A37   A(16,19,21)           120.2369         estimate D2E/DX2                !
 ! A38   A(16,19,23)           119.7307         estimate D2E/DX2                !
 ! A39   A(21,19,23)           120.0323         estimate D2E/DX2                !
 ! A40   A(17,21,19)           119.7073         estimate D2E/DX2                !
 ! A41   A(17,21,24)           120.1179         estimate D2E/DX2                !
 ! A42   A(19,21,24)           120.1748         estimate D2E/DX2                !
 ! A43   A(1,25,26)            122.7425         estimate D2E/DX2                !
 ! A44   A(1,25,27)            118.3588         estimate D2E/DX2                !
 ! A45   A(26,25,27)           118.8984         estimate D2E/DX2                !
 ! A46   A(25,26,28)           120.5362         estimate D2E/DX2                !
 ! A47   A(25,26,29)           119.4924         estimate D2E/DX2                !
 ! A48   A(28,26,29)           119.9697         estimate D2E/DX2                !
 ! A49   A(25,27,30)           120.4939         estimate D2E/DX2                !
 ! A50   A(25,27,31)           119.9573         estimate D2E/DX2                !
 ! A51   A(30,27,31)           119.5488         estimate D2E/DX2                !
 ! A52   A(26,28,32)           120.1926         estimate D2E/DX2                !
 ! A53   A(26,28,33)           119.7588         estimate D2E/DX2                !
 ! A54   A(32,28,33)           120.0486         estimate D2E/DX2                !
 ! A55   A(27,30,32)           120.185          estimate D2E/DX2                !
 ! A56   A(27,30,34)           119.8272         estimate D2E/DX2                !
 ! A57   A(32,30,34)           119.9877         estimate D2E/DX2                !
 ! A58   A(28,32,30)           119.6935         estimate D2E/DX2                !
 ! A59   A(28,32,35)           120.1627         estimate D2E/DX2                !
 ! A60   A(30,32,35)           120.1437         estimate D2E/DX2                !
 ! D1    D(2,1,3,4)            173.1181         estimate D2E/DX2                !
 ! D2    D(2,1,3,5)             -5.8329         estimate D2E/DX2                !
 ! D3    D(14,1,3,4)            57.6984         estimate D2E/DX2                !
 ! D4    D(14,1,3,5)          -121.2525         estimate D2E/DX2                !
 ! D5    D(25,1,3,4)           -70.09           estimate D2E/DX2                !
 ! D6    D(25,1,3,5)           110.9591         estimate D2E/DX2                !
 ! D7    D(2,1,14,15)          -31.065          estimate D2E/DX2                !
 ! D8    D(2,1,14,16)          149.3221         estimate D2E/DX2                !
 ! D9    D(3,1,14,15)           84.7089         estimate D2E/DX2                !
 ! D10   D(3,1,14,16)          -94.9041         estimate D2E/DX2                !
 ! D11   D(25,1,14,15)        -147.4493         estimate D2E/DX2                !
 ! D12   D(25,1,14,16)          32.9378         estimate D2E/DX2                !
 ! D13   D(2,1,25,26)          161.945          estimate D2E/DX2                !
 ! D14   D(2,1,25,27)          -18.2464         estimate D2E/DX2                !
 ! D15   D(3,1,25,26)           44.7326         estimate D2E/DX2                !
 ! D16   D(3,1,25,27)         -135.4588         estimate D2E/DX2                !
 ! D17   D(14,1,25,26)         -81.581          estimate D2E/DX2                !
 ! D18   D(14,1,25,27)          98.2276         estimate D2E/DX2                !
 ! D19   D(1,3,4,6)           -178.4706         estimate D2E/DX2                !
 ! D20   D(1,3,4,7)              2.8082         estimate D2E/DX2                !
 ! D21   D(5,3,4,6)              0.4803         estimate D2E/DX2                !
 ! D22   D(5,3,4,7)           -178.2409         estimate D2E/DX2                !
 ! D23   D(1,3,5,8)            178.6756         estimate D2E/DX2                !
 ! D24   D(1,3,5,9)             -1.2621         estimate D2E/DX2                !
 ! D25   D(4,3,5,8)             -0.3049         estimate D2E/DX2                !
 ! D26   D(4,3,5,9)            179.7574         estimate D2E/DX2                !
 ! D27   D(3,4,6,10)            -0.2375         estimate D2E/DX2                !
 ! D28   D(3,4,6,11)           179.8028         estimate D2E/DX2                !
 ! D29   D(7,4,6,10)           178.4632         estimate D2E/DX2                !
 ! D30   D(7,4,6,11)            -1.4965         estimate D2E/DX2                !
 ! D31   D(3,5,8,10)            -0.1132         estimate D2E/DX2                !
 ! D32   D(3,5,8,12)           179.9751         estimate D2E/DX2                !
 ! D33   D(9,5,8,10)           179.8248         estimate D2E/DX2                !
 ! D34   D(9,5,8,12)            -0.087          estimate D2E/DX2                !
 ! D35   D(4,6,10,8)            -0.1856         estimate D2E/DX2                !
 ! D36   D(4,6,10,13)          179.9103         estimate D2E/DX2                !
 ! D37   D(11,6,10,8)          179.7739         estimate D2E/DX2                !
 ! D38   D(11,6,10,13)          -0.1302         estimate D2E/DX2                !
 ! D39   D(5,8,10,6)             0.3602         estimate D2E/DX2                !
 ! D40   D(5,8,10,13)         -179.7357         estimate D2E/DX2                !
 ! D41   D(12,8,10,6)         -179.7282         estimate D2E/DX2                !
 ! D42   D(12,8,10,13)           0.1759         estimate D2E/DX2                !
 ! D43   D(1,14,15,17)        -179.5753         estimate D2E/DX2                !
 ! D44   D(1,14,15,18)           0.1763         estimate D2E/DX2                !
 ! D45   D(16,14,15,17)          0.0519         estimate D2E/DX2                !
 ! D46   D(16,14,15,18)        179.8036         estimate D2E/DX2                !
 ! D47   D(1,14,16,19)         179.6798         estimate D2E/DX2                !
 ! D48   D(1,14,16,20)          -0.8755         estimate D2E/DX2                !
 ! D49   D(15,14,16,19)          0.0696         estimate D2E/DX2                !
 ! D50   D(15,14,16,20)        179.5142         estimate D2E/DX2                !
 ! D51   D(14,15,17,21)         -0.1091         estimate D2E/DX2                !
 ! D52   D(14,15,17,22)        179.9017         estimate D2E/DX2                !
 ! D53   D(18,15,17,21)       -179.8615         estimate D2E/DX2                !
 ! D54   D(18,15,17,22)          0.1493         estimate D2E/DX2                !
 ! D55   D(14,16,19,21)         -0.1346         estimate D2E/DX2                !
 ! D56   D(14,16,19,23)        179.821          estimate D2E/DX2                !
 ! D57   D(20,16,19,21)       -179.5805         estimate D2E/DX2                !
 ! D58   D(20,16,19,23)          0.3752         estimate D2E/DX2                !
 ! D59   D(15,17,21,19)          0.0442         estimate D2E/DX2                !
 ! D60   D(15,17,21,24)       -179.903          estimate D2E/DX2                !
 ! D61   D(22,17,21,19)       -179.9666         estimate D2E/DX2                !
 ! D62   D(22,17,21,24)          0.0862         estimate D2E/DX2                !
 ! D63   D(16,19,21,17)          0.0771         estimate D2E/DX2                !
 ! D64   D(16,19,21,24)       -179.9757         estimate D2E/DX2                !
 ! D65   D(23,19,21,17)       -179.8784         estimate D2E/DX2                !
 ! D66   D(23,19,21,24)          0.0688         estimate D2E/DX2                !
 ! D67   D(1,25,26,28)         179.996          estimate D2E/DX2                !
 ! D68   D(1,25,26,29)          -0.4836         estimate D2E/DX2                !
 ! D69   D(27,25,26,28)          0.1884         estimate D2E/DX2                !
 ! D70   D(27,25,26,29)        179.7088         estimate D2E/DX2                !
 ! D71   D(1,25,27,30)        -179.8519         estimate D2E/DX2                !
 ! D72   D(1,25,27,31)           0.0825         estimate D2E/DX2                !
 ! D73   D(26,25,27,30)         -0.0358         estimate D2E/DX2                !
 ! D74   D(26,25,27,31)        179.8986         estimate D2E/DX2                !
 ! D75   D(25,26,28,32)         -0.2042         estimate D2E/DX2                !
 ! D76   D(25,26,28,33)        179.763          estimate D2E/DX2                !
 ! D77   D(29,26,28,32)       -179.7223         estimate D2E/DX2                !
 ! D78   D(29,26,28,33)          0.2449         estimate D2E/DX2                !
 ! D79   D(25,27,30,32)         -0.1018         estimate D2E/DX2                !
 ! D80   D(25,27,30,34)        179.933          estimate D2E/DX2                !
 ! D81   D(31,27,30,32)        179.9635         estimate D2E/DX2                !
 ! D82   D(31,27,30,34)         -0.0017         estimate D2E/DX2                !
 ! D83   D(26,28,32,30)          0.0645         estimate D2E/DX2                !
 ! D84   D(26,28,32,35)       -179.9779         estimate D2E/DX2                !
 ! D85   D(33,28,32,30)       -179.9026         estimate D2E/DX2                !
 ! D86   D(33,28,32,35)          0.055          estimate D2E/DX2                !
 ! D87   D(27,30,32,28)          0.0877         estimate D2E/DX2                !
 ! D88   D(27,30,32,35)       -179.8699         estimate D2E/DX2                !
 ! D89   D(34,30,32,28)       -179.9472         estimate D2E/DX2                !
 ! D90   D(34,30,32,35)          0.0952         estimate D2E/DX2                !
 --------------------------------------------------------------------------------
 Trust Radius=3.00D-01 FncErr=1.00D-07 GrdErr=1.00D-07
 Number of steps in this run= 197 maximum allowed number of steps= 210.
 GradGradGradGradGradGradGradGradGradGradGradGradGradGradGradGradGradGrad

                          Input orientation:                          
 ---------------------------------------------------------------------
 Center     Atomic      Atomic             Coordinates (Angstroms)
 Number     Number       Type             X           Y           Z
 ---------------------------------------------------------------------
      1          6           0       -0.050088   -0.026529    0.766856
      2          1           0       -0.063129   -0.039449    1.890660
      3          6           0       -0.214502    1.411429    0.339405
      4          6           0       -0.100125    1.800647   -0.996202
      5          6           0       -0.466934    2.383446    1.310410
      6          6           0       -0.225367    3.137256   -1.355109
      7          1           0        0.069628    1.029419   -1.762876
      8          6           0       -0.595624    3.719903    0.949565
      9          1           0       -0.563595    2.094196    2.363583
     10          6           0       -0.471524    4.099993   -0.382252
     11          1           0       -0.130448    3.430418   -2.405588
     12          1           0       -0.793853    4.474500    1.717672
     13          1           0       -0.568826    5.153216   -0.664123
     14          6           0        1.304896   -0.545169    0.348528
     15          6           0        2.396785   -0.300376    1.187579
     16          6           0        1.507941   -1.247441   -0.838985
     17          6           0        3.664978   -0.749641    0.841833
     18          1           0        2.254114    0.253121    2.123064
     19          6           0        2.778266   -1.698569   -1.181990
     20          1           0        0.659772   -1.454360   -1.504029
     21          6           0        3.858794   -1.450586   -0.344181
     22          1           0        4.513127   -0.551213    1.505079
     23          1           0        2.924384   -2.251407   -2.115664
     24          1           0        4.858037   -1.805699   -0.615280
     25          6           0       -1.186167   -0.912403    0.319654
     26          6           0       -1.719111   -0.863692   -0.969560
     27          6           0       -1.721030   -1.820977    1.238035
     28          6           0       -2.767009   -1.702070   -1.332888
     29          1           0       -1.308225   -0.147971   -1.699746
     30          6           0       -2.766444   -2.660562    0.872298
     31          1           0       -1.314458   -1.875048    2.254988
     32          6           0       -3.292680   -2.602617   -0.413745
     33          1           0       -3.177909   -1.650444   -2.346379
     34          1           0       -3.176225   -3.368626    1.599814
     35          1           0       -4.117449   -3.262695   -0.700425
 ---------------------------------------------------------------------
                    Distance matrix (angstroms):
                    1          2          3          4          5
     1  C    0.000000
     2  H    1.123954   0.000000
     3  C    1.509129   2.129403   0.000000
     4  C    2.539576   3.423637   1.395857   0.000000
     5  C    2.505432   2.523919   1.396921   2.407210   0.000000
     6  C    3.813528   4.544535   2.418672   1.389613   2.780571
     7  H    2.743885   3.808993   2.155515   1.100635   3.400936
     8  C    3.790349   3.911769   2.417975   2.777602   1.390284
     9  H    2.703830   2.241999   2.164563   3.404281   1.096441
    10  C    4.304212   4.740031   2.795572   2.408706   2.410738
    11  H    4.692690   5.522885   3.408572   2.154865   3.875308
    12  H    4.660097   4.575983   3.408471   3.872450   2.155284
    13  H    5.398755   5.809167   3.890191   3.401423   3.403057
    14  C    1.509956   2.122597   2.477282   3.047168   3.555472
    15  C    2.497836   2.571688   3.235505   3.926545   3.926687
    16  C    2.548884   3.373199   3.380089   3.449845   4.658688
    17  C    3.785529   3.937410   4.469119   4.904930   5.206582
    18  H    2.688280   2.347173   3.258402   4.203224   3.550041
    19  C    3.820118   4.501931   4.576395   4.534772   5.779811
    20  H    2.774802   3.748130   3.517862   3.380888   4.890735
    21  C    4.306007   4.729408   5.024954   5.164174   6.012436
    22  H    4.652225   4.620898   5.249880   5.750630   5.783695
    23  H    4.701753   5.465219   5.412609   5.178802   6.687367
    24  H    5.400503   5.798039   6.082104   6.142817   7.043616
    25  C    1.508456   2.119275   2.518872   3.204933   3.515894
    26  C    2.549828   3.406247   3.025461   3.117775   4.160542
    27  C    2.496818   2.519603   3.677718   4.553603   4.388071
    28  C    3.820736   4.523996   4.359556   4.415274   5.382267
    29  H    2.771604   3.801718   2.790358   2.398248   4.022049
    30  C    3.785213   3.900668   4.835028   5.522946   5.560729
    31  H    2.688901   2.251218   3.959835   5.055251   4.443567
    32  C    4.306327   4.723358   5.114194   5.469953   5.984845
    33  H    4.702403   5.499969   5.036892   4.817235   6.082249
    34  H    4.651470   4.567207   5.762757   6.551570   6.364774
    35  H    5.400843   5.791420   6.177514   6.470224   7.017736
                    6          7          8          9         10
     6  C    0.000000
     7  H    2.167088   0.000000
     8  C    2.405845   3.877963   0.000000
     9  H    3.876989   4.308408   2.154854   0.000000
    10  C    1.390650   3.409896   1.390541   3.401662   0.000000
    11  H    1.094742   2.493572   3.399594   4.971730   2.158368
    12  H    3.399027   4.972766   1.094852   2.477109   2.157274
    13  H    2.158593   4.315157   2.158494   4.304026   1.094623
    14  C    4.336397   2.909165   4.707872   3.810243   5.026652
    15  C    5.015801   3.986126   5.017350   3.985073   5.482227
    16  C    4.743028   2.847177   5.683169   5.070921   5.720309
    17  C    5.921935   4.782898   6.175853   5.318267   6.490607
    18  H    5.154004   4.524947   4.638608   3.374446   5.338926
    19  C    5.695348   3.887939   6.729524   6.174479   6.695076
    20  H    4.678524   2.566015   5.862520   5.389555   5.778326
    21  C    6.225002   4.745620   6.946191   6.281320   7.040031
    22  H    6.651226   5.737823   6.682093   5.788637   7.074071
    23  H    6.287850   4.363246   7.579091   7.149399   7.407914
    24  H    7.128896   5.681878   7.919813   7.312790   7.958375
    25  C    4.486391   3.112012   4.712089   3.688479   5.111506
    26  C    4.288065   2.722647   5.094566   4.603712   5.151657
    27  C    5.791846   4.509621   5.661369   4.234985   6.264541
    28  C    5.466215   3.961367   6.270749   5.738516   6.311647
    29  H    3.476215   1.813481   4.742056   4.700259   4.525600
    30  C    6.710671   5.348215   6.740086   5.448321   7.248838
    31  H    6.272329   5.147315   5.790019   4.041099   6.585338
    32  C    6.575767   5.130005   7.007637   6.100943   7.272200
    33  H    5.711583   4.250722   6.809704   6.560541   6.652055
    34  H    7.730824   6.417636   7.571630   6.103409   8.186835
    35  H    7.519061   6.089553   7.992646   7.121397   8.222115
                   11         12         13         14         15
    11  H    0.000000
    12  H    4.304822   0.000000
    13  H    2.488556   2.486814   0.000000
    14  C    5.044864   5.610382   6.083411   0.000000
    15  C    5.763383   5.767201   6.478064   1.398625   0.000000
    16  C    5.198166   6.676479   6.731416   1.394490   2.407060
    17  C    6.513363   6.923866   7.418674   2.419741   1.389135
    18  H    6.024122   5.222498   6.304628   2.165008   1.096287
    19  C    6.021986   7.699017   7.643178   2.417362   2.777649
    20  H    5.029743   6.902447   6.773106   2.162125   3.404945
    21  C    6.632319   7.810571   7.957160   2.796788   2.409719
    22  H    7.260131   7.312116   7.941801   3.410336   2.154676
    23  H    6.457491   8.588223   8.314922   3.406792   3.872505
    24  H    7.450310   8.765126   8.824950   3.891359   3.402068
    25  C    5.234651   5.579166   6.175813   2.518152   3.737033
    26  C    4.798479   6.047612   6.133484   3.314126   4.680937
    27  C    6.586584   6.381438   7.320188   3.402226   4.389894
    28  C    5.868949   7.165841   7.230090   4.554776   5.914580
    29  H    3.832785   5.771531   5.451772   3.343889   4.699678
    30  C    7.402233   7.450831   8.261068   4.617904   5.685843
    31  H    7.160364   6.393473   7.646808   3.502026   4.170405
    32  C    7.096806   7.802093   8.224051   5.094296   6.343071
    33  H    5.925004   7.727560   7.478442   5.345998   6.737117
    34  H    8.458546   8.197818   9.194876   5.442249   6.375150
    35  H    7.975055   8.761146   9.133543   6.155248   7.401022
                   16         17         18         19         20
    16  C    0.000000
    17  C    2.779526   0.000000
    18  H    3.403263   2.153515   0.000000
    19  C    1.391004   2.404700   3.873915   0.000000
    20  H    1.097493   3.876979   4.314305   2.156702   0.000000
    21  C    2.410935   1.391228   3.400723   1.389591   3.402794
    22  H    3.874340   1.094817   2.476288   3.398015   4.971796
    23  H    2.155033   3.398612   4.968776   1.094863   2.477469
    24  H    3.403651   2.159126   4.303218   2.158260   4.305665
    25  C    2.951765   4.881882   4.055400   4.311580   2.650854
    26  C    3.252412   5.681776   5.157336   4.579143   2.508711
    27  C    3.881908   5.505800   4.570222   5.110300   3.649869
    28  C    4.327334   6.856164   6.401410   5.547328   3.439981
    29  H    3.143332   5.617329   5.240707   4.401345   2.370226
    30  C    4.816199   6.709378   5.938010   5.990772   4.340600
    31  H    4.234678   5.297012   4.157068   5.347369   4.266705
    32  C    5.006325   7.308830   6.734802   6.185781   4.257826
    33  H    4.938810   7.602713   7.287410   6.069113   3.933929
    34  H    5.691097   7.364488   6.548238   6.781113   5.292743
    35  H    5.977078   8.322270   7.805758   7.087261   5.170850
                   21         22         23         24         25
    21  C    0.000000
    22  H    2.157958   0.000000
    23  H    2.156986   4.304014   0.000000
    24  H    1.094571   2.487694   2.487734   0.000000
    25  C    5.116830   5.832465   4.961888   6.180977   0.000000
    26  C    5.643454   6.712844   4.980096   6.653704   1.395878
    27  C    5.811630   6.367757   5.745645   6.835140   1.398217
    28  C    6.703883   7.898031   5.771175   7.659440   2.419406
    29  H    5.498405   6.657451   4.744725   6.476644   2.162690
    30  C    6.843804   7.605388   6.440563   7.815139   2.420486
    31  H    5.805031   6.022927   6.100166   6.807566   2.165332
    32  C    7.244004   8.295828   6.455367   8.192062   2.798588
    33  H    7.318739   8.671451   6.136153   8.221754   3.408734
    34  H    7.546489   8.189806   7.229826   8.479313   3.410598
    35  H    8.187252   9.311456   7.253483   9.093373   3.893180
                   26         27         28         29         30
    26  C    0.000000
    27  C    2.406216   0.000000
    28  C    1.390314   2.778102   0.000000
    29  H    1.101932   3.405864   2.162835   0.000000
    30  C    2.778146   1.389804   2.404486   3.880068   0.000000
    31  H    3.403571   1.096549   3.874620   4.315409   2.153399
    32  C    2.410168   2.410273   1.390014   3.408393   1.390751
    33  H    2.154692   3.872931   1.094837   2.484205   3.398459
    34  H    3.872927   2.154923   3.397883   4.974851   1.094785
    35  H    3.402892   3.402793   2.158529   4.311830   2.158990
                   31         32         33         34         35
    31  H    0.000000
    32  C    3.400713   0.000000
    33  H    4.969454   2.157517   0.000000
    34  H    2.475118   2.157487   4.304020   0.000000
    35  H    4.303114   1.094592   2.488223   2.487614   0.000000
 Stoichiometry    C19H16
 Framework group  C1[X(C19H16)]
 Deg. of freedom    99
 Full point group                 C1      NOp   1
 Largest Abelian subgroup         C1      NOp   1
 Largest concise Abelian subgroup C1      NOp   1
                         Standard orientation:                         
 ---------------------------------------------------------------------
 Center     Atomic      Atomic             Coordinates (Angstroms)
 Number     Number       Type             X           Y           Z
 ---------------------------------------------------------------------
      1          6           0       -0.023291   -0.013356   -0.754493
      2          1           0       -0.000550   -0.007239   -1.878200
      3          6           0        0.914283   -1.104807   -0.299346
      4          6           0        1.230245   -1.290342    1.047562
      5          6           0        1.499151   -1.939221   -1.254895
      6          6           0        2.121676   -2.284212    1.433045
      7          1           0        0.745813   -0.650866    1.801082
      8          6           0        2.388083   -2.935552   -0.867580
      9          1           0        1.258721   -1.809587   -2.316766
     10          6           0        2.703964   -3.107729    0.475617
     11          1           0        2.363928   -2.417749    2.492262
     12          1           0        2.841132   -3.584908   -1.623744
     13          1           0        3.407363   -3.889848    0.778471
     14          6           0        0.488244    1.335548   -0.308671
     15          6           0        1.433655    1.984232   -1.109645
     16          6           0        0.061813    1.950635    0.867944
     17          6           0        1.940842    3.222708   -0.737310
     18          1           0        1.781395    1.512293   -2.036034
     19          6           0        0.569154    3.191958    1.237559
     20          1           0       -0.685462    1.457935    1.503018
     21          6           0        1.509246    3.830083    0.437567
     22          1           0        2.681755    3.721092   -1.370782
     23          1           0        0.224284    3.666017    2.162253
     24          1           0        1.908087    4.806676    0.729591
     25          6           0       -1.458291   -0.261121   -0.361011
     26          6           0       -1.827468   -0.696398    0.912848
     27          6           0       -2.456209   -0.040099   -1.315118
     28          6           0       -3.165017   -0.910320    1.226173
     29          1           0       -1.048634   -0.878280    1.670866
     30          6           0       -3.793070   -0.251387   -0.999340
     31          1           0       -2.185858    0.303548   -2.320720
     32          6           0       -4.150793   -0.687888    0.271757
     33          1           0       -3.439958   -1.255504    2.228133
     34          1           0       -4.565596   -0.073852   -1.754483
     35          1           0       -5.203724   -0.856120    0.519076
 ---------------------------------------------------------------------
 Rotational constants (GHZ):      0.4004867      0.3718487      0.2368693
 Standard basis: 6-311G (5D, 7F)
 There are   295 symmetry adapted basis functions of A   symmetry.
 Integral buffers will be    262144 words long.
 Raffenetti 1 integral format.
 Two-electron integral symmetry is turned on.
   295 basis functions,   574 primitive gaussians,   295 cartesian basis functions
    65 alpha electrons       65 beta electrons
       nuclear repulsion energy      1288.4241930295 Hartrees.
 NAtoms=   35 NActive=   35 NUniq=   35 SFac= 7.50D-01 NAtFMM=   80 NAOKFM=F Big=F
 One-electron integrals computed using PRISM.
 PrsmSu:  requested number of processors reduced to:  10 ShMem   1 Linda.
 NBasis=   295 RedAO= T  NBF=   295
 NBsUse=   295 1.00D-06 NBFU=   295
 Harris functional with IExCor=  205 diagonalized for initial guess.
 ExpMin= 1.03D-01 ExpMax= 4.56D+03 ExpMxC= 6.82D+02 IAcc=1 IRadAn=         1 AccDes= 0.00D+00
 HarFok:  IExCor=  205 AccDes= 0.00D+00 IRadAn=         1 IDoV= 1
 ScaDFX=  1.000000  1.000000  1.000000  1.000000
 FoFCou: FMM=F IPFlag=           0 FMFlag=      100000 FMFlg1=           0
         NFxFlg=           0 DoJE=T BraDBF=F KetDBF=T FulRan=T
         Omega=  0.000000  0.000000  1.000000  0.000000  0.000000 ICntrl=     500 IOpCl=  0
         NMat0=    1 NMatS0=    1 NMatT0=    0 NMatD0=    1 NMtDS0=    0 NMtDT0=    0
         I1Cent=           4 NGrid=           0.
 Petite list used in FoFCou.
 Initial guess orbital symmetries:
       Occupied  (A) (A) (A) (A) (A) (A) (A) (A) (A) (A) (A) (A)
                 (A) (A) (A) (A) (A) (A) (A) (A) (A) (A) (A) (A)
                 (A) (A) (A) (A) (A) (A) (A) (A) (A) (A) (A) (A)
                 (A) (A) (A) (A) (A) (A) (A) (A) (A) (A) (A) (A)
                 (A) (A) (A) (A) (A) (A) (A) (A) (A) (A) (A) (A)
                 (A) (A) (A) (A) (A)
       Virtual   (A) (A) (A) (A) (A) (A) (A) (A) (A) (A) (A) (A)
                 (A) (A) (A) (A) (A) (A) (A) (A) (A) (A) (A) (A)
                 (A) (A) (A) (A) (A) (A) (A) (A) (A) (A) (A) (A)
                 (A) (A) (A) (A) (A) (A) (A) (A) (A) (A) (A) (A)
                 (A) (A) (A) (A) (A) (A) (A) (A) (A) (A) (A) (A)
                 (A) (A) (A) (A) (A) (A) (A) (A) (A) (A) (A) (A)
                 (A) (A) (A) (A) (A) (A) (A) (A) (A) (A) (A) (A)
                 (A) (A) (A) (A) (A) (A) (A) (A) (A) (A) (A) (A)
                 (A) (A) (A) (A) (A) (A) (A) (A) (A) (A) (A) (A)
                 (A) (A) (A) (A) (A) (A) (A) (A) (A) (A) (A) (A)
                 (A) (A) (A) (A) (A) (A) (A) (A) (A) (A) (A) (A)
                 (A) (A) (A) (A) (A) (A) (A) (A) (A) (A) (A) (A)
                 (A) (A) (A) (A) (A) (A) (A) (A) (A) (A) (A) (A)
                 (A) (A) (A) (A) (A) (A) (A) (A) (A) (A) (A) (A)
                 (A) (A) (A) (A) (A) (A) (A) (A) (A) (A) (A) (A)
                 (A) (A) (A) (A) (A) (A) (A) (A) (A) (A) (A) (A)
                 (A) (A) (A) (A) (A) (A) (A) (A) (A) (A) (A) (A)
                 (A) (A) (A) (A) (A) (A) (A) (A) (A) (A) (A) (A)
                 (A) (A) (A) (A) (A) (A) (A) (A) (A) (A) (A) (A)
                 (A) (A)
 The electronic state of the initial guess is 1-A.
 Requested convergence on RMS density matrix=1.00D-08 within 128 cycles.
 Requested convergence on MAX density matrix=1.00D-06.
 Requested convergence on             energy=1.00D-06.
 No special actions if energy rises.
 Integral accuracy reduced to 1.0D-05 until final iterations.
 Initial convergence to 1.0D-05 achieved.  Increase integral accuracy.
 SCF Done:  E(RHF) =  -728.671736058     A.U. after   14 cycles
             Convg  =    0.6150D-08             -V/T =  2.0001

 **********************************************************************

            Population analysis using the SCF density.

 **********************************************************************

 Orbital symmetries:
       Occupied  (A) (A) (A) (A) (A) (A) (A) (A) (A) (A) (A) (A)
                 (A) (A) (A) (A) (A) (A) (A) (A) (A) (A) (A) (A)
                 (A) (A) (A) (A) (A) (A) (A) (A) (A) (A) (A) (A)
                 (A) (A) (A) (A) (A) (A) (A) (A) (A) (A) (A) (A)
                 (A) (A) (A) (A) (A) (A) (A) (A) (A) (A) (A) (A)
                 (A) (A) (A) (A) (A)
       Virtual   (A) (A) (A) (A) (A) (A) (A) (A) (A) (A) (A) (A)
                 (A) (A) (A) (A) (A) (A) (A) (A) (A) (A) (A) (A)
                 (A) (A) (A) (A) (A) (A) (A) (A) (A) (A) (A) (A)
                 (A) (A) (A) (A) (A) (A) (A) (A) (A) (A) (A) (A)
                 (A) (A) (A) (A) (A) (A) (A) (A) (A) (A) (A) (A)
                 (A) (A) (A) (A) (A) (A) (A) (A) (A) (A) (A) (A)
                 (A) (A) (A) (A) (A) (A) (A) (A) (A) (A) (A) (A)
                 (A) (A) (A) (A) (A) (A) (A) (A) (A) (A) (A) (A)
                 (A) (A) (A) (A) (A) (A) (A) (A) (A) (A) (A) (A)
                 (A) (A) (A) (A) (A) (A) (A) (A) (A) (A) (A) (A)
                 (A) (A) (A) (A) (A) (A) (A) (A) (A) (A) (A) (A)
                 (A) (A) (A) (A) (A) (A) (A) (A) (A) (A) (A) (A)
                 (A) (A) (A) (A) (A) (A) (A) (A) (A) (A) (A) (A)
                 (A) (A) (A) (A) (A) (A) (A) (A) (A) (A) (A) (A)
                 (A) (A) (A) (A) (A) (A) (A) (A) (A) (A) (A) (A)
                 (A) (A) (A) (A) (A) (A) (A) (A) (A) (A) (A) (A)
                 (A) (A) (A) (A) (A) (A) (A) (A) (A) (A) (A) (A)
                 (A) (A) (A) (A) (A) (A) (A) (A) (A) (A) (A) (A)
                 (A) (A) (A) (A) (A) (A) (A) (A) (A) (A) (A) (A)
                 (A) (A)
 The electronic state is 1-A.
 Alpha  occ. eigenvalues --  -11.25830 -11.25272 -11.25260 -11.25128 -11.24447
 Alpha  occ. eigenvalues --  -11.24434 -11.24358 -11.24349 -11.24207 -11.24186
 Alpha  occ. eigenvalues --  -11.24126 -11.24119 -11.24110 -11.24055 -11.24028
 Alpha  occ. eigenvalues --  -11.24018 -11.23910 -11.23831 -11.23732  -1.18592
 Alpha  occ. eigenvalues --   -1.15828  -1.15680  -1.09038  -1.02410  -1.02118
 Alpha  occ. eigenvalues --   -1.01889  -1.01495  -1.01386  -0.92963  -0.84535
 Alpha  occ. eigenvalues --   -0.82948  -0.82541  -0.81707  -0.81559  -0.77732
 Alpha  occ. eigenvalues --   -0.70734  -0.70448  -0.69106  -0.65995  -0.63622
 Alpha  occ. eigenvalues --   -0.63504  -0.62369  -0.62029  -0.61899  -0.59569
 Alpha  occ. eigenvalues --   -0.58773  -0.58519  -0.58430  -0.57609  -0.53927
 Alpha  occ. eigenvalues --   -0.51740  -0.51080  -0.50846  -0.49676  -0.49171
 Alpha  occ. eigenvalues --   -0.48679  -0.47790  -0.47475  -0.46757  -0.34696
 Alpha  occ. eigenvalues --   -0.34243  -0.33701  -0.33583  -0.33277  -0.31181
 Alpha virt. eigenvalues --    0.11649   0.12017   0.13578   0.13747   0.14061
 Alpha virt. eigenvalues --    0.14929   0.15136   0.16273   0.16376   0.16884
 Alpha virt. eigenvalues --    0.18811   0.19131   0.19285   0.21283   0.21420
 Alpha virt. eigenvalues --    0.21512   0.23633   0.24247   0.24988   0.27128
 Alpha virt. eigenvalues --    0.28518   0.29482   0.34028   0.34196   0.35869
 Alpha virt. eigenvalues --    0.37473   0.38504   0.39687   0.40968   0.43678
 Alpha virt. eigenvalues --    0.44101   0.44377   0.45023   0.45392   0.45577
 Alpha virt. eigenvalues --    0.45869   0.46410   0.48402   0.49876   0.50375
 Alpha virt. eigenvalues --    0.50805   0.51025   0.51448   0.54966   0.55780
 Alpha virt. eigenvalues --    0.56810   0.57907   0.58953   0.59042   0.59613
 Alpha virt. eigenvalues --    0.59693   0.60666   0.61076   0.61501   0.61703
 Alpha virt. eigenvalues --    0.61852   0.62385   0.62466   0.63294   0.63467
 Alpha virt. eigenvalues --    0.64148   0.64997   0.65166   0.65414   0.66900
 Alpha virt. eigenvalues --    0.67406   0.68235   0.68439   0.70110   0.71423
 Alpha virt. eigenvalues --    0.72350   0.73795   0.74462   0.75064   0.76229
 Alpha virt. eigenvalues --    0.77299   0.78318   0.78593   0.80471   0.81181
 Alpha virt. eigenvalues --    0.81855   0.82199   0.82342   0.82829   0.82921
 Alpha virt. eigenvalues --    0.83509   0.83937   0.84058   0.84783   0.85602
 Alpha virt. eigenvalues --    0.86034   0.86384   0.86892   0.87453   0.88073
 Alpha virt. eigenvalues --    0.89697   0.90537   0.91278   0.92974   0.94386
 Alpha virt. eigenvalues --    0.96101   0.96849   0.97686   0.98167   0.98957
 Alpha virt. eigenvalues --    0.99329   1.00315   1.02797   1.05755   1.06221
 Alpha virt. eigenvalues --    1.06794   1.07137   1.08028   1.08371   1.10536
 Alpha virt. eigenvalues --    1.11108   1.12217   1.12488   1.13014   1.14253
 Alpha virt. eigenvalues --    1.14634   1.15404   1.18575   1.19459   1.21716
 Alpha virt. eigenvalues --    1.25306   1.26760   1.27715   1.28186   1.28804
 Alpha virt. eigenvalues --    1.30329   1.35091   1.39445   1.45260   1.46635
 Alpha virt. eigenvalues --    1.51699   1.52291   1.56527   2.54612   2.55624
 Alpha virt. eigenvalues --    2.56180   2.59168   2.61975   2.62497   2.64450
 Alpha virt. eigenvalues --    2.66977   2.67736   2.68472   2.72304   2.76755
 Alpha virt. eigenvalues --    2.77755   2.83504   2.87940   2.88585   2.94132
 Alpha virt. eigenvalues --    2.94280   2.94430   2.97084   2.97457   2.98031
 Alpha virt. eigenvalues --    3.00384   3.00787   3.04044   3.05739   3.07146
 Alpha virt. eigenvalues --    3.08139   3.08431   3.08958   3.09977   3.14331
 Alpha virt. eigenvalues --    3.14799   3.16343   3.16826   3.17562   3.18857
 Alpha virt. eigenvalues --    3.22636   3.25643   3.25820   3.28290   3.28867
 Alpha virt. eigenvalues --    3.30929   3.33377   3.34270   3.35169   3.42629
 Alpha virt. eigenvalues --    3.43066   3.44404   3.46906   3.49510   3.52259
 Alpha virt. eigenvalues --    3.53423   3.54471   3.59183   3.60645   3.60675
 Alpha virt. eigenvalues --    3.63107   3.63534   3.63784   3.65961   3.66671
 Alpha virt. eigenvalues --    3.68338   3.70267   3.70485   3.71424   3.73461
 Alpha virt. eigenvalues --    3.74199   3.75546   3.80863   3.85853   3.86670
 Alpha virt. eigenvalues --    3.92993  24.24851  24.30695  24.31564  24.50533
 Alpha virt. eigenvalues --   24.50839  24.51124  24.54002  24.54662  24.56122
 Alpha virt. eigenvalues --   24.77296  24.78587  24.79151  24.79611  24.80645
 Alpha virt. eigenvalues --   24.81843  24.83263  25.05549  25.05817  25.06131
          Condensed to atoms (all electrons):
              1          2          3          4          5          6
     1  C    5.831445   0.464084   0.185096  -0.054415  -0.026081   0.001391
     2  H    0.464084   0.512424  -0.074373   0.005556   0.002049  -0.000282
     3  C    0.185096  -0.074373   5.374406   0.439013   0.503595  -0.061710
     4  C   -0.054415   0.005556   0.439013   5.095251  -0.065523   0.479358
     5  C   -0.026081   0.002049   0.503595  -0.065523   5.070493  -0.033383
     6  C    0.001391  -0.000282  -0.061710   0.479358  -0.033383   5.035666
     7  H    0.003097   0.000067  -0.048379   0.388567   0.004046  -0.027235
     8  C    0.007669   0.001758  -0.072743  -0.029603   0.459559  -0.076840
     9  H   -0.000477   0.002407  -0.046695   0.004628   0.395810  -0.000239
    10  C    0.001274  -0.000013  -0.017865  -0.092085  -0.086327   0.494318
    11  H   -0.000319   0.000012   0.006070  -0.039069  -0.000449   0.396687
    12  H   -0.000368  -0.000037   0.007061  -0.000619  -0.039716   0.006224
    13  H   -0.000013  -0.000001  -0.001593   0.008015   0.007535  -0.042923
    14  C    0.156925  -0.059800  -0.154238  -0.007752  -0.005743   0.000721
    15  C   -0.050533  -0.003351   0.000709   0.000770   0.002059  -0.000069
    16  C   -0.039819   0.004898  -0.014035   0.000004  -0.000323  -0.000029
    17  C    0.006239   0.001542  -0.000427   0.000194  -0.000036   0.000002
    18  H    0.001801   0.001036   0.000569  -0.000051   0.001462  -0.000018
    19  C    0.004891  -0.000247   0.000614  -0.000648   0.000027  -0.000016
    20  H   -0.001739  -0.000070  -0.001000   0.000490  -0.000081   0.000059
    21  C    0.000988   0.000009   0.000076   0.000029  -0.000003   0.000003
    22  H   -0.000351  -0.000026   0.000012   0.000003  -0.000001   0.000000
    23  H   -0.000326   0.000013   0.000005   0.000014   0.000000   0.000000
    24  H   -0.000012  -0.000002  -0.000001  -0.000001   0.000000   0.000000
    25  C    0.170321  -0.073939  -0.112104  -0.006274  -0.000335   0.001777
    26  C   -0.045930   0.005101  -0.004619  -0.017223   0.001481  -0.001727
    27  C   -0.045260   0.002874   0.001934   0.000227   0.000196   0.000027
    28  C    0.003561  -0.000275   0.001543  -0.000016   0.000042  -0.000089
    29  H   -0.000303  -0.000141  -0.003006   0.002875  -0.000256   0.001160
    30  C    0.008272   0.001515  -0.000680   0.000029  -0.000004  -0.000001
    31  H   -0.000735   0.002692   0.000359  -0.000025  -0.000021   0.000002
    32  C    0.001144  -0.000016   0.000021  -0.000005  -0.000011   0.000001
    33  H   -0.000295   0.000014   0.000011   0.000031   0.000002   0.000000
    34  H   -0.000390  -0.000029   0.000014   0.000000   0.000001   0.000000
    35  H   -0.000019  -0.000001  -0.000002   0.000001   0.000000   0.000000
              7          8          9         10         11         12
     1  C    0.003097   0.007669  -0.000477   0.001274  -0.000319  -0.000368
     2  H    0.000067   0.001758   0.002407  -0.000013   0.000012  -0.000037
     3  C   -0.048379  -0.072743  -0.046695  -0.017865   0.006070   0.007061
     4  C    0.388567  -0.029603   0.004628  -0.092085  -0.039069  -0.000619
     5  C    0.004046   0.459559   0.395810  -0.086327  -0.000449  -0.039716
     6  C   -0.027235  -0.076840  -0.000239   0.494318   0.396687   0.006224
     7  H    0.495083  -0.000168  -0.000260   0.004554  -0.003429   0.000021
     8  C   -0.000168   5.055116  -0.035062   0.496984   0.005999   0.396793
     9  H   -0.000260  -0.035062   0.510856   0.005164   0.000024  -0.004177
    10  C    0.004554   0.496984   0.005164   5.031064  -0.039550  -0.040777
    11  H   -0.003429   0.005999   0.000024  -0.039550   0.515350  -0.000211
    12  H    0.000021   0.396793  -0.004177  -0.040777  -0.000211   0.518291
    13  H   -0.000169  -0.042749  -0.000186   0.399630  -0.004455  -0.004583
    14  C   -0.001845  -0.000460   0.000149   0.000098   0.000018   0.000011
    15  C   -0.000269  -0.000101   0.000255  -0.000013   0.000006   0.000003
    16  C    0.004686   0.000048  -0.000048  -0.000004  -0.000002   0.000000
    17  C   -0.000099   0.000007  -0.000006   0.000000   0.000001   0.000000
    18  H   -0.000038   0.000031   0.000259  -0.000012   0.000000  -0.000003
    19  C    0.000441  -0.000001   0.000000   0.000000  -0.000001   0.000000
    20  H    0.000988   0.000002   0.000000   0.000002  -0.000008   0.000000
    21  C   -0.000012   0.000000   0.000000   0.000000   0.000000   0.000000
    22  H    0.000001   0.000000  -0.000001   0.000000   0.000000   0.000000
    23  H    0.000000   0.000000   0.000000   0.000000   0.000000   0.000000
    24  H   -0.000001   0.000000   0.000000   0.000000   0.000000   0.000000
    25  C   -0.003181  -0.000601   0.000559  -0.000035   0.000009   0.000020
    26  C    0.000288   0.000125   0.000002   0.000044   0.000016  -0.000001
    27  C   -0.000196  -0.000009   0.000135  -0.000001   0.000000   0.000000
    28  C    0.000861   0.000000   0.000003   0.000003   0.000001   0.000000
    29  H    0.003447  -0.000139  -0.000004   0.000079  -0.000105   0.000000
    30  C    0.000016   0.000001   0.000003   0.000000   0.000000   0.000000
    31  H   -0.000007   0.000001  -0.000025   0.000000   0.000000   0.000000
    32  C   -0.000011   0.000000  -0.000001   0.000000   0.000000   0.000000
    33  H   -0.000053   0.000000   0.000000  -0.000001   0.000001   0.000000
    34  H    0.000000   0.000000   0.000000   0.000000   0.000000   0.000000
    35  H    0.000000   0.000000   0.000000   0.000000   0.000000   0.000000
             13         14         15         16         17         18
     1  C   -0.000013   0.156925  -0.050533  -0.039819   0.006239   0.001801
     2  H   -0.000001  -0.059800  -0.003351   0.004898   0.001542   0.001036
     3  C   -0.001593  -0.154238   0.000709  -0.014035  -0.000427   0.000569
     4  C    0.008015  -0.007752   0.000770   0.000004   0.000194  -0.000051
     5  C    0.007535  -0.005743   0.002059  -0.000323  -0.000036   0.001462
     6  C   -0.042923   0.000721  -0.000069  -0.000029   0.000002  -0.000018
     7  H   -0.000169  -0.001845  -0.000269   0.004686  -0.000099  -0.000038
     8  C   -0.042749  -0.000460  -0.000101   0.000048   0.000007   0.000031
     9  H   -0.000186   0.000149   0.000255  -0.000048  -0.000006   0.000259
    10  C    0.399630   0.000098  -0.000013  -0.000004   0.000000  -0.000012
    11  H   -0.004455   0.000018   0.000006  -0.000002   0.000001   0.000000
    12  H   -0.004583   0.000011   0.000003   0.000000   0.000000  -0.000003
    13  H    0.517483  -0.000002   0.000000   0.000000   0.000000   0.000000
    14  C   -0.000002   5.366182   0.472742   0.486562  -0.065179  -0.050662
    15  C    0.000000   0.472742   5.071936  -0.072104   0.466392   0.399608
    16  C    0.000000   0.486562  -0.072104   5.087725  -0.027878   0.004139
    17  C    0.000000  -0.065179   0.466392  -0.027878   5.050155  -0.035583
    18  H    0.000000  -0.050662   0.399608   0.004139  -0.035583   0.509831
    19  C    0.000000  -0.064629  -0.031581   0.471303  -0.076891  -0.000337
    20  H    0.000000  -0.042527   0.004193   0.390234  -0.000182  -0.000248
    21  C    0.000000  -0.018538  -0.086065  -0.093494   0.488784   0.005341
    22  H    0.000000   0.006703  -0.039652  -0.000523   0.397104  -0.004289
    23  H    0.000000   0.006181  -0.000423  -0.037563   0.005998   0.000024
    24  H    0.000000  -0.001479   0.007371   0.007825  -0.042955  -0.000185
    25  C   -0.000001  -0.103380   0.006489  -0.014496  -0.000761   0.000699
    26  C    0.000001  -0.005678  -0.000172  -0.007444   0.000024  -0.000038
    27  C    0.000000  -0.001509   0.000438   0.001904  -0.000016   0.000013
    28  C    0.000000   0.000884   0.000023  -0.001487   0.000000   0.000000
    29  H    0.000000  -0.000483  -0.000027   0.000347   0.000006   0.000007
    30  C    0.000000  -0.000716   0.000003   0.000229   0.000001   0.000001
    31  H    0.000000   0.000477   0.000112   0.000189  -0.000008   0.000003
    32  C    0.000000   0.000023  -0.000001   0.000080   0.000000   0.000000
    33  H    0.000000  -0.000007  -0.000001   0.000014   0.000000   0.000000
    34  H    0.000000   0.000022   0.000000  -0.000001   0.000000   0.000000
    35  H    0.000000   0.000001   0.000000  -0.000001   0.000000   0.000000
             19         20         21         22         23         24
     1  C    0.004891  -0.001739   0.000988  -0.000351  -0.000326  -0.000012
     2  H   -0.000247  -0.000070   0.000009  -0.000026   0.000013  -0.000002
     3  C    0.000614  -0.001000   0.000076   0.000012   0.000005  -0.000001
     4  C   -0.000648   0.000490   0.000029   0.000003   0.000014  -0.000001
     5  C    0.000027  -0.000081  -0.000003  -0.000001   0.000000   0.000000
     6  C   -0.000016   0.000059   0.000003   0.000000   0.000000   0.000000
     7  H    0.000441   0.000988  -0.000012   0.000001   0.000000  -0.000001
     8  C   -0.000001   0.000002   0.000000   0.000000   0.000000   0.000000
     9  H    0.000000   0.000000   0.000000  -0.000001   0.000000   0.000000
    10  C    0.000000   0.000002   0.000000   0.000000   0.000000   0.000000
    11  H   -0.000001  -0.000008   0.000000   0.000000   0.000000   0.000000
    12  H    0.000000   0.000000   0.000000   0.000000   0.000000   0.000000
    13  H    0.000000   0.000000   0.000000   0.000000   0.000000   0.000000
    14  C   -0.064629  -0.042527  -0.018538   0.006703   0.006181  -0.001479
    15  C   -0.031581   0.004193  -0.086065  -0.039652  -0.000423   0.007371
    16  C    0.471303   0.390234  -0.093494  -0.000523  -0.037563   0.007825
    17  C   -0.076891  -0.000182   0.488784   0.397104   0.005998  -0.042955
    18  H   -0.000337  -0.000248   0.005341  -0.004289   0.000024  -0.000185
    19  C    5.050785  -0.030015   0.499309   0.006126   0.395897  -0.042204
    20  H   -0.030015   0.481285   0.004714   0.000020  -0.003331  -0.000182
    21  C    0.499309   0.004714   5.033519  -0.040736  -0.040265   0.399201
    22  H    0.006126   0.000020  -0.040736   0.518602  -0.000213  -0.004485
    23  H    0.395897  -0.003331  -0.040265  -0.000213   0.516813  -0.004446
    24  H   -0.042204  -0.000182   0.399201  -0.004485  -0.004446   0.518535
    25  C    0.000502  -0.003189   0.000046   0.000011   0.000037  -0.000001
    26  C    0.000013   0.001001  -0.000019   0.000000   0.000029   0.000001
    27  C   -0.000091  -0.000903  -0.000013   0.000001   0.000007   0.000000
    28  C   -0.000031   0.000969   0.000000   0.000000  -0.000001   0.000000
    29  H    0.000049   0.000131   0.000001   0.000000  -0.000017   0.000000
    30  C   -0.000004  -0.000135   0.000000   0.000000   0.000001   0.000000
    31  H    0.000009  -0.000037  -0.000004   0.000000   0.000000   0.000000
    32  C    0.000004   0.000047   0.000000   0.000000  -0.000001   0.000000
    33  H    0.000001  -0.000002   0.000000   0.000000   0.000000   0.000000
    34  H    0.000000   0.000001   0.000000   0.000000   0.000000   0.000000
    35  H    0.000000   0.000001   0.000000   0.000000   0.000000   0.000000
             25         26         27         28         29         30
     1  C    0.170321  -0.045930  -0.045260   0.003561  -0.000303   0.008272
     2  H   -0.073939   0.005101   0.002874  -0.000275  -0.000141   0.001515
     3  C   -0.112104  -0.004619   0.001934   0.001543  -0.003006  -0.000680
     4  C   -0.006274  -0.017223   0.000227  -0.000016   0.002875   0.000029
     5  C   -0.000335   0.001481   0.000196   0.000042  -0.000256  -0.000004
     6  C    0.001777  -0.001727   0.000027  -0.000089   0.001160  -0.000001
     7  H   -0.003181   0.000288  -0.000196   0.000861   0.003447   0.000016
     8  C   -0.000601   0.000125  -0.000009   0.000000  -0.000139   0.000001
     9  H    0.000559   0.000002   0.000135   0.000003  -0.000004   0.000003
    10  C   -0.000035   0.000044  -0.000001   0.000003   0.000079   0.000000
    11  H    0.000009   0.000016   0.000000   0.000001  -0.000105   0.000000
    12  H    0.000020  -0.000001   0.000000   0.000000   0.000000   0.000000
    13  H   -0.000001   0.000001   0.000000   0.000000   0.000000   0.000000
    14  C   -0.103380  -0.005678  -0.001509   0.000884  -0.000483  -0.000716
    15  C    0.006489  -0.000172   0.000438   0.000023  -0.000027   0.000003
    16  C   -0.014496  -0.007444   0.001904  -0.001487   0.000347   0.000229
    17  C   -0.000761   0.000024  -0.000016   0.000000   0.000006   0.000001
    18  H    0.000699  -0.000038   0.000013   0.000000   0.000007   0.000001
    19  C    0.000502   0.000013  -0.000091  -0.000031   0.000049  -0.000004
    20  H   -0.003189   0.001001  -0.000903   0.000969   0.000131  -0.000135
    21  C    0.000046  -0.000019  -0.000013   0.000000   0.000001   0.000000
    22  H    0.000011   0.000000   0.000001   0.000000   0.000000   0.000000
    23  H    0.000037   0.000029   0.000007  -0.000001  -0.000017   0.000001
    24  H   -0.000001   0.000001   0.000000   0.000000   0.000000   0.000000
    25  C    5.366639   0.450192   0.495286  -0.064500  -0.053040  -0.071646
    26  C    0.450192   5.122120  -0.061435   0.473335   0.386638  -0.031247
    27  C    0.495286  -0.061435   5.040688  -0.036123   0.004514   0.471847
    28  C   -0.064500   0.473335  -0.036123   5.056580  -0.025361  -0.075111
    29  H   -0.053040   0.386638   0.004514  -0.025361   0.498398  -0.000213
    30  C   -0.071646  -0.031247   0.471847  -0.075111  -0.000213   5.044423
    31  H   -0.045655   0.004761   0.394442  -0.000403  -0.000243  -0.034666
    32  C   -0.017722  -0.094849  -0.086735   0.495744   0.004798   0.494655
    33  H    0.006025  -0.036759  -0.000391   0.395577  -0.003439   0.005897
    34  H    0.007152  -0.000599  -0.039674   0.006231   0.000020   0.396661
    35  H   -0.001594   0.008121   0.007485  -0.042542  -0.000183  -0.042947
             31         32         33         34         35
     1  C   -0.000735   0.001144  -0.000295  -0.000390  -0.000019
     2  H    0.002692  -0.000016   0.000014  -0.000029  -0.000001
     3  C    0.000359   0.000021   0.000011   0.000014  -0.000002
     4  C   -0.000025  -0.000005   0.000031   0.000000   0.000001
     5  C   -0.000021  -0.000011   0.000002   0.000001   0.000000
     6  C    0.000002   0.000001   0.000000   0.000000   0.000000
     7  H   -0.000007  -0.000011  -0.000053   0.000000   0.000000
     8  C    0.000001   0.000000   0.000000   0.000000   0.000000
     9  H   -0.000025  -0.000001   0.000000   0.000000   0.000000
    10  C    0.000000   0.000000  -0.000001   0.000000   0.000000
    11  H    0.000000   0.000000   0.000001   0.000000   0.000000
    12  H    0.000000   0.000000   0.000000   0.000000   0.000000
    13  H    0.000000   0.000000   0.000000   0.000000   0.000000
    14  C    0.000477   0.000023  -0.000007   0.000022   0.000001
    15  C    0.000112  -0.000001  -0.000001   0.000000   0.000000
    16  C    0.000189   0.000080   0.000014  -0.000001  -0.000001
    17  C   -0.000008   0.000000   0.000000   0.000000   0.000000
    18  H    0.000003   0.000000   0.000000   0.000000   0.000000
    19  C    0.000009   0.000004   0.000001   0.000000   0.000000
    20  H   -0.000037   0.000047  -0.000002   0.000001   0.000001
    21  C   -0.000004   0.000000   0.000000   0.000000   0.000000
    22  H    0.000000   0.000000   0.000000   0.000000   0.000000
    23  H    0.000000  -0.000001   0.000000   0.000000   0.000000
    24  H    0.000000   0.000000   0.000000   0.000000   0.000000
    25  C   -0.045655  -0.017722   0.006025   0.007152  -0.001594
    26  C    0.004761  -0.094849  -0.036759  -0.000599   0.008121
    27  C    0.394442  -0.086735  -0.000391  -0.039674   0.007485
    28  C   -0.000403   0.495744   0.395577   0.006231  -0.042542
    29  H   -0.000243   0.004798  -0.003439   0.000020  -0.000183
    30  C   -0.034666   0.494655   0.005897   0.396661  -0.042947
    31  H    0.507634   0.005348   0.000022  -0.004216  -0.000183
    32  C    0.005348   5.030368  -0.039654  -0.041072   0.399174
    33  H    0.000022  -0.039654   0.515454  -0.000212  -0.004354
    34  H   -0.004216  -0.041072  -0.000212   0.517952  -0.004548
    35  H   -0.000183   0.399174  -0.004354  -0.004548   0.517617
 Mulliken atomic charges:
              1
     1  C   -0.580815
     2  H    0.204552
     3  C    0.092362
     4  C   -0.111748
     5  C   -0.190061
     6  C   -0.172835
     7  H    0.179193
     8  C   -0.165617
     9  H    0.166924
    10  C   -0.156531
    11  H    0.163407
    12  H    0.162066
    13  H    0.164011
    14  C    0.086930
    15  C   -0.148747
    16  C   -0.150938
    17  C   -0.166429
    18  H    0.166640
    19  C   -0.183278
    20  H    0.199511
    21  C   -0.152869
    22  H    0.161693
    23  H    0.161566
    24  H    0.163021
    25  C    0.066691
    26  C   -0.145554
    27  C   -0.149661
    28  C   -0.189418
    29  H    0.184489
    30  C   -0.166184
    31  H    0.170175
    32  C   -0.151329
    33  H    0.162118
    34  H    0.162686
    35  H    0.163976
 Sum of Mulliken atomic charges =   0.00000
 Mulliken charges with hydrogens summed into heavy atoms:
              1
     1  C   -0.376263
     3  C    0.092362
     4  C    0.067445
     5  C   -0.023138
     6  C   -0.009428
     8  C   -0.003551
    10  C    0.007480
    14  C    0.086930
    15  C    0.017893
    16  C    0.048573
    17  C   -0.004735
    19  C   -0.021712
    21  C    0.010152
    25  C    0.066691
    26  C    0.038935
    27  C    0.020515
    28  C   -0.027300
    30  C   -0.003498
    32  C    0.012647
 Sum of Mulliken charges with hydrogens summed into heavy atoms =   0.00000
 Electronic spatial extent (au):  <R**2>=           4939.3806
 Charge=              0.0000 electrons
 Dipole moment (field-independent basis, Debye):
    X=              0.0130    Y=             -0.0668    Z=             -0.0418  Tot=              0.0799
 Quadrupole moment (field-independent basis, Debye-Ang):
   XX=           -110.5461   YY=           -114.0909   ZZ=           -102.8922
   XY=             -0.8135   XZ=             -2.2974   YZ=             -0.1246
 Traceless Quadrupole moment (field-independent basis, Debye-Ang):
   XX=             -1.3697   YY=             -4.9145   ZZ=              6.2842
   XY=             -0.8135   XZ=             -2.2974   YZ=             -0.1246
 Octapole moment (field-independent basis, Debye-Ang**2):
  XXX=            -39.7549  YYY=             18.3083  ZZZ=             -0.1869  XYY=             44.5695
  XXY=            -14.1627  XXZ=             -6.5272  XZZ=             -0.7888  YZZ=             -4.9546
  YYZ=             10.5029  XYZ=             -0.1589
 Hexadecapole moment (field-independent basis, Debye-Ang**3):
 XXXX=          -3094.1186 YYYY=          -2905.8512 ZZZZ=           -785.8909 XXXY=              6.5638
 XXXZ=             -1.3143 YYYX=             -3.1359 YYYZ=             59.1715 ZZZX=             -6.2007
 ZZZY=             -4.0385 XXYY=           -972.8915 XXZZ=           -631.4898 YYZZ=           -601.1994
 XXYZ=            -49.8523 YYXZ=            -22.3089 ZZXY=            -15.8825
 N-N= 1.288424193029D+03 E-N=-4.272859232229D+03  KE= 7.285923972405D+02
 PrsmSu:  requested number of processors reduced to:  10 ShMem   1 Linda.
 Calling FoFJK, ICntrl=      2127 FMM=F ISym2X=0 I1Cent= 0 IOpClX= 0 NMat=1 NMatS=1 NMatT=0.
 ***** Axes restored to original set *****
 -------------------------------------------------------------------
 Center     Atomic                   Forces (Hartrees/Bohr)
 Number     Number              X              Y              Z
 -------------------------------------------------------------------
      1        6          -0.001589380   -0.000075623    0.023886214
      2        1           0.000232131    0.001185615   -0.027436103
      3        6          -0.002306880    0.012829767    0.005478699
      4        6           0.002473463   -0.006502429   -0.009411015
      5        6          -0.000596140   -0.001418565    0.005905109
      6        6           0.000872389    0.000970457   -0.012348280
      7        1           0.003468440    0.022721342    0.014426589
      8        6          -0.002466418    0.010569676    0.007800646
      9        1           0.001623523    0.004133331   -0.017157899
     10        6          -0.001520675    0.013420547   -0.001663518
     11        1          -0.001519984   -0.004390689    0.016038677
     12        1           0.003101018   -0.011362717   -0.011777415
     13        1           0.001546615   -0.016174965    0.004338993
     14        6           0.012695400   -0.006939886    0.001864074
     15        6           0.000992736    0.003061124    0.005599956
     16        6          -0.008121874   -0.002835985   -0.007168133
     17        6           0.009676980    0.002961884    0.007838348
     18        1           0.001666150   -0.008872508   -0.014859205
     19        6           0.002785440   -0.005288044   -0.010570527
     20        1           0.017853052    0.001728314    0.012720637
     21        6           0.012192705   -0.004605161   -0.003800333
     22        1          -0.012882143   -0.003193977   -0.010022485
     23        1          -0.002191326    0.008381070    0.014285820
     24        1          -0.015297598    0.005278175    0.004218107
     25        6          -0.010355832   -0.007432173    0.004068471
     26        6           0.002431612    0.008645338   -0.010039946
     27        6           0.001895602   -0.001193044    0.005900276
     28        6          -0.003865610    0.000515329   -0.011484939
     29        1          -0.016130178   -0.020359155    0.016003202
     30        6          -0.005216402   -0.008974196    0.007864393
     31        1          -0.006197448    0.001425435   -0.016591977
     32        6          -0.010097137   -0.008459821   -0.002772595
     33        1           0.006230324   -0.000820309    0.015480271
     34        1           0.006064602    0.010867742   -0.011057425
     35        1           0.012552842    0.010204100    0.004443312
 -------------------------------------------------------------------
 Cartesian Forces:  Max     0.027436103 RMS     0.009556016

 GradGradGradGradGradGradGradGradGradGradGradGradGradGradGradGradGradGrad
 Berny optimization.
 Internal  Forces:  Max     0.029842527 RMS     0.007836718
 Search for a local minimum.
 Step number   1 out of a maximum of  197
 All quantities printed in internal units (Hartrees-Bohrs-Radians)
 Mixed Optimization -- RFO/linear search
 Second derivative matrix not updated -- first step.
     Eigenvalues ---    0.00634   0.00645   0.00654   0.01530   0.01533
     Eigenvalues ---    0.01536   0.02137   0.02140   0.02146   0.02167
     Eigenvalues ---    0.02171   0.02172   0.02180   0.02185   0.02186
     Eigenvalues ---    0.02201   0.02203   0.02203   0.02213   0.02213
     Eigenvalues ---    0.02215   0.02216   0.02216   0.02217   0.02217
     Eigenvalues ---    0.02218   0.02219   0.02219   0.02220   0.02222
     Eigenvalues ---    0.04520   0.06371   0.06677   0.15996   0.15999
     Eigenvalues ---    0.15999   0.16000   0.16000   0.16000   0.16000
     Eigenvalues ---    0.16000   0.16000   0.16000   0.16000   0.16000
     Eigenvalues ---    0.16000   0.16000   0.16000   0.18935   0.19366
     Eigenvalues ---    0.22000   0.22000   0.22000   0.22000   0.22000
     Eigenvalues ---    0.22000   0.23476   0.23476   0.23477   0.24996
     Eigenvalues ---    0.24999   0.25000   0.31166   0.31355   0.31438
     Eigenvalues ---    0.31506   0.33469   0.33612   0.33961   0.34067
     Eigenvalues ---    0.34079   0.34096   0.34257   0.34258   0.34260
     Eigenvalues ---    0.34262   0.34265   0.34270   0.34284   0.34287
     Eigenvalues ---    0.34290   0.42421   0.42431   0.42490   0.42564
     Eigenvalues ---    0.42582   0.42615   0.46341   0.46361   0.46435
     Eigenvalues ---    0.46764   0.46774   0.46827   0.47222   0.47231
     Eigenvalues ---    0.47260   0.47317   0.47336   0.473751000.00000
     Eigenvalues --- 1000.000001000.000001000.000001000.000001000.00000
     Eigenvalues --- 1000.000001000.000001000.000001000.000001000.00000
     Eigenvalues --- 1000.000001000.000001000.000001000.000001000.00000
     Eigenvalues --- 1000.000001000.000001000.000001000.000001000.00000
     Eigenvalues --- 1000.000001000.000001000.000001000.000001000.00000
     Eigenvalues --- 1000.000001000.000001000.000001000.000001000.00000
     Eigenvalues --- 1000.000001000.000001000.000001000.000001000.00000
     Eigenvalues --- 1000.000001000.000001000.000001000.000001000.00000
     Eigenvalues --- 1000.000001000.000001000.000001000.000001000.00000
     Eigenvalues --- 1000.000001000.000001000.000001000.000001000.00000
     Eigenvalues --- 1000.000001000.000001000.000001000.000001000.00000
     Eigenvalues --- 1000.000001000.000001000.000001000.000001000.00000
     Eigenvalues --- 1000.000001000.000001000.000001000.000001000.00000
     Eigenvalues --- 1000.000001000.000001000.000001000.000001000.00000
     Eigenvalues --- 1000.000001000.000001000.000001000.000001000.00000
     Eigenvalues --- 1000.000001000.000001000.000001000.000001000.00000
     Eigenvalues --- 1000.000001000.000001000.000001000.000001000.00000
     Eigenvalues --- 1000.000001000.00000
 RFO step:  Lambda=-4.29154369D-02 EMin= 6.34251098D-03
 Linear search not attempted -- first point.
 Maximum step size (   0.300) exceeded in Quadratic search.
    -- Step size scaled by   0.575
 Iteration  1 RMS(Cart)=  0.12594609 RMS(Int)=  0.00284659
 Iteration  2 RMS(Cart)=  0.00585504 RMS(Int)=  0.00028881
 Iteration  3 RMS(Cart)=  0.00000909 RMS(Int)=  0.00028876
 Iteration  4 RMS(Cart)=  0.00000000 RMS(Int)=  0.00028876
 Variable       Old X    -DE/DX   Delta X   Delta X   Delta X     New X
                                 (Linear)    (Quad)   (Total)
    R1        2.12397  -0.02745   0.00000  -0.04449  -0.04449   2.07948
    R2        2.85184   0.02266   0.00000   0.03644   0.03644   2.88828
    R3        2.85340   0.02090   0.00000   0.03369   0.03369   2.88709
    R4        2.85057   0.02570   0.00000   0.04126   0.04126   2.89182
    R5        2.63779   0.00071   0.00000   0.00096   0.00098   2.63876
    R6        2.63980  -0.00417   0.00000  -0.00467  -0.00466   2.63514
    R7        2.62599  -0.00457   0.00000  -0.00502  -0.00501   2.62098
    R8        2.07990  -0.02544   0.00000  -0.03856  -0.03856   2.04134
    R9        2.62726  -0.00275   0.00000  -0.00313  -0.00314   2.62411
   R10        2.07197  -0.01771   0.00000  -0.02653  -0.02653   2.04544
   R11        2.62795  -0.00546   0.00000  -0.00617  -0.00618   2.62177
   R12        2.06876  -0.01670   0.00000  -0.02488  -0.02488   2.04388
   R13        2.62774  -0.00838   0.00000  -0.00949  -0.00951   2.61823
   R14        2.06897  -0.01666   0.00000  -0.02483  -0.02483   2.04414
   R15        2.06854  -0.01682   0.00000  -0.02505  -0.02505   2.04348
   R16        2.64302  -0.00420   0.00000  -0.00483  -0.00482   2.63820
   R17        2.63520  -0.00253   0.00000  -0.00279  -0.00279   2.63241
   R18        2.62508  -0.00414   0.00000  -0.00467  -0.00467   2.62041
   R19        2.07168  -0.01738   0.00000  -0.02601  -0.02601   2.04567
   R20        2.62862  -0.00271   0.00000  -0.00295  -0.00295   2.62566
   R21        2.07396  -0.02183   0.00000  -0.03280  -0.03280   2.04116
   R22        2.62904  -0.00602   0.00000  -0.00679  -0.00679   2.62225
   R23        2.06890  -0.01663   0.00000  -0.02479  -0.02479   2.04412
   R24        2.62595  -0.00622   0.00000  -0.00690  -0.00690   2.61904
   R25        2.06899  -0.01671   0.00000  -0.02491  -0.02491   2.04409
   R26        2.06844  -0.01672   0.00000  -0.02491  -0.02491   2.04353
   R27        2.63783   0.00073   0.00000   0.00101   0.00103   2.63885
   R28        2.64225  -0.00350   0.00000  -0.00395  -0.00393   2.63832
   R29        2.62731  -0.00327   0.00000  -0.00352  -0.00353   2.62378
   R30        2.08235  -0.02984   0.00000  -0.04542  -0.04542   2.03693
   R31        2.62635  -0.00366   0.00000  -0.00420  -0.00419   2.62216
   R32        2.07218  -0.01776   0.00000  -0.02660  -0.02660   2.04558
   R33        2.62675  -0.00667   0.00000  -0.00749  -0.00751   2.61923
   R34        2.06894  -0.01671   0.00000  -0.02490  -0.02490   2.04404
   R35        2.62814  -0.00845   0.00000  -0.00962  -0.00963   2.61851
   R36        2.06884  -0.01665   0.00000  -0.02481  -0.02481   2.04403
   R37        2.06848  -0.01678   0.00000  -0.02499  -0.02499   2.04349
    A1        1.86805  -0.00594   0.00000  -0.03548  -0.03473   1.83332
    A2        1.85821  -0.00026   0.00000  -0.01886  -0.01869   1.83952
    A3        1.85556  -0.00924   0.00000  -0.04551  -0.04457   1.81099
    A4        1.92471  -0.00407   0.00000   0.00954   0.00720   1.93191
    A5        1.97529   0.01475   0.00000   0.05374   0.05256   2.02785
    A6        1.97359   0.00303   0.00000   0.02545   0.02355   1.99714
    A7        2.12678   0.01650   0.00000   0.03227   0.03219   2.15897
    A8        2.07809  -0.00631   0.00000  -0.01249  -0.01256   2.06553
    A9        2.07817  -0.01022   0.00000  -0.02008  -0.02009   2.05809
   A10        2.10360   0.00378   0.00000   0.00841   0.00834   2.11194
   A11        2.07574   0.00414   0.00000   0.01306   0.01294   2.08868
   A12        2.10363  -0.00786   0.00000  -0.02095  -0.02107   2.08256
   A13        2.10041   0.00696   0.00000   0.01487   0.01487   2.11528
   A14        2.09444  -0.00406   0.00000  -0.00908  -0.00909   2.08535
   A15        2.08833  -0.00290   0.00000  -0.00578  -0.00579   2.08254
   A16        2.09573   0.00215   0.00000   0.00431   0.00430   2.10003
   A17        2.09162  -0.00098   0.00000  -0.00188  -0.00189   2.08973
   A18        2.09583  -0.00117   0.00000  -0.00242  -0.00243   2.09340
   A19        2.09796  -0.00011   0.00000  -0.00103  -0.00105   2.09691
   A20        2.09118   0.00021   0.00000   0.00095   0.00096   2.09213
   A21        2.09405  -0.00010   0.00000   0.00008   0.00009   2.09414
   A22        2.09047  -0.00254   0.00000  -0.00635  -0.00639   2.08408
   A23        2.09636   0.00127   0.00000   0.00319   0.00319   2.09955
   A24        2.09636   0.00127   0.00000   0.00318   0.00318   2.09954
   A25        2.06490  -0.00205   0.00000  -0.00394  -0.00394   2.06095
   A26        2.14072   0.00961   0.00000   0.01894   0.01893   2.15965
   A27        2.07755  -0.00756   0.00000  -0.01500  -0.01499   2.06256
   A28        2.10227   0.00531   0.00000   0.01114   0.01115   2.11341
   A29        2.09288  -0.00325   0.00000  -0.00727  -0.00727   2.08561
   A30        2.08803  -0.00206   0.00000  -0.00388  -0.00388   2.08415
   A31        2.10167   0.00312   0.00000   0.00681   0.00681   2.10848
   A32        2.09260   0.00057   0.00000   0.00262   0.00262   2.09522
   A33        2.08887  -0.00370   0.00000  -0.00946  -0.00946   2.07941
   A34        2.09706   0.00008   0.00000  -0.00038  -0.00038   2.09669
   A35        2.09192   0.00001   0.00000   0.00034   0.00035   2.09226
   A36        2.09421  -0.00010   0.00000   0.00003   0.00003   2.09424
   A37        2.09853   0.00133   0.00000   0.00280   0.00279   2.10132
   A38        2.08970  -0.00061   0.00000  -0.00126  -0.00125   2.08844
   A39        2.09496  -0.00072   0.00000  -0.00155  -0.00155   2.09341
   A40        2.08929  -0.00229   0.00000  -0.00537  -0.00538   2.08390
   A41        2.09645   0.00115   0.00000   0.00270   0.00271   2.09916
   A42        2.09745   0.00114   0.00000   0.00267   0.00267   2.10012
   A43        2.14226   0.02507   0.00000   0.04917   0.04915   2.19141
   A44        2.06575  -0.01296   0.00000  -0.02545  -0.02547   2.04028
   A45        2.07517  -0.01211   0.00000  -0.02371  -0.02368   2.05149
   A46        2.10375   0.00438   0.00000   0.00973   0.00973   2.11349
   A47        2.08554   0.00422   0.00000   0.01329   0.01329   2.09882
   A48        2.09387  -0.00861   0.00000  -0.02305  -0.02305   2.07081
   A49        2.10301   0.00832   0.00000   0.01761   0.01764   2.12065
   A50        2.09365  -0.00486   0.00000  -0.01080  -0.01081   2.08284
   A51        2.08652  -0.00346   0.00000  -0.00682  -0.00683   2.07969
   A52        2.09776   0.00244   0.00000   0.00501   0.00498   2.10273
   A53        2.09019  -0.00117   0.00000  -0.00235  -0.00234   2.08785
   A54        2.09524  -0.00128   0.00000  -0.00266  -0.00265   2.09260
   A55        2.09762   0.00001   0.00000  -0.00104  -0.00105   2.09658
   A56        2.09138   0.00007   0.00000   0.00073   0.00073   2.09211
   A57        2.09418  -0.00008   0.00000   0.00031   0.00031   2.09449
[...]
 00003074,0.00000087,-0.00006829,0.00016594,-0.00019302,0.00001184,0.00
 002572,0.00013090,-0.00011206,0.00008315,0.00018093,-0.00000212,0.0000
 0812,-0.00000243,-0.00000458,0.00002126,-0.00000633,0.00000514,-0.0000
 0303,0.00001232,-0.00064856,0.00012692,-0.00048730,-0.00038315,0.00024
 475,-0.00001795,0.00018362,0.00011449,-0.00008589,0.00013943,-0.000232
 64,-0.00018808,0.00001490,0.00002637,-0.00002590,-0.00039646,0.0000113
 3,-0.00013829,0.00002420,-0.00018783,-0.00010845,0.00011047,0.00015250
 ,0.00023303,-0.00002253,-0.00001341,0.00001340,-0.00000443,0.00002000,
 0.00000283,-0.00002067,0.00000048,0.00000046,0.02934927,-0.02450646,0.
 06252558,-0.04718295,-0.01664409,-0.04104116,-0.03895496,0.02593696,-0
 .14665011,0.01999942,0.07015299,-0.03606200,-0.00028653,-0.00094974,-0
 .00052739,0.18445586,-0.22500338,0.58531903,-0.00138359,0.00065052,0.0
 0165924,0.00055547,-0.00009615,0.00074675,0.00020154,0.00012174,0.0001
 7206,0.00002901,0.00000783,0.00003916,0.00006211,0.00008308,-0.0001420
 7,-0.00004526,-0.00000066,0.00001823,-0.00000248,-0.00000258,0.0000128
 9,-0.00002119,-0.00002185,0.00001631,-0.00001101,0.00001068,0.00002701
 ,0.00000826,0.00002734,-0.00001126,-0.00000503,0.00000181,-0.00000739,
 -0.00000786,0.00001737,0.00000071,-0.00000198,0.00000408,0.00000226,-0
 .00012203,-0.00010374,0.00009482,-0.00010267,0.00005692,-0.00007274,-0
 .00000628,0.00000975,-0.00004293,-0.00003965,-0.00002636,-0.00002090,-
 0.00000089,-0.00000366,0.00000423,-0.00001564,0.00004704,0.00003722,0.
 00005241,-0.00000897,0.00001223,0.00001925,-0.00001355,0.00001778,0.00
 001136,0.00000109,0.00000807,-0.00000233,-0.00000402,-0.00000842,0.000
 01419,-0.00000248,-0.00000350,0.00803526,-0.00376882,0.00627226,0.0032
 3095,-0.00393889,-0.00128373,-0.16147551,0.02740489,-0.14321054,-0.000
 40407,-0.00031970,0.00088058,0.00017067,-0.00009324,0.00037974,-0.0096
 6741,0.00853657,-0.02357703,0.16307947,0.00267023,0.00008060,0.0000843
 8,-0.00049046,-0.00056233,-0.00110182,0.00002408,-0.00011421,-0.000353
 65,-0.00008105,0.00013635,-0.00007929,-0.00006721,0.00000323,0.0000855
 6,0.00004391,0.00003041,-0.00002828,0.00001579,-0.00000579,-0.00000520
 ,0.00001271,0.00000555,-0.00002742,0.00004524,-0.00002984,-0.00001132,
 -0.00000647,0.00001996,-0.00000363,0.00001007,0.00001980,-0.00000809,-
 0.00000161,0.00000529,0.00000535,0.00000264,0.00001017,-0.00000570,-0.
 00011476,0.00029583,0.00008242,0.00007351,-0.00007478,0.00003932,0.000
 09728,-0.00000913,0.00014084,-0.00006057,0.00004181,0.00000134,-0.0000
 4045,-0.00003986,-0.00002217,0.00004313,-0.00006906,-0.00000636,-0.000
 03049,0.00000413,-0.00008993,0.00001989,-0.00006084,-0.00004397,0.0000
 1653,0.00000270,-0.00000192,0.00001948,-0.00001071,-0.00002641,0.00001
 044,0.,-0.00001509,0.01724719,-0.00075734,0.02393039,-0.00412671,-0.00
 212737,0.00546692,0.02742097,-0.07807554,0.05581284,-0.00037391,-0.001
 03265,-0.00032760,0.00092828,-0.00015374,0.00107362,-0.01495477,0.0095
 9761,-0.01909597,-0.02452243,0.07350896,0.00124007,-0.00231649,-0.0008
 4861,0.00031056,0.00054583,0.00038705,-0.00023851,0.00002146,0.0003341
 4,0.00005728,-0.00015762,0.00006386,0.00003839,-0.00002759,0.00006738,
 -0.00000762,-0.00003081,0.00004985,-0.00001841,0.00000065,-0.00003712,
 0.00003116,-0.00001242,-0.00002456,-0.00002332,0.00000726,-0.00003114,
 -0.00000389,-0.00000756,0.00000594,-0.00000263,-0.00001464,-0.00000001
 ,-0.00000273,-0.00001377,-0.00000338,-0.00000355,-0.00000391,-0.000003
 48,0.00036477,0.00029948,0.00034410,0.00037291,-0.00014036,0.00008980,
 -0.00014212,-0.00024125,-0.00006962,0.00002427,0.00007825,0.00012981,-
 0.00000417,0.00002947,-0.00003127,0.00017960,-0.00011869,0.00000394,-0
 .00010336,0.00013484,-0.00005995,-0.00003985,-0.00003500,-0.00008225,-
 0.00000229,-0.00000065,-0.00001786,-0.00000161,0.00002432,-0.00000263,
 -0.00001185,0.00001387,-0.00000172,-0.01499510,0.00096142,-0.01100672,
 -0.00083386,0.00565314,0.00185982,-0.14225062,0.05619388,-0.24963160,0
 .00098210,-0.00025665,0.00028177,-0.00063667,0.00007066,-0.00076697,-0
 .00197133,0.00509844,-0.00111790,0.15910069,-0.06441410,0.25775002,-0.
 00104796,0.00103031,-0.00011579,-0.00012101,-0.00015162,0.00039688,-0.
 00007539,0.00002269,-0.00024436,0.00004746,-0.00012665,-0.00004666,-0.
 00001487,0.00004518,0.00009528,-0.00002144,0.00006769,-0.00001393,-0.0
 0001199,0.00000076,-0.00000327,0.00001428,-0.00003794,0.00007980,-0.00
 004389,0.00004925,-0.00001286,0.00005275,-0.00006503,-0.00001741,-0.00
 000978,-0.00002042,0.00000850,-0.00000149,-0.00004053,-0.00001529,-0.0
 0000434,-0.00001527,0.00000040,-0.00001614,-0.00098292,-0.00005017,-0.
 00010119,0.00004858,0.00022957,-0.00020006,-0.00002367,-0.00011171,-0.
 00004688,0.00009021,-0.00000824,0.00002673,-0.00001726,0.00000798,0.00
 013437,0.00002700,0.00008210,-0.00000269,0.00005061,0.00001989,-0.0000
 9886,-0.00002290,-0.00005815,-0.00003453,0.00002319,-0.00000586,-0.000
 03326,0.00000837,0.00003224,-0.00000327,0.00000964,0.00000839,-0.00726
 983,0.01696403,-0.01706154,0.01434977,-0.02553513,0.02894791,-0.035278
 29,-0.02241176,-0.02651212,-0.14282701,-0.08485334,0.01958166,-0.00071
 470,-0.00558475,-0.00450568,-0.20095900,0.02178251,-0.14325316,0.00006
 011,-0.00625348,-0.00354282,0.59609061,0.00159505,-0.00001834,0.000303
 91,-0.00005772,-0.00020252,-0.00066278,-0.00032220,0.00027914,0.000260
 57,-0.00002128,0.00018668,-0.00023993,-0.00009752,-0.00034393,-0.00001
 369,0.00013079,-0.00021600,-0.00004910,0.00002298,0.00001561,-0.000020
 12,0.00000550,0.00027314,-0.00017362,0.00001459,0.00000448,0.00004839,
 -0.00013340,-0.00002042,0.00025258,-0.00000317,-0.00001791,0.00001936,
 0.00000498,-0.00002061,-0.00001917,-0.00000177,-0.00002056,0.00000264,
 0.00040534,0.00047300,-0.00029438,-0.00028866,0.00022756,-0.00000935,-
 0.00003441,0.00013290,-0.00011548,0.00008780,-0.00016973,-0.00013647,0
 .00001690,0.00000199,-0.00000019,-0.00030707,-0.00002527,-0.00009295,-
 0.00011904,-0.00031771,-0.00020466,0.00005593,0.00012101,0.00018019,-0
 .00002132,-0.00001751,0.00002191,-0.00004030,0.00002742,0.00001884,-0.
 00001773,0.00000293,-0.00000347,0.01649546,-0.04028651,0.04874924,-0.0
 6604313,-0.03955356,-0.02287074,0.01778542,0.06170545,-0.02890155,-0.0
 3263518,-0.27308140,0.14553784,-0.00553790,0.00152967,0.00105952,-0.02
 984940,-0.14623682,0.02870367,-0.00659544,0.00021146,0.00143270,0.2380
 5435,0.60892811,-0.00178833,0.00019479,-0.00113729,-0.00030483,-0.0001
 7416,0.00098387,0.00011735,-0.00025704,-0.00051796,0.00006309,-0.00038
 998,0.00024403,0.00017558,0.00037493,0.00009472,-0.00016571,0.00030587
 ,0.00003708,-0.00001702,-0.00001451,0.00000364,0.00002956,-0.00034009,
 0.00025414,-0.00004781,0.00000244,-0.00008441,0.00018905,-0.00005031,-
 0.00028312,-0.00000637,-0.00000373,-0.00000795,-0.00000650,-0.00000088
 ,0.00001062,0.00000025,0.00000779,-0.00000744,-0.00023307,-0.00115017,
 0.00040872,0.00032310,-0.00021692,0.00028093,-0.00036448,-0.00021206,0
 .00008752,-0.00016511,0.00029728,0.00018580,0.00000768,-0.00000717,0.0
 0000541,0.00047314,-0.00001825,0.00010180,-0.00003377,0.00024340,0.000
 06530,-0.00021843,-0.00014720,-0.00027354,-0.00001027,0.00004006,-0.00
 002741,-0.00002618,-0.00000992,0.00004681,0.00000073,0.00000789,0.0000
 0379,-0.01531180,0.04950365,-0.07173618,0.06720636,0.02026302,0.061366
 56,-0.06434826,-0.07283124,0.00982839,-0.03007773,0.09197081,-0.201592
 29,-0.00484000,0.00076476,0.00340494,-0.09361300,0.08272380,-0.2607718
 2,-0.00302753,0.00191340,0.00410416,0.21231767,-0.16527664,0.55380377,
 -0.00032362,0.00055609,-0.00086527,-0.00032672,-0.00019786,-0.00009562
 ,0.00000088,0.00029378,-0.00003038,0.00004396,-0.00009333,0.00003510,0
 .00003709,-0.00002219,0.00000641,0.00000156,0.00002081,0.00001711,-0.0
 0002030,0.00001027,-0.00001329,-0.00000676,-0.00000665,0.00001994,-0.0
 0001530,0.00001255,0.00002140,0.00002615,-0.00004259,0.00000643,-0.000
 01796,-0.00002335,0.00001076,0.00000273,-0.00001020,-0.00000418,-0.000
 00365,-0.00001480,-0.00000046,0.00008190,-0.00019579,-0.00016203,-0.00
 010957,0.00006870,0.00006567,-0.00011667,-0.00001663,0.00002581,-0.000
 00795,0.00000034,-0.00000577,0.00001968,0.00001201,0.00001305,0.000008
 43,-0.00001489,-0.00000592,0.00002903,-0.00000156,-0.00006420,-0.00002
 663,0.00001103,0.00000697,-0.00001691,0.00000329,0.00000071,-0.0000228
 3,0.00002091,0.00001462,-0.00001003,0.00000666,0.00000091,0.00003819,-
 0.00637059,-0.00285923,-0.00955860,0.00843292,-0.02357103,-0.00039153,
 -0.00039536,0.00095827,-0.16276700,0.02795051,-0.14454584,-0.00101909,
 0.00164591,0.00256026,0.00365829,-0.00417584,-0.00152525,-0.00046879,0
 .00048102,0.00035709,0.00905653,-0.00428937,0.00760841,0.16314816,-0.0
 0021763,0.00045161,-0.00079641,-0.00015122,-0.00009920,-0.00012101,0.0
 0003965,0.00011479,0.00000230,0.00001462,0.00002694,0.00001777,0.00000
 855,-0.00004214,0.00001160,0.00001781,-0.00002743,0.00001350,-0.000008
 93,0.00000371,-0.00000823,0.00001838,0.00001457,-0.00000680,-0.0000128
 2,0.00000267,-0.00001093,0.00000620,-0.00003217,0.00003098,-0.00000806
 ,-0.00000692,-0.00000234,-0.00000330,-0.00001272,-0.00000854,-0.000006
 87,-0.00000584,-0.00000322,-0.00003632,-0.00009805,-0.00003109,-0.0000
 3808,-0.00000448,0.00001271,0.00002046,0.00002025,0.00002571,-0.000010
 51,0.00001081,-0.00000570,0.00000401,-0.00000395,0.00000497,-0.0000019
 3,0.00001003,0.00000436,-0.00001131,0.00000794,0.00001397,-0.00000675,
 -0.00000170,-0.00000350,-0.00000521,0.00000223,-0.00000272,0.00000492,
 -0.00000144,-0.00000075,-0.00000157,-0.00000096,0.00000208,-0.00638174
 ,0.00006381,0.00159143,-0.01448376,0.00952062,-0.01880661,-0.00041462,
 -0.00118842,-0.00025613,0.02793094,-0.07885407,0.05719274,0.00248276,-
 0.00052589,-0.00164210,-0.00443656,-0.00174086,0.00553691,0.00046681,-
 0.00031076,-0.00040800,0.01880699,0.00043151,0.02431147,-0.02606854,0.
 07317286,0.00021256,0.00040741,-0.00027708,-0.00008019,-0.00003633,-0.
 00005874,-0.00008830,0.00007475,-0.00001643,0.00001609,-0.00000592,-0.
 00003850,-0.00000639,-0.00006968,0.00001759,0.00002667,-0.00002289,-0.
 00000179,0.00000544,0.00000865,-0.00001097,0.00001266,0.00004057,0.000
 00114,-0.00001807,0.00002019,-0.00000309,0.00000003,-0.00003372,0.0000
 4708,-0.00000749,-0.00001161,0.00000636,0.00000083,-0.00002538,-0.0000
 1822,-0.00000639,-0.00001773,0.00000056,-0.00002014,-0.00015218,-0.000
 02578,-0.00004162,0.00001528,0.00004617,-0.00001417,0.00003181,0.00004
 202,-0.00001441,0.00001480,-0.00000176,0.00000985,-0.00000278,-0.00000
 098,0.00000621,-0.00001993,-0.00001967,0.00000568,-0.00000846,-0.00003
 589,-0.00002017,-0.00000283,-0.00000731,-0.00001497,0.00000270,-0.0000
 0619,-0.00000228,0.00000979,0.00000575,-0.00001309,0.00000342,0.000001
 26,-0.00341216,0.00130107,0.00388496,-0.00173070,0.00496084,-0.0009652
 1,0.00091345,-0.00038193,0.00035310,-0.14445616,0.05696153,-0.25210453
 ,0.00190194,-0.00227266,-0.00088997,-0.00119945,0.00586479,0.00216333,
 0.00036578,-0.00040576,-0.00050701,-0.01427243,0.00055873,-0.00965237,
 0.15993099,-0.06528940,0.25971905,0.00009944,-0.00083759,0.00085964,0.
 00008065,0.00004205,-0.00000945,-0.00041628,-0.00005247,-0.00007331,0.
 00002977,-0.00004880,-0.00000293,0.00001538,-0.00007285,-0.00000677,0.
 00003907,-0.00002682,0.00001028,-0.00001654,-0.00000018,-0.00000544,0.
 00000830,0.00004949,-0.00000248,-0.00000278,0.00000704,0.00000019,-0.0
 0002228,-0.00002836,0.00004109,-0.00000168,-0.00001161,0.00001030,0.00
 000393,-0.00000692,-0.00000461,-0.00000167,-0.00000765,0.00000068,0.00
 005878,-0.00013956,-0.00005592,-0.00006389,0.00002993,0.00002392,-0.00
 004030,0.00004146,0.00000794,-0.00000332,0.00001103,-0.00001642,0.0000
 0912,-0.00000761,0.00001292,-0.00000985,0.00001383,-0.00001604,0.00000
 751,-0.00004118,0.00000029,-0.00003004,0.00002331,0.00000524,-0.000012
 14,-0.00000259,0.00000332,-0.00001348,0.00000050,0.00002136,-0.0000089
 4,-0.00000401,0.00000595,-0.00061938,-0.00533570,-0.00482979,-0.001072
 22,0.00025273,-0.00040501,0.00084730,-0.02366487,0.01773603,0.00080359
 ,-0.00195605,-0.00633893,-0.00039639,0.00037542,0.00052743,-0.07437338
 ,-0.05230917,0.02322457,-0.00103901,0.00252719,0.00189537,0.00937237,0
 .01838575,-0.01351287,0.00016203,0.00086282,-0.00056244,0.06758037,0.0
 0028575,-0.00060370,0.00072798,-0.00002869,-0.00001420,-0.00006371,-0.
 00024643,0.00006005,-0.00017490,0.00003614,-0.00010440,-0.00000480,-0.
 00002252,-0.00004546,0.00006417,0.00001049,0.00002982,0.00000030,0.000
 00439,0.00000590,-0.00000402,-0.00000508,-0.00000189,0.00002693,-0.000
 00861,0.00001659,0.00000087,0.00001528,-0.00003020,-0.00001109,-0.0000
 0361,-0.00001242,0.00001191,0.00001263,-0.00002123,-0.00000322,0.00000
 114,-0.00001417,0.00000288,0.00011296,-0.00012797,-0.00007678,-0.00007
 324,0.00006586,0.00002091,-0.00002207,0.00004166,0.00003605,-0.0000146
 7,0.00000507,-0.00001422,0.00001132,-0.00001137,0.00000421,-0.00000224
 ,-0.00001312,-0.00001297,0.00001544,-0.00002189,-0.00003755,-0.0000219
 0,0.00000899,-0.00000430,-0.00002205,-0.00000487,-0.00000074,-0.000006
 07,0.00000495,0.00001326,-0.00001562,0.00000269,0.00000348,-0.00588467
 ,0.00180530,0.00085604,0.00012164,0.00026191,-0.00100444,-0.00070727,-
 0.01107576,0.01527197,-0.00160124,0.00377069,0.00301601,0.00043129,-0.
 00043876,-0.00033598,-0.05240433,-0.25655303,0.14433470,0.00174562,-0.
 00071118,-0.00246822,-0.00443259,-0.00016438,0.00077263,-0.00008881,-0
 .00026265,0.00006932,0.06041311,0.26482355,-0.00004836,-0.00041785,0.0
 0020036,0.00003034,0.00001532,-0.00003970,0.00001971,-0.00000519,-0.00
 007885,0.00000819,-0.00001193,0.00003735,0.00000551,0.00002561,0.00002
 891,-0.00000815,0.00002577,0.00001361,-0.00000787,-0.00000313,-0.00000
 293,0.00001040,-0.00003782,0.00001389,-0.00000542,-0.00000754,-0.00001
 761,0.00002128,-0.00000564,-0.00002707,-0.00000258,0.00000107,-0.00000
 677,-0.00000285,-0.00000149,0.00000216,-0.00000228,0.00000408,-0.00000
 384,0.00006052,0.00010067,0.00001984,0.00000243,0.00000396,-0.00004584
 ,0.00002223,-0.00002132,-0.00001443,0.00000716,-0.00001688,-0.00000546
 ,-0.00000568,-0.00000163,-0.00000374,-0.00001261,0.00000228,0.00003155
 ,-0.00002145,0.00003339,-0.00000026,0.00002624,-0.00000459,0.00000960,
 0.00000603,-0.00000217,0.00000188,0.00000940,0.00000025,-0.00001968,0.
 00000960,0.00000192,-0.00000297,-0.00456876,0.00105002,0.00341091,-0.0
 0038419,-0.00100231,-0.00039094,-0.00436396,-0.00865191,0.00944201,-0.
 00662370,0.00268044,-0.00085645,0.00049229,-0.00033223,-0.00042727,0.0
 2337753,0.14450867,-0.16306458,0.00257290,-0.00166226,-0.00089494,0.00
 842190,0.02455486,-0.00929648,0.00035029,0.00110079,-0.00074512,-0.021
 09676,-0.15955175,0.16348632,-0.00042716,0.00031697,0.00038160,0.00004
 007,-0.00000187,0.00011228,-0.00006951,0.00002474,-0.00000275,0.000011
 53,-0.00003500,-0.00003549,-0.00003062,-0.00002705,-0.00000984,0.00000
 506,0.00001277,-0.00001170,0.00000846,0.00000684,0.00000288,-0.0000176
 5,0.00001791,0.00001006,0.00000014,0.00001142,0.00001745,0.00000485,-0
 .00001407,0.00000710,-0.00000537,-0.00000891,0.00000993,0.00000826,-0.
 00000609,-0.00000293,0.00000186,-0.00001140,0.00000394,-0.00002775,-0.
 00013942,-0.00008320,-0.00004717,0.00003936,0.00004463,-0.00004471,0.0
 0002304,0.00002177,-0.00001081,0.00001123,0.00000079,0.00001038,0.0000
 0313,0.00000457,0.00001692,-0.00002091,-0.00003279,0.00002807,-0.00003
 543,-0.00003887,-0.00002422,0.00000386,-0.00000628,-0.00001405,0.00000
 055,-0.00000200,-0.00001380,0.00000878,0.00001898,-0.00001470,0.000002
 01,0.00000225,0.00028258,0.00099971,0.00029734,0.00420842,-0.00316495,
 -0.00194392,0.00219591,-0.00094149,-0.00586923,0.00013894,-0.00069513,
 -0.00458284,-0.00023220,-0.00004594,-0.00010995,-0.00956058,-0.0149436
 5,-0.00090928,-0.00070740,-0.00058523,-0.00011795,-0.24026714,-0.14664
 484,-0.06039288,-0.00108471,0.00162081,0.00257286,-0.00097404,0.002394
 52,0.00170066,0.24661212,0.00048649,-0.00023745,-0.00035033,-0.0000867
 3,-0.00000132,-0.00013170,-0.00004322,0.00005030,-0.00002957,-0.000004
 44,-0.00005456,-0.00003551,-0.00002353,0.00000009,0.00003288,-0.000007
 20,0.00002921,-0.00002164,0.00002371,0.00000594,-0.00000113,-0.0000075
 2,0.00000581,0.00001749,-0.00000276,0.00001465,0.00000266,0.00001270,-
 0.00000563,-0.00000425,-0.00000098,-0.00000521,0.00000991,0.00000563,-
 0.00001520,-0.00000878,0.00000052,-0.00001383,0.00000269,0.00008674,0.
 00001285,0.00002294,0.00000186,0.00000348,0.00000886,0.00000211,0.0000
 2737,0.00003747,-0.00000350,0.00000539,0.00000622,0.00000431,-0.000001
 79,-0.00000132,-0.00000120,-0.00001706,-0.00001962,0.00000788,-0.00002
 190,-0.00002132,-0.00000969,-0.00000107,-0.00000339,-0.00000838,-0.000
 00205,-0.00000372,0.00000069,0.00000525,0.00000322,-0.00001009,0.00000
 269,0.00000035,0.00089884,-0.00046055,0.00044379,-0.00272592,-0.000861
 68,0.00652769,-0.00131843,0.00307832,0.00399695,-0.02389348,-0.0105621
 8,-0.00977012,-0.00099962,-0.00074116,-0.00041302,0.00794825,0.0091490
 7,0.00435145,0.00032941,0.00017125,0.00010210,-0.14650612,-0.17383888,
 -0.03259772,0.00250157,-0.00063469,-0.00158647,0.00151832,-0.00067040,
 -0.00237147,0.16182377,0.17558495,0.00044705,-0.00037690,-0.00029540,-
 0.00001328,0.00007276,-0.00003282,-0.00002954,0.00004786,0.00000974,0.
 00001689,-0.00002939,0.00004106,0.00003989,-0.00002307,0.00000977,0.00
 000269,-0.00001937,0.00001042,-0.00000579,0.00000031,-0.00000883,0.000
 00605,0.00000209,-0.00000045,-0.00001122,0.00000980,-0.00000233,-0.000
 00773,-0.00000505,0.00000418,0.00000143,-0.00000150,0.00000085,-0.0000
 0026,-0.00000634,-0.00000229,-0.00000085,-0.00000144,0.00000077,0.0000
 8309,0.00001869,0.00006304,0.00002837,-0.00001804,0.00000274,-0.000003
 43,-0.00001782,0.00001370,0.00000460,0.00000365,0.00001198,0.00000319,
 0.00000468,-0.00000387,0.00000653,-0.00000365,0.00000198,-0.00000980,0
 .00002361,-0.00000708,-0.00000165,-0.00000122,-0.00000700,-0.00000228,
 -0.00000090,-0.00000357,0.00000358,0.00000079,-0.00000040,-0.00000351,
 0.00000196,0.00000081,0.00020586,0.00041142,-0.00116273,-0.00228182,0.
 00608878,0.00090186,-0.00551895,0.00442827,-0.00135678,0.01738825,0.01
 399142,0.00995513,0.00077675,0.00053414,0.00021335,-0.02294630,-0.0194
 8412,-0.00018201,-0.00103286,-0.00090046,-0.00033290,-0.06037873,-0.03
 262065,-0.07993374,0.00173828,-0.00246981,-0.00090175,0.00255266,-0.00
 146492,-0.00075348,0.06894284,0.03180440,0.07374604||-0.00000815,-0.00
 001867,-0.00000357,0.00000476,0.00000560,-0.00000047,-0.00000532,0.000
 00322,-0.00000586,-0.00000056,-0.00001475,0.00001510,0.00000288,0.0000
 0266,0.00000207,-0.00000356,0.00001555,0.00000464,0.00000207,-0.000000
 08,-0.00000387,-0.00000272,-0.00000554,-0.00000087,-0.00000087,-0.0000
 0132,0.00000064,0.00000211,0.00000008,-0.00001156,-0.00000056,-0.00000
 222,-0.00000308,0.00000111,0.00000083,0.00000173,0.00000002,0.00000161
 ,0.00000135,-0.00001085,-0.00000878,-0.00003101,0.00003031,-0.00000514
 ,0.00001090,-0.00002785,0.00002884,0.00002883,-0.00002391,0.00001512,0
 .00002703,-0.00000444,0.00000049,-0.00000002,0.00004348,-0.00000921,0.
 00000991,-0.00000465,-0.00000488,-0.00000158,-0.00001533,-0.00001354,-
 0.00003916,0.00000314,-0.00000245,-0.00000311,-0.00000314,0.00000029,-
 0.00000159,0.00000371,0.00000169,0.00000299,0.00000528,0.00003037,-0.0
 0003711,0.00004792,0.00001019,0.00003881,-0.00002535,-0.00003510,0.000
 00970,-0.00003361,-0.00004364,0.00001170,-0.00000165,0.00000679,-0.000
 00445,0.00003272,0.00001473,0.00002668,0.00000413,0.00000367,-0.000000
 01,-0.00001034,0.00002399,-0.00004313,0.00000224,0.00000357,-0.0000023
 1,-0.00000225,-0.00000121,-0.00000188,-0.00000077,-0.00000277,0.000002
 58|||@


 When I told the people of Northern Ireland that I was
 an atheist, a woman in the audience stood up and said,
 "Yes, but is it the God of the Catholics or the God
 of the Protestants in whom you don't believe?"
                               -- Quentin Crisp
 Job cpu time:  0 days  0 hours  6 minutes 23.0 seconds.
 File lengths (MBytes):  RWF=    350 Int=      0 D2E=      0 Chk=      7 Scr=      1
 Normal termination of Gaussian 09 at Mon Sep 06 16:50:24 2021.
