 Entering Link 1 = b:\programy\g09w\l1.exe PID=     10908.
  
 Copyright (c) 1988,1990,1992,1993,1995,1998,2003,2009, Gaussian, Inc.
                  All Rights Reserved.
  
 This is part of the Gaussian(R) 09 program.  It is based on
 the Gaussian(R) 03 system (copyright 2003, Gaussian, Inc.),
 the Gaussian(R) 98 system (copyright 1998, Gaussian, Inc.),
 the Gaussian(R) 94 system (copyright 1995, Gaussian, Inc.),
 the Gaussian 92(TM) system (copyright 1992, Gaussian, Inc.),
 the Gaussian 90(TM) system (copyright 1990, Gaussian, Inc.),
 the Gaussian 88(TM) system (copyright 1988, Gaussian, Inc.),
 the Gaussian 86(TM) system (copyright 1986, Carnegie Mellon
 University), and the Gaussian 82(TM) system (copyright 1983,
 Carnegie Mellon University). Gaussian is a federally registered
 trademark of Gaussian, Inc.
  
 This software contains proprietary and confidential information,
 including trade secrets, belonging to Gaussian, Inc.
  
 This software is provided under written license and may be
 used, copied, transmitted, or stored only in accord with that
 written license.
  
 The following legend is applicable only to US Government
 contracts under FAR:
  
                    RESTRICTED RIGHTS LEGEND
  
 Use, reproduction and disclosure by the US Government is
 subject to restrictions as set forth in subparagraphs (a)
 and (c) of the Commercial Computer Software - Restricted
 Rights clause in FAR 52.227-19.
  
 Gaussian, Inc.
 340 Quinnipiac St., Bldg. 40, Wallingford CT 06492
  
  
 ---------------------------------------------------------------
 Warning -- This program may not be used in any manner that
 competes with the business of Gaussian, Inc. or will provide
 assistance to any competitor of Gaussian, Inc.  The licensee
 of this program is prohibited from giving any competitor of
 Gaussian, Inc. access to this program.  By using this program,
 the user acknowledges that Gaussian, Inc. is engaged in the
 business of creating and licensing software in the field of
 computational chemistry and represents and warrants to the
 licensee that it is not a competitor of Gaussian, Inc. and that
 it will not use this program in any manner prohibited above.
 ---------------------------------------------------------------
  

 Cite this work as:
 Gaussian 09, Revision A.02,
 M. J. Frisch, G. W. Trucks, H. B. Schlegel, G. E. Scuseria, 
 M. A. Robb, J. R. Cheeseman, G. Scalmani, V. Barone, B. Mennucci, 
 G. A. Petersson, H. Nakatsuji, M. Caricato, X. Li, H. P. Hratchian, 
 A. F. Izmaylov, J. Bloino, G. Zheng, J. L. Sonnenberg, M. Hada, 
 M. Ehara, K. Toyota, R. Fukuda, J. Hasegawa, M. Ishida, T. Nakajima, 
 Y. Honda, O. Kitao, H. Nakai, T. Vreven, J. A. Montgomery, Jr., 
 J. E. Peralta, F. Ogliaro, M. Bearpark, J. J. Heyd, E. Brothers, 
 K. N. Kudin, V. N. Staroverov, R. Kobayashi, J. Normand, 
 K. Raghavachari, A. Rendell, J. C. Burant, S. S. Iyengar, J. Tomasi, 
 M. Cossi, N. Rega, J. M. Millam, M. Klene, J. E. Knox, J. B. Cross, 
 V. Bakken, C. Adamo, J. Jaramillo, R. Gomperts, R. E. Stratmann, 
 O. Yazyev, A. J. Austin, R. Cammi, C. Pomelli, J. W. Ochterski, 
 R. L. Martin, K. Morokuma, V. G. Zakrzewski, G. A. Voth, 
 P. Salvador, J. J. Dannenberg, S. Dapprich, A. D. Daniels, 
 O. Farkas, J. B. Foresman, J. V. Ortiz, J. Cioslowski, 
 and D. J. Fox, Gaussian, Inc., Wallingford CT, 2009.
 
 ******************************************
 Gaussian 09:  IA32W-G09RevA.02 11-Jun-2009
                07-Sep-2021 
 ******************************************
 %nprocshared=12
 Will use up to   12 processors via shared memory.
 ----------------------------------------------
 # opt freq=noraman hf/6-311g geom=connectivity
 ----------------------------------------------
 1/18=20,19=15,38=1,57=2/1,3;
 2/9=110,12=2,17=6,18=5,40=1/2;
 3/5=4,6=6,11=9,16=1,25=1,30=1,71=1/1,2,3;
 4//1;
 5/5=2,38=5/2;
 6/7=2,8=2,9=2,10=2,28=1/1;
 7//1,2,3,16;
 1/18=20,19=15/3(2);
 2/9=110/2;
 99//99;
 2/9=110/2;
 3/5=4,6=6,11=9,16=1,25=1,30=1,71=1/1,2,3;
 4/5=5,16=3/1;
 5/5=2,38=5/2;
 7//1,2,3,16;
 1/18=20,19=15/3(-5);
 2/9=110/2;
 6/7=2,8=2,9=2,10=2,19=2,28=1/1;
 99/9=1/99;
 -----
 M0001
 -----
 Symbolic Z-matrix:
 Charge =  0 Multiplicity = 1
 C                    -0.08751   0.77031  -0.04273 
 H                    -0.179     1.88567  -0.13665 
 C                     1.37707   0.41456  -0.13256 
 C                     2.33085   1.43401  -0.15957 
 C                     1.79861  -0.91531  -0.19254 
 C                     3.68386   1.12555  -0.24968 
 H                     2.01528   2.48268  -0.10883 
 C                     3.15083  -1.22089  -0.28524 
 H                     1.04569  -1.7171   -0.14742 
 C                     4.09596  -0.2007   -0.31524 
 H                     4.42557   1.93067  -0.26923 
 H                     3.47107  -2.26668  -0.33326 
 H                     5.16128  -0.44157  -0.38841 
 C                    -0.64348   0.38112   1.3042 
 C                    -0.66046  -0.94744   1.73535 
 C                    -1.14671   1.37545   2.14606 
 C                    -1.17229  -1.27593   2.98457 
 H                    -0.24921  -1.72868   1.07674 
 C                    -1.65843   1.04444   3.39603 
 H                    -1.13958   2.42318   1.823 
 C                    -1.67317  -0.28045   3.81717 
 H                    -1.17906  -2.32031   3.31287 
 H                    -2.04997   1.8309    4.04945 
 H                    -2.07618  -0.53945   4.80145 
 C                    -0.86379   0.22111  -1.21408 
 C                    -2.09373  -0.41793  -1.06021 
 C                    -0.35713   0.41474  -2.50366 
 C                    -2.80193  -0.85967  -2.17331 
 H                    -2.50659  -0.57488  -0.05563 
 C                    -1.06492  -0.02814  -3.6132 
 H                     0.60959   0.91609  -2.63322 
 C                    -2.29051  -0.66687  -3.45068 
 H                    -3.76632  -1.36037  -2.03873 
 H                    -0.65689   0.12675  -4.61725 
 H                    -2.84876  -1.01486  -4.32556 
 

 GradGradGradGradGradGradGradGradGradGradGradGradGradGradGradGradGradGrad
 Berny optimization.
 Initialization pass.
                           ----------------------------
                           !    Initial Parameters    !
                           ! (Angstroms and Degrees)  !
 --------------------------                            --------------------------
 ! Name  Definition              Value          Derivative Info.                !
 --------------------------------------------------------------------------------
 ! R1    R(1,2)                  1.123          estimate D2E/DX2                !
 ! R2    R(1,3)                  1.5098         estimate D2E/DX2                !
 ! R3    R(1,14)                 1.5082         estimate D2E/DX2                !
 ! R4    R(1,25)                 1.5087         estimate D2E/DX2                !
 ! R5    R(3,4)                  1.3963         estimate D2E/DX2                !
 ! R6    R(3,5)                  1.3964         estimate D2E/DX2                !
 ! R7    R(4,6)                  1.3907         estimate D2E/DX2                !
 ! R8    R(4,7)                  1.0963         estimate D2E/DX2                !
 ! R9    R(5,8)                  1.3894         estimate D2E/DX2                !
 ! R10   R(5,9)                  1.1008         estimate D2E/DX2                !
 ! R11   R(6,10)                 1.3903         estimate D2E/DX2                !
 ! R12   R(6,11)                 1.0949         estimate D2E/DX2                !
 ! R13   R(8,10)                 1.391          estimate D2E/DX2                !
 ! R14   R(8,12)                 1.0948         estimate D2E/DX2                !
 ! R15   R(10,13)                1.0947         estimate D2E/DX2                !
 ! R16   R(14,15)                1.3969         estimate D2E/DX2                !
 ! R17   R(14,16)                1.3967         estimate D2E/DX2                !
 ! R18   R(15,17)                1.3894         estimate D2E/DX2                !
 ! R19   R(15,18)                1.1015         estimate D2E/DX2                !
 ! R20   R(16,19)                1.3906         estimate D2E/DX2                !
 ! R21   R(16,20)                1.0964         estimate D2E/DX2                !
 ! R22   R(17,21)                1.3911         estimate D2E/DX2                !
 ! R23   R(17,22)                1.0948         estimate D2E/DX2                !
 ! R24   R(19,21)                1.3903         estimate D2E/DX2                !
 ! R25   R(19,23)                1.0949         estimate D2E/DX2                !
 ! R26   R(21,24)                1.0947         estimate D2E/DX2                !
 ! R27   R(25,26)                1.3946         estimate D2E/DX2                !
 ! R28   R(25,27)                1.399          estimate D2E/DX2                !
 ! R29   R(26,28)                1.3913         estimate D2E/DX2                !
 ! R30   R(26,29)                1.0974         estimate D2E/DX2                !
 ! R31   R(27,30)                1.3886         estimate D2E/DX2                !
 ! R32   R(27,31)                1.0967         estimate D2E/DX2                !
 ! R33   R(28,32)                1.3894         estimate D2E/DX2                !
 ! R34   R(28,33)                1.0949         estimate D2E/DX2                !
 ! R35   R(30,32)                1.3916         estimate D2E/DX2                !
 ! R36   R(30,34)                1.0948         estimate D2E/DX2                !
 ! R37   R(32,35)                1.0946         estimate D2E/DX2                !
 ! A1    A(2,1,3)              107.9423         estimate D2E/DX2                !
 ! A2    A(2,1,14)             107.5135         estimate D2E/DX2                !
 ! A3    A(2,1,25)             104.7546         estimate D2E/DX2                !
 ! A4    A(3,1,14)             110.4816         estimate D2E/DX2                !
 ! A5    A(3,1,25)             111.539          estimate D2E/DX2                !
 ! A6    A(14,1,25)            114.1888         estimate D2E/DX2                !
 ! A7    A(1,3,4)              119.4532         estimate D2E/DX2                !
 ! A8    A(1,3,5)              121.3182         estimate D2E/DX2                !
 ! A9    A(4,3,5)              119.2285         estimate D2E/DX2                !
 ! A10   A(3,4,6)              120.2577         estimate D2E/DX2                !
 ! A11   A(3,4,7)              120.0575         estimate D2E/DX2                !
 ! A12   A(6,4,7)              119.6848         estimate D2E/DX2                !
 ! A13   A(3,5,8)              120.4062         estimate D2E/DX2                !
 ! A14   A(3,5,9)              119.0407         estimate D2E/DX2                !
 ! A15   A(8,5,9)              120.5444         estimate D2E/DX2                !
 ! A16   A(4,6,10)             120.1995         estimate D2E/DX2                !
 ! A17   A(4,6,11)             119.812          estimate D2E/DX2                !
 ! A18   A(10,6,11)            119.9885         estimate D2E/DX2                !
 ! A19   A(5,8,10)             120.0924         estimate D2E/DX2                !
 ! A20   A(5,8,12)             119.8479         estimate D2E/DX2                !
 ! A21   A(10,8,12)            120.0597         estimate D2E/DX2                !
 ! A22   A(6,10,8)             119.8148         estimate D2E/DX2                !
 ! A23   A(6,10,13)            120.0992         estimate D2E/DX2                !
 ! A24   A(8,10,13)            120.0859         estimate D2E/DX2                !
 ! A25   A(1,14,15)            121.7048         estimate D2E/DX2                !
 ! A26   A(1,14,16)            119.1702         estimate D2E/DX2                !
 ! A27   A(15,14,16)           119.1238         estimate D2E/DX2                !
 ! A28   A(14,15,17)           120.4544         estimate D2E/DX2                !
 ! A29   A(14,15,18)           119.045          estimate D2E/DX2                !
 ! A30   A(17,15,18)           120.4949         estimate D2E/DX2                !
 ! A31   A(14,16,19)           120.3259         estimate D2E/DX2                !
 ! A32   A(14,16,20)           120.0246         estimate D2E/DX2                !
 ! A33   A(19,16,20)           119.6495         estimate D2E/DX2                !
 ! A34   A(15,17,21)           120.1058         estimate D2E/DX2                !
 ! A35   A(15,17,22)           119.8307         estimate D2E/DX2                !
 ! A36   A(21,17,22)           120.0634         estimate D2E/DX2                !
 ! A37   A(16,19,21)           120.1995         estimate D2E/DX2                !
 ! A38   A(16,19,23)           119.8044         estimate D2E/DX2                !
 ! A39   A(21,19,23)           119.996          estimate D2E/DX2                !
 ! A40   A(17,21,19)           119.7905         estimate D2E/DX2                !
 ! A41   A(17,21,24)           120.0937         estimate D2E/DX2                !
 ! A42   A(19,21,24)           120.1157         estimate D2E/DX2                !
 ! A43   A(1,25,26)            122.3393         estimate D2E/DX2                !
 ! A44   A(1,25,27)            118.6157         estimate D2E/DX2                !
 ! A45   A(26,25,27)           118.9817         estimate D2E/DX2                !
 ! A46   A(25,26,28)           120.4083         estimate D2E/DX2                !
 ! A47   A(25,26,29)           119.8907         estimate D2E/DX2                !
 ! A48   A(28,26,29)           119.701          estimate D2E/DX2                !
 ! A49   A(25,27,30)           120.5176         estimate D2E/DX2                !
 ! A50   A(25,27,31)           119.4335         estimate D2E/DX2                !
 ! A51   A(30,27,31)           120.0481         estimate D2E/DX2                !
 ! A52   A(26,28,32)           120.2729         estimate D2E/DX2                !
 ! A53   A(26,28,33)           119.6827         estimate D2E/DX2                !
 ! A54   A(32,28,33)           120.0444         estimate D2E/DX2                !
 ! A55   A(27,30,32)           120.1321         estimate D2E/DX2                !
 ! A56   A(27,30,34)           119.8486         estimate D2E/DX2                !
 ! A57   A(32,30,34)           120.0193         estimate D2E/DX2                !
 ! A58   A(28,32,30)           119.6868         estimate D2E/DX2                !
 ! A59   A(28,32,35)           120.1972         estimate D2E/DX2                !
 ! A60   A(30,32,35)           120.116          estimate D2E/DX2                !
 ! D1    D(2,1,3,4)              6.817          estimate D2E/DX2                !
 ! D2    D(2,1,3,5)           -173.0288         estimate D2E/DX2                !
 ! D3    D(14,1,3,4)          -110.4803         estimate D2E/DX2                !
 ! D4    D(14,1,3,5)            69.6739         estimate D2E/DX2                !
 ! D5    D(25,1,3,4)           121.3743         estimate D2E/DX2                !
 ! D6    D(25,1,3,5)           -58.4715         estimate D2E/DX2                !
 ! D7    D(2,1,14,15)         -179.2616         estimate D2E/DX2                !
 ! D8    D(2,1,14,16)            0.324          estimate D2E/DX2                !
 ! D9    D(3,1,14,15)          -61.7002         estimate D2E/DX2                !
 ! D10   D(3,1,14,16)          117.8854         estimate D2E/DX2                !
 ! D11   D(25,1,14,15)          64.9844         estimate D2E/DX2                !
 ! D12   D(25,1,14,16)        -115.43           estimate D2E/DX2                !
 ! D13   D(2,1,25,26)         -108.2778         estimate D2E/DX2                !
 ! D14   D(2,1,25,27)           68.7976         estimate D2E/DX2                !
 ! D15   D(3,1,25,26)          135.2074         estimate D2E/DX2                !
 ! D16   D(3,1,25,27)          -47.7172         estimate D2E/DX2                !
 ! D17   D(14,1,25,26)           9.0734         estimate D2E/DX2                !
 ! D18   D(14,1,25,27)        -173.8512         estimate D2E/DX2                !
 ! D19   D(1,3,4,6)           -179.6369         estimate D2E/DX2                !
 ! D20   D(1,3,4,7)              0.4162         estimate D2E/DX2                !
 ! D21   D(5,3,4,6)              0.2121         estimate D2E/DX2                !
 ! D22   D(5,3,4,7)           -179.7347         estimate D2E/DX2                !
 ! D23   D(1,3,5,8)            179.5044         estimate D2E/DX2                !
 ! D24   D(1,3,5,9)             -1.5637         estimate D2E/DX2                !
 ! D25   D(4,3,5,8)             -0.3418         estimate D2E/DX2                !
 ! D26   D(4,3,5,9)            178.5901         estimate D2E/DX2                !
 ! D27   D(3,4,6,10)             0.0828         estimate D2E/DX2                !
 ! D28   D(3,4,6,11)          -179.9352         estimate D2E/DX2                !
 ! D29   D(7,4,6,10)          -179.9702         estimate D2E/DX2                !
 ! D30   D(7,4,6,11)             0.0119         estimate D2E/DX2                !
 ! D31   D(3,5,8,10)             0.1765         estimate D2E/DX2                !
 ! D32   D(3,5,8,12)          -179.9058         estimate D2E/DX2                !
 ! D33   D(9,5,8,10)          -178.7392         estimate D2E/DX2                !
 ! D34   D(9,5,8,12)             1.1785         estimate D2E/DX2                !
 ! D35   D(4,6,10,8)            -0.2506         estimate D2E/DX2                !
 ! D36   D(4,6,10,13)          179.8626         estimate D2E/DX2                !
 ! D37   D(11,6,10,8)          179.7674         estimate D2E/DX2                !
 ! D38   D(11,6,10,13)          -0.1194         estimate D2E/DX2                !
 ! D39   D(5,8,10,6)             0.1213         estimate D2E/DX2                !
 ! D40   D(5,8,10,13)         -179.9919         estimate D2E/DX2                !
 ! D41   D(12,8,10,6)         -179.7962         estimate D2E/DX2                !
 ! D42   D(12,8,10,13)           0.0906         estimate D2E/DX2                !
 ! D43   D(1,14,15,17)         179.6473         estimate D2E/DX2                !
 ! D44   D(1,14,15,18)           0.5102         estimate D2E/DX2                !
 ! D45   D(16,14,15,17)          0.0614         estimate D2E/DX2                !
 ! D46   D(16,14,15,18)       -179.0756         estimate D2E/DX2                !
 ! D47   D(1,14,16,19)        -179.6525         estimate D2E/DX2                !
 ! D48   D(1,14,16,20)           0.3343         estimate D2E/DX2                !
 ! D49   D(15,14,16,19)         -0.056          estimate D2E/DX2                !
 ! D50   D(15,14,16,20)        179.9308         estimate D2E/DX2                !
 ! D51   D(14,15,17,21)          0.0075         estimate D2E/DX2                !
 ! D52   D(14,15,17,22)       -179.8989         estimate D2E/DX2                !
 ! D53   D(18,15,17,21)        179.132          estimate D2E/DX2                !
 ! D54   D(18,15,17,22)         -0.7745         estimate D2E/DX2                !
 ! D55   D(14,16,19,21)         -0.0183         estimate D2E/DX2                !
 ! D56   D(14,16,19,23)        179.9475         estimate D2E/DX2                !
 ! D57   D(20,16,19,21)        179.9949         estimate D2E/DX2                !
 ! D58   D(20,16,19,23)         -0.0394         estimate D2E/DX2                !
 ! D59   D(15,17,21,19)         -0.0824         estimate D2E/DX2                !
 ! D60   D(15,17,21,24)       -179.9868         estimate D2E/DX2                !
 ! D61   D(22,17,21,19)        179.8239         estimate D2E/DX2                !
 ! D62   D(22,17,21,24)         -0.0805         estimate D2E/DX2                !
 ! D63   D(16,19,21,17)          0.0878         estimate D2E/DX2                !
 ! D64   D(16,19,21,24)        179.9921         estimate D2E/DX2                !
 ! D65   D(23,19,21,17)       -179.8779         estimate D2E/DX2                !
 ! D66   D(23,19,21,24)          0.0265         estimate D2E/DX2                !
 ! D67   D(1,25,26,28)         177.2994         estimate D2E/DX2                !
 ! D68   D(1,25,26,29)          -2.7508         estimate D2E/DX2                !
 ! D69   D(27,25,26,28)          0.2343         estimate D2E/DX2                !
 ! D70   D(27,25,26,29)       -179.8159         estimate D2E/DX2                !
 ! D71   D(1,25,27,30)        -177.4763         estimate D2E/DX2                !
 ! D72   D(1,25,27,31)           2.8477         estimate D2E/DX2                !
 ! D73   D(26,25,27,30)         -0.3009         estimate D2E/DX2                !
 ! D74   D(26,25,27,31)       -179.9769         estimate D2E/DX2                !
 ! D75   D(25,26,28,32)         -0.0663         estimate D2E/DX2                !
 ! D76   D(25,26,28,33)        179.9735         estimate D2E/DX2                !
 ! D77   D(29,26,28,32)        179.9837         estimate D2E/DX2                !
 ! D78   D(29,26,28,33)          0.0235         estimate D2E/DX2                !
 ! D79   D(25,27,30,32)          0.1991         estimate D2E/DX2                !
 ! D80   D(25,27,30,34)       -179.8356         estimate D2E/DX2                !
 ! D81   D(31,27,30,32)        179.8731         estimate D2E/DX2                !
 ! D82   D(31,27,30,34)         -0.1617         estimate D2E/DX2                !
 ! D83   D(26,28,32,30)         -0.0394         estimate D2E/DX2                !
 ! D84   D(26,28,32,35)       -179.9969         estimate D2E/DX2                !
 ! D85   D(33,28,32,30)        179.9207         estimate D2E/DX2                !
 ! D86   D(33,28,32,35)         -0.0368         estimate D2E/DX2                !
 ! D87   D(27,30,32,28)         -0.0269         estimate D2E/DX2                !
 ! D88   D(27,30,32,35)        179.9307         estimate D2E/DX2                !
 ! D89   D(34,30,32,28)       -179.9921         estimate D2E/DX2                !
 ! D90   D(34,30,32,35)         -0.0345         estimate D2E/DX2                !
 --------------------------------------------------------------------------------
 Trust Radius=3.00D-01 FncErr=1.00D-07 GrdErr=1.00D-07
 Number of steps in this run= 197 maximum allowed number of steps= 210.
 GradGradGradGradGradGradGradGradGradGradGradGradGradGradGradGradGradGrad

                          Input orientation:                          
 ---------------------------------------------------------------------
 Center     Atomic      Atomic             Coordinates (Angstroms)
 Number     Number       Type             X           Y           Z
 ---------------------------------------------------------------------
      1          6           0       -0.087513    0.770309   -0.042730
      2          1           0       -0.179005    1.885675   -0.136650
      3          6           0        1.377068    0.414559   -0.132565
      4          6           0        2.330845    1.434011   -0.159567
      5          6           0        1.798611   -0.915313   -0.192543
      6          6           0        3.683863    1.125552   -0.249677
      7          1           0        2.015278    2.482683   -0.108832
      8          6           0        3.150833   -1.220891   -0.285235
      9          1           0        1.045686   -1.717101   -0.147420
     10          6           0        4.095956   -0.200701   -0.315244
     11          1           0        4.425566    1.930668   -0.269234
     12          1           0        3.471068   -2.266679   -0.333257
     13          1           0        5.161282   -0.441570   -0.388407
     14          6           0       -0.643485    0.381120    1.304203
     15          6           0       -0.660457   -0.947436    1.735350
     16          6           0       -1.146713    1.375451    2.146056
     17          6           0       -1.172288   -1.275926    2.984572
     18          1           0       -0.249214   -1.728678    1.076740
     19          6           0       -1.658426    1.044440    3.396031
     20          1           0       -1.139577    2.423177    1.823003
     21          6           0       -1.673172   -0.280450    3.817174
     22          1           0       -1.179062   -2.320313    3.312871
     23          1           0       -2.049969    1.830899    4.049450
     24          1           0       -2.076185   -0.539454    4.801450
     25          6           0       -0.863792    0.221107   -1.214077
     26          6           0       -2.093734   -0.417933   -1.060213
     27          6           0       -0.357132    0.414737   -2.503664
     28          6           0       -2.801933   -0.859666   -2.173311
     29          1           0       -2.506595   -0.574882   -0.055631
     30          6           0       -1.064920   -0.028136   -3.613200
     31          1           0        0.609588    0.916088   -2.633222
     32          6           0       -2.290506   -0.666866   -3.450679
     33          1           0       -3.766318   -1.360373   -2.038732
     34          1           0       -0.656887    0.126753   -4.617251
     35          1           0       -2.848760   -1.014860   -4.325560
 ---------------------------------------------------------------------
                    Distance matrix (angstroms):
                    1          2          3          4          5
     1  C    0.000000
     2  H    1.123046   0.000000
     3  C    1.509843   2.141392   0.000000
     4  C    2.510499   2.550269   1.396318   0.000000
     5  C    2.534014   3.429230   1.396372   2.409084   0.000000
     6  C    3.793718   3.938566   2.416719   1.390656   2.778951
     7  H    2.712622   2.274218   2.164489   1.096298   3.405926
     8  C    3.809274   4.556385   2.417487   2.781488   1.389415
     9  H    2.735381   3.805257   2.157315   3.403130   1.100816
    10  C    4.303317   4.760267   2.793612   2.410837   2.409050
    11  H    4.665364   4.606699   3.407434   2.155586   3.873808
    12  H    4.687344   5.532063   3.407953   3.876259   2.154786
    13  H    5.397961   5.830790   3.888275   3.403167   3.401522
    14  C    1.508244   2.134358   2.479527   3.478195   3.144013
    15  C    2.537811   3.429679   3.081500   4.267305   3.124871
    16  C    2.505771   2.531311   3.533398   4.172857   4.403587
    17  C    3.811611   4.552402   4.367322   5.431512   4.364670
    18  H    2.743045   3.813239   2.949690   4.264711   2.542878
    19  C    3.790514   3.921250   4.697017   5.358015   5.354400
    20  H    2.705508   2.247632   3.767267   4.117386   4.882714
    21  C    4.303169   4.749458   5.038595   5.897966   5.341737
    22  H    4.690787   5.530791   5.087667   6.202598   4.809209
    23  H    4.660689   4.585515   5.589262   6.088093   6.351988
    24  H    5.397812   5.819397   6.097507   6.923017   6.332083
    25  C    1.508737   2.097753   2.495705   3.576148   3.069750
    26  C    2.544035   3.134607   3.687823   4.880344   4.018779
    27  C    2.501064   2.792515   2.937611   3.709303   3.428926
    28  C    3.816317   4.308670   4.822069   5.971728   5.009146
    29  H    2.767971   3.388005   4.008460   5.239015   4.320814
    30  C    3.786964   4.066192   4.274822   5.059315   4.548382
    31  H    2.686605   2.791925   2.663427   3.057767   3.274861
    32  C    4.304970   4.685796   5.062653   6.049958   5.234315
    33  H    4.696535   5.198419   5.765264   6.965288   5.880044
    34  H    4.654524   4.837144   4.932770   5.523261   5.166567
    35  H    5.399439   5.752187   6.122259   7.083838   6.220111
                    6          7          8          9         10
     6  C    0.000000
     7  H    2.155416   0.000000
     8  C    2.406487   3.877765   0.000000
     9  H    3.879576   4.310428   2.167225   0.000000
    10  C    1.390348   3.401820   1.391023   3.410540   0.000000
    11  H    1.094860   2.477891   3.399635   4.974400   2.157196
    12  H    3.399926   4.972538   1.094774   2.493802   2.158489
    13  H    2.158213   4.304272   2.158677   4.315459   1.094664
    14  C    4.657752   3.671818   4.414703   3.059908   5.042164
    15  C    5.206796   4.725069   4.322439   2.654831   5.233165
    16  C    5.397819   4.038399   5.578626   4.430635   6.002319
    17  C    6.309490   5.818666   5.420706   3.863084   6.308668
    18  H    5.037370   4.926364   3.697721   1.781984   4.811739
    19  C    6.468215   5.277187   6.466252   5.243508   6.959659
    20  H    5.407902   3.699816   6.010950   5.079355   6.234392
    21  C    6.871240   6.054179   6.401969   5.017385   7.096906
    22  H    6.943614   6.706760   5.736122   4.157762   6.744019
    23  H    7.201168   5.851697   7.426389   6.307543   7.807070
    24  H    7.839915   7.069954   7.325328   5.968604   8.024377
    25  C    4.735953   3.824308   4.365698   2.922416   5.058153
    26  C    6.034893   5.118855   5.361979   3.518094   6.238143
    27  C    4.681383   3.954737   4.461224   3.473401   4.999793
    28  C    7.050320   6.216019   6.255457   4.432111   7.174087
    29  H    6.422686   5.458834   5.698819   3.732531   6.618239
    30  C    5.932556   5.298342   5.501871   4.395326   6.127065
    31  H    3.895681   3.286750   4.066651   3.647339   4.333013
    32  C    7.010867   6.295028   6.319427   4.810893   7.129878
    33  H    8.055168   7.205584   7.137310   5.182634   8.132072
    34  H    6.238222   5.746018   5.922942   5.126202   6.419035
    35  H    7.991830   7.326149   7.236144   5.754711   8.060680
                   11         12         13         14         15
    11  H    0.000000
    12  H    4.304984   0.000000
    13  H    2.486562   2.488149   0.000000
    14  C    5.529202   5.159618   6.102218   0.000000
    15  C    6.178145   4.805105   6.217627   1.396867   0.000000
    16  C    6.098540   6.382477   7.036751   1.396657   2.408512
    17  C    7.225336   5.792265   7.224074   2.418487   1.389401
    18  H    6.087366   4.014727   5.751240   2.158341   1.101466
    19  C    7.157830   7.154216   7.939686   2.417818   2.778736
    20  H    5.965806   6.921146   7.266219   2.164546   3.405624
    21  C    7.666967   6.901767   8.026371   2.795166   2.409243
    22  H    7.893933   5.909386   7.578199   3.408715   2.154603
    23  H    7.784185   8.153533   8.767030   3.408290   3.873622
    24  H    8.607328   7.753743   8.906465   3.889836   3.401721
    25  C    5.638496   5.075029   6.117383   2.532957   3.178987
    26  C    6.974442   5.908751   7.286091   2.886550   3.185880
    27  C    5.492260   5.153228   5.971638   3.818766   4.462819
    28  C    7.977984   6.687004   8.171504   4.276863   4.457719
    29  H    7.374162   6.218658   7.676252   2.496852   2.598968
    30  C    6.720451   6.028622   7.023944   4.952368   5.442030
    31  H    4.602120   4.858797   5.253603   4.166496   4.916315
    32  C    7.872382   6.743401   8.059616   5.140025   5.443407
    33  H    9.003835   7.490646   9.125229   4.894905   4.905159
    34  H    6.927532   6.412576   7.215068   5.926930   6.442782
    35  H    8.834350   7.579297   8.943746   6.205338   6.444210
                   16         17         18         19         20
    16  C    0.000000
    17  C    2.780929   0.000000
    18  H    3.403610   2.167228   0.000000
    19  C    1.390632   2.406185   3.880100   0.000000
    20  H    1.096423   3.877329   4.311329   2.155119   0.000000
    21  C    2.410768   1.391073   3.411011   1.390292   3.401623
    22  H    3.875716   1.094792   2.492977   3.399745   4.972119
    23  H    2.155507   3.399507   4.974968   1.094888   2.477231
    24  H    3.403219   2.158811   4.315732   2.158343   4.304133
    25  C    3.564134   4.468214   3.070376   4.749992   3.761520
    26  C    3.793842   4.236213   3.112374   4.710217   4.158756
    27  C    4.813139   5.800306   4.174345   6.074232   4.833849
    28  C    5.137358   5.425199   4.223078   5.995899   5.432405
    29  H    3.240449   3.393328   2.776559   3.905838   3.792936
    30  C    5.928388   6.715587   5.054973   7.115616   5.963792
    31  H    5.112446   6.288054   4.636393   6.443000   5.018848
    32  C    6.066529   6.560017   5.078567   7.085587   6.219705
    33  H    5.644424   5.654176   4.712943   6.305790   6.010659
    34  H    6.895035   7.747314   6.002529   8.127603   6.854446
    35  H    7.105798   7.504448   6.037550   8.079640   7.248878
                   21         22         23         24         25
    21  C    0.000000
    22  H    2.158589   0.000000
    23  H    2.157248   4.305065   0.000000
    24  H    1.094670   2.488404   2.486918   0.000000
    25  C    5.120561   5.201103   5.630556   6.183439   0.000000
    26  C    4.897415   4.855877   5.582814   5.862949   1.394562
    27  C    6.493707   6.479826   6.914804   7.565071   1.399010
    28  C    6.123357   5.904693   6.821096   7.019725   2.417560
    29  H    3.972392   4.019413   4.779956   4.876243   2.162035
    30  C    7.459496   7.296408   7.946228   8.490609   2.420406
    31  H    6.946243   7.002113   7.250394   8.037805   2.160513
    32  C    7.304252   7.050873   7.908769   8.255895   2.797570
    33  H    6.311824   6.021215   7.084916   7.093557   3.406728
    34  H    8.505185   8.315506   8.941840   9.548307   3.410763
    35  H    8.259871   7.927025   8.881283   9.171978   3.892176
                   26         27         28         29         30
    26  C    0.000000
    27  C    2.406797   0.000000
    28  C    1.391281   2.776741   0.000000
    29  H    1.097393   3.404761   2.157057   0.000000
    30  C    2.779954   1.388586   2.404566   3.877326   0.000000
    31  H    3.400281   1.096670   3.873409   4.310169   2.157751
    32  C    2.411434   2.409282   1.389388   3.403161   1.391564
    33  H    2.154816   3.871657   1.094923   2.477213   3.398729
    34  H    3.874755   2.154075   3.398100   4.972131   1.094806
    35  H    3.404244   3.401656   2.158344   4.306152   2.159436
                   31         32         33         34         35
    31  H    0.000000
    32  C    3.403604   0.000000
    33  H    4.968324   2.156981   0.000000
    34  H    2.482616   2.158572   4.304517   0.000000
    35  H    4.307288   1.094606   2.488147   2.488507   0.000000
 Stoichiometry    C19H16
 Framework group  C1[X(C19H16)]
 Deg. of freedom    99
 Full point group                 C1      NOp   1
 Largest Abelian subgroup         C1      NOp   1
 Largest concise Abelian subgroup C1      NOp   1
                         Standard orientation:                         
 ---------------------------------------------------------------------
 Center     Atomic      Atomic             Coordinates (Angstroms)
 Number     Number       Type             X           Y           Z
 ---------------------------------------------------------------------
      1          6           0        0.010240    0.013060   -0.761868
      2          1           0       -0.018001    0.017780   -1.884548
      3          6           0       -0.760658   -1.193312   -0.282276
      4          6           0       -1.221757   -2.127552   -1.211947
      5          6           0       -1.025540   -1.393230    1.074089
      6          6           0       -1.940004   -3.240874   -0.789386
      7          1           0       -1.017757   -1.986299   -2.279796
      8          6           0       -1.745663   -2.504960    1.493559
      9          1           0       -0.640495   -0.667142    1.806435
     10          6           0       -2.205344   -3.430276    0.562201
     11          1           0       -2.297174   -3.969378   -1.524526
     12          1           0       -1.949430   -2.651884    2.559121
     13          1           0       -2.772803   -4.306056    0.892790
     14          6           0        1.456326   -0.084644   -0.344629
     15          6           0        1.830970   -0.128427    1.000348
     16          6           0        2.446279   -0.141416   -1.328204
     17          6           0        3.170705   -0.225864    1.355383
     18          1           0        1.048219   -0.099070    1.774729
     19          6           0        3.786597   -0.239038   -0.970607
     20          1           0        2.168733   -0.109302   -2.388431
     21          6           0        4.151401   -0.280506    0.370328
     22          1           0        3.452748   -0.261098    2.412634
     23          1           0        4.555567   -0.283837   -1.748718
     24          1           0        5.206867   -0.357491    0.650270
     25          6           0       -0.664976    1.299495   -0.355104
     26          6           0        0.041809    2.376445    0.179159
     27          6           0       -2.039329    1.434721   -0.578926
     28          6           0       -0.612832    3.564438    0.488643
     29          1           0        1.120897    2.287722    0.357963
     30          6           0       -2.691032    2.620814   -0.268061
     31          1           0       -2.602475    0.592369   -0.998443
     32          6           0       -1.978647    3.689871    0.266800
     33          1           0       -0.046343    4.402330    0.908028
     34          1           0       -3.767404    2.713752   -0.445218
     35          1           0       -2.492435    4.625125    0.510698
 ---------------------------------------------------------------------
 Rotational constants (GHZ):      0.4038254      0.3824119      0.2325873
 Standard basis: 6-311G (5D, 7F)
 There are   295 symmetry adapted basis functions of A   symmetry.
 Integral buffers will be    262144 words long.
 Raffenetti 1 integral format.
 Two-electron integral symmetry is turned on.
   295 basis functions,   574 primitive gaussians,   295 cartesian basis functions
    65 alpha electrons       65 beta electrons
       nuclear repulsion energy      1290.7713392435 Hartrees.
 NAtoms=   35 NActive=   35 NUniq=   35 SFac= 7.50D-01 NAtFMM=   80 NAOKFM=F Big=F
 One-electron integrals computed using PRISM.
 PrsmSu:  requested number of processors reduced to:  10 ShMem   1 Linda.
 NBasis=   295 RedAO= T  NBF=   295
 NBsUse=   295 1.00D-06 NBFU=   295
 Harris functional with IExCor=  205 diagonalized for initial guess.
 ExpMin= 1.03D-01 ExpMax= 4.56D+03 ExpMxC= 6.82D+02 IAcc=1 IRadAn=         1 AccDes= 0.00D+00
 HarFok:  IExCor=  205 AccDes= 0.00D+00 IRadAn=         1 IDoV= 1
 ScaDFX=  1.000000  1.000000  1.000000  1.000000
 FoFCou: FMM=F IPFlag=           0 FMFlag=      100000 FMFlg1=           0
         NFxFlg=           0 DoJE=T BraDBF=F KetDBF=T FulRan=T
         Omega=  0.000000  0.000000  1.000000  0.000000  0.000000 ICntrl=     500 IOpCl=  0
         NMat0=    1 NMatS0=    1 NMatT0=    0 NMatD0=    1 NMtDS0=    0 NMtDT0=    0
         I1Cent=           4 NGrid=           0.
 Petite list used in FoFCou.
 Initial guess orbital symmetries:
       Occupied  (A) (A) (A) (A) (A) (A) (A) (A) (A) (A) (A) (A)
                 (A) (A) (A) (A) (A) (A) (A) (A) (A) (A) (A) (A)
                 (A) (A) (A) (A) (A) (A) (A) (A) (A) (A) (A) (A)
                 (A) (A) (A) (A) (A) (A) (A) (A) (A) (A) (A) (A)
                 (A) (A) (A) (A) (A) (A) (A) (A) (A) (A) (A) (A)
                 (A) (A) (A) (A) (A)
       Virtual   (A) (A) (A) (A) (A) (A) (A) (A) (A) (A) (A) (A)
                 (A) (A) (A) (A) (A) (A) (A) (A) (A) (A) (A) (A)
                 (A) (A) (A) (A) (A) (A) (A) (A) (A) (A) (A) (A)
                 (A) (A) (A) (A) (A) (A) (A) (A) (A) (A) (A) (A)
                 (A) (A) (A) (A) (A) (A) (A) (A) (A) (A) (A) (A)
                 (A) (A) (A) (A) (A) (A) (A) (A) (A) (A) (A) (A)
                 (A) (A) (A) (A) (A) (A) (A) (A) (A) (A) (A) (A)
                 (A) (A) (A) (A) (A) (A) (A) (A) (A) (A) (A) (A)
                 (A) (A) (A) (A) (A) (A) (A) (A) (A) (A) (A) (A)
                 (A) (A) (A) (A) (A) (A) (A) (A) (A) (A) (A) (A)
                 (A) (A) (A) (A) (A) (A) (A) (A) (A) (A) (A) (A)
                 (A) (A) (A) (A) (A) (A) (A) (A) (A) (A) (A) (A)
                 (A) (A) (A) (A) (A) (A) (A) (A) (A) (A) (A) (A)
                 (A) (A) (A) (A) (A) (A) (A) (A) (A) (A) (A) (A)
                 (A) (A) (A) (A) (A) (A) (A) (A) (A) (A) (A) (A)
                 (A) (A) (A) (A) (A) (A) (A) (A) (A) (A) (A) (A)
                 (A) (A) (A) (A) (A) (A) (A) (A) (A) (A) (A) (A)
                 (A) (A) (A) (A) (A) (A) (A) (A) (A) (A) (A) (A)
                 (A) (A) (A) (A) (A) (A) (A) (A) (A) (A) (A) (A)
                 (A) (A)
 The electronic state of the initial guess is 1-A.
 Requested convergence on RMS density matrix=1.00D-08 within 128 cycles.
 Requested convergence on MAX density matrix=1.00D-06.
 Requested convergence on             energy=1.00D-06.
 No special actions if energy rises.
 Integral accuracy reduced to 1.0D-05 until final iterations.
 Initial convergence to 1.0D-05 achieved.  Increase integral accuracy.
 SCF Done:  E(RHF) =  -728.672436906     A.U. after   14 cycles
             Convg  =    0.8790D-08             -V/T =  2.0001

 **********************************************************************

            Population analysis using the SCF density.

 **********************************************************************

 Orbital symmetries:
       Occupied  (A) (A) (A) (A) (A) (A) (A) (A) (A) (A) (A) (A)
                 (A) (A) (A) (A) (A) (A) (A) (A) (A) (A) (A) (A)
                 (A) (A) (A) (A) (A) (A) (A) (A) (A) (A) (A) (A)
                 (A) (A) (A) (A) (A) (A) (A) (A) (A) (A) (A) (A)
                 (A) (A) (A) (A) (A) (A) (A) (A) (A) (A) (A) (A)
                 (A) (A) (A) (A) (A)
       Virtual   (A) (A) (A) (A) (A) (A) (A) (A) (A) (A) (A) (A)
                 (A) (A) (A) (A) (A) (A) (A) (A) (A) (A) (A) (A)
                 (A) (A) (A) (A) (A) (A) (A) (A) (A) (A) (A) (A)
                 (A) (A) (A) (A) (A) (A) (A) (A) (A) (A) (A) (A)
                 (A) (A) (A) (A) (A) (A) (A) (A) (A) (A) (A) (A)
                 (A) (A) (A) (A) (A) (A) (A) (A) (A) (A) (A) (A)
                 (A) (A) (A) (A) (A) (A) (A) (A) (A) (A) (A) (A)
                 (A) (A) (A) (A) (A) (A) (A) (A) (A) (A) (A) (A)
                 (A) (A) (A) (A) (A) (A) (A) (A) (A) (A) (A) (A)
                 (A) (A) (A) (A) (A) (A) (A) (A) (A) (A) (A) (A)
                 (A) (A) (A) (A) (A) (A) (A) (A) (A) (A) (A) (A)
                 (A) (A) (A) (A) (A) (A) (A) (A) (A) (A) (A) (A)
                 (A) (A) (A) (A) (A) (A) (A) (A) (A) (A) (A) (A)
                 (A) (A) (A) (A) (A) (A) (A) (A) (A) (A) (A) (A)
                 (A) (A) (A) (A) (A) (A) (A) (A) (A) (A) (A) (A)
                 (A) (A) (A) (A) (A) (A) (A) (A) (A) (A) (A) (A)
                 (A) (A) (A) (A) (A) (A) (A) (A) (A) (A) (A) (A)
                 (A) (A) (A) (A) (A) (A) (A) (A) (A) (A) (A) (A)
                 (A) (A) (A) (A) (A) (A) (A) (A) (A) (A) (A) (A)
                 (A) (A)
 The electronic state is 1-A.
 Alpha  occ. eigenvalues --  -11.25758 -11.25228 -11.25184 -11.24914 -11.24520
 Alpha  occ. eigenvalues --  -11.24433 -11.24422 -11.24374 -11.24219 -11.24166
 Alpha  occ. eigenvalues --  -11.24139 -11.24123 -11.24077 -11.24037 -11.24029
 Alpha  occ. eigenvalues --  -11.23969 -11.23732 -11.23627 -11.23503  -1.18618
 Alpha  occ. eigenvalues --   -1.15873  -1.15569  -1.09028  -1.02375  -1.02240
 Alpha  occ. eigenvalues --   -1.01877  -1.01486  -1.01082  -0.92919  -0.84277
 Alpha  occ. eigenvalues --   -0.83366  -0.82324  -0.81924  -0.81126  -0.77583
 Alpha  occ. eigenvalues --   -0.70871  -0.70365  -0.68983  -0.65676  -0.63903
 Alpha  occ. eigenvalues --   -0.63616  -0.62516  -0.61700  -0.61574  -0.59724
 Alpha  occ. eigenvalues --   -0.58848  -0.58492  -0.58314  -0.56747  -0.55104
 Alpha  occ. eigenvalues --   -0.51723  -0.50910  -0.50215  -0.49866  -0.49378
 Alpha  occ. eigenvalues --   -0.48417  -0.47961  -0.47500  -0.46314  -0.35027
 Alpha  occ. eigenvalues --   -0.34319  -0.33970  -0.33323  -0.32515  -0.31473
 Alpha virt. eigenvalues --    0.11546   0.12296   0.12724   0.13492   0.15001
 Alpha virt. eigenvalues --    0.15136   0.15660   0.16238   0.16485   0.16915
 Alpha virt. eigenvalues --    0.18904   0.19187   0.19234   0.21232   0.21293
 Alpha virt. eigenvalues --    0.21595   0.23558   0.24016   0.24926   0.25398
 Alpha virt. eigenvalues --    0.26771   0.31538   0.33134   0.34232   0.35776
 Alpha virt. eigenvalues --    0.37598   0.39769   0.40571   0.41490   0.43088
 Alpha virt. eigenvalues --    0.44093   0.44429   0.44946   0.45438   0.45604
 Alpha virt. eigenvalues --    0.45872   0.46751   0.47242   0.47927   0.50604
 Alpha virt. eigenvalues --    0.51048   0.51413   0.52234   0.54972   0.56094
 Alpha virt. eigenvalues --    0.57306   0.57832   0.58516   0.58861   0.59347
 Alpha virt. eigenvalues --    0.60249   0.60459   0.60632   0.61136   0.61474
 Alpha virt. eigenvalues --    0.62037   0.62195   0.62959   0.63347   0.63662
 Alpha virt. eigenvalues --    0.64250   0.64584   0.65220   0.65938   0.66391
 Alpha virt. eigenvalues --    0.67243   0.67826   0.68584   0.69836   0.72355
 Alpha virt. eigenvalues --    0.73108   0.73899   0.74520   0.75330   0.75745
 Alpha virt. eigenvalues --    0.76807   0.78849   0.79418   0.79960   0.81245
 Alpha virt. eigenvalues --    0.81504   0.82224   0.82494   0.82898   0.83326
 Alpha virt. eigenvalues --    0.83836   0.84372   0.84858   0.84998   0.85475
 Alpha virt. eigenvalues --    0.85917   0.86195   0.86506   0.87777   0.88136
 Alpha virt. eigenvalues --    0.90193   0.90874   0.92132   0.93512   0.95063
 Alpha virt. eigenvalues --    0.95914   0.96335   0.97015   0.98247   0.99742
 Alpha virt. eigenvalues --    1.00095   1.02347   1.03057   1.04867   1.06222
 Alpha virt. eigenvalues --    1.07133   1.08104   1.09383   1.10097   1.10939
 Alpha virt. eigenvalues --    1.11545   1.11724   1.12397   1.12799   1.13799
 Alpha virt. eigenvalues --    1.15009   1.16489   1.19817   1.20542   1.21259
 Alpha virt. eigenvalues --    1.23702   1.25610   1.27386   1.27995   1.29113
 Alpha virt. eigenvalues --    1.29456   1.31937   1.32779   1.46918   1.47784
 Alpha virt. eigenvalues --    1.51945   1.54234   1.56868   2.53519   2.55708
 Alpha virt. eigenvalues --    2.56031   2.57752   2.62081   2.62360   2.63880
 Alpha virt. eigenvalues --    2.66464   2.67065   2.68452   2.72126   2.74282
 Alpha virt. eigenvalues --    2.78333   2.83394   2.86710   2.91780   2.94352
 Alpha virt. eigenvalues --    2.94619   2.94749   2.96018   2.98139   2.98581
 Alpha virt. eigenvalues --    2.99938   3.02276   3.03932   3.04393   3.06539
 Alpha virt. eigenvalues --    3.08478   3.09290   3.09836   3.10043   3.13205
 Alpha virt. eigenvalues --    3.15112   3.16134   3.17756   3.18400   3.19431
 Alpha virt. eigenvalues --    3.21626   3.24076   3.25005   3.27695   3.28781
 Alpha virt. eigenvalues --    3.31447   3.33880   3.34375   3.35725   3.40827
 Alpha virt. eigenvalues --    3.41261   3.44161   3.45034   3.49951   3.52595
 Alpha virt. eigenvalues --    3.53523   3.55983   3.57655   3.58363   3.59517
 Alpha virt. eigenvalues --    3.62407   3.64027   3.65100   3.66251   3.66834
 Alpha virt. eigenvalues --    3.67689   3.69216   3.71259   3.72223   3.74366
 Alpha virt. eigenvalues --    3.76458   3.77538   3.78455   3.85625   3.88097
 Alpha virt. eigenvalues --    3.91044  24.26095  24.30020  24.31725  24.50538
 Alpha virt. eigenvalues --   24.50775  24.51042  24.53019  24.54617  24.56480
 Alpha virt. eigenvalues --   24.76162  24.77060  24.79104  24.80210  24.80756
 Alpha virt. eigenvalues --   24.82842  24.87509  25.04650  25.05782  25.07116
          Condensed to atoms (all electrons):
              1          2          3          4          5          6
     1  C    6.113817   0.472448   0.147855  -0.024657  -0.056463   0.006850
     2  H    0.472448   0.502181  -0.070300   0.001784   0.005418   0.001546
     3  C    0.147855  -0.070300   5.392700   0.492137   0.448306  -0.073892
     4  C   -0.024657   0.001784   0.492137   5.091290  -0.072204   0.454611
     5  C   -0.056463   0.005418   0.448306  -0.072204   5.068542  -0.026438
     6  C    0.006850   0.001546  -0.073892   0.454611  -0.026438   5.059010
     7  H   -0.000130   0.002388  -0.050650   0.400393   0.004341  -0.034785
     8  C    0.003333  -0.000260  -0.058190  -0.030640   0.478760  -0.078713
     9  H    0.000080   0.000103  -0.044470   0.004102   0.388644   0.000025
    10  C    0.001276   0.000000  -0.018748  -0.086501  -0.091347   0.497939
    11  H   -0.000340  -0.000039   0.006920  -0.039656  -0.000686   0.396930
    12  H   -0.000350   0.000011   0.006020  -0.000475  -0.038893   0.005967
    13  H   -0.000012  -0.000001  -0.001551   0.007491   0.007895  -0.042553
    14  C    0.117047  -0.075072  -0.142190  -0.002207  -0.003293  -0.000517
    15  C   -0.072495   0.004437  -0.003142   0.000524  -0.011732   0.000126
    16  C   -0.024061   0.006382  -0.004545   0.000628   0.000748  -0.000018
    17  C    0.002741  -0.000223   0.001969   0.000042  -0.000099   0.000002
    18  H    0.000616  -0.000020  -0.003754  -0.000212   0.001876  -0.000057
    19  C    0.008193   0.001453  -0.000585  -0.000012   0.000056   0.000002
    20  H   -0.002033   0.002834   0.000153   0.000215  -0.000025  -0.000002
    21  C    0.001681   0.000006  -0.000063  -0.000013  -0.000005   0.000000
    22  H   -0.000372   0.000011   0.000028   0.000002   0.000038   0.000000
    23  H   -0.000407  -0.000034   0.000021   0.000001  -0.000001   0.000000
    24  H   -0.000026  -0.000002  -0.000002   0.000000   0.000001   0.000000
    25  C    0.032456  -0.062292  -0.092897  -0.001319  -0.006787  -0.000431
    26  C   -0.031774   0.000666   0.001726  -0.000445   0.001638   0.000019
    27  C   -0.085597  -0.004696  -0.007380   0.000584  -0.009365  -0.000091
    28  C    0.012297  -0.000111  -0.000824   0.000007   0.000051   0.000000
    29  H   -0.011420  -0.000271   0.000435  -0.000016   0.000053   0.000000
    30  C    0.008545   0.000591  -0.001669  -0.000049  -0.000320   0.000013
    31  H   -0.003418  -0.000136   0.004151   0.001531  -0.000623   0.000116
    32  C    0.000363   0.000036   0.000130  -0.000003   0.000033   0.000000
    33  H   -0.000362   0.000014   0.000012   0.000000   0.000000   0.000000
    34  H   -0.000356   0.000005   0.000017  -0.000004   0.000014  -0.000001
    35  H   -0.000014  -0.000002   0.000002   0.000000   0.000000   0.000000
              7          8          9         10         11         12
     1  C   -0.000130   0.003333   0.000080   0.001276  -0.000340  -0.000350
     2  H    0.002388  -0.000260   0.000103   0.000000  -0.000039   0.000011
     3  C   -0.050650  -0.058190  -0.044470  -0.018748   0.006920   0.006020
     4  C    0.400393  -0.030640   0.004102  -0.086501  -0.039656  -0.000475
     5  C    0.004341   0.478760   0.388644  -0.091347  -0.000686  -0.038893
     6  C   -0.034785  -0.078713   0.000025   0.497939   0.396930   0.005967
     7  H    0.509536  -0.000281  -0.000272   0.005235  -0.004201   0.000025
     8  C   -0.000281   5.040907  -0.028536   0.491116   0.006244   0.397234
     9  H   -0.000272  -0.028536   0.497149   0.004550   0.000014  -0.003321
    10  C    0.005235   0.491116   0.004550   5.034113  -0.040691  -0.039841
    11  H   -0.004201   0.006244   0.000014  -0.040691   0.518089  -0.000205
    12  H    0.000025   0.397234  -0.003321  -0.039841  -0.000205   0.514772
    13  H   -0.000184  -0.042925  -0.000173   0.399659  -0.004587  -0.004468
    14  C    0.000344   0.001897  -0.002875  -0.000088   0.000025   0.000028
    15  C   -0.000008  -0.000387  -0.000903  -0.000025   0.000000   0.000056
    16  C    0.000276   0.000029  -0.000198  -0.000009   0.000001   0.000000
    17  C   -0.000001  -0.000101   0.000884   0.000001   0.000000   0.000002
    18  H    0.000001   0.001136   0.001522   0.000003   0.000001  -0.000057
    19  C    0.000006  -0.000001   0.000000   0.000000   0.000000   0.000000
    20  H    0.000068   0.000001  -0.000002  -0.000001   0.000000   0.000000
    21  C   -0.000002   0.000002  -0.000015   0.000000   0.000000   0.000000
    22  H    0.000000   0.000000  -0.000033   0.000000   0.000000   0.000001
    23  H    0.000000   0.000000   0.000000   0.000000   0.000000   0.000000
    24  H    0.000000   0.000000   0.000000   0.000000   0.000000   0.000000
    25  C    0.000155  -0.000543   0.001179   0.000038   0.000011   0.000025
    26  C   -0.000033   0.000018  -0.000188  -0.000002   0.000000   0.000000
    27  C    0.000285  -0.000358   0.000367   0.000117  -0.000002   0.000016
    28  C    0.000000   0.000004  -0.000113   0.000000   0.000000   0.000000
    29  H    0.000001   0.000000   0.000025   0.000000   0.000000   0.000000
    30  C   -0.000008  -0.000010   0.000075   0.000002   0.000000   0.000001
    31  H    0.000199  -0.000267  -0.000052  -0.000083   0.000007   0.000005
    32  C    0.000001   0.000002  -0.000039   0.000000   0.000000   0.000000
    33  H    0.000000   0.000000   0.000000   0.000000   0.000000   0.000000
    34  H    0.000000   0.000002   0.000005   0.000000   0.000000   0.000000
    35  H    0.000000   0.000000   0.000001   0.000000   0.000000   0.000000
             13         14         15         16         17         18
     1  C   -0.000012   0.117047  -0.072495  -0.024061   0.002741   0.000616
     2  H   -0.000001  -0.075072   0.004437   0.006382  -0.000223  -0.000020
     3  C   -0.001551  -0.142190  -0.003142  -0.004545   0.001969  -0.003754
     4  C    0.007491  -0.002207   0.000524   0.000628   0.000042  -0.000212
     5  C    0.007895  -0.003293  -0.011732   0.000748  -0.000099   0.001876
     6  C   -0.042553  -0.000517   0.000126  -0.000018   0.000002  -0.000057
     7  H   -0.000184   0.000344  -0.000008   0.000276  -0.000001   0.000001
     8  C   -0.042925   0.001897  -0.000387   0.000029  -0.000101   0.001136
     9  H   -0.000173  -0.002875  -0.000903  -0.000198   0.000884   0.001522
    10  C    0.399659  -0.000088  -0.000025  -0.000009   0.000001   0.000003
    11  H   -0.004587   0.000025   0.000000   0.000001   0.000000   0.000001
    12  H   -0.004468   0.000028   0.000056   0.000000   0.000002  -0.000057
    13  H    0.517380  -0.000003   0.000000   0.000000   0.000000   0.000000
    14  C   -0.000003   5.395934   0.451256   0.498087  -0.063535  -0.047326
    15  C    0.000000   0.451256   5.095790  -0.063612   0.480327   0.386267
    16  C    0.000000   0.498087  -0.063612   5.049957  -0.033852   0.004604
    17  C    0.000000  -0.063535   0.480327  -0.033852   5.046243  -0.027211
    18  H    0.000000  -0.047326   0.386267   0.004604  -0.027211   0.497305
    19  C    0.000000  -0.076694  -0.029483   0.467782  -0.077394  -0.000121
    20  H    0.000000  -0.045833   0.004756   0.394725  -0.000287  -0.000271
    21  C    0.000000  -0.016191  -0.093543  -0.088976   0.490262   0.004630
    22  H    0.000000   0.005978  -0.038543  -0.000380   0.397002  -0.003389
    23  H    0.000000   0.007005  -0.000632  -0.039434   0.006266   0.000016
    24  H    0.000000  -0.001681   0.007987   0.007570  -0.042978  -0.000170
    25  C    0.000001  -0.065067   0.006740  -0.000427   0.000710   0.001495
    26  C    0.000000  -0.012727  -0.018486   0.000873  -0.001434   0.001701
    27  C    0.000000   0.011470   0.000878  -0.000287   0.000015   0.000005
    28  C    0.000000  -0.001657  -0.000978  -0.000113  -0.000040   0.000125
    29  H    0.000000   0.001154  -0.000950  -0.001026   0.000229   0.000059
    30  C    0.000000  -0.000883  -0.000023   0.000009   0.000000  -0.000058
    31  H    0.000001   0.000804  -0.000040  -0.000006   0.000000   0.000022
    32  C    0.000000   0.000124  -0.000015  -0.000004   0.000000   0.000000
    33  H    0.000000   0.000058   0.000025   0.000003  -0.000001   0.000001
    34  H    0.000000   0.000012   0.000000   0.000000   0.000000  -0.000001
    35  H    0.000000   0.000001   0.000001   0.000000   0.000000   0.000000
             19         20         21         22         23         24
     1  C    0.008193  -0.002033   0.001681  -0.000372  -0.000407  -0.000026
     2  H    0.001453   0.002834   0.000006   0.000011  -0.000034  -0.000002
     3  C   -0.000585   0.000153  -0.000063   0.000028   0.000021  -0.000002
     4  C   -0.000012   0.000215  -0.000013   0.000002   0.000001   0.000000
     5  C    0.000056  -0.000025  -0.000005   0.000038  -0.000001   0.000001
     6  C    0.000002  -0.000002   0.000000   0.000000   0.000000   0.000000
     7  H    0.000006   0.000068  -0.000002   0.000000   0.000000   0.000000
     8  C   -0.000001   0.000001   0.000002   0.000000   0.000000   0.000000
     9  H    0.000000  -0.000002  -0.000015  -0.000033   0.000000   0.000000
    10  C    0.000000  -0.000001   0.000000   0.000000   0.000000   0.000000
    11  H    0.000000   0.000000   0.000000   0.000000   0.000000   0.000000
    12  H    0.000000   0.000000   0.000000   0.000001   0.000000   0.000000
    13  H    0.000000   0.000000   0.000000   0.000000   0.000000   0.000000
    14  C   -0.076694  -0.045833  -0.016191   0.005978   0.007005  -0.001681
    15  C   -0.029483   0.004756  -0.093543  -0.038543  -0.000632   0.007987
    16  C    0.467782   0.394725  -0.088976  -0.000380  -0.039434   0.007570
    17  C   -0.077394  -0.000287   0.490262   0.397002   0.006266  -0.042978
    18  H   -0.000121  -0.000271   0.004630  -0.003389   0.000016  -0.000170
    19  C    5.047766  -0.033784   0.499814   0.005897   0.396355  -0.042547
    20  H   -0.033784   0.506614   0.005069   0.000025  -0.004075  -0.000178
    21  C    0.499814   0.005069   5.033604  -0.039791  -0.041009   0.399447
    22  H    0.005897   0.000025  -0.039791   0.514365  -0.000206  -0.004369
    23  H    0.396355  -0.004075  -0.041009  -0.000206   0.517954  -0.004554
    24  H   -0.042547  -0.000178   0.399447  -0.004369  -0.004554   0.516944
    25  C   -0.000759   0.000492  -0.000066   0.000020   0.000023   0.000002
    26  C    0.000339   0.000134   0.000146   0.000002  -0.000008  -0.000003
    27  C    0.000005   0.000012   0.000000   0.000000   0.000000   0.000000
    28  C    0.000005   0.000004   0.000004  -0.000002   0.000000   0.000000
    29  H   -0.000127   0.000095   0.000110   0.000036   0.000011   0.000010
    30  C    0.000000   0.000000   0.000000   0.000000   0.000000   0.000000
    31  H    0.000000  -0.000001   0.000000   0.000000   0.000000   0.000000
    32  C    0.000000   0.000000   0.000000   0.000000   0.000000   0.000000
    33  H    0.000000   0.000000  -0.000001   0.000000   0.000000   0.000000
    34  H    0.000000   0.000000   0.000000   0.000000   0.000000   0.000000
    35  H    0.000000   0.000000   0.000000   0.000000   0.000000   0.000000
             25         26         27         28         29         30
     1  C    0.032456  -0.031774  -0.085597   0.012297  -0.011420   0.008545
     2  H   -0.062292   0.000666  -0.004696  -0.000111  -0.000271   0.000591
     3  C   -0.092897   0.001726  -0.007380  -0.000824   0.000435  -0.001669
     4  C   -0.001319  -0.000445   0.000584   0.000007  -0.000016  -0.000049
     5  C   -0.006787   0.001638  -0.009365   0.000051   0.000053  -0.000320
     6  C   -0.000431   0.000019  -0.000091   0.000000   0.000000   0.000013
     7  H    0.000155  -0.000033   0.000285   0.000000   0.000001  -0.000008
     8  C   -0.000543   0.000018  -0.000358   0.000004   0.000000  -0.000010
     9  H    0.001179  -0.000188   0.000367  -0.000113   0.000025   0.000075
    10  C    0.000038  -0.000002   0.000117   0.000000   0.000000   0.000002
    11  H    0.000011   0.000000  -0.000002   0.000000   0.000000   0.000000
    12  H    0.000025   0.000000   0.000016   0.000000   0.000000   0.000001
    13  H    0.000001   0.000000   0.000000   0.000000   0.000000   0.000000
    14  C   -0.065067  -0.012727   0.011470  -0.001657   0.001154  -0.000883
    15  C    0.006740  -0.018486   0.000878  -0.000978  -0.000950  -0.000023
    16  C   -0.000427   0.000873  -0.000287  -0.000113  -0.001026   0.000009
    17  C    0.000710  -0.001434   0.000015  -0.000040   0.000229   0.000000
    18  H    0.001495   0.001701   0.000005   0.000125   0.000059  -0.000058
    19  C   -0.000759   0.000339   0.000005   0.000005  -0.000127   0.000000
    20  H    0.000492   0.000134   0.000012   0.000004   0.000095   0.000000
    21  C   -0.000066   0.000146   0.000000   0.000004   0.000110   0.000000
    22  H    0.000020   0.000002   0.000000  -0.000002   0.000036   0.000000
    23  H    0.000023  -0.000008   0.000000   0.000000   0.000011   0.000000
    24  H    0.000002  -0.000003   0.000000   0.000000   0.000010   0.000000
    25  C    5.351698   0.499699   0.471958  -0.068577  -0.034907  -0.056889
    26  C    0.499699   5.097996  -0.084038   0.454246   0.394145  -0.030276
    27  C    0.471958  -0.084038   5.125586  -0.033355   0.004978   0.463030
    28  C   -0.068577   0.454246  -0.033355   5.078823  -0.036456  -0.073765
    29  H   -0.034907   0.394145   0.004978  -0.036456   0.477624  -0.000444
    30  C   -0.056889  -0.030276   0.463030  -0.073765  -0.000444   5.062911
    31  H   -0.044725   0.004503   0.397470  -0.000473  -0.000195  -0.035177
    32  C   -0.020717  -0.089768  -0.085118   0.495116   0.005053   0.480717
    33  H    0.006475  -0.036839  -0.000405   0.395628  -0.003533   0.006006
    34  H    0.006143  -0.000433  -0.038267   0.005994   0.000017   0.397051
    35  H   -0.001453   0.007654   0.007449  -0.042160  -0.000170  -0.043189
             31         32         33         34         35
     1  C   -0.003418   0.000363  -0.000362  -0.000356  -0.000014
     2  H   -0.000136   0.000036   0.000014   0.000005  -0.000002
     3  C    0.004151   0.000130   0.000012   0.000017   0.000002
     4  C    0.001531  -0.000003   0.000000  -0.000004   0.000000
     5  C   -0.000623   0.000033   0.000000   0.000014   0.000000
     6  C    0.000116   0.000000   0.000000  -0.000001   0.000000
     7  H    0.000199   0.000001   0.000000   0.000000   0.000000
     8  C   -0.000267   0.000002   0.000000   0.000002   0.000000
     9  H   -0.000052  -0.000039   0.000000   0.000005   0.000001
    10  C   -0.000083   0.000000   0.000000   0.000000   0.000000
    11  H    0.000007   0.000000   0.000000   0.000000   0.000000
    12  H    0.000005   0.000000   0.000000   0.000000   0.000000
    13  H    0.000001   0.000000   0.000000   0.000000   0.000000
    14  C    0.000804   0.000124   0.000058   0.000012   0.000001
    15  C   -0.000040  -0.000015   0.000025   0.000000   0.000001
    16  C   -0.000006  -0.000004   0.000003   0.000000   0.000000
    17  C    0.000000   0.000000  -0.000001   0.000000   0.000000
    18  H    0.000022   0.000000   0.000001  -0.000001   0.000000
    19  C    0.000000   0.000000   0.000000   0.000000   0.000000
    20  H   -0.000001   0.000000   0.000000   0.000000   0.000000
    21  C    0.000000   0.000000  -0.000001   0.000000   0.000000
    22  H    0.000000   0.000000   0.000000   0.000000   0.000000
    23  H    0.000000   0.000000   0.000000   0.000000   0.000000
    24  H    0.000000   0.000000   0.000000   0.000000   0.000000
    25  C   -0.044725  -0.020717   0.006475   0.006143  -0.001453
    26  C    0.004503  -0.089768  -0.036839  -0.000433   0.007654
    27  C    0.397470  -0.085118  -0.000405  -0.038267   0.007449
    28  C   -0.000473   0.495116   0.395628   0.005994  -0.042160
    29  H   -0.000195   0.005053  -0.003533   0.000017  -0.000170
    30  C   -0.035177   0.480717   0.006006   0.397051  -0.043189
    31  H    0.489248   0.005225   0.000017  -0.003854  -0.000173
    32  C    0.005225   5.042895  -0.041249  -0.040847   0.399477
    33  H    0.000017  -0.041249   0.517793  -0.000213  -0.004460
    34  H   -0.003854  -0.040847  -0.000213   0.517559  -0.004405
    35  H   -0.000173   0.399477  -0.004460  -0.004405   0.519376
 Mulliken atomic charges:
              1
     1  C   -0.615312
     2  H    0.211147
     3  C    0.072272
     4  C   -0.196929
     5  C   -0.088135
     6  C   -0.165661
     7  H    0.167303
     8  C   -0.179472
     9  H    0.182462
    10  C   -0.156712
    11  H    0.162165
    12  H    0.163448
    13  H    0.164030
    14  C    0.066612
    15  C   -0.104173
    16  C   -0.174730
    17  C   -0.179538
    18  H    0.181261
    19  C   -0.166167
    20  H    0.171294
    21  C   -0.155100
    22  H    0.163679
    23  H    0.162709
    24  H    0.164551
    25  C    0.078535
    26  C   -0.159054
    27  C   -0.135265
    28  C   -0.183679
    29  H    0.205480
    30  C   -0.176192
    31  H    0.185925
    32  C   -0.151412
    33  H    0.161031
    34  H    0.161560
    35  H    0.162064
 Sum of Mulliken atomic charges =   0.00000
 Mulliken charges with hydrogens summed into heavy atoms:
              1
     1  C   -0.404165
     3  C    0.072272
     4  C   -0.029626
     5  C    0.094327
     6  C   -0.003496
     8  C   -0.016024
    10  C    0.007318
    14  C    0.066612
    15  C    0.077088
    16  C   -0.003435
    17  C   -0.015859
    19  C   -0.003458
    21  C    0.009451
    25  C    0.078535
    26  C    0.046426
    27  C    0.050660
    28  C   -0.022648
    30  C   -0.014632
    32  C    0.010652
 Sum of Mulliken charges with hydrogens summed into heavy atoms =   0.00000
 Electronic spatial extent (au):  <R**2>=           4931.0433
 Charge=              0.0000 electrons
 Dipole moment (field-independent basis, Debye):
    X=              0.0931    Y=             -0.1687    Z=             -0.0177  Tot=              0.1935
 Quadrupole moment (field-independent basis, Debye-Ang):
   XX=           -107.6033   YY=           -113.2458   ZZ=           -106.9252
   XY=              2.7738   XZ=              0.8418   YZ=              2.6337
 Traceless Quadrupole moment (field-independent basis, Debye-Ang):
   XX=              1.6548   YY=             -3.9877   ZZ=              2.3329
   XY=              2.7738   XZ=              0.8418   YZ=              2.6337
 Octapole moment (field-independent basis, Debye-Ang**2):
  XXX=             27.6308  YYY=             10.5934  ZZZ=              0.8167  XYY=            -36.4940
  XXY=              0.4940  XXZ=             -2.5315  XZZ=              9.9878  YZZ=            -18.9044
  YYZ=             11.6254  XYZ=              1.4807
 Hexadecapole moment (field-independent basis, Debye-Ang**3):
 XXXX=          -3052.8977 YYYY=          -2918.1083 ZZZZ=           -662.9896 XXXY=            -63.8108
 XXXZ=             13.8297 YYYX=             67.5154 YYYZ=             73.6127 ZZZX=             -6.6062
 ZZZY=             -2.2698 XXYY=          -1016.7537 XXZZ=           -627.2593 YYZZ=           -637.6547
 XXYZ=             -7.8241 YYXZ=            -10.3116 ZZXY=             32.9575
 N-N= 1.290771339243D+03 E-N=-4.277620017270D+03  KE= 7.286017286630D+02
 PrsmSu:  requested number of processors reduced to:  10 ShMem   1 Linda.
 Calling FoFJK, ICntrl=      2127 FMM=F ISym2X=0 I1Cent= 0 IOpClX= 0 NMat=1 NMatS=1 NMatT=0.
 ***** Axes restored to original set *****
 -------------------------------------------------------------------
 Center     Atomic                   Forces (Hartrees/Bohr)
 Number     Number              X              Y              Z
 -------------------------------------------------------------------
      1        6          -0.001727922    0.023101354   -0.000611876
      2        1           0.004920648   -0.024151493    0.005620254
      3        6           0.012460167    0.006993377   -0.001440434
      4        6          -0.001959165    0.005511919    0.000637723
      5        6          -0.006106350   -0.009663215   -0.000114364
      6        6           0.011020788    0.008172156   -0.000248358
      7        1           0.004387402   -0.016956898   -0.000861186
      8        6           0.000932808   -0.012421391   -0.000000815
      9        1           0.021827857    0.015640023   -0.007854090
     10        6           0.013721983   -0.000802529   -0.000827379
     11        1          -0.011130332   -0.012353054    0.000207493
     12        1          -0.004798691    0.015997080    0.000745557
     13        1          -0.016361367    0.003732566    0.001064822
     14        6          -0.005696608    0.006937200    0.010462636
     15        6           0.005341176   -0.010042022   -0.004723673
     16        6          -0.000048947    0.005477554   -0.002466350
     17        6           0.000939218   -0.012378425    0.001445675
     18        1          -0.015228246    0.015446373    0.020068782
     19        6          -0.005318235    0.007908587    0.009871980
     20        1           0.000042319   -0.017174477    0.004633254
     21        6          -0.005469061   -0.000984981    0.012513232
     22        1           0.000071621    0.015966473   -0.004924517
     23        1           0.005956196   -0.012113717   -0.009834141
     24        1           0.006212388    0.004018538   -0.015101421
     25        6          -0.009446247   -0.005171146   -0.010480624
     26        6          -0.005042009   -0.001200704    0.010868389
     27        6           0.007018728    0.003733824   -0.003715400
     28        6          -0.011133114   -0.006044708   -0.001628207
     29        1           0.006529048    0.003250034   -0.020693541
     30        6           0.006055005    0.003061530   -0.010692630
     31        1          -0.016576062   -0.008849218    0.001158786
     32        6          -0.008383127   -0.005181149   -0.009549903
     33        1           0.014702713    0.007660554   -0.002127165
     34        1          -0.006236408   -0.002293126    0.015254472
     35        1           0.008521823    0.005173112    0.013343019
 -------------------------------------------------------------------
 Cartesian Forces:  Max     0.024151493 RMS     0.009551500

 GradGradGradGradGradGradGradGradGradGradGradGradGradGradGradGradGradGrad
 Berny optimization.
 Internal  Forces:  Max     0.028641259 RMS     0.007788909
 Search for a local minimum.
 Step number   1 out of a maximum of  197
 All quantities printed in internal units (Hartrees-Bohrs-Radians)
 Mixed Optimization -- RFO/linear search
 Second derivative matrix not updated -- first step.
     Eigenvalues ---    0.00636   0.00650   0.00657   0.01533   0.01538
     Eigenvalues ---    0.01540   0.02138   0.02142   0.02147   0.02171
     Eigenvalues ---    0.02172   0.02173   0.02181   0.02182   0.02184
     Eigenvalues ---    0.02201   0.02202   0.02202   0.02211   0.02211
     Eigenvalues ---    0.02211   0.02214   0.02215   0.02215   0.02215
     Eigenvalues ---    0.02217   0.02218   0.02220   0.02220   0.02225
     Eigenvalues ---    0.04563   0.06401   0.06624   0.15997   0.15998
     Eigenvalues ---    0.16000   0.16000   0.16000   0.16000   0.16000
     Eigenvalues ---    0.16000   0.16000   0.16000   0.16000   0.16000
     Eigenvalues ---    0.16000   0.16000   0.16000   0.18861   0.19333
     Eigenvalues ---    0.22000   0.22000   0.22000   0.22000   0.22000
     Eigenvalues ---    0.22000   0.23465   0.23477   0.23478   0.24967
     Eigenvalues ---    0.24999   0.25000   0.31257   0.31366   0.31478
     Eigenvalues ---    0.31528   0.33521   0.33592   0.33972   0.34053
     Eigenvalues ---    0.34081   0.34095   0.34250   0.34254   0.34257
     Eigenvalues ---    0.34263   0.34265   0.34267   0.34278   0.34279
     Eigenvalues ---    0.34286   0.42398   0.42460   0.42490   0.42557
     Eigenvalues ---    0.42574   0.42607   0.46330   0.46390   0.46442
     Eigenvalues ---    0.46727   0.46757   0.46796   0.47205   0.47207
     Eigenvalues ---    0.47210   0.47339   0.47341   0.474311000.00000
     Eigenvalues --- 1000.000001000.000001000.000001000.000001000.00000
     Eigenvalues --- 1000.000001000.000001000.000001000.000001000.00000
     Eigenvalues --- 1000.000001000.000001000.000001000.000001000.00000
     Eigenvalues --- 1000.000001000.000001000.000001000.000001000.00000
     Eigenvalues --- 1000.000001000.000001000.000001000.000001000.00000
     Eigenvalues --- 1000.000001000.000001000.000001000.000001000.00000
     Eigenvalues --- 1000.000001000.000001000.000001000.000001000.00000
     Eigenvalues --- 1000.000001000.000001000.000001000.000001000.00000
     Eigenvalues --- 1000.000001000.000001000.000001000.000001000.00000
     Eigenvalues --- 1000.000001000.000001000.000001000.000001000.00000
     Eigenvalues --- 1000.000001000.000001000.000001000.000001000.00000
     Eigenvalues --- 1000.000001000.000001000.000001000.000001000.00000
     Eigenvalues --- 1000.000001000.000001000.000001000.000001000.00000
     Eigenvalues --- 1000.000001000.000001000.000001000.000001000.00000
     Eigenvalues --- 1000.000001000.000001000.000001000.000001000.00000
     Eigenvalues --- 1000.000001000.000001000.000001000.000001000.00000
     Eigenvalues --- 1000.000001000.000001000.000001000.000001000.00000
     Eigenvalues --- 1000.000001000.00000
 RFO step:  Lambda=-4.18698755D-02 EMin= 6.35744730D-03
 Linear search not attempted -- first point.
 Maximum step size (   0.300) exceeded in Quadratic search.
    -- Step size scaled by   0.592
 Iteration  1 RMS(Cart)=  0.12556652 RMS(Int)=  0.00303677
 Iteration  2 RMS(Cart)=  0.00614441 RMS(Int)=  0.00028202
 Iteration  3 RMS(Cart)=  0.00001073 RMS(Int)=  0.00028196
 Iteration  4 RMS(Cart)=  0.00000000 RMS(Int)=  0.00028196
 Variable       Old X    -DE/DX   Delta X   Delta X   Delta X     New X
                                 (Linear)    (Quad)   (Total)
    R1        2.12225  -0.02486   0.00000  -0.04152  -0.04152   2.08072
    R2        2.85319   0.02289   0.00000   0.03811   0.03811   2.89130
    R3        2.85017   0.02367   0.00000   0.03925   0.03925   2.88942
    R4        2.85110   0.02351   0.00000   0.03903   0.03903   2.89013
    R5        2.63866  -0.00422   0.00000  -0.00490  -0.00489   2.63377
    R6        2.63876  -0.00007   0.00000   0.00003   0.00005   2.63881
    R7        2.62796  -0.00230   0.00000  -0.00270  -0.00271   2.62525
    R8        2.07170  -0.01752   0.00000  -0.02710  -0.02710   2.04460
    R9        2.62561  -0.00471   0.00000  -0.00536  -0.00536   2.62026
   R10        2.08024  -0.02664   0.00000  -0.04176  -0.04176   2.03848
   R11        2.62738  -0.00875   0.00000  -0.01017  -0.01019   2.61718
   R12        2.06899  -0.01663   0.00000  -0.02561  -0.02561   2.04338
   R13        2.62865  -0.00528   0.00000  -0.00614  -0.00616   2.62250
   R14        2.06882  -0.01672   0.00000  -0.02574  -0.02574   2.04308
   R15        2.06862  -0.01682   0.00000  -0.02588  -0.02588   2.04273
   R16        2.63970   0.00070   0.00000   0.00097   0.00098   2.64068
   R17        2.63930  -0.00428   0.00000  -0.00497  -0.00495   2.63435
   R18        2.62559  -0.00447   0.00000  -0.00505  -0.00505   2.62054
   R19        2.08147  -0.02864   0.00000  -0.04497  -0.04497   2.03650
   R20        2.62791  -0.00242   0.00000  -0.00286  -0.00286   2.62506
   R21        2.07194  -0.01778   0.00000  -0.02750  -0.02750   2.04443
   R22        2.62875  -0.00562   0.00000  -0.00655  -0.00657   2.62218
   R23        2.06886  -0.01671   0.00000  -0.02573  -0.02573   2.04313
   R24        2.62727  -0.00919   0.00000  -0.01071  -0.01073   2.61654
   R25        2.06904  -0.01670   0.00000  -0.02572  -0.02572   2.04331
   R26        2.06863  -0.01682   0.00000  -0.02589  -0.02589   2.04274
   R27        2.63534  -0.00232   0.00000  -0.00257  -0.00257   2.63277
   R28        2.64375  -0.00199   0.00000  -0.00230  -0.00229   2.64146
   R29        2.62914  -0.00142   0.00000  -0.00157  -0.00157   2.62757
   R30        2.07377  -0.02186   0.00000  -0.03393  -0.03393   2.03985
   R31        2.62405  -0.00481   0.00000  -0.00558  -0.00558   2.61847
   R32        2.07241  -0.01879   0.00000  -0.02910  -0.02910   2.04331
   R33        2.62556  -0.00745   0.00000  -0.00860  -0.00861   2.61695
   R34        2.06911  -0.01671   0.00000  -0.02575  -0.02575   2.04336
   R35        2.62968  -0.00503   0.00000  -0.00594  -0.00595   2.62372
   R36        2.06888  -0.01664   0.00000  -0.02562  -0.02562   2.04326
   R37        2.06851  -0.01666   0.00000  -0.02563  -0.02563   2.04287
    A1        1.88395  -0.00871   0.00000  -0.04855  -0.04774   1.83621
    A2        1.87647  -0.01000   0.00000  -0.05158  -0.05067   1.82580
    A3        1.82831   0.00383   0.00000   0.00029   0.00055   1.82886
    A4        1.92827   0.01532   0.00000   0.05435   0.05318   1.98145
    A5        1.94672  -0.00316   0.00000   0.01231   0.01014   1.95686
    A6        1.99297   0.00081   0.00000   0.02161   0.01970   2.01267
    A7        2.08485  -0.00798   0.00000  -0.01615  -0.01621   2.06864
    A8        2.11740   0.01870   0.00000   0.03798   0.03792   2.15532
    A9        2.08093  -0.01073   0.00000  -0.02186  -0.02186   2.05907
   A10        2.09889   0.00739   0.00000   0.01630   0.01631   2.11520
   A11        2.09540  -0.00440   0.00000  -0.01022  -0.01024   2.08516
   A12        2.08889  -0.00299   0.00000  -0.00608  -0.00610   2.08280
   A13        2.10148   0.00419   0.00000   0.00943   0.00937   2.11086
   A14        2.07765   0.00378   0.00000   0.01264   0.01254   2.09019
   A15        2.10390  -0.00792   0.00000  -0.02167  -0.02177   2.08212
   A16        2.09788  -0.00032   0.00000  -0.00143  -0.00145   2.09643
   A17        2.09111   0.00035   0.00000   0.00129   0.00130   2.09241
   A18        2.09419  -0.00004   0.00000   0.00014   0.00015   2.09435
   A19        2.09601   0.00225   0.00000   0.00466   0.00465   2.10065
   A20        2.09174  -0.00103   0.00000  -0.00204  -0.00205   2.08969
   A21        2.09544  -0.00122   0.00000  -0.00261  -0.00261   2.09282
   A22        2.09116  -0.00278   0.00000  -0.00702  -0.00706   2.08410
   A23        2.09613   0.00136   0.00000   0.00342   0.00343   2.09956
   A24        2.09589   0.00142   0.00000   0.00361   0.00362   2.09951
   A25        2.12415   0.02281   0.00000   0.04631   0.04628   2.17043
   A26        2.07991  -0.01099   0.00000  -0.02226  -0.02228   2.05763
   A27        2.07910  -0.01181   0.00000  -0.02401  -0.02398   2.05513
   A28        2.10233   0.00450   0.00000   0.01018   0.01016   2.11249
   A29        2.07773   0.00439   0.00000   0.01446   0.01443   2.09215
   A30        2.10303  -0.00887   0.00000  -0.02445  -0.02449   2.07854
   A31        2.10008   0.00812   0.00000   0.01786   0.01789   2.11797
   A32        2.09482  -0.00472   0.00000  -0.01088  -0.01089   2.08393
   A33        2.08828  -0.00340   0.00000  -0.00699  -0.00700   2.08128
   A34        2.09624   0.00240   0.00000   0.00500   0.00498   2.10122
   A35        2.09144  -0.00110   0.00000  -0.00221  -0.00220   2.08924
   A36        2.09550  -0.00130   0.00000  -0.00278  -0.00277   2.09273
   A37        2.09788  -0.00023   0.00000  -0.00142  -0.00143   2.09645
   A38        2.09098   0.00030   0.00000   0.00124   0.00125   2.09223
   A39        2.09433  -0.00007   0.00000   0.00017   0.00018   2.09450
   A40        2.09074  -0.00298   0.00000  -0.00761  -0.00764   2.08310
   A41        2.09603   0.00153   0.00000   0.00392   0.00393   2.09996
   A42        2.09641   0.00145   0.00000   0.00369   0.00371   2.10012
   A43        2.13522   0.00717   0.00000   0.01446   0.01444   2.14967
   A44        2.07023   0.00075   0.00000   0.00142   0.00141   2.07164
   A45        2.07662  -0.00795   0.00000  -0.01615  -0.01614   2.06048
   A46        2.10152   0.00352   0.00000   0.00807   0.00808   2.10960
   A47        2.09249  -0.00013   0.00000   0.00075   0.00075   2.09324
   A48        2.08918  -0.00339   0.00000  -0.00882  -0.00883   2.08035
   A49        2.10343   0.00468   0.00000   0.01027   0.01027   2.11370
   A50        2.08451  -0.00122   0.00000  -0.00185  -0.00186   2.08265
   A51        2.09524  -0.00346   0.00000  -0.00842  -0.00842   2.08682
   A52        2.09916   0.00113   0.00000   0.00229   0.00228   2.10143
   A53        2.08886  -0.00049   0.00000  -0.00092  -0.00092   2.08794
   A54        2.09517  -0.00064   0.00000  -0.00136  -0.00136   2.09381
   A55        2.09670   0.00083   0.00000   0.00117   0.00117   2.09787
   A56        2.09175  -0.00041   0.00000  -0.00058  -0.00057   2.09118
   A57        2.09473  -0.00042   0.00000  -0.00060  -0.00059   2.09414
[...]
 .00000794,-0.00002453,-0.00005554,0.00016550,0.00003801,-0.00005729,-0
 .00005051,-0.00004077,0.00008174,-0.00002640,0.00000689,0.00001001,-0.
 00001069,0.00001357,-0.00000384,-0.00000507,-0.00000019,-0.00000701,-0
 .00000771,-0.00457350,0.02482677,-0.06240338,-0.02687053,-0.02565513,-
 0.01849271,-0.13379013,-0.06878884,-0.28142370,0.03448299,0.02844373,0
 .03458082,-0.00015669,-0.00095586,0.00052237,0.09859823,-0.13453184,0.
 78265357,-0.00209306,0.00156655,-0.00035595,0.00066362,0.00106939,0.00
 016517,-0.00000797,0.00005152,-0.00019936,-0.00012693,-0.00006819,0.00
 004520,-0.00004288,-0.00008534,0.00000232,-0.00000719,-0.00002060,-0.0
 0003667,0.00000816,0.00001098,0.00001134,-0.00003826,0.00004534,0.0000
 4653,0.00005574,0.00003631,0.00000749,0.00000999,0.00002797,0.00000398
 ,0.00000561,0.00000763,0.00000093,-0.00000791,-0.00000006,-0.00000224,
 0.00001004,0.00000101,0.00000112,0.00013198,0.00030242,0.00015999,0.00
 006610,0.00005815,-0.00002890,0.00004784,-0.00014675,0.00011852,-0.000
 04968,0.00002563,-0.00003146,-0.00000681,0.00001232,-0.00000468,-0.000
 01411,0.00001953,-0.00003171,-0.00002882,0.00003045,0.00000708,0.00000
 288,-0.00000657,0.00002280,-0.00000627,-0.00000524,-0.00000640,-0.0000
 1119,0.00000085,0.00001159,-0.00000273,0.00000382,-0.00000075,0.002726
 31,-0.00213642,-0.00233830,0.00488467,-0.00316410,-0.00104606,-0.18045
 941,-0.15469419,0.01884213,-0.00019121,0.00093791,-0.00019371,-0.00012
 404,0.00000054,-0.00008198,-0.00671098,-0.01580616,0.00580019,0.181096
 79,0.00217398,-0.00111066,-0.00155940,0.00010033,0.00030290,0.00048145
 ,0.00023887,0.00039710,0.00037745,0.00040905,0.00007484,-0.00003614,-0
 .00005000,-0.00008275,-0.00025869,-0.00000597,0.00013877,0.00006620,-0
 .00001761,-0.00003045,0.00002390,0.00021343,-0.00001261,-0.00006328,-0
 .00014455,-0.00005339,0.00010304,-0.00002479,-0.00009255,-0.00004041,-
 0.00000048,-0.00001777,0.00000211,-0.00000614,-0.00000313,0.00002244,-
 0.00001405,-0.00000194,0.00001028,-0.00021309,0.00028189,-0.00010276,0
 .00008786,0.00003370,-0.00012270,0.00003880,0.00007321,-0.00002592,0.0
 0000792,0.00004178,-0.00003155,-0.00001671,-0.00003713,-0.00000023,0.0
 0003341,-0.00002906,0.00000268,-0.00001840,-0.00003155,0.00000201,-0.0
 0000290,0.00000468,-0.00000650,0.00000236,-0.00000274,-0.00001141,0.00
 000098,-0.00000436,-0.00001265,-0.00000242,-0.00000452,-0.00000276,-0.
 01239047,-0.00752980,-0.00205240,-0.00281974,0.00325895,0.00423012,-0.
 15390609,-0.23334722,0.03175799,0.00100412,0.00019132,-0.00012370,-0.0
 0051609,-0.00060339,-0.00002884,-0.00593255,-0.00297671,0.00530344,0.1
 7308920,0.23920541,0.00168774,0.00078517,0.00104580,-0.00015471,-0.000
 93986,-0.00058476,-0.00024504,0.00008788,0.00012891,0.00000049,-0.0000
 0178,-0.00003647,0.00009990,0.00013153,0.00004096,-0.00007603,-0.00001
 953,0.00000050,-0.00002358,-0.00002133,-0.00004966,0.00002258,0.000000
 17,-0.00002998,0.00000323,-0.00007469,-0.00000576,0.00004488,-0.000032
 44,-0.00004110,0.00001762,0.00000350,0.00000834,0.00002046,-0.00002871
 ,-0.00000465,0.00001522,-0.00001517,0.00000437,0.00012062,-0.00033040,
 0.00000900,-0.00012011,-0.00005034,0.00012896,-0.00005579,0.00003221,0
 .00001138,0.00001619,-0.00002274,0.00004304,0.00001785,0.00000311,-0.0
 0000140,0.00000075,-0.00001745,0.00000282,0.00004823,-0.00000167,-0.00
 001158,-0.00001177,-0.00000382,0.00002665,0.00000110,-0.00000688,0.000
 02376,-0.00000689,0.00000727,0.00000957,-0.00000138,-0.00000264,0.0000
 1198,0.02120485,0.02555448,0.00107663,-0.00129134,0.00392252,-0.005171
 85,0.01872666,0.03109964,-0.07536104,-0.00026151,-0.00021866,-0.001155
 15,0.00106064,0.00119982,-0.00002262,-0.02023044,-0.02348618,0.0084919
 2,-0.01718975,-0.03566462,0.07402693,-0.00178221,-0.00011460,0.0004939
 0,-0.00005399,0.00059596,-0.00019642,0.00020427,-0.00009675,-0.0011083
 6,0.00002025,0.00022508,-0.00005817,-0.00016391,-0.00007856,-0.0001169
 6,-0.00011709,0.00005929,0.00011049,0.00002513,0.00000557,-0.00001101,
 0.00022042,0.00011508,0.00008976,-0.00001283,0.00010392,0.00014402,-0.
 00009769,-0.00012804,-0.00008097,-0.00003471,-0.00000936,0.00002068,-0
 .00001815,0.00002611,-0.00001040,-0.00000006,0.00001028,0.00000759,0.0
 0003980,-0.00033674,-0.00001533,0.00011115,0.00001126,-0.00016889,-0.0
 0002482,0.00011928,0.00014564,-0.00010606,0.00002184,0.00011224,-0.000
 01656,0.00000244,-0.00001053,0.00005741,0.00011881,-0.00013812,-0.0000
 6059,-0.00002364,0.00003223,0.00010663,-0.00010990,-0.00001054,-0.0000
 0377,-0.00000006,-0.00001618,0.00000655,-0.00001266,-0.00003036,-0.000
 00098,-0.00000177,-0.00000855,-0.02226901,-0.02932390,0.02900604,0.039
 21871,0.03503196,-0.00456422,-0.02681181,-0.02197790,-0.05082522,-0.12
 382378,-0.03257913,-0.02931022,0.00239908,-0.00522501,-0.00458129,-0.2
 0287777,-0.14506246,0.02760653,0.00354881,-0.00441949,-0.00452657,0.47
 699810,-0.00158474,-0.00105849,-0.00015009,-0.00020285,0.00085016,-0.0
 0039972,0.00017646,0.00021388,-0.00112190,0.00033241,0.00025306,-0.000
 12341,-0.00028746,0.00004085,-0.00030309,-0.00022166,0.00019962,0.0001
 8813,0.00001192,0.00000450,-0.00000418,0.00041683,0.00008795,0.0001000
 4,-0.00010618,0.00006356,0.00016718,-0.00016837,-0.00026336,-0.0001542
 0,-0.00002496,-0.00001903,0.00003441,-0.00002650,0.00004766,-0.0000218
 4,-0.00000400,0.00000445,0.00000683,0.00011839,-0.00050402,-0.00011846
 ,0.00017527,0.00015838,-0.00035040,0.00005721,0.00013680,0.00034358,-0
 .00022231,0.00006616,0.00020942,-0.00000931,-0.00000083,-0.00001589,0.
 00012848,0.00018602,-0.00030397,-0.00004737,-0.00007599,-0.00000072,0.
 00016869,-0.00025040,0.00003452,-0.00000474,-0.00000603,-0.00000731,-0
 .00000400,0.00000719,-0.00000653,-0.00000173,-0.00000626,0.00000547,-0
 .02796843,-0.05818733,0.04567192,0.05256588,0.05973268,0.02388254,-0.0
 3891384,-0.00346333,-0.07995404,-0.05612967,-0.17119734,0.06312485,-0.
 00544483,0.00354625,-0.00128372,-0.12159095,-0.24554579,0.06208670,-0.
 00412527,0.00442108,0.00002421,0.27774926,0.51396573,0.00127790,0.0004
 4370,0.00063745,-0.00000563,-0.00065468,-0.00013572,0.00028521,-0.0003
 0112,0.00044858,-0.00040634,0.00005731,0.00013354,-0.00009443,-0.00013
 335,0.00014303,0.00013218,-0.00017646,-0.00011338,0.00002279,0.0000013
 2,0.00000458,-0.00029354,-0.00007881,-0.00009793,-0.00001423,-0.000237
 26,-0.00030553,0.00001649,0.00020326,0.00011007,-0.00002265,0.00002007
 ,-0.00002575,-0.00005090,0.00002506,0.00001145,-0.00001844,-0.00000068
 ,-0.00000089,-0.00041079,0.00027489,0.00014912,-0.00008040,-0.00024428
 ,0.00020876,-0.00000392,-0.00004554,-0.00037599,0.00019785,-0.00008428
 ,-0.00016026,0.00001331,-0.00001796,0.00002476,-0.00008920,-0.00013131
 ,0.00029812,0.00000240,0.00005457,0.00001298,-0.00010814,0.00026204,-0
 .00010746,0.00000279,0.00001858,-0.00002581,0.00001365,-0.00002820,-0.
 00002518,0.00000488,0.00000011,-0.00002505,0.02831132,0.04443625,-0.03
 884292,-0.04958485,-0.02741702,-0.06278441,-0.00617534,-0.02801166,0.0
 6653187,0.02878294,0.12741853,-0.32210886,-0.00449138,-0.00090280,-0.0
 0171565,-0.02990099,-0.00265523,-0.15991280,-0.00493235,-0.00057725,-0
 .00360361,0.15163310,-0.06844930,0.76785753,-0.00036718,-0.00053198,0.
 00038780,-0.00020831,-0.00007900,-0.00022506,0.00012831,-0.00016557,-0
 .00010619,-0.00010795,0.00006818,0.00002663,-0.00010511,0.00001448,-0.
 00005831,-0.00000402,-0.00000411,-0.00000332,0.00001355,0.00001257,0.0
 0001590,0.00001363,-0.00000995,-0.00001318,0.00002875,-0.00006640,0.00
 001436,-0.00002592,0.00000869,0.00000193,-0.00001503,0.00000152,-0.000
 00239,-0.00002800,0.00001686,0.00001047,-0.00001112,0.00000112,0.00000
 340,-0.00009017,0.00000363,0.00023270,0.00006675,0.00001341,-0.0000834
 4,0.00003431,0.00000187,-0.00000071,-0.00001074,0.00001566,0.00002322,
 -0.00001870,-0.00000933,0.00000478,-0.00000746,0.00001951,-0.00001506,
 -0.00001350,0.00002491,0.00000461,0.00003149,-0.00000582,-0.00002280,-
 0.00000751,0.00000819,-0.00002539,0.00000545,-0.00000287,-0.00000496,0
 .00000244,-0.00000120,-0.00001275,0.00350978,-0.00384796,-0.00471798,-
 0.00671255,-0.01589463,0.00572518,-0.00016051,0.00098793,-0.00022314,-
 0.18220185,-0.15638318,0.01931512,-0.00198317,0.00309363,0.00066422,0.
 00543668,-0.00343797,-0.00117929,-0.00069627,0.00051108,0.00027242,0.0
 0352545,-0.00105710,-0.00315491,0.18214950,0.00001387,-0.00031967,0.00
 054754,-0.00008422,-0.00008209,-0.00006936,0.00002631,-0.00005311,-0.0
 0015919,-0.00004773,0.00004919,-0.00000661,-0.00002023,0.00004940,0.00
 002260,-0.00001999,-0.00000047,0.00001067,0.00001090,-0.00000059,0.000
 00021,0.00001060,-0.00002122,-0.00001313,0.00000509,-0.00003476,-0.000
 00113,-0.00001941,-0.00000811,-0.00000826,-0.00001603,-0.00000613,-0.0
 0000114,-0.00000440,0.00000693,0.00000781,-0.00001356,0.00000188,-0.00
 000116,-0.00010663,-0.00000416,0.00006302,0.00001690,-0.00003548,0.000
 00749,0.00001882,0.00000867,-0.00007451,0.00003540,-0.00000320,-0.0000
 1585,0.00000062,-0.00001069,0.00001144,0.00000145,0.00000619,0.0000442
 0,-0.00002516,-0.00000169,0.00001377,0.00001446,0.00004520,-0.00004220
 ,-0.00000416,0.00000424,-0.00001532,0.00000790,-0.00002270,-0.00002273
 ,-0.00000131,-0.00000244,-0.00001965,-0.00428152,0.00415277,-0.0006470
 9,-0.00559578,-0.00280010,0.00523096,0.00098237,0.00025137,-0.00029219
 ,-0.15622854,-0.23550902,0.03196639,0.00277602,-0.00137670,-0.00135900
 ,-0.00326638,0.00358892,0.00431156,0.00051686,-0.00060665,-0.00021326,
 -0.01137709,-0.00617017,-0.00217823,0.17404076,0.24089010,-0.00051615,
 -0.00090011,0.00053843,-0.00018039,-0.00015638,-0.00019458,0.00003177,
 -0.00009289,-0.00011689,-0.00006455,0.00002747,-0.00000912,-0.00001597
 ,0.00002766,0.00000125,-0.00001273,-0.00000578,0.00000554,0.00000833,0
 .00000882,0.00000180,-0.00000216,0.00000584,0.00000640,-0.00000492,-0.
 00000077,0.00000715,-0.00001197,0.00000002,-0.00000159,-0.00000864,-0.
 00000120,0.00000030,-0.00000302,0.00000349,0.00000254,-0.00000285,0.00
 000213,-0.00000049,-0.00001088,0.00002097,0.00019349,0.00002590,0.0000
 3203,0.00000114,0.00003107,0.00000553,-0.00003046,0.00001879,0.0000159
 0,-0.00001369,-0.00001671,-0.00000965,0.00000185,0.00001095,0.00000053
 ,0.00001025,-0.00001498,-0.00000287,-0.00000048,0.00002599,0.00001957,
 -0.00003577,-0.00000783,-0.00000146,-0.00001526,0.00000108,-0.00000849
 ,-0.00001093,-0.00000419,-0.00000431,-0.00000894,-0.00465721,-0.000201
 02,-0.00366653,-0.01977567,-0.02324414,0.00851505,-0.00023686,-0.00015
 959,-0.00131760,0.01928500,0.03216182,-0.07601323,0.00157850,-0.000587
 50,0.00091922,-0.00147945,0.00390953,-0.00495470,0.00025715,-0.0002177
 2,0.00001647,0.02252627,0.02628759,0.00247321,-0.01843822,-0.03653032,
 0.07300071,0.00021771,0.00051273,-0.00066879,0.00006895,0.00001559,0.0
 0006768,0.00004903,-0.00004101,-0.00007414,-0.00003867,0.00001555,-0.0
 0000567,-0.00003741,-0.00000059,0.00001558,-0.00000145,-0.00001026,0.0
 0000984,0.00000634,0.00001030,-0.00000349,-0.00001433,-0.00000782,0.00
 001475,0.00001157,0.00000737,-0.00003054,-0.00002559,0.00000906,0.0000
 1086,-0.00000395,0.00000325,-0.00000286,-0.00000926,0.00001524,-0.0000
 0626,-0.00000169,0.00000382,-0.00000594,-0.00028445,-0.00003060,-0.000
 16022,0.00002129,-0.00000184,-0.00000876,0.00003639,-0.00003207,-0.000
 04147,0.00004268,0.00000571,-0.00002269,-0.00001604,-0.00000441,-0.000
 00676,-0.00000515,-0.00000359,0.00004796,-0.00000066,-0.00000052,0.000
 00130,-0.00001687,0.00003849,-0.00003010,0.00000185,0.00000488,-0.0000
 0777,-0.00000026,-0.00000331,0.00000022,-0.00000108,-0.00000075,-0.000
 00322,0.00252962,-0.00543953,-0.00433095,-0.00106136,-0.00008277,-0.00
 019820,0.00719714,0.00981668,-0.01970648,0.00161934,-0.00730841,-0.001
 52558,-0.00059338,0.00064559,0.00022421,-0.06257819,-0.02323524,0.0186
 8288,-0.00205198,0.00283603,0.00164604,0.00397395,-0.01074045,0.022354
 75,-0.00012277,-0.00044899,0.00102171,0.05298911,0.00015545,0.00023187
 ,-0.00051468,0.00001965,-0.00004553,0.00002730,0.00004718,0.00002034,0
 .00009881,-0.00001299,-0.00004029,0.00001537,0.00002214,-0.00001124,-0
 .00000743,0.00000946,-0.00000948,-0.00001251,-0.00000297,-0.00000348,-
 0.00000385,-0.00001136,0.00002913,-0.00000724,-0.00002750,-0.00000136,
 0.00002299,0.00002300,0.00000859,0.00000285,0.00000370,0.00000141,-0.0
 0000199,0.00000709,-0.00001722,0.00000574,0.00000622,-0.00000206,0.000
 00469,-0.00002028,-0.00010088,0.00001076,0.00002189,0.00003246,-0.0000
 2538,-0.00000196,0.00003949,0.00001349,-0.00001452,0.00001740,0.000023
 87,-0.00000640,-0.00000381,-0.00000396,0.00002123,0.00001216,-0.000034
 48,-0.00000527,-0.00001790,-0.00000462,0.00002384,-0.00002891,0.000001
 43,-0.00000287,-0.00000509,-0.00000094,0.00000036,0.00000106,-0.000004
 69,-0.00000277,-0.00000311,0.00000175,-0.00532570,0.00356044,-0.000911
 40,-0.00008008,-0.00065279,-0.00094558,-0.00067450,0.01001736,-0.01250
 574,-0.00742753,-0.00009366,0.00095662,0.00061872,-0.00050956,-0.00013
 625,-0.02315700,-0.12588626,0.12529193,0.00312549,-0.00140860,-0.00061
 607,-0.00034371,-0.00575557,0.02662952,-0.00002929,-0.00058031,0.00119
 901,0.03042473,0.12244159,0.00055913,0.00081304,-0.00075417,-0.0000071
 9,-0.00005757,0.00000339,0.00016141,-0.00011457,-0.00011874,-0.0001051
 5,0.00004179,0.00003503,-0.00004970,0.00004511,0.00003550,-0.00001881,
 -0.00001628,0.00000722,0.00001774,0.00000669,-0.00000883,-0.00000151,-
 0.00002223,-0.00000624,0.00002895,-0.00003991,-0.00002483,-0.00003676,
 -0.00000168,0.00000554,-0.00002251,-0.00000078,-0.00001260,-0.00001125
 ,0.00002200,-0.00000171,-0.00001794,0.00000547,-0.00000548,-0.00036394
 ,-0.00017211,-0.00004925,0.00007381,-0.00002512,-0.00009107,0.00000651
 ,0.00004475,-0.00007716,0.00001686,0.00000401,0.00002236,-0.00000189,-
 0.00000423,0.00000628,-0.00000818,0.00002505,0.00001326,-0.00001348,0.
 00000562,0.00001475,0.00001586,0.00000075,-0.00003363,0.00000184,0.000
 01301,-0.00001762,0.00001935,-0.00000759,-0.00001593,0.00000590,0.0000
 0120,-0.00001549,-0.00490880,-0.00115679,-0.00150170,-0.00033099,-0.00
 095039,0.00051266,0.00586502,0.01619581,-0.01800745,-0.00113790,0.0013
 5061,0.00220224,0.00028422,-0.00013118,-0.00015975,0.01857136,0.125083
 36,-0.30552661,0.00078604,-0.00156187,0.00082112,-0.00305994,-0.001891
 47,0.00170051,-0.00003764,-0.00002745,-0.00014265,-0.01787240,-0.13701
 295,0.32045793,-0.00060722,0.00050027,0.00011452,0.00006571,0.00014512
 ,0.00000155,-0.00000897,-0.00010185,-0.00013260,-0.00005184,0.00004405
 ,0.00001483,-0.00004484,0.00001118,-0.00000236,-0.00001145,0.00000046,
 0.00000596,0.00000730,0.00000513,0.00000554,0.00001952,-0.00002682,-0.
 00000555,0.00002974,-0.00003386,-0.00001333,-0.00002058,-0.00000474,-0
 .00000180,-0.00001074,-0.00000081,-0.00000218,-0.00001404,0.00001774,0
 .00000011,-0.00001078,0.00000213,-0.00000257,-0.00005404,0.00000757,-0
 .00000805,0.00001693,-0.00002361,-0.00000997,-0.00001221,-0.00002258,-
 0.00002878,0.00000575,-0.00000373,0.00000521,-0.00000074,0.00000340,0.
 00000427,-0.00001811,0.00000624,0.00000944,-0.00000095,0.00001648,0.00
 000448,0.00000441,0.00000645,-0.00001209,-0.00000218,0.00000542,-0.000
 00885,0.00000626,-0.00000034,0.00000060,0.00000365,0.00000203,-0.00000
 620,-0.00033185,0.00025522,0.00102983,0.00516265,-0.00408093,-0.000431
 57,0.00246256,-0.00700327,0.00001718,0.00667125,-0.00055576,0.00547364
 ,0.00004534,0.00005649,0.00021984,-0.00641251,-0.00465541,-0.02018052,
 -0.00058086,-0.00024589,-0.00083255,-0.15217991,-0.06301406,-0.1332131
 5,-0.00204825,0.00308280,0.00064284,-0.00190045,0.00261657,0.00159197,
 0.14982144,0.00059271,-0.00038527,-0.00018090,-0.00004699,-0.00003949,
 0.00006682,0.00008575,0.00006746,0.00003851,0.00003200,0.00000206,-0.0
 0000805,0.00000160,0.00001674,-0.00001648,0.00000290,0.00001320,0.0000
 0373,0.00000214,-0.00000333,0.00000584,0.00000793,-0.00000168,-0.00000
 363,-0.00001456,-0.00000741,0.00001775,-0.00000282,-0.00000757,-0.0000
 0123,-0.00000312,-0.00000420,-0.00000164,0.00000290,0.00000041,0.00000
 253,-0.00000538,0.00000114,0.00000055,-0.00005048,0.00001284,0.0000395
 9,0.00002793,0.00003039,-0.00003425,0.00004200,0.00001100,-0.00001259,
 0.00000663,0.00000520,-0.00001480,-0.00000306,-0.00000866,0.00000149,0
 .00000374,0.00000235,0.00000416,-0.00001459,-0.00000027,0.00000782,-0.
 00000376,0.00000285,-0.00000785,0.00000196,0.00000194,-0.00000204,0.00
 000297,-0.00000458,-0.00000728,0.00000035,0.00000068,-0.00000358,0.000
 16571,-0.00103029,0.00057397,-0.00420852,0.00252230,0.00452806,-0.0068
 5474,-0.00022055,0.00290577,0.00983331,0.01020541,0.01490125,0.0004771
 0,0.00021556,0.00057819,-0.01512364,-0.00220228,-0.02384685,-0.0006810
 1,-0.00043863,-0.00108331,-0.06297537,-0.09148203,-0.06751981,0.002682
 34,-0.00140541,-0.00160370,0.00302715,-0.00123620,-0.00046411,0.072988
 90,0.08536633,0.00027369,-0.00018151,0.00003253,-0.00006397,-0.0000865
 9,-0.00002023,0.00006904,-0.00001613,-0.00001035,-0.00002025,0.0000237
 5,0.00000882,-0.00002004,0.00004453,0.00002450,-0.00000916,0.00000555,
 0.00000476,0.00000692,0.00000052,0.00000075,0.00000875,-0.00003151,-0.
 00001601,0.00002595,-0.00003536,-0.00002327,-0.00001580,-0.00000423,-0
 .00000417,-0.00001095,-0.00000392,-0.00000474,-0.00000584,0.00000982,0
 .00000470,-0.00001375,0.00000122,-0.00000156,-0.00007133,-0.00002336,0
 .00003201,0.00001325,-0.00005717,-0.00004942,-0.00003243,0.00002553,-0
 .00001969,-0.00001664,-0.00002054,0.00003366,0.00002221,0.00000215,0.0
 0001500,-0.00001517,0.00002082,0.00000340,-0.00000563,0.00001022,0.000
 01370,0.00001643,-0.00000351,-0.00000369,0.00000009,0.00001113,-0.0000
 0947,0.00001186,-0.00001084,-0.00001090,0.00000623,0.00000140,-0.00001
 552,0.00094221,0.00063745,0.00002122,0.00004545,0.00503324,-0.00344598
 ,-0.00040104,0.00240192,0.00168537,-0.02031972,-0.01359813,-0.01735201
 ,-0.00083848,-0.00056017,-0.00102118,0.00532088,0.00475344,0.00802847,
 0.00019070,0.00011769,0.00015048,-0.13308026,-0.06750717,-0.25037838,0
 .00162197,-0.00053990,0.00083811,0.00061451,-0.00155641,0.00073312,0.1
 4575032,0.07113607,0.26075596||0.00001727,-0.00000500,-0.00001733,-0.0
 0000434,0.00000043,-0.00000015,-0.00000295,-0.00000238,0.00000715,0.00
 000434,0.00000307,0.00000246,-0.00000321,0.00000252,-0.00000096,-0.000
 00627,0.00000638,-0.00000122,-0.00000105,0.00000054,0.00000106,0.00000
 556,0.00000038,-0.00000020,-0.00000296,-0.00000078,0.00000225,-0.00000
 377,-0.00000657,-0.00000163,0.00000114,0.00000018,0.00000109,0.0000009
 8,-0.00000129,-0.00000122,0.00000087,-0.00000086,0.00000004,-0.0000522
 7,0.00003635,-0.00000036,0.00000702,-0.00002283,0.00004102,0.00004637,
 -0.00000658,-0.00002878,0.00002831,-0.00001456,-0.00003528,0.00000701,
 0.00000106,-0.00000541,-0.00001015,-0.00002778,0.00003495,-0.00000287,
 0.00000286,0.00000122,-0.00002446,0.00003785,-0.00000783,-0.00000268,-
 0.00000061,0.00000262,-0.00000020,0.00000253,-0.00000150,0.00000102,-0
 .00000153,0.00000237,0.00002585,0.00004932,-0.00002859,-0.00005469,-0.
 00005351,-0.00003876,0.00002071,-0.00001028,0.00007833,0.00002709,-0.0
 0000513,0.00007641,0.00000219,0.00000338,0.00000214,-0.00005494,-0.000
 05148,-0.00003159,0.00000157,0.00000477,-0.00000653,0.00003082,0.00005
 979,-0.00004576,-0.00000346,-0.00000014,-0.00000552,0.00000642,0.00000
 577,0.00000211,-0.00000429,-0.00000588,0.00000340|||@


 CHARLIE BROWN..'I CAN'T GET THAT STUPID KITE IN THE   
 AIR... I CAN'T... I C A N N O T...'                          
 LUCY..'OH COME NOW CHARLIE BROWN...THAT'S NO WAY TO TALK...  
 THE TROUBLE WITH YOU IS YOU DON'T BELIEVE IN YOURSELF... YOU 
 DON'T BELIEVE IN YOUR OWN ABILITIES...  YOU'VE GOT TO SAY TO 
 YOURSELF...'I BELIEVE I CAN FLY THIS KITE.'... GO AHEAD SAY  
 IT....'
 CHARLIE BROWN..'I BELIEVE THAT I CAN FLY THIS STUPID  
 KITE.....I BELIEVE THAT I CAN FLY THIS KITE........          
 I  A C T U A L L Y  B E L I E V E  T H A T  I  C A N ******' 
 LUCY..'I'LL BET YOU TEN-TO-ONE YOU'RE WRONG.......'    SCHULZ
 Job cpu time:  0 days  0 hours  6 minutes 25.0 seconds.
 File lengths (MBytes):  RWF=    350 Int=      0 D2E=      0 Chk=      7 Scr=      1
 Normal termination of Gaussian 09 at Tue Sep 07 01:12:51 2021.
