 Entering Link 1 = b:\programy\g09w\l1.exe PID=     12032.
  
 Copyright (c) 1988,1990,1992,1993,1995,1998,2003,2009, Gaussian, Inc.
                  All Rights Reserved.
  
 This is part of the Gaussian(R) 09 program.  It is based on
 the Gaussian(R) 03 system (copyright 2003, Gaussian, Inc.),
 the Gaussian(R) 98 system (copyright 1998, Gaussian, Inc.),
 the Gaussian(R) 94 system (copyright 1995, Gaussian, Inc.),
 the Gaussian 92(TM) system (copyright 1992, Gaussian, Inc.),
 the Gaussian 90(TM) system (copyright 1990, Gaussian, Inc.),
 the Gaussian 88(TM) system (copyright 1988, Gaussian, Inc.),
 the Gaussian 86(TM) system (copyright 1986, Carnegie Mellon
 University), and the Gaussian 82(TM) system (copyright 1983,
 Carnegie Mellon University). Gaussian is a federally registered
 trademark of Gaussian, Inc.
  
 This software contains proprietary and confidential information,
 including trade secrets, belonging to Gaussian, Inc.
  
 This software is provided under written license and may be
 used, copied, transmitted, or stored only in accord with that
 written license.
  
 The following legend is applicable only to US Government
 contracts under FAR:
  
                    RESTRICTED RIGHTS LEGEND
  
 Use, reproduction and disclosure by the US Government is
 subject to restrictions as set forth in subparagraphs (a)
 and (c) of the Commercial Computer Software - Restricted
 Rights clause in FAR 52.227-19.
  
 Gaussian, Inc.
 340 Quinnipiac St., Bldg. 40, Wallingford CT 06492
  
  
 ---------------------------------------------------------------
 Warning -- This program may not be used in any manner that
 competes with the business of Gaussian, Inc. or will provide
 assistance to any competitor of Gaussian, Inc.  The licensee
 of this program is prohibited from giving any competitor of
 Gaussian, Inc. access to this program.  By using this program,
 the user acknowledges that Gaussian, Inc. is engaged in the
 business of creating and licensing software in the field of
 computational chemistry and represents and warrants to the
 licensee that it is not a competitor of Gaussian, Inc. and that
 it will not use this program in any manner prohibited above.
 ---------------------------------------------------------------
  

 Cite this work as:
 Gaussian 09, Revision A.02,
 M. J. Frisch, G. W. Trucks, H. B. Schlegel, G. E. Scuseria, 
 M. A. Robb, J. R. Cheeseman, G. Scalmani, V. Barone, B. Mennucci, 
 G. A. Petersson, H. Nakatsuji, M. Caricato, X. Li, H. P. Hratchian, 
 A. F. Izmaylov, J. Bloino, G. Zheng, J. L. Sonnenberg, M. Hada, 
 M. Ehara, K. Toyota, R. Fukuda, J. Hasegawa, M. Ishida, T. Nakajima, 
 Y. Honda, O. Kitao, H. Nakai, T. Vreven, J. A. Montgomery, Jr., 
 J. E. Peralta, F. Ogliaro, M. Bearpark, J. J. Heyd, E. Brothers, 
 K. N. Kudin, V. N. Staroverov, R. Kobayashi, J. Normand, 
 K. Raghavachari, A. Rendell, J. C. Burant, S. S. Iyengar, J. Tomasi, 
 M. Cossi, N. Rega, J. M. Millam, M. Klene, J. E. Knox, J. B. Cross, 
 V. Bakken, C. Adamo, J. Jaramillo, R. Gomperts, R. E. Stratmann, 
 O. Yazyev, A. J. Austin, R. Cammi, C. Pomelli, J. W. Ochterski, 
 R. L. Martin, K. Morokuma, V. G. Zakrzewski, G. A. Voth, 
 P. Salvador, J. J. Dannenberg, S. Dapprich, A. D. Daniels, 
 O. Farkas, J. B. Foresman, J. V. Ortiz, J. Cioslowski, 
 and D. J. Fox, Gaussian, Inc., Wallingford CT, 2009.
 
 ******************************************
 Gaussian 09:  IA32W-G09RevA.02 11-Jun-2009
                06-Sep-2021 
 ******************************************
 %nprocshared=12
 Will use up to   12 processors via shared memory.
 ----------------------------------------------
 # opt freq=noraman hf/6-311g geom=connectivity
 ----------------------------------------------
 1/18=20,19=15,38=1,57=2/1,3;
 2/9=110,12=2,17=6,18=5,40=1/2;
 3/5=4,6=6,11=9,16=1,25=1,30=1,71=1/1,2,3;
 4//1;
 5/5=2,38=5/2;
 6/7=2,8=2,9=2,10=2,28=1/1;
 7//1,2,3,16;
 1/18=20,19=15/3(2);
 2/9=110/2;
 99//99;
 2/9=110/2;
 3/5=4,6=6,11=9,16=1,25=1,30=1,71=1/1,2,3;
 4/5=5,16=3/1;
 5/5=2,38=5/2;
 7//1,2,3,16;
 1/18=20,19=15/3(-5);
 2/9=110/2;
 6/7=2,8=2,9=2,10=2,19=2,28=1/1;
 99/9=1/99;
 -----
 M0001
 -----
 Symbolic Z-matrix:
 Charge =  0 Multiplicity = 1
 C                     0.00922   0.1204   -0.75903 
 H                    -0.00198   0.237    -1.87687 
 C                    -1.42278   0.21073  -0.29133 
 C                    -1.78185  -0.03491   1.03492 
 C                    -2.41992   0.52852  -1.21668 
 C                    -3.11318   0.0253    1.42846 
 H                    -0.99163  -0.25598   1.76844 
 C                    -3.75116   0.59201  -0.82088 
 H                    -2.15446   0.7286   -2.26149 
 C                    -4.10094   0.33708   0.50052 
 H                    -3.38253  -0.17263   2.47094 
 H                    -4.52552   0.84219  -1.55329 
 H                    -5.15001   0.38323   0.80965 
 C                     0.56655  -1.25438  -0.47734 
 C                     1.29105  -1.5504    0.67683 
 C                     0.33583  -2.26826  -1.41278 
 C                     1.77751  -2.83554   0.89268 
 H                     1.48752  -0.76352   1.4162 
 C                     0.82058  -3.55159  -1.19404 
 H                    -0.23456  -2.05233  -2.3238 
 C                     1.54325  -3.83838  -0.04038 
 H                     2.34745  -3.05484   1.80142 
 H                     0.63298  -4.33825  -1.93208 
 H                     1.92616  -4.84943   0.13071 
 C                     0.87922   1.23133  -0.22566 
 C                     1.75739   1.86883  -1.10748 
 C                     0.84463   1.64341   1.1075 
 C                     2.58051   2.89659  -0.66305 
 H                     1.80047   1.5575   -2.15799 
 C                     1.6666    2.6737    1.54981 
 H                     0.15306   1.15081   1.8099 
 C                     2.53658   3.30227   0.66643 
 H                     3.26425   3.38802  -1.3628 
 H                     1.62608   2.98958   2.5973 
 H                     3.18364   4.11332   1.01528 
 

 GradGradGradGradGradGradGradGradGradGradGradGradGradGradGradGradGradGrad
 Berny optimization.
 Initialization pass.
                           ----------------------------
                           !    Initial Parameters    !
                           ! (Angstroms and Degrees)  !
 --------------------------                            --------------------------
 ! Name  Definition              Value          Derivative Info.                !
 --------------------------------------------------------------------------------
 ! R1    R(1,2)                  1.124          estimate D2E/DX2                !
 ! R2    R(1,3)                  1.5091         estimate D2E/DX2                !
 ! R3    R(1,14)                 1.51           estimate D2E/DX2                !
 ! R4    R(1,25)                 1.5085         estimate D2E/DX2                !
 ! R5    R(3,4)                  1.3958         estimate D2E/DX2                !
 ! R6    R(3,5)                  1.397          estimate D2E/DX2                !
 ! R7    R(4,6)                  1.3896         estimate D2E/DX2                !
 ! R8    R(4,7)                  1.1006         estimate D2E/DX2                !
 ! R9    R(5,8)                  1.3903         estimate D2E/DX2                !
 ! R10   R(5,9)                  1.0964         estimate D2E/DX2                !
 ! R11   R(6,10)                 1.3907         estimate D2E/DX2                !
 ! R12   R(6,11)                 1.0948         estimate D2E/DX2                !
 ! R13   R(8,10)                 1.3905         estimate D2E/DX2                !
 ! R14   R(8,12)                 1.0948         estimate D2E/DX2                !
 ! R15   R(10,13)                1.0946         estimate D2E/DX2                !
 ! R16   R(14,15)                1.3945         estimate D2E/DX2                !
 ! R17   R(14,16)                1.3987         estimate D2E/DX2                !
 ! R18   R(15,17)                1.391          estimate D2E/DX2                !
 ! R19   R(15,18)                1.0975         estimate D2E/DX2                !
 ! R20   R(16,19)                1.3892         estimate D2E/DX2                !
 ! R21   R(16,20)                1.0963         estimate D2E/DX2                !
 ! R22   R(17,21)                1.3897         estimate D2E/DX2                !
 ! R23   R(17,22)                1.0949         estimate D2E/DX2                !
 ! R24   R(19,21)                1.3912         estimate D2E/DX2                !
 ! R25   R(19,23)                1.0949         estimate D2E/DX2                !
 ! R26   R(21,24)                1.0946         estimate D2E/DX2                !
 ! R27   R(25,26)                1.3983         estimate D2E/DX2                !
 ! R28   R(25,27)                1.3958         estimate D2E/DX2                !
 ! R29   R(26,28)                1.3897         estimate D2E/DX2                !
 ! R30   R(26,29)                1.0965         estimate D2E/DX2                !
 ! R31   R(27,30)                1.3902         estimate D2E/DX2                !
 ! R32   R(27,31)                1.1019         estimate D2E/DX2                !
 ! R33   R(28,32)                1.3907         estimate D2E/DX2                !
 ! R34   R(28,33)                1.0948         estimate D2E/DX2                !
 ! R35   R(30,32)                1.3901         estimate D2E/DX2                !
 ! R36   R(30,34)                1.0948         estimate D2E/DX2                !
 ! R37   R(32,35)                1.0946         estimate D2E/DX2                !
 ! A1    A(2,1,3)              107.0113         estimate D2E/DX2                !
 ! A2    A(2,1,14)             106.479          estimate D2E/DX2                !
 ! A3    A(2,1,25)             106.32           estimate D2E/DX2                !
 ! A4    A(3,1,14)             110.2988         estimate D2E/DX2                !
 ! A5    A(3,1,25)             113.1785         estimate D2E/DX2                !
 ! A6    A(14,1,25)            113.0591         estimate D2E/DX2                !
 ! A7    A(1,3,4)              121.8732         estimate D2E/DX2                !
 ! A8    A(1,3,5)              119.0535         estimate D2E/DX2                !
 ! A9    A(4,3,5)              119.0654         estimate D2E/DX2                !
 ! A10   A(3,4,6)              120.5269         estimate D2E/DX2                !
 ! A11   A(3,4,7)              118.9405         estimate D2E/DX2                !
 ! A12   A(6,4,7)              120.5199         estimate D2E/DX2                !
 ! A13   A(3,5,8)              120.35           estimate D2E/DX2                !
 ! A14   A(3,5,9)              119.9941         estimate D2E/DX2                !
 ! A15   A(8,5,9)              119.6559         estimate D2E/DX2                !
 ! A16   A(4,6,10)             120.0823         estimate D2E/DX2                !
 ! A17   A(4,6,11)             119.8393         estimate D2E/DX2                !
 ! A18   A(10,6,11)            120.0784         estimate D2E/DX2                !
 ! A19   A(5,8,10)             120.2014         estimate D2E/DX2                !
 ! A20   A(5,8,12)             119.8174         estimate D2E/DX2                !
 ! A21   A(10,8,12)            119.9811         estimate D2E/DX2                !
 ! A22   A(6,10,8)             119.7718         estimate D2E/DX2                !
 ! A23   A(6,10,13)            120.1137         estimate D2E/DX2                !
 ! A24   A(8,10,13)            120.1144         estimate D2E/DX2                !
 ! A25   A(1,14,15)            122.6456         estimate D2E/DX2                !
 ! A26   A(1,14,16)            118.3164         estimate D2E/DX2                !
 ! A27   A(15,14,16)           119.0368         estimate D2E/DX2                !
 ! A28   A(14,15,17)           120.4148         estimate D2E/DX2                !
 ! A29   A(14,15,18)           119.8941         estimate D2E/DX2                !
 ! A30   A(17,15,18)           119.6887         estimate D2E/DX2                !
 ! A31   A(14,16,19)           120.4506         estimate D2E/DX2                !
 ! A32   A(14,16,20)           119.9221         estimate D2E/DX2                !
 ! A33   A(19,16,20)           119.6269         estimate D2E/DX2                !
 ! A34   A(15,17,21)           120.2378         estimate D2E/DX2                !
 ! A35   A(15,17,22)           119.7295         estimate D2E/DX2                !
 ! A36   A(21,17,22)           120.0326         estimate D2E/DX2                !
 ! A37   A(16,19,21)           120.1511         estimate D2E/DX2                !
 ! A38   A(16,19,23)           119.8561         estimate D2E/DX2                !
 ! A39   A(21,19,23)           119.9928         estimate D2E/DX2                !
 ! A40   A(17,21,19)           119.7087         estimate D2E/DX2                !
 ! A41   A(17,21,24)           120.1756         estimate D2E/DX2                !
 ! A42   A(19,21,24)           120.1157         estimate D2E/DX2                !
 ! A43   A(1,25,26)            118.3586         estimate D2E/DX2                !
 ! A44   A(1,25,27)            122.7401         estimate D2E/DX2                !
 ! A45   A(26,25,27)           118.9011         estimate D2E/DX2                !
 ! A46   A(25,26,28)           120.4957         estimate D2E/DX2                !
 ! A47   A(25,26,29)           119.9612         estimate D2E/DX2                !
 ! A48   A(28,26,29)           119.5431         estimate D2E/DX2                !
 ! A49   A(25,27,30)           120.5312         estimate D2E/DX2                !
 ! A50   A(25,27,31)           119.497          estimate D2E/DX2                !
 ! A51   A(30,27,31)           119.97           estimate D2E/DX2                !
 ! A52   A(26,28,32)           120.1814         estimate D2E/DX2                !
 ! A53   A(26,28,33)           119.8318         estimate D2E/DX2                !
 ! A54   A(32,28,33)           119.9868         estimate D2E/DX2                !
 ! A55   A(27,30,32)           120.1952         estimate D2E/DX2                !
 ! A56   A(27,30,34)           119.7576         estimate D2E/DX2                !
 ! A57   A(32,30,34)           120.0472         estimate D2E/DX2                !
 ! A58   A(28,32,30)           119.6951         estimate D2E/DX2                !
 ! A59   A(28,32,35)           120.1414         estimate D2E/DX2                !
 ! A60   A(30,32,35)           120.1635         estimate D2E/DX2                !
 ! D1    D(2,1,3,4)            173.1219         estimate D2E/DX2                !
 ! D2    D(2,1,3,5)             -5.8458         estimate D2E/DX2                !
 ! D3    D(14,1,3,4)            57.6891         estimate D2E/DX2                !
 ! D4    D(14,1,3,5)          -121.2786         estimate D2E/DX2                !
 ! D5    D(25,1,3,4)           -70.0925         estimate D2E/DX2                !
 ! D6    D(25,1,3,5)           110.9398         estimate D2E/DX2                !
 ! D7    D(2,1,14,15)          149.7268         estimate D2E/DX2                !
 ! D8    D(2,1,14,16)          -30.6596         estimate D2E/DX2                !
 ! D9    D(3,1,14,15)          -94.5062         estimate D2E/DX2                !
 ! D10   D(3,1,14,16)           85.1073         estimate D2E/DX2                !
 ! D11   D(25,1,14,15)          33.3412         estimate D2E/DX2                !
 ! D12   D(25,1,14,16)        -147.0453         estimate D2E/DX2                !
 ! D13   D(2,1,25,26)          -18.322          estimate D2E/DX2                !
 ! D14   D(2,1,25,27)          161.8464         estimate D2E/DX2                !
 ! D15   D(3,1,25,26)         -135.5139         estimate D2E/DX2                !
 ! D16   D(3,1,25,27)           44.6544         estimate D2E/DX2                !
 ! D17   D(14,1,25,26)          98.1579         estimate D2E/DX2                !
 ! D18   D(14,1,25,27)         -81.6738         estimate D2E/DX2                !
 ! D19   D(1,3,4,6)           -178.4744         estimate D2E/DX2                !
 ! D20   D(1,3,4,7)              2.8132         estimate D2E/DX2                !
 ! D21   D(5,3,4,6)              0.4932         estimate D2E/DX2                !
 ! D22   D(5,3,4,7)           -178.2192         estimate D2E/DX2                !
 ! D23   D(1,3,5,8)            178.6799         estimate D2E/DX2                !
 ! D24   D(1,3,5,9)             -1.2676         estimate D2E/DX2                !
 ! D25   D(4,3,5,8)             -0.3171         estimate D2E/DX2                !
 ! D26   D(4,3,5,9)            179.7353         estimate D2E/DX2                !
 ! D27   D(3,4,6,10)            -0.2435         estimate D2E/DX2                !
 ! D28   D(3,4,6,11)           179.7984         estimate D2E/DX2                !
 ! D29   D(7,4,6,10)           178.4485         estimate D2E/DX2                !
 ! D30   D(7,4,6,11)            -1.5096         estimate D2E/DX2                !
 ! D31   D(3,5,8,10)            -0.1085         estimate D2E/DX2                !
 ! D32   D(3,5,8,12)           179.9799         estimate D2E/DX2                !
 ! D33   D(9,5,8,10)           179.8392         estimate D2E/DX2                !
 ! D34   D(9,5,8,12)            -0.0724         estimate D2E/DX2                !
 ! D35   D(4,6,10,8)            -0.1874         estimate D2E/DX2                !
 ! D36   D(4,6,10,13)          179.9117         estimate D2E/DX2                !
 ! D37   D(11,6,10,8)          179.7706         estimate D2E/DX2                !
 ! D38   D(11,6,10,13)          -0.1304         estimate D2E/DX2                !
 ! D39   D(5,8,10,6)             0.3626         estimate D2E/DX2                !
 ! D40   D(5,8,10,13)         -179.7364         estimate D2E/DX2                !
 ! D41   D(12,8,10,6)         -179.7259         estimate D2E/DX2                !
 ! D42   D(12,8,10,13)           0.175          estimate D2E/DX2                !
 ! D43   D(1,14,15,17)         179.6643         estimate D2E/DX2                !
 ! D44   D(1,14,15,18)          -0.8999         estimate D2E/DX2                !
 ! D45   D(16,14,15,17)          0.0534         estimate D2E/DX2                !
 ! D46   D(16,14,15,18)        179.4893         estimate D2E/DX2                !
 ! D47   D(1,14,16,19)        -179.5674         estimate D2E/DX2                !
 ! D48   D(1,14,16,20)           0.1895         estimate D2E/DX2                !
 ! D49   D(15,14,16,19)          0.0604         estimate D2E/DX2                !
 ! D50   D(15,14,16,20)        179.8173         estimate D2E/DX2                !
 ! D51   D(14,15,17,21)         -0.1235         estimate D2E/DX2                !
 ! D52   D(14,15,17,22)        179.8242         estimate D2E/DX2                !
 ! D53   D(18,15,17,21)       -179.5605         estimate D2E/DX2                !
 ! D54   D(18,15,17,22)          0.3873         estimate D2E/DX2                !
 ! D55   D(14,16,19,21)         -0.1047         estimate D2E/DX2                !
 ! D56   D(14,16,19,23)        179.9069         estimate D2E/DX2                !
 ! D57   D(20,16,19,21)       -179.8624         estimate D2E/DX2                !
 ! D58   D(20,16,19,23)          0.1493         estimate D2E/DX2                !
 ! D59   D(15,17,21,19)          0.079          estimate D2E/DX2                !
 ! D60   D(15,17,21,24)       -179.9734         estimate D2E/DX2                !
 ! D61   D(22,17,21,19)       -179.8686         estimate D2E/DX2                !
 ! D62   D(22,17,21,24)          0.0791         estimate D2E/DX2                !
 ! D63   D(16,19,21,17)          0.0347         estimate D2E/DX2                !
 ! D64   D(16,19,21,24)       -179.913          estimate D2E/DX2                !
 ! D65   D(23,19,21,17)       -179.977          estimate D2E/DX2                !
 ! D66   D(23,19,21,24)          0.0753         estimate D2E/DX2                !
 ! D67   D(1,25,26,28)        -179.9108         estimate D2E/DX2                !
 ! D68   D(1,25,26,29)           0.023          estimate D2E/DX2                !
 ! D69   D(27,25,26,28)         -0.0726         estimate D2E/DX2                !
 ! D70   D(27,25,26,29)        179.8613         estimate D2E/DX2                !
 ! D71   D(1,25,27,30)        -179.9537         estimate D2E/DX2                !
 ! D72   D(1,25,27,31)          -0.439          estimate D2E/DX2                !
 ! D73   D(26,25,27,30)          0.2155         estimate D2E/DX2                !
 ! D74   D(26,25,27,31)        179.7302         estimate D2E/DX2                !
 ! D75   D(25,26,28,32)         -0.0789         estimate D2E/DX2                !
 ! D76   D(25,26,28,33)        179.9816         estimate D2E/DX2                !
 ! D77   D(29,26,28,32)        179.987          estimate D2E/DX2                !
 ! D78   D(29,26,28,33)          0.0474         estimate D2E/DX2                !
 ! D79   D(25,27,30,32)         -0.2077         estimate D2E/DX2                !
 ! D80   D(25,27,30,34)        179.7435         estimate D2E/DX2                !
 ! D81   D(31,27,30,32)       -179.7201         estimate D2E/DX2                !
 ! D82   D(31,27,30,34)          0.2311         estimate D2E/DX2                !
 ! D83   D(26,28,32,30)          0.0888         estimate D2E/DX2                !
 ! D84   D(26,28,32,35)       -179.8666         estimate D2E/DX2                !
 ! D85   D(33,28,32,30)       -179.9718         estimate D2E/DX2                !
 ! D86   D(33,28,32,35)          0.0728         estimate D2E/DX2                !
 ! D87   D(27,30,32,28)          0.0537         estimate D2E/DX2                !
 ! D88   D(27,30,32,35)       -179.9909         estimate D2E/DX2                !
 ! D89   D(34,30,32,28)       -179.8974         estimate D2E/DX2                !
 ! D90   D(34,30,32,35)          0.058          estimate D2E/DX2                !
 --------------------------------------------------------------------------------
 Trust Radius=3.00D-01 FncErr=1.00D-07 GrdErr=1.00D-07
 Number of steps in this run= 197 maximum allowed number of steps= 210.
 GradGradGradGradGradGradGradGradGradGradGradGradGradGradGradGradGradGrad

                          Input orientation:                          
 ---------------------------------------------------------------------
 Center     Atomic      Atomic             Coordinates (Angstroms)
 Number     Number       Type             X           Y           Z
 ---------------------------------------------------------------------
      1          6           0        0.009219    0.120402   -0.759029
      2          1           0       -0.001979    0.236996   -1.876869
      3          6           0       -1.422783    0.210731   -0.291328
      4          6           0       -1.781854   -0.034915    1.034918
      5          6           0       -2.419920    0.528523   -1.216679
      6          6           0       -3.113184    0.025297    1.428458
      7          1           0       -0.991629   -0.255975    1.768437
      8          6           0       -3.751165    0.592007   -0.820881
      9          1           0       -2.154459    0.728603   -2.261491
     10          6           0       -4.100942    0.337077    0.500516
     11          1           0       -3.382529   -0.172627    2.470937
     12          1           0       -4.525521    0.842194   -1.553288
     13          1           0       -5.150012    0.383231    0.809654
     14          6           0        0.566552   -1.254377   -0.477340
     15          6           0        1.291050   -1.550400    0.676829
     16          6           0        0.335833   -2.268257   -1.412783
     17          6           0        1.777509   -2.835539    0.892675
     18          1           0        1.487521   -0.763521    1.416196
     19          6           0        0.820582   -3.551595   -1.194039
     20          1           0       -0.234561   -2.052332   -2.323798
     21          6           0        1.543255   -3.838379   -0.040385
     22          1           0        2.347452   -3.054839    1.801416
     23          1           0        0.632977   -4.338252   -1.932076
     24          1           0        1.926161   -4.849432    0.130709
     25          6           0        0.879223    1.231332   -0.225660
     26          6           0        1.757388    1.868829   -1.107475
     27          6           0        0.844633    1.643414    1.107503
     28          6           0        2.580515    2.896591   -0.663049
     29          1           0        1.800466    1.557504   -2.157988
     30          6           0        1.666598    2.673703    1.549815
     31          1           0        0.153058    1.150815    1.809900
     32          6           0        2.536582    3.302271    0.666428
     33          1           0        3.264249    3.388024   -1.362803
     34          1           0        1.626078    2.989576    2.597297
     35          1           0        3.183636    4.113319    1.015275
 ---------------------------------------------------------------------
                    Distance matrix (angstroms):
                    1          2          3          4          5
     1  C    0.000000
     2  H    1.123960   0.000000
     3  C    1.509150   2.129158   0.000000
     4  C    2.539746   3.423506   1.395780   0.000000
     5  C    2.505340   2.523347   1.396978   2.407131   0.000000
     6  C    3.813600   4.544183   2.418575   1.389582   2.780395
     7  H    2.744347   3.809289   2.155538   1.100624   3.400937
     8  C    3.790346   3.911207   2.418090   2.777626   1.390287
     9  H    2.703480   2.241157   2.164505   3.404131   1.096419
    10  C    4.304280   4.739565   2.795624   2.408761   2.410652
    11  H    4.692814   5.522619   3.408471   2.154826   3.875143
    12  H    4.660011   4.575304   3.408559   3.872446   2.155284
    13  H    5.398843   5.808703   3.890264   3.401482   3.403018
    14  C    1.509962   2.122758   2.477619   3.047789   3.555893
    15  C    2.548795   3.374623   3.376951   3.444947   4.656028
    16  C    2.497951   2.570172   3.239717   3.932385   3.931235
    17  C    3.820021   4.503047   4.574221   4.531313   5.777950
    18  H    2.774581   3.750189   3.512076   3.371209   4.885643
    19  C    3.785644   3.936532   4.472434   4.909986   5.210445
    20  H    2.688624   2.344113   3.265617   4.212489   3.558415
    21  C    4.306002   4.729599   5.025499   5.165168   6.013340
    22  H    4.701634   5.466789   5.409084   5.172874   6.684102
    23  H    4.652386   4.619428   5.254659   5.757878   5.789428
    24  H    5.400513   5.798262   6.082662   6.143821   7.044592
    25  C    1.508495   2.119366   2.518962   3.205272   3.515737
    26  C    2.496900   2.519964   3.678162   4.554155   4.388423
    27  C    2.549789   3.406059   3.024977   3.117770   4.159581
    28  C    3.785234   3.900778   4.835123   5.523321   5.560450
    29  H    2.689036   2.252016   3.960751   5.056032   4.444831
    30  C    3.820603   4.523698   4.358935   4.415150   5.380977
    31  H    2.771613   3.801495   2.789659   2.398007   4.020901
    32  C    4.306249   4.723193   5.113853   5.470053   5.983869
    33  H    4.651571   4.567437   5.762943   6.552002   6.364580
    34  H    4.702267   5.499584   5.036039   4.816905   6.080567
    35  H    5.400784   5.791245   6.177095   6.470264   7.016568
                    6          7          8          9         10
     6  C    0.000000
     7  H    2.166955   0.000000
     8  C    2.405765   3.877974   0.000000
     9  H    3.876792   4.308351   2.154875   0.000000
    10  C    1.390664   3.409862   1.390477   3.401584   0.000000
    11  H    1.094753   2.493362   3.399504   4.971544   2.158349
    12  H    3.398945   4.972749   1.094825   2.477174   2.157203
    13  H    2.158635   4.315090   2.158473   4.304015   1.094644
    14  C    4.337060   2.910025   4.708485   3.810421   5.027368
    15  C    4.737620   2.842142   5.679523   5.069429   5.715525
    16  C    5.022823   3.991440   5.023446   3.987860   5.489394
    17  C    5.691250   3.884487   6.726856   6.173512   6.691447
    18  H    4.667855   2.554968   5.855408   5.386635   5.768943
    19  C    5.928420   4.787639   6.181388   5.320754   6.497283
    20  H    5.165505   4.532818   4.649494   3.379865   5.351161
    21  C    6.226388   4.746692   6.947545   6.282016   7.041588
    22  H    6.280516   4.357085   7.574236   7.147646   7.401298
    23  H    6.660891   5.744399   6.690509   5.792351   7.084221
    24  H    7.130366   5.682912   7.921288   7.313587   7.960062
    25  C    4.486640   3.112651   4.712061   3.687895   5.111660
    26  C    5.792412   4.510295   5.661852   4.234905   6.265136
    27  C    4.287847   2.723301   5.093671   4.602342   5.151083
    28  C    6.710956   5.348926   6.739895   5.447492   7.248921
    29  H    6.273293   5.147943   5.791428   4.042180   6.586630
    30  C    5.465811   3.961941   6.269434   5.736719   6.310734
    31  H    3.475719   1.814135   4.740911   4.698843   4.524729
    32  C    6.575644   5.130673   7.006666   6.099372   7.271631
    33  H    7.731152   6.418402   7.571487   6.102668   8.186957
    34  H    5.710844   4.251235   6.807865   6.558375   6.650639
    35  H    7.518815   6.090224   7.991406   7.119604   8.221317
                   11         12         13         14         15
    11  H    0.000000
    12  H    4.304727   0.000000
    13  H    2.488541   2.486791   0.000000
    14  C    5.045568   5.610926   6.084177   0.000000
    15  C    5.192247   6.673113   6.726355   1.394500   0.000000
    16  C    5.770715   5.772990   6.485685   1.398656   2.407122
    17  C    6.017309   7.696535   7.639236   2.417319   1.390976
    18  H    5.017870   6.895856   6.763119   2.162082   1.097472
    19  C    6.520400   6.929305   7.426011   2.419793   2.779616
    20  H    6.035932   5.233002   6.317606   2.165162   3.403408
    21  C    6.633839   7.811958   7.958918   2.796774   2.410985
    22  H    6.448882   8.583628   8.307580   3.406757   2.154998
    23  H    7.270711   7.320560   7.953141   3.410418   3.874475
    24  H    7.451936   8.766678   8.826888   3.891359   3.403707
    25  C    5.235004   5.579004   6.175988   2.517907   2.953324
    26  C    6.587209   6.381824   7.320831   3.401408   3.884887
    27  C    4.798526   6.046513   6.132906   3.314550   3.253493
    28  C    7.402693   7.450424   8.261166   4.617474   4.820137
    29  H    7.161266   6.394955   7.648199   3.500542   4.237306
    30  C    5.868879   7.164217   7.229126   4.555136   4.329687
    31  H    3.832603   5.770216   5.450893   3.344755   3.142521
    32  C    7.096974   7.800796   8.223444   5.094336   5.009978
    33  H    8.459045   8.197442   9.195005   5.441828   5.695757
    34  H    5.924664   7.725334   7.476904   5.346692   4.940833
    35  H    7.975137   8.759502   9.132662   6.155419   5.981149
                   16         17         18         19         20
    16  C    0.000000
    17  C    2.777657   0.000000
    18  H    3.404958   2.156717   0.000000
    19  C    1.389168   2.404750   3.877047   0.000000
    20  H    1.096322   3.873957   4.314413   2.153480   0.000000
    21  C    2.409695   1.389663   3.402864   1.391193   3.400672
    22  H    3.872518   1.094868   2.477501   3.398654   4.968823
    23  H    2.154725   3.398134   4.971908   1.094862   2.476186
    24  H    3.402054   2.158345   4.305758   2.159084   4.303149
    25  C    3.735192   4.312428   2.654271   4.880327   4.052795
    26  C    4.385147   5.111956   3.656639   5.501463   4.563201
    27  C    4.681013   4.580112   2.510364   5.682058   5.157230
    28  C    5.681228   5.993531   4.349059   6.705103   5.930815
    29  H    4.163764   5.348449   4.273158   5.290772   4.147257
    30  C    5.913619   5.549404   3.444478   6.855567   6.399585
    31  H    4.702036   4.401268   2.366532   5.619777   5.243840
    32  C    6.340126   6.188707   4.265365   7.306262   6.729967
    33  H    6.369586   6.784564   5.302350   7.359232   6.539316
    34  H    6.737231   6.071296   3.936995   7.603286   7.286974
    35  H    7.397970   7.090759   5.178910   8.319615   7.800560
                   21         22         23         24         25
    21  C    0.000000
    22  H    2.157057   0.000000
    23  H    2.158002   4.304129   0.000000
    24  H    1.094586   2.487832   2.487712   0.000000
    25  C    5.116370   4.963466   5.830331   6.180515   0.000000
    26  C    5.810057   5.749115   6.361770   6.833492   1.398276
    27  C    5.644091   4.981320   6.712984   6.654387   1.395826
    28  C    6.842765   6.445729   7.599097   7.814032   2.420493
    29  H    5.802237   6.103260   6.014483   6.804613   2.165402
    30  C    6.704562   5.774344   7.896799   7.660208   2.419236
    31  H    5.499841   4.743728   6.660522   6.478158   2.162707
    32  C    7.243974   6.460403   8.291774   8.192061   2.798472
    33  H    7.545297   7.236247   8.181870   8.478015   3.410683
    34  H    7.320190   6.139117   8.671708   8.223390   3.408562
    35  H    8.187476   7.259456   9.307082   9.093657   3.893082
                   26         27         28         29         30
    26  C    0.000000
    27  C    2.406255   0.000000
    28  C    1.389729   2.778236   0.000000
    29  H    1.096520   3.403590   2.153246   0.000000
    30  C    2.777995   1.390238   2.404515   3.874483   0.000000
    31  H    3.405950   1.101949   3.880175   4.315493   2.162784
    32  C    2.410110   2.410196   1.390689   3.400500   1.390087
    33  H    2.154942   3.873063   1.094830   2.475032   3.397953
    34  H    3.872809   2.154598   3.398448   4.969303   1.094822
    35  H    3.402644   3.402921   2.158925   4.302900   2.158618
                   31         32         33         34         35
    31  H    0.000000
    32  C    3.408442   0.000000
    33  H    4.975003   2.157459   0.000000
    34  H    2.484114   2.157556   4.304039   0.000000
    35  H    4.311875   1.094611   2.487530   2.488288   0.000000
 Stoichiometry    C19H16
 Framework group  C1[X(C19H16)]
 Deg. of freedom    99
 Full point group                 C1      NOp   1
 Largest Abelian subgroup         C1      NOp   1
 Largest concise Abelian subgroup C1      NOp   1
                         Standard orientation:                         
 ---------------------------------------------------------------------
 Center     Atomic      Atomic             Coordinates (Angstroms)
 Number     Number       Type             X           Y           Z
 ---------------------------------------------------------------------
      1          6           0       -0.023105   -0.012879   -0.754169
      2          1           0       -0.000506   -0.006677   -1.877885
      3          6           0        0.913678   -1.105340   -0.299747
      4          6           0        1.230138   -1.292009    1.046808
      5          6           0        1.497127   -1.939987   -1.256042
      6          6           0        2.120793   -2.286955    1.431196
      7          1           0        0.746692   -0.652726    1.801110
      8          6           0        2.385292   -2.937426   -0.869811
      9          1           0        1.255956   -1.809648   -2.317637
     10          6           0        2.701773   -3.110587    0.473052
     11          1           0        2.363502   -2.421317    2.490216
     12          1           0        2.837227   -3.586832   -1.626559
     13          1           0        3.404562   -3.893577    0.775142
     14          6           0        0.489191    1.335630   -0.308009
     15          6           0        0.069193    1.946765    0.872986
     16          6           0        1.428499    1.988052   -1.113171
     17          6           0        0.577118    3.187710    1.242959
     18          1           0       -0.673555    1.451240    1.511127
     19          6           0        1.936188    3.226270   -0.740539
     20          1           0        1.771073    1.519441   -2.043208
     21          6           0        1.511238    3.829544    0.438825
     22          1           0        0.237369    3.658637    2.171148
     23          1           0        2.672245    3.727626   -1.377394
     24          1           0        1.910587    4.805851    0.731165
     25          6           0       -1.458261   -0.259531   -0.360411
     26          6           0       -2.456360   -0.036081   -1.313849
     27          6           0       -1.827301   -0.696517    0.912846
     28          6           0       -3.793175   -0.247403   -0.998234
     29          1           0       -2.186185    0.309523   -2.318796
     30          6           0       -3.164824   -0.910272    1.226057
     31          1           0       -1.048403   -0.879979    1.670442
     32          6           0       -4.150755   -0.685897    0.272150
     33          1           0       -4.565816   -0.068735   -1.753057
     34          1           0       -3.439708   -1.257122    2.227441
     35          1           0       -5.203715   -0.854224    0.519363
 ---------------------------------------------------------------------
 Rotational constants (GHZ):      0.4002003      0.3719471      0.2369003
 Standard basis: 6-311G (5D, 7F)
 There are   295 symmetry adapted basis functions of A   symmetry.
 Integral buffers will be    262144 words long.
 Raffenetti 1 integral format.
 Two-electron integral symmetry is turned on.
   295 basis functions,   574 primitive gaussians,   295 cartesian basis functions
    65 alpha electrons       65 beta electrons
       nuclear repulsion energy      1288.3918083107 Hartrees.
 NAtoms=   35 NActive=   35 NUniq=   35 SFac= 7.50D-01 NAtFMM=   80 NAOKFM=F Big=F
 One-electron integrals computed using PRISM.
 PrsmSu:  requested number of processors reduced to:  10 ShMem   1 Linda.
 NBasis=   295 RedAO= T  NBF=   295
 NBsUse=   295 1.00D-06 NBFU=   295
 Harris functional with IExCor=  205 diagonalized for initial guess.
 ExpMin= 1.03D-01 ExpMax= 4.56D+03 ExpMxC= 6.82D+02 IAcc=1 IRadAn=         1 AccDes= 0.00D+00
 HarFok:  IExCor=  205 AccDes= 0.00D+00 IRadAn=         1 IDoV= 1
 ScaDFX=  1.000000  1.000000  1.000000  1.000000
 FoFCou: FMM=F IPFlag=           0 FMFlag=      100000 FMFlg1=           0
         NFxFlg=           0 DoJE=T BraDBF=F KetDBF=T FulRan=T
         Omega=  0.000000  0.000000  1.000000  0.000000  0.000000 ICntrl=     500 IOpCl=  0
         NMat0=    1 NMatS0=    1 NMatT0=    0 NMatD0=    1 NMtDS0=    0 NMtDT0=    0
         I1Cent=           4 NGrid=           0.
 Petite list used in FoFCou.
 Initial guess orbital symmetries:
       Occupied  (A) (A) (A) (A) (A) (A) (A) (A) (A) (A) (A) (A)
                 (A) (A) (A) (A) (A) (A) (A) (A) (A) (A) (A) (A)
                 (A) (A) (A) (A) (A) (A) (A) (A) (A) (A) (A) (A)
                 (A) (A) (A) (A) (A) (A) (A) (A) (A) (A) (A) (A)
                 (A) (A) (A) (A) (A) (A) (A) (A) (A) (A) (A) (A)
                 (A) (A) (A) (A) (A)
       Virtual   (A) (A) (A) (A) (A) (A) (A) (A) (A) (A) (A) (A)
                 (A) (A) (A) (A) (A) (A) (A) (A) (A) (A) (A) (A)
                 (A) (A) (A) (A) (A) (A) (A) (A) (A) (A) (A) (A)
                 (A) (A) (A) (A) (A) (A) (A) (A) (A) (A) (A) (A)
                 (A) (A) (A) (A) (A) (A) (A) (A) (A) (A) (A) (A)
                 (A) (A) (A) (A) (A) (A) (A) (A) (A) (A) (A) (A)
                 (A) (A) (A) (A) (A) (A) (A) (A) (A) (A) (A) (A)
                 (A) (A) (A) (A) (A) (A) (A) (A) (A) (A) (A) (A)
                 (A) (A) (A) (A) (A) (A) (A) (A) (A) (A) (A) (A)
                 (A) (A) (A) (A) (A) (A) (A) (A) (A) (A) (A) (A)
                 (A) (A) (A) (A) (A) (A) (A) (A) (A) (A) (A) (A)
                 (A) (A) (A) (A) (A) (A) (A) (A) (A) (A) (A) (A)
                 (A) (A) (A) (A) (A) (A) (A) (A) (A) (A) (A) (A)
                 (A) (A) (A) (A) (A) (A) (A) (A) (A) (A) (A) (A)
                 (A) (A) (A) (A) (A) (A) (A) (A) (A) (A) (A) (A)
                 (A) (A) (A) (A) (A) (A) (A) (A) (A) (A) (A) (A)
                 (A) (A) (A) (A) (A) (A) (A) (A) (A) (A) (A) (A)
                 (A) (A) (A) (A) (A) (A) (A) (A) (A) (A) (A) (A)
                 (A) (A) (A) (A) (A) (A) (A) (A) (A) (A) (A) (A)
                 (A) (A)
 The electronic state of the initial guess is 1-A.
 Requested convergence on RMS density matrix=1.00D-08 within 128 cycles.
 Requested convergence on MAX density matrix=1.00D-06.
 Requested convergence on             energy=1.00D-06.
 No special actions if energy rises.
 Integral accuracy reduced to 1.0D-05 until final iterations.
 Initial convergence to 1.0D-05 achieved.  Increase integral accuracy.
 SCF Done:  E(RHF) =  -728.671721909     A.U. after   14 cycles
             Convg  =    0.6167D-08             -V/T =  2.0001

 **********************************************************************

            Population analysis using the SCF density.

 **********************************************************************

 Orbital symmetries:
       Occupied  (A) (A) (A) (A) (A) (A) (A) (A) (A) (A) (A) (A)
                 (A) (A) (A) (A) (A) (A) (A) (A) (A) (A) (A) (A)
                 (A) (A) (A) (A) (A) (A) (A) (A) (A) (A) (A) (A)
                 (A) (A) (A) (A) (A) (A) (A) (A) (A) (A) (A) (A)
                 (A) (A) (A) (A) (A) (A) (A) (A) (A) (A) (A) (A)
                 (A) (A) (A) (A) (A)
       Virtual   (A) (A) (A) (A) (A) (A) (A) (A) (A) (A) (A) (A)
                 (A) (A) (A) (A) (A) (A) (A) (A) (A) (A) (A) (A)
                 (A) (A) (A) (A) (A) (A) (A) (A) (A) (A) (A) (A)
                 (A) (A) (A) (A) (A) (A) (A) (A) (A) (A) (A) (A)
                 (A) (A) (A) (A) (A) (A) (A) (A) (A) (A) (A) (A)
                 (A) (A) (A) (A) (A) (A) (A) (A) (A) (A) (A) (A)
                 (A) (A) (A) (A) (A) (A) (A) (A) (A) (A) (A) (A)
                 (A) (A) (A) (A) (A) (A) (A) (A) (A) (A) (A) (A)
                 (A) (A) (A) (A) (A) (A) (A) (A) (A) (A) (A) (A)
                 (A) (A) (A) (A) (A) (A) (A) (A) (A) (A) (A) (A)
                 (A) (A) (A) (A) (A) (A) (A) (A) (A) (A) (A) (A)
                 (A) (A) (A) (A) (A) (A) (A) (A) (A) (A) (A) (A)
                 (A) (A) (A) (A) (A) (A) (A) (A) (A) (A) (A) (A)
                 (A) (A) (A) (A) (A) (A) (A) (A) (A) (A) (A) (A)
                 (A) (A) (A) (A) (A) (A) (A) (A) (A) (A) (A) (A)
                 (A) (A) (A) (A) (A) (A) (A) (A) (A) (A) (A) (A)
                 (A) (A) (A) (A) (A) (A) (A) (A) (A) (A) (A) (A)
                 (A) (A) (A) (A) (A) (A) (A) (A) (A) (A) (A) (A)
                 (A) (A) (A) (A) (A) (A) (A) (A) (A) (A) (A) (A)
                 (A) (A)
 The electronic state is 1-A.
 Alpha  occ. eigenvalues --  -11.25831 -11.25273 -11.25261 -11.25131 -11.24446
 Alpha  occ. eigenvalues --  -11.24431 -11.24355 -11.24348 -11.24210 -11.24190
 Alpha  occ. eigenvalues --  -11.24126 -11.24117 -11.24109 -11.24053 -11.24025
 Alpha  occ. eigenvalues --  -11.24018 -11.23914 -11.23834 -11.23738  -1.18592
 Alpha  occ. eigenvalues --   -1.15828  -1.15682  -1.09038  -1.02412  -1.02115
 Alpha  occ. eigenvalues --   -1.01890  -1.01497  -1.01390  -0.92962  -0.84538
 Alpha  occ. eigenvalues --   -0.82941  -0.82542  -0.81708  -0.81564  -0.77734
 Alpha  occ. eigenvalues --   -0.70732  -0.70449  -0.69109  -0.65999  -0.63617
 Alpha  occ. eigenvalues --   -0.63501  -0.62370  -0.62034  -0.61901  -0.59570
 Alpha  occ. eigenvalues --   -0.58772  -0.58518  -0.58430  -0.57617  -0.53917
 Alpha  occ. eigenvalues --   -0.51741  -0.51083  -0.50853  -0.49674  -0.49166
 Alpha  occ. eigenvalues --   -0.48682  -0.47792  -0.47472  -0.46763  -0.34694
 Alpha  occ. eigenvalues --   -0.34244  -0.33698  -0.33588  -0.33279  -0.31180
 Alpha virt. eigenvalues --    0.11654   0.12013   0.13584   0.13745   0.14053
 Alpha virt. eigenvalues --    0.14933   0.15135   0.16274   0.16375   0.16881
 Alpha virt. eigenvalues --    0.18807   0.19133   0.19284   0.21285   0.21420
 Alpha virt. eigenvalues --    0.21511   0.23640   0.24244   0.24980   0.27162
 Alpha virt. eigenvalues --    0.28522   0.29486   0.34030   0.34192   0.35875
 Alpha virt. eigenvalues --    0.37460   0.38511   0.39680   0.40953   0.43682
 Alpha virt. eigenvalues --    0.44100   0.44378   0.45030   0.45398   0.45577
 Alpha virt. eigenvalues --    0.45871   0.46406   0.48414   0.49900   0.50382
 Alpha virt. eigenvalues --    0.50798   0.51017   0.51448   0.54977   0.55781
 Alpha virt. eigenvalues --    0.56806   0.57909   0.58955   0.59054   0.59612
 Alpha virt. eigenvalues --    0.59685   0.60668   0.61070   0.61499   0.61699
 Alpha virt. eigenvalues --    0.61851   0.62381   0.62469   0.63287   0.63463
 Alpha virt. eigenvalues --    0.64130   0.64996   0.65163   0.65421   0.66901
 Alpha virt. eigenvalues --    0.67410   0.68221   0.68439   0.70110   0.71394
 Alpha virt. eigenvalues --    0.72346   0.73799   0.74456   0.75069   0.76217
 Alpha virt. eigenvalues --    0.77291   0.78317   0.78620   0.80472   0.81186
 Alpha virt. eigenvalues --    0.81860   0.82194   0.82343   0.82823   0.82911
 Alpha virt. eigenvalues --    0.83519   0.83921   0.84056   0.84784   0.85604
 Alpha virt. eigenvalues --    0.86042   0.86384   0.86905   0.87458   0.88063
 Alpha virt. eigenvalues --    0.89668   0.90555   0.91266   0.92976   0.94412
 Alpha virt. eigenvalues --    0.96094   0.96854   0.97680   0.98137   0.98946
 Alpha virt. eigenvalues --    0.99332   1.00297   1.02794   1.05754   1.06230
 Alpha virt. eigenvalues --    1.06805   1.07138   1.08017   1.08379   1.10510
 Alpha virt. eigenvalues --    1.11091   1.12219   1.12492   1.12987   1.14261
 Alpha virt. eigenvalues --    1.14642   1.15380   1.18591   1.19508   1.21722
 Alpha virt. eigenvalues --    1.25344   1.26745   1.27689   1.28214   1.28845
 Alpha virt. eigenvalues --    1.30333   1.35137   1.39530   1.45222   1.46611
 Alpha virt. eigenvalues --    1.51667   1.52268   1.56505   2.54620   2.55622
 Alpha virt. eigenvalues --    2.56173   2.59195   2.61966   2.62497   2.64468
 Alpha virt. eigenvalues --    2.66999   2.67720   2.68454   2.72307   2.76761
 Alpha virt. eigenvalues --    2.77770   2.83500   2.87928   2.88628   2.94131
 Alpha virt. eigenvalues --    2.94275   2.94423   2.97079   2.97453   2.98030
 Alpha virt. eigenvalues --    3.00373   3.00772   3.04043   3.05739   3.07133
 Alpha virt. eigenvalues --    3.08137   3.08429   3.08976   3.09971   3.14332
 Alpha virt. eigenvalues --    3.14776   3.16346   3.16831   3.17572   3.18828
 Alpha virt. eigenvalues --    3.22648   3.25644   3.25823   3.28295   3.28899
 Alpha virt. eigenvalues --    3.30922   3.33381   3.34269   3.35152   3.42626
 Alpha virt. eigenvalues --    3.43063   3.44419   3.46944   3.49485   3.52247
 Alpha virt. eigenvalues --    3.53435   3.54459   3.59244   3.60656   3.60671
 Alpha virt. eigenvalues --    3.63130   3.63505   3.63783   3.65970   3.66664
 Alpha virt. eigenvalues --    3.68378   3.70283   3.70469   3.71431   3.73486
 Alpha virt. eigenvalues --    3.74197   3.75557   3.80869   3.85858   3.86657
 Alpha virt. eigenvalues --    3.93026  24.24836  24.30690  24.31556  24.50538
 Alpha virt. eigenvalues --   24.50837  24.51119  24.53995  24.54670  24.56104
 Alpha virt. eigenvalues --   24.77293  24.78600  24.79143  24.79617  24.80642
 Alpha virt. eigenvalues --   24.81843  24.83246  25.05551  25.05813  25.06130
          Condensed to atoms (all electrons):
              1          2          3          4          5          6
     1  C    5.829768   0.463806   0.185317  -0.054390  -0.026188   0.001398
     2  H    0.463806   0.512431  -0.074312   0.005550   0.002072  -0.000282
     3  C    0.185317  -0.074312   5.374752   0.438935   0.503666  -0.061707
     4  C   -0.054390   0.005550   0.438935   5.095334  -0.065437   0.479266
     5  C   -0.026188   0.002072   0.503666  -0.065437   5.070044  -0.033465
     6  C    0.001398  -0.000282  -0.061707   0.479266  -0.033465   5.035961
     7  H    0.003102   0.000067  -0.048475   0.388567   0.004049  -0.027225
     8  C    0.007679   0.001758  -0.072764  -0.029627   0.459764  -0.076829
     9  H   -0.000489   0.002418  -0.046645   0.004634   0.395735  -0.000238
    10  C    0.001273  -0.000013  -0.017880  -0.092100  -0.086335   0.494360
    11  H   -0.000319   0.000012   0.006072  -0.039063  -0.000449   0.396681
    12  H   -0.000368  -0.000037   0.007062  -0.000618  -0.039711   0.006225
    13  H   -0.000013  -0.000001  -0.001594   0.008019   0.007537  -0.042920
    14  C    0.157884  -0.059862  -0.154402  -0.007696  -0.005715   0.000744
    15  C   -0.040112   0.004915  -0.014072  -0.000069  -0.000318  -0.000031
    16  C   -0.050036  -0.003271   0.000703   0.000796   0.002048  -0.000066
    17  C    0.004821  -0.000248   0.000635  -0.000661   0.000027  -0.000016
    18  H   -0.001637  -0.000067  -0.001032   0.000494  -0.000082   0.000063
    19  C    0.006263   0.001549  -0.000424   0.000194  -0.000036   0.000002
    20  H    0.001775   0.001064   0.000557  -0.000051   0.001436  -0.000018
    21  C    0.000990   0.000009   0.000075   0.000029  -0.000003   0.000003
    22  H   -0.000325   0.000013   0.000005   0.000014   0.000000   0.000000
    23  H   -0.000351  -0.000026   0.000012   0.000003  -0.000001   0.000000
    24  H   -0.000012  -0.000002  -0.000001  -0.000001   0.000000   0.000000
    25  C    0.170802  -0.073767  -0.112296  -0.006282  -0.000336   0.001777
    26  C   -0.045271   0.002813   0.001958   0.000222   0.000195   0.000028
    27  C   -0.045872   0.005105  -0.004613  -0.017217   0.001492  -0.001736
    28  C    0.008267   0.001516  -0.000680   0.000029  -0.000004  -0.000001
    29  H   -0.000719   0.002685   0.000363  -0.000026  -0.000022   0.000002
    30  C    0.003575  -0.000275   0.001541  -0.000013   0.000042  -0.000089
    31  H   -0.000309  -0.000140  -0.003013   0.002866  -0.000258   0.001158
    32  C    0.001138  -0.000016   0.000021  -0.000004  -0.000011   0.000001
    33  H   -0.000389  -0.000029   0.000014   0.000000   0.000001   0.000000
    34  H   -0.000295   0.000014   0.000011   0.000031   0.000002   0.000000
    35  H   -0.000019  -0.000001  -0.000002   0.000001   0.000000   0.000000
              7          8          9         10         11         12
     1  C    0.003102   0.007679  -0.000489   0.001273  -0.000319  -0.000368
     2  H    0.000067   0.001758   0.002418  -0.000013   0.000012  -0.000037
     3  C   -0.048475  -0.072764  -0.046645  -0.017880   0.006072   0.007062
     4  C    0.388567  -0.029627   0.004634  -0.092100  -0.039063  -0.000618
     5  C    0.004049   0.459764   0.395735  -0.086335  -0.000449  -0.039711
     6  C   -0.027225  -0.076829  -0.000238   0.494360   0.396681   0.006225
     7  H    0.495255  -0.000169  -0.000260   0.004557  -0.003435   0.000021
     8  C   -0.000169   5.054903  -0.035041   0.496991   0.006001   0.396788
     9  H   -0.000260  -0.035041   0.510856   0.005163   0.000024  -0.004175
    10  C    0.004557   0.496991   0.005163   5.031016  -0.039553  -0.040781
    11  H   -0.003435   0.006001   0.000024  -0.039553   0.515382  -0.000211
    12  H    0.000021   0.396788  -0.004175  -0.040781  -0.000211   0.518282
    13  H   -0.000169  -0.042757  -0.000186   0.399627  -0.004455  -0.004584
    14  C   -0.001882  -0.000463   0.000151   0.000097   0.000018   0.000011
    15  C    0.004761   0.000048  -0.000048  -0.000004  -0.000002   0.000000
    16  C   -0.000267  -0.000099   0.000252  -0.000014   0.000006   0.000003
    17  C    0.000446  -0.000001   0.000000   0.000000  -0.000001   0.000000
    18  H    0.001031   0.000002   0.000000   0.000002  -0.000009   0.000000
    19  C   -0.000098   0.000007  -0.000006   0.000000   0.000001   0.000000
    20  H   -0.000037   0.000030   0.000255  -0.000012   0.000000  -0.000003
    21  C   -0.000011   0.000000   0.000000   0.000000   0.000000   0.000000
    22  H   -0.000001   0.000000   0.000000   0.000000   0.000000   0.000000
    23  H    0.000001   0.000000  -0.000001   0.000000   0.000000   0.000000
    24  H   -0.000001   0.000000   0.000000   0.000000   0.000000   0.000000
    25  C   -0.003184  -0.000601   0.000559  -0.000035   0.000008   0.000020
    26  C   -0.000196  -0.000009   0.000135  -0.000001   0.000000   0.000000
    27  C    0.000305   0.000125   0.000002   0.000045   0.000016  -0.000001
    28  C    0.000016   0.000001   0.000003   0.000000   0.000000   0.000000
    29  H   -0.000007   0.000001  -0.000025   0.000000   0.000000   0.000000
    30  C    0.000861   0.000000   0.000003   0.000003   0.000001   0.000000
    31  H    0.003448  -0.000139  -0.000004   0.000079  -0.000105   0.000000
    32  C   -0.000011   0.000000  -0.000001   0.000000   0.000000   0.000000
    33  H    0.000000   0.000000   0.000000   0.000000   0.000000   0.000000
    34  H   -0.000053   0.000000   0.000000  -0.000001   0.000001   0.000000
    35  H    0.000000   0.000000   0.000000   0.000000   0.000000   0.000000
             13         14         15         16         17         18
     1  C   -0.000013   0.157884  -0.040112  -0.050036   0.004821  -0.001637
     2  H   -0.000001  -0.059862   0.004915  -0.003271  -0.000248  -0.000067
     3  C   -0.001594  -0.154402  -0.014072   0.000703   0.000635  -0.001032
     4  C    0.008019  -0.007696  -0.000069   0.000796  -0.000661   0.000494
     5  C    0.007537  -0.005715  -0.000318   0.002048   0.000027  -0.000082
     6  C   -0.042920   0.000744  -0.000031  -0.000066  -0.000016   0.000063
     7  H   -0.000169  -0.001882   0.004761  -0.000267   0.000446   0.001031
     8  C   -0.042757  -0.000463   0.000048  -0.000099  -0.000001   0.000002
     9  H   -0.000186   0.000151  -0.000048   0.000252   0.000000   0.000000
    10  C    0.399627   0.000097  -0.000004  -0.000014   0.000000   0.000002
    11  H   -0.004455   0.000018  -0.000002   0.000006  -0.000001  -0.000009
    12  H   -0.004584   0.000011   0.000000   0.000003   0.000000   0.000000
    13  H    0.517483  -0.000002   0.000000   0.000000   0.000000   0.000000
    14  C   -0.000002   5.366387   0.485846   0.473144  -0.064554  -0.042674
    15  C    0.000000   0.485846   5.087571  -0.071963   0.471563   0.390185
    16  C    0.000000   0.473144  -0.071963   5.071670  -0.031579   0.004187
    17  C    0.000000  -0.064554   0.471563  -0.031579   5.050385  -0.029929
    18  H    0.000000  -0.042674   0.390185   0.004187  -0.029929   0.481538
    19  C    0.000000  -0.065332  -0.027892   0.466295  -0.076903  -0.000181
    20  H    0.000000  -0.050635   0.004142   0.399571  -0.000335  -0.000249
    21  C    0.000000  -0.018518  -0.093486  -0.086104   0.499280   0.004711
    22  H    0.000000   0.006180  -0.037583  -0.000424   0.395905  -0.003334
    23  H    0.000000   0.006707  -0.000523  -0.039645   0.006124   0.000020
    24  H    0.000000  -0.001479   0.007826   0.007373  -0.042207  -0.000182
    25  C   -0.000001  -0.103978  -0.014395   0.006365   0.000519  -0.003174
    26  C    0.000000  -0.001459   0.001911   0.000451  -0.000089  -0.000885
    27  C    0.000001  -0.005838  -0.007355  -0.000176   0.000016   0.001094
    28  C    0.000000  -0.000715   0.000225   0.000003  -0.000003  -0.000135
    29  H    0.000000   0.000479   0.000186   0.000118   0.000009  -0.000037
    30  C    0.000000   0.000879  -0.001487   0.000023  -0.000031   0.000958
    31  H    0.000000  -0.000494   0.000336  -0.000028   0.000052   0.000144
    32  C    0.000000   0.000023   0.000081  -0.000001   0.000004   0.000047
    33  H    0.000000   0.000021  -0.000001   0.000000   0.000000   0.000001
    34  H    0.000000  -0.000007   0.000013  -0.000001   0.000001  -0.000003
    35  H    0.000000   0.000001   0.000000   0.000000   0.000000   0.000000
             19         20         21         22         23         24
     1  C    0.006263   0.001775   0.000990  -0.000325  -0.000351  -0.000012
     2  H    0.001549   0.001064   0.000009   0.000013  -0.000026  -0.000002
     3  C   -0.000424   0.000557   0.000075   0.000005   0.000012  -0.000001
     4  C    0.000194  -0.000051   0.000029   0.000014   0.000003  -0.000001
     5  C   -0.000036   0.001436  -0.000003   0.000000  -0.000001   0.000000
     6  C    0.000002  -0.000018   0.000003   0.000000   0.000000   0.000000
     7  H   -0.000098  -0.000037  -0.000011  -0.000001   0.000001  -0.000001
     8  C    0.000007   0.000030   0.000000   0.000000   0.000000   0.000000
     9  H   -0.000006   0.000255   0.000000   0.000000  -0.000001   0.000000
    10  C    0.000000  -0.000012   0.000000   0.000000   0.000000   0.000000
    11  H    0.000001   0.000000   0.000000   0.000000   0.000000   0.000000
    12  H    0.000000  -0.000003   0.000000   0.000000   0.000000   0.000000
    13  H    0.000000   0.000000   0.000000   0.000000   0.000000   0.000000
    14  C   -0.065332  -0.050635  -0.018518   0.006180   0.006707  -0.001479
    15  C   -0.027892   0.004142  -0.093486  -0.037583  -0.000523   0.007826
    16  C    0.466295   0.399571  -0.086104  -0.000424  -0.039645   0.007373
    17  C   -0.076903  -0.000335   0.499280   0.395905   0.006124  -0.042207
    18  H   -0.000181  -0.000249   0.004711  -0.003334   0.000020  -0.000182
    19  C    5.050267  -0.035572   0.488935   0.005998   0.397085  -0.042952
    20  H   -0.035572   0.509944   0.005341   0.000024  -0.004288  -0.000185
    21  C    0.488935   0.005341   5.033400  -0.040253  -0.040725   0.399195
    22  H    0.005998   0.000024  -0.040253   0.516809  -0.000213  -0.004444
    23  H    0.397085  -0.004288  -0.040725  -0.000213   0.518589  -0.004486
    24  H   -0.042952  -0.000185   0.399195  -0.004444  -0.004486   0.518523
    25  C   -0.000758   0.000693   0.000045   0.000037   0.000011  -0.000001
    26  C   -0.000017   0.000013  -0.000013   0.000007   0.000001   0.000000
    27  C    0.000025  -0.000038  -0.000019   0.000028   0.000000   0.000001
    28  C    0.000001   0.000001   0.000000   0.000001   0.000000   0.000000
    29  H   -0.000008   0.000003  -0.000004   0.000000   0.000000   0.000000
    30  C    0.000000   0.000000   0.000000  -0.000001   0.000000   0.000000
    31  H    0.000006   0.000007   0.000001  -0.000017   0.000000   0.000000
    32  C    0.000000   0.000000   0.000000  -0.000001   0.000000   0.000000
    33  H    0.000000   0.000000   0.000000   0.000000   0.000000   0.000000
    34  H    0.000000   0.000000   0.000000   0.000000   0.000000   0.000000
    35  H    0.000000   0.000000   0.000000   0.000000   0.000000   0.000000
             25         26         27         28         29         30
     1  C    0.170802  -0.045271  -0.045872   0.008267  -0.000719   0.003575
     2  H   -0.073767   0.002813   0.005105   0.001516   0.002685  -0.000275
     3  C   -0.112296   0.001958  -0.004613  -0.000680   0.000363   0.001541
     4  C   -0.006282   0.000222  -0.017217   0.000029  -0.000026  -0.000013
     5  C   -0.000336   0.000195   0.001492  -0.000004  -0.000022   0.000042
     6  C    0.001777   0.000028  -0.001736  -0.000001   0.000002  -0.000089
     7  H   -0.003184  -0.000196   0.000305   0.000016  -0.000007   0.000861
     8  C   -0.000601  -0.000009   0.000125   0.000001   0.000001   0.000000
     9  H    0.000559   0.000135   0.000002   0.000003  -0.000025   0.000003
    10  C   -0.000035  -0.000001   0.000045   0.000000   0.000000   0.000003
    11  H    0.000008   0.000000   0.000016   0.000000   0.000000   0.000001
    12  H    0.000020   0.000000  -0.000001   0.000000   0.000000   0.000000
    13  H   -0.000001   0.000000   0.000001   0.000000   0.000000   0.000000
    14  C   -0.103978  -0.001459  -0.005838  -0.000715   0.000479   0.000879
    15  C   -0.014395   0.001911  -0.007355   0.000225   0.000186  -0.001487
    16  C    0.006365   0.000451  -0.000176   0.000003   0.000118   0.000023
    17  C    0.000519  -0.000089   0.000016  -0.000003   0.000009  -0.000031
    18  H   -0.003174  -0.000885   0.001094  -0.000135  -0.000037   0.000958
    19  C   -0.000758  -0.000017   0.000025   0.000001  -0.000008   0.000000
    20  H    0.000693   0.000013  -0.000038   0.000001   0.000003   0.000000
    21  C    0.000045  -0.000013  -0.000019   0.000000  -0.000004   0.000000
    22  H    0.000037   0.000007   0.000028   0.000001   0.000000  -0.000001
    23  H    0.000011   0.000001   0.000000   0.000000   0.000000   0.000000
    24  H   -0.000001   0.000000   0.000001   0.000000   0.000000   0.000000
    25  C    5.366573   0.495153   0.450235  -0.071559  -0.045668  -0.064434
    26  C    0.495153   5.040912  -0.061489   0.471727   0.394470  -0.036131
    27  C    0.450235  -0.061489   5.121814  -0.031239   0.004754   0.473371
    28  C   -0.071559   0.471727  -0.031239   5.044540  -0.034686  -0.075108
    29  H   -0.045668   0.394470   0.004754  -0.034686   0.507681  -0.000401
    30  C   -0.064434  -0.036131   0.473371  -0.075108  -0.000401   5.056505
    31  H   -0.053049   0.004506   0.386606  -0.000213  -0.000243  -0.025336
    32  C   -0.017761  -0.086734  -0.094840   0.494616   0.005351   0.495853
    33  H    0.007149  -0.039670  -0.000599   0.396664  -0.004217   0.006229
    34  H    0.006030  -0.000392  -0.036760   0.005897   0.000022   0.395573
    35  H   -0.001593   0.007488   0.008122  -0.042957  -0.000183  -0.042539
             31         32         33         34         35
     1  C   -0.000309   0.001138  -0.000389  -0.000295  -0.000019
     2  H   -0.000140  -0.000016  -0.000029   0.000014  -0.000001
     3  C   -0.003013   0.000021   0.000014   0.000011  -0.000002
     4  C    0.002866  -0.000004   0.000000   0.000031   0.000001
     5  C   -0.000258  -0.000011   0.000001   0.000002   0.000000
     6  C    0.001158   0.000001   0.000000   0.000000   0.000000
     7  H    0.003448  -0.000011   0.000000  -0.000053   0.000000
     8  C   -0.000139   0.000000   0.000000   0.000000   0.000000
     9  H   -0.000004  -0.000001   0.000000   0.000000   0.000000
    10  C    0.000079   0.000000   0.000000  -0.000001   0.000000
    11  H   -0.000105   0.000000   0.000000   0.000001   0.000000
    12  H    0.000000   0.000000   0.000000   0.000000   0.000000
    13  H    0.000000   0.000000   0.000000   0.000000   0.000000
    14  C   -0.000494   0.000023   0.000021  -0.000007   0.000001
    15  C    0.000336   0.000081  -0.000001   0.000013   0.000000
    16  C   -0.000028  -0.000001   0.000000  -0.000001   0.000000
    17  C    0.000052   0.000004   0.000000   0.000001   0.000000
    18  H    0.000144   0.000047   0.000001  -0.000003   0.000000
    19  C    0.000006   0.000000   0.000000   0.000000   0.000000
    20  H    0.000007   0.000000   0.000000   0.000000   0.000000
    21  C    0.000001   0.000000   0.000000   0.000000   0.000000
    22  H   -0.000017  -0.000001   0.000000   0.000000   0.000000
    23  H    0.000000   0.000000   0.000000   0.000000   0.000000
    24  H    0.000000   0.000000   0.000000   0.000000   0.000000
    25  C   -0.053049  -0.017761   0.007149   0.006030  -0.001593
    26  C    0.004506  -0.086734  -0.039670  -0.000392   0.007488
    27  C    0.386606  -0.094840  -0.000599  -0.036760   0.008122
    28  C   -0.000213   0.494616   0.396664   0.005897  -0.042957
    29  H   -0.000243   0.005351  -0.004217   0.000022  -0.000183
    30  C   -0.025336   0.495853   0.006229   0.395573  -0.042539
    31  H    0.498410   0.004795   0.000020  -0.003439  -0.000183
    32  C    0.004795   5.030332  -0.041065  -0.039652   0.399172
    33  H    0.000020  -0.041065   0.517943  -0.000212  -0.004550
    34  H   -0.003439  -0.039652  -0.000212   0.515480  -0.004354
    35  H   -0.000183   0.399172  -0.004550  -0.004354   0.517640
 Mulliken atomic charges:
              1
     1  C   -0.580743
     2  H    0.204555
     3  C    0.092214
     4  C   -0.111726
     5  C   -0.189739
     6  C   -0.173046
     7  H    0.178997
     8  C   -0.165598
     9  H    0.166928
    10  C   -0.156484
    11  H    0.163380
    12  H    0.162077
    13  H    0.164016
    14  C    0.087134
    15  C   -0.150267
    16  C   -0.149334
    17  C   -0.183231
    18  H    0.199134
    19  C   -0.166447
    20  H    0.166565
    21  C   -0.152877
    22  H    0.161574
    23  H    0.161707
    24  H    0.163037
    25  C    0.066893
    26  C   -0.149633
    27  C   -0.145366
    28  C   -0.166206
    29  H    0.170122
    30  C   -0.189573
    31  H    0.184538
    32  C   -0.151336
    33  H    0.162690
    34  H    0.162091
    35  H    0.163959
 Sum of Mulliken atomic charges =   0.00000
 Mulliken charges with hydrogens summed into heavy atoms:
              1
     1  C   -0.376189
     3  C    0.092214
     4  C    0.067270
     5  C   -0.022811
     6  C   -0.009666
     8  C   -0.003520
    10  C    0.007532
    14  C    0.087134
    15  C    0.048866
    16  C    0.017230
    17  C   -0.021657
    19  C   -0.004741
    21  C    0.010160
    25  C    0.066893
    26  C    0.020489
    27  C    0.039172
    28  C   -0.003516
    30  C   -0.027482
    32  C    0.012622
 Sum of Mulliken charges with hydrogens summed into heavy atoms =   0.00000
 Electronic spatial extent (au):  <R**2>=           4939.6386
 Charge=              0.0000 electrons
 Dipole moment (field-independent basis, Debye):
    X=              0.0134    Y=             -0.0666    Z=             -0.0427  Tot=              0.0802
 Quadrupole moment (field-independent basis, Debye-Ang):
   XX=           -110.6035   YY=           -114.0705   ZZ=           -102.8527
   XY=             -0.7976   XZ=             -2.2747   YZ=             -0.1551
 Traceless Quadrupole moment (field-independent basis, Debye-Ang):
   XX=             -1.4279   YY=             -4.8950   ZZ=              6.3229
   XY=             -0.7976   XZ=             -2.2747   YZ=             -0.1551
 Octapole moment (field-independent basis, Debye-Ang**2):
  XXX=            -39.9406  YYY=             18.2156  ZZZ=             -0.1799  XYY=             44.6765
  XXY=            -14.1933  XXZ=             -6.5032  XZZ=             -0.7181  YZZ=             -4.8148
  YYZ=             10.3834  XYZ=             -0.0809
 Hexadecapole moment (field-independent basis, Debye-Ang**3):
 XXXX=          -3092.5290 YYYY=          -2906.9804 ZZZZ=           -786.8293 XXXY=              6.1812
 XXXZ=             -1.0689 YYYX=             -2.7846 YYYZ=             58.6368 ZZZX=             -6.2773
 ZZZY=             -4.0241 XXYY=           -972.8650 XXZZ=           -631.5240 YYZZ=           -601.1381
 XXYZ=            -49.9352 YYXZ=            -22.2309 ZZXY=            -15.6213
 N-N= 1.288391808311D+03 E-N=-4.272793744969D+03  KE= 7.285924403422D+02
 PrsmSu:  requested number of processors reduced to:  10 ShMem   1 Linda.
 Calling FoFJK, ICntrl=      2127 FMM=F ISym2X=0 I1Cent= 0 IOpClX= 0 NMat=1 NMatS=1 NMatT=0.
 ***** Axes restored to original set *****
 -------------------------------------------------------------------
 Center     Atomic                   Forces (Hartrees/Bohr)
 Number     Number              X              Y              Z
 -------------------------------------------------------------------
      1        6          -0.000457751    0.003758868   -0.023626434
      2        1          -0.000557767   -0.002797518    0.027337258
      3        6          -0.012999176    0.002523944   -0.005073199
      4        6           0.006752781   -0.003181220    0.009074152
      5        6           0.001313568    0.001161457   -0.005831237
      6        6          -0.000763287   -0.002024813    0.012259577
      7        1          -0.022929439   -0.002661976   -0.014271347
      8        6          -0.010732820    0.002928524   -0.007385063
      9        1          -0.003757872   -0.003305386    0.016988411
     10        6          -0.013414455    0.001025202    0.002112058
     11        1           0.004029095    0.003094264   -0.015912127
     12        1           0.011659526   -0.003894317    0.011213613
     13        1           0.016126315   -0.000762686   -0.004763590
     14        6           0.007123417   -0.012303076   -0.003295070
     15        6           0.002753632    0.007431991    0.007841355
     16        6          -0.003124989   -0.000501489   -0.005602462
     17        6           0.005519465   -0.003610379    0.010188264
     18        1          -0.001482229   -0.016615204   -0.014298784
     19        6          -0.002835233   -0.008993688   -0.008672343
     20        1           0.009136266   -0.002814768    0.014553963
     21        6           0.004945887   -0.012376028    0.002575005
     22        1          -0.008645075    0.003307367   -0.013912790
     23        1           0.003032967    0.011973483    0.011181991
     24        1          -0.005699735    0.015502250   -0.002685879
     25        6           0.007132413    0.010843974   -0.003287131
     26        6           0.001059006   -0.001378006   -0.006070806
     27        6          -0.008401484   -0.003575171    0.009929313
     28        6           0.008721919    0.006164578   -0.007543077
     29        1          -0.001271090    0.004634400    0.017085452
     30        6          -0.000280705    0.002880018    0.011787819
     31        1           0.019649395    0.018024591   -0.014842042
     32        6           0.008252586    0.010016755    0.003636544
     33        1          -0.010498000   -0.007348413    0.010673746
     34        1           0.000663012   -0.004779733   -0.015983837
     35        1          -0.010020140   -0.012347793   -0.005381304
 -------------------------------------------------------------------
 Cartesian Forces:  Max     0.027337258 RMS     0.009559626

 GradGradGradGradGradGradGradGradGradGradGradGradGradGradGradGradGradGrad
 Berny optimization.
 Internal  Forces:  Max     0.029849779 RMS     0.007837212
 Search for a local minimum.
 Step number   1 out of a maximum of  197
 All quantities printed in internal units (Hartrees-Bohrs-Radians)
 Mixed Optimization -- RFO/linear search
 Second derivative matrix not updated -- first step.
     Eigenvalues ---    0.00634   0.00645   0.00654   0.01530   0.01533
     Eigenvalues ---    0.01536   0.02137   0.02140   0.02146   0.02168
     Eigenvalues ---    0.02170   0.02172   0.02181   0.02185   0.02187
     Eigenvalues ---    0.02202   0.02203   0.02203   0.02213   0.02213
     Eigenvalues ---    0.02215   0.02216   0.02216   0.02217   0.02217
     Eigenvalues ---    0.02218   0.02219   0.02219   0.02220   0.02222
     Eigenvalues ---    0.04519   0.06372   0.06675   0.15996   0.15999
     Eigenvalues ---    0.15999   0.16000   0.16000   0.16000   0.16000
     Eigenvalues ---    0.16000   0.16000   0.16000   0.16000   0.16000
     Eigenvalues ---    0.16000   0.16000   0.16000   0.18938   0.19365
     Eigenvalues ---    0.22000   0.22000   0.22000   0.22000   0.22000
     Eigenvalues ---    0.22000   0.23476   0.23476   0.23477   0.24996
     Eigenvalues ---    0.24999   0.25000   0.31166   0.31354   0.31436
     Eigenvalues ---    0.31502   0.33468   0.33613   0.33963   0.34070
     Eigenvalues ---    0.34081   0.34092   0.34256   0.34257   0.34260
     Eigenvalues ---    0.34261   0.34261   0.34269   0.34281   0.34285
     Eigenvalues ---    0.34288   0.42417   0.42426   0.42488   0.42574
     Eigenvalues ---    0.42587   0.42616   0.46340   0.46357   0.46435
     Eigenvalues ---    0.46767   0.46779   0.46828   0.47221   0.47235
     Eigenvalues ---    0.47262   0.47329   0.47340   0.473701000.00000
     Eigenvalues --- 1000.000001000.000001000.000001000.000001000.00000
     Eigenvalues --- 1000.000001000.000001000.000001000.000001000.00000
     Eigenvalues --- 1000.000001000.000001000.000001000.000001000.00000
     Eigenvalues --- 1000.000001000.000001000.000001000.000001000.00000
     Eigenvalues --- 1000.000001000.000001000.000001000.000001000.00000
     Eigenvalues --- 1000.000001000.000001000.000001000.000001000.00000
     Eigenvalues --- 1000.000001000.000001000.000001000.000001000.00000
     Eigenvalues --- 1000.000001000.000001000.000001000.000001000.00000
     Eigenvalues --- 1000.000001000.000001000.000001000.000001000.00000
     Eigenvalues --- 1000.000001000.000001000.000001000.000001000.00000
     Eigenvalues --- 1000.000001000.000001000.000001000.000001000.00000
     Eigenvalues --- 1000.000001000.000001000.000001000.000001000.00000
     Eigenvalues --- 1000.000001000.000001000.000001000.000001000.00000
     Eigenvalues --- 1000.000001000.000001000.000001000.000001000.00000
     Eigenvalues --- 1000.000001000.000001000.000001000.000001000.00000
     Eigenvalues --- 1000.000001000.000001000.000001000.000001000.00000
     Eigenvalues --- 1000.000001000.000001000.000001000.000001000.00000
     Eigenvalues --- 1000.000001000.00000
 RFO step:  Lambda=-4.29141137D-02 EMin= 6.34173000D-03
 Linear search not attempted -- first point.
 Maximum step size (   0.300) exceeded in Quadratic search.
    -- Step size scaled by   0.575
 Iteration  1 RMS(Cart)=  0.12597268 RMS(Int)=  0.00284515
 Iteration  2 RMS(Cart)=  0.00585397 RMS(Int)=  0.00028922
 Iteration  3 RMS(Cart)=  0.00000907 RMS(Int)=  0.00028917
 Iteration  4 RMS(Cart)=  0.00000000 RMS(Int)=  0.00028917
 Variable       Old X    -DE/DX   Delta X   Delta X   Delta X     New X
                                 (Linear)    (Quad)   (Total)
    R1        2.12398  -0.02747   0.00000  -0.04454  -0.04454   2.07944
    R2        2.85188   0.02265   0.00000   0.03645   0.03645   2.88833
    R3        2.85341   0.02086   0.00000   0.03364   0.03364   2.88705
    R4        2.85064   0.02569   0.00000   0.04126   0.04126   2.89191
    R5        2.63764   0.00078   0.00000   0.00104   0.00106   2.63870
    R6        2.63991  -0.00420   0.00000  -0.00471  -0.00470   2.63521
    R7        2.62593  -0.00454   0.00000  -0.00498  -0.00497   2.62096
    R8        2.07988  -0.02544   0.00000  -0.03858  -0.03858   2.04130
    R9        2.62726  -0.00277   0.00000  -0.00315  -0.00316   2.62410
   R10        2.07193  -0.01770   0.00000  -0.02652  -0.02652   2.04541
   R11        2.62797  -0.00548   0.00000  -0.00620  -0.00621   2.62177
   R12        2.06878  -0.01670   0.00000  -0.02490  -0.02490   2.04388
   R13        2.62762  -0.00831   0.00000  -0.00942  -0.00944   2.61818
   R14        2.06892  -0.01664   0.00000  -0.02481  -0.02481   2.04411
   R15        2.06858  -0.01683   0.00000  -0.02508  -0.02508   2.04349
   R16        2.63522  -0.00250   0.00000  -0.00277  -0.00276   2.63246
   R17        2.64308  -0.00427   0.00000  -0.00492  -0.00491   2.63817
   R18        2.62856  -0.00274   0.00000  -0.00299  -0.00299   2.62557
   R19        2.07392  -0.02181   0.00000  -0.03277  -0.03277   2.04115
   R20        2.62515  -0.00412   0.00000  -0.00465  -0.00465   2.62050
   R21        2.07175  -0.01740   0.00000  -0.02606  -0.02606   2.04569
   R22        2.62608  -0.00625   0.00000  -0.00694  -0.00694   2.61914
   R23        2.06900  -0.01671   0.00000  -0.02492  -0.02492   2.04408
   R24        2.62897  -0.00603   0.00000  -0.00681  -0.00681   2.62216
   R25        2.06899  -0.01666   0.00000  -0.02484  -0.02484   2.04415
   R26        2.06847  -0.01673   0.00000  -0.02493  -0.02493   2.04354
   R27        2.64236  -0.00356   0.00000  -0.00402  -0.00400   2.63836
   R28        2.63773   0.00077   0.00000   0.00106   0.00108   2.63880
   R29        2.62621  -0.00359   0.00000  -0.00412  -0.00411   2.62209
   R30        2.07212  -0.01773   0.00000  -0.02657  -0.02657   2.04555
   R31        2.62717  -0.00319   0.00000  -0.00343  -0.00344   2.62373
   R32        2.08238  -0.02985   0.00000  -0.04544  -0.04544   2.03694
   R33        2.62802  -0.00838   0.00000  -0.00954  -0.00955   2.61847
   R34        2.06893  -0.01668   0.00000  -0.02487  -0.02487   2.04406
   R35        2.62688  -0.00675   0.00000  -0.00759  -0.00761   2.61928
   R36        2.06891  -0.01670   0.00000  -0.02489  -0.02489   2.04402
   R37        2.06851  -0.01679   0.00000  -0.02501  -0.02501   2.04350
    A1        1.86770  -0.00592   0.00000  -0.03540  -0.03465   1.83305
    A2        1.85841  -0.00028   0.00000  -0.01902  -0.01885   1.83956
    A3        1.85563  -0.00923   0.00000  -0.04551  -0.04457   1.81107
    A4        1.92508  -0.00405   0.00000   0.00959   0.00725   1.93233
    A5        1.97534   0.01476   0.00000   0.05382   0.05265   2.02798
    A6        1.97325   0.00300   0.00000   0.02538   0.02347   1.99672
    A7        2.12709   0.01650   0.00000   0.03228   0.03220   2.15928
    A8        2.07788  -0.00632   0.00000  -0.01250  -0.01257   2.06530
    A9        2.07808  -0.01021   0.00000  -0.02007  -0.02007   2.05801
   A10        2.10359   0.00379   0.00000   0.00843   0.00836   2.11195
   A11        2.07590   0.00414   0.00000   0.01304   0.01292   2.08883
   A12        2.10347  -0.00786   0.00000  -0.02095  -0.02107   2.08240
   A13        2.10050   0.00695   0.00000   0.01484   0.01484   2.11535
   A14        2.09429  -0.00404   0.00000  -0.00902  -0.00903   2.08526
   A15        2.08839  -0.00291   0.00000  -0.00581  -0.00582   2.08256
   A16        2.09583   0.00212   0.00000   0.00425   0.00425   2.10008
   A17        2.09159  -0.00097   0.00000  -0.00186  -0.00187   2.08972
   A18        2.09576  -0.00115   0.00000  -0.00239  -0.00240   2.09337
   A19        2.09791  -0.00010   0.00000  -0.00100  -0.00102   2.09689
   A20        2.09121   0.00020   0.00000   0.00092   0.00093   2.09214
   A21        2.09406  -0.00010   0.00000   0.00008   0.00009   2.09416
   A22        2.09041  -0.00253   0.00000  -0.00633  -0.00637   2.08404
   A23        2.09638   0.00126   0.00000   0.00317   0.00317   2.09955
   A24        2.09639   0.00127   0.00000   0.00318   0.00318   2.09957
   A25        2.14057   0.00959   0.00000   0.01891   0.01891   2.15948
   A26        2.06501  -0.00202   0.00000  -0.00388  -0.00388   2.06113
   A27        2.07758  -0.00757   0.00000  -0.01504  -0.01503   2.06256
   A28        2.10163   0.00315   0.00000   0.00686   0.00686   2.10849
   A29        2.09255   0.00058   0.00000   0.00265   0.00265   2.09520
   A30        2.08896  -0.00373   0.00000  -0.00954  -0.00954   2.07942
   A31        2.10226   0.00531   0.00000   0.01114   0.01115   2.11341
   A32        2.09304  -0.00328   0.00000  -0.00733  -0.00734   2.08570
   A33        2.08788  -0.00203   0.00000  -0.00381  -0.00382   2.08407
   A34        2.09855   0.00132   0.00000   0.00278   0.00277   2.10132
   A35        2.08967  -0.00060   0.00000  -0.00123  -0.00122   2.08845
   A36        2.09496  -0.00072   0.00000  -0.00156  -0.00155   2.09341
   A37        2.09703   0.00009   0.00000  -0.00035  -0.00036   2.09668
   A38        2.09188   0.00002   0.00000   0.00035   0.00035   2.09224
   A39        2.09427  -0.00011   0.00000   0.00000   0.00000   2.09427
   A40        2.08931  -0.00229   0.00000  -0.00539  -0.00540   2.08391
   A41        2.09746   0.00113   0.00000   0.00265   0.00266   2.10012
   A42        2.09641   0.00116   0.00000   0.00273   0.00274   2.09915
   A43        2.06575  -0.01297   0.00000  -0.02548  -0.02549   2.04025
   A44        2.14222   0.02509   0.00000   0.04922   0.04920   2.19142
   A45        2.07522  -0.01212   0.00000  -0.02374  -0.02370   2.05151
   A46        2.10305   0.00830   0.00000   0.01758   0.01761   2.12066
   A47        2.09372  -0.00487   0.00000  -0.01084  -0.01085   2.08287
   A48        2.08642  -0.00343   0.00000  -0.00675  -0.00676   2.07966
   A49        2.10367   0.00441   0.00000   0.00979   0.00979   2.11346
   A50        2.08562   0.00421   0.00000   0.01326   0.01325   2.09887
   A51        2.09387  -0.00862   0.00000  -0.02307  -0.02308   2.07079
   A52        2.09756   0.00003   0.00000  -0.00099  -0.00099   2.09657
   A53        2.09146   0.00005   0.00000   0.00068   0.00069   2.09215
   A54        2.09416  -0.00008   0.00000   0.00030   0.00030   2.09447
   A55        2.09780   0.00243   0.00000   0.00498   0.00495   2.10275
   A56        2.09016  -0.00115   0.00000  -0.00232  -0.00230   2.08786
   A57        2.09522  -0.00128   0.00000  -0.00266  -0.00265   2.09257
[...]
 0018861,-0.00004213,-0.00024607,0.00006980,0.00011014,-0.00001628,-0.0
 0013185,-0.00001869,0.00008500,0.00001552,-0.00014462,-0.00002926,-0.0
 0003241,-0.00000792,-0.00001591,-0.00013647,0.00009317,0.00000216,0.00
 001028,-0.00002098,0.00002183,-0.00000724,0.00002970,0.00004072,-0.000
 00013,-0.00000093,-0.00042281,-0.00035798,-0.00076616,-0.00019411,-0.0
 0015643,-0.00019919,0.00012313,-0.00034024,0.00009427,0.00006704,0.000
 00661,0.00009332,0.00009249,-0.00008220,0.00008728,-0.00002492,0.00002
 370,-0.00005166,0.00003507,0.00001504,0.00005076,0.00001262,0.00004910
 ,0.00004000,0.00000795,-0.00001929,-0.00000394,0.00000874,-0.00000391,
 0.00001283,0.00000011,0.00002462,0.00001212,-0.02784451,-0.03030972,0.
 00318479,0.01291038,0.01137902,-0.00659720,-0.03864103,-0.09344590,-0.
 15758919,0.02951280,-0.01059990,-0.03704835,-0.00035317,0.00079859,0.0
 0045829,-0.18755730,0.22315400,0.66588658,-0.00193513,0.00142553,-0.00
 156944,-0.00015043,-0.00017652,-0.00007605,-0.00049056,-0.00136448,-0.
 00179202,-0.00057042,-0.00080289,-0.00052430,0.00025934,-0.00047437,-0
 .00014641,0.00015855,-0.00023281,-0.00000907,0.00004969,0.00028604,0.0
 0003933,-0.00016791,0.00008604,0.00008821,0.00002501,0.00003490,0.0000
 1624,-0.00011796,0.00023501,-0.00006599,0.00002039,0.00002029,-0.00000
 227,-0.00001053,-0.00001142,0.00000067,0.00000486,0.00000737,-0.000004
 01,0.00046234,0.00024329,0.00043381,0.00027342,0.00027249,0.00016098,-
 0.00008322,0.00018611,-0.00010427,-0.00003707,-0.00003169,-0.00010655,
 -0.00032003,-0.00007632,0.00002613,0.00000428,-0.00002041,0.00002971,-
 0.00000892,-0.00001326,-0.00001822,-0.00001557,-0.00000479,-0.00000748
 ,-0.00001559,0.00001976,0.00000182,-0.00001344,0.00000650,-0.00000471,
 -0.00000505,-0.00001746,-0.00000631,-0.00077654,-0.00371257,0.00203548
 ,0.00371358,-0.00202217,0.00240834,-0.25458863,-0.06532898,0.14313309,
 0.00019655,0.00028302,-0.00093565,-0.00014925,-0.00009898,0.00006353,-
 0.00990946,-0.00223401,0.01427554,0.26426494,0.00164896,-0.00145180,0.
 00205860,0.00014450,0.00055095,0.00029406,-0.00082628,-0.00095044,-0.0
 0110906,-0.00035918,-0.00034302,-0.00039063,-0.00030428,-0.00014150,-0
 .00019798,-0.00039453,0.00008922,0.00011900,-0.00001200,-0.00028590,-0
 .00001274,0.00037788,-0.00009175,-0.00019584,0.00002763,0.00002698,0.0
 0017530,0.00007582,-0.00020239,0.00019778,0.00000300,0.00001603,-0.000
 00598,0.00004786,-0.00000298,0.00003656,0.00004780,0.00000169,0.000023
 04,-0.00031746,-0.00037441,-0.00035456,-0.00015990,-0.00008769,-0.0001
 1312,0.00006005,-0.00014025,0.00006834,0.00003329,-0.00001575,0.000075
 85,0.00022359,0.00008700,-0.00002000,-0.00001418,0.00002427,-0.0000501
 4,0.00000384,0.00000006,0.00001001,0.00001659,0.00001713,0.00002097,0.
 00000018,-0.00000142,-0.00000971,0.00001093,0.00000187,0.00000638,-0.0
 0000094,0.00001916,0.00000400,0.01542710,0.01025344,-0.01096742,-0.002
 45539,0.00166268,-0.00597875,-0.06510070,-0.08010523,0.03321478,0.0004
 1133,-0.00093339,-0.00035515,0.00080717,0.00020348,-0.00056167,-0.0229
 2522,-0.00112678,0.01714305,0.07697724,0.07549686,-0.00057907,0.002198
 27,-0.00074900,-0.00011807,-0.00013411,0.00007609,-0.00000672,-0.00054
 841,-0.00008009,-0.00008741,-0.00000191,0.00062990,-0.00040100,0.00062
 515,-0.00011710,-0.00029188,0.00000238,0.00010358,0.00000328,-0.000000
 82,-0.00004356,-0.00008783,0.00014727,-0.00010956,0.00003332,-0.000077
 92,-0.00005572,0.00010762,-0.00022254,0.00006437,0.00004453,0.00004884
 ,-0.00003536,0.00002403,-0.00003172,-0.00000116,0.00004781,0.00000255,
 -0.00000749,0.00014042,0.00015603,0.00029246,0.00000612,0.00003894,0.0
 0008753,-0.00005013,0.00006731,-0.00004218,-0.00002645,-0.00004937,0.0
 0000064,0.00002240,-0.00000775,-0.00004687,-0.00002041,-0.00000255,-0.
 00000230,0.00001307,0.00000084,-0.00003645,0.00000834,0.00002014,0.000
 00576,-0.00000755,0.00001338,-0.00001055,-0.00000190,0.00000617,-0.000
 00201,0.00000290,0.00000171,-0.00000852,0.02533619,0.00918008,-0.01066
 149,0.00273526,-0.00618106,-0.00205399,0.14110712,0.03291081,-0.162413
 60,-0.00098263,-0.00050791,-0.00056385,0.00113145,0.00049710,-0.000804
 25,-0.01073251,-0.00516609,0.01072177,-0.15579466,-0.03107984,0.163837
 13,-0.00006656,0.00154763,0.00042886,-0.00021419,-0.00000584,-0.000650
 65,0.00028546,-0.00033341,0.00022004,0.00017723,0.00000489,-0.00023804
 ,-0.00033526,-0.00010000,-0.00001641,-0.00021495,0.00012662,-0.0000322
 0,0.00001438,0.00002500,-0.00001803,0.00026332,0.00002778,-0.00017371,
 0.00000406,0.00001029,0.00004804,-0.00001208,-0.00015330,0.00023434,-0
 .00001706,-0.00000523,0.00001895,-0.00002019,0.00000610,-0.00001772,-0
 .00001996,-0.00000237,0.00000268,0.00045662,0.00043652,-0.00025506,0.0
 0012763,-0.00002374,-0.00011648,0.00022797,-0.00027240,-0.00003859,-0.
 00002139,-0.00029118,-0.00011955,-0.00031509,-0.00010785,-0.00020817,-
 0.00017018,0.00009331,-0.00012104,0.00000185,0.00001646,0.00000122,0.0
 0012080,0.00004015,0.00017797,0.00002828,-0.00004099,0.00001479,-0.000
 01631,-0.00002304,0.00001977,0.00000319,-0.00001716,-0.00000525,-0.039
 03676,0.01093862,0.04967388,0.05973548,0.02122551,-0.02747514,-0.03754
 894,-0.06356551,-0.02747594,-0.14378602,-0.03305369,0.02660020,0.00056
 834,-0.00676171,0.00096495,-0.26560624,-0.04932288,0.14242718,0.001816
 99,-0.00566424,0.00067358,0.59150356,0.00102547,-0.00081248,-0.0000993
 8,-0.00013186,-0.00012336,0.00028140,0.00005113,-0.00007445,-0.0001981
 7,-0.00008814,0.00004556,-0.00006895,0.00000476,-0.00004095,0.00008232
 ,0.00003379,-0.00000046,-0.00001926,0.00000260,-0.00000935,-0.00000500
 ,0.00000082,0.00000681,0.00005277,0.00004968,-0.00003724,-0.00000836,-
 0.00006099,0.00002899,0.00001871,-0.00002000,-0.00001056,0.00000913,-0
 .00004106,-0.00000021,-0.00001592,-0.00001628,-0.00000486,0.00000104,-
 0.00086334,0.00000301,-0.00007721,0.00000038,-0.00015456,-0.00013683,0
 .00008083,-0.00015354,0.00018758,0.00002750,0.00007679,0.00007699,0.00
 002062,-0.00000276,0.00000827,0.00005848,-0.00002524,-0.00003218,-0.00
 001690,0.00002511,0.00001013,-0.00000523,-0.00007420,-0.00003531,0.000
 01117,-0.00003389,0.00002502,0.00001967,-0.00003307,-0.00000625,0.0000
 0918,-0.00000424,0.00000737,0.01130425,-0.00429025,-0.00989105,-0.0140
 5822,-0.02641872,-0.03026636,-0.02790635,0.00374310,0.02364104,0.01247
 049,-0.18020655,-0.13536533,-0.00647490,0.00038141,-0.00372085,-0.0954
 7216,-0.14576355,0.03016354,-0.00567768,-0.00009332,-0.00468791,0.2569
 1328,0.56898996,0.00030833,-0.00178486,-0.00132461,-0.00015610,-0.0004
 1113,0.00099789,-0.00027227,0.00015873,-0.00052514,-0.00039970,0.00003
 525,0.00025536,0.00038162,0.00017408,0.00011215,0.00031900,-0.00016432
 ,0.00001505,-0.00001416,-0.00001908,0.00000222,-0.00034218,-0.00000202
 ,0.00027140,0.00000630,-0.00004359,-0.00009064,-0.00006586,0.00021971,
 -0.00026766,-0.00000527,-0.00000659,-0.00000801,-0.00000390,-0.0000076
 4,0.00000892,0.00000657,0.00000073,-0.00000751,-0.00123017,-0.00030708
 ,0.00040588,-0.00020554,-0.00039149,0.00004731,-0.00021649,0.00028327,
 0.00033291,-0.00002388,0.00047624,0.00015554,0.00025470,-0.00003204,0.
 00006271,0.00031476,-0.00017932,0.00016461,-0.00000885,0.00000899,0.00
 000716,-0.00015137,-0.00020438,-0.00029803,-0.00000797,-0.00003303,0.0
 0004657,0.00004204,-0.00000936,-0.00003007,0.00000877,0.00000052,0.000
 00450,0.05042611,-0.00811572,-0.07596535,-0.07399246,-0.06986905,0.002
 93886,0.01826757,0.06365450,0.06996845,0.08393014,-0.08351004,-0.28397
 029,0.00146254,-0.00318823,0.00342611,0.08549478,-0.02171281,-0.206136
 07,0.00038389,-0.00502956,0.00249612,-0.14772881,0.20453163,0.59832939
 ,-0.00058491,0.00020147,0.00074617,-0.00001545,-0.00002418,-0.00006648
 ,0.00006278,-0.00021808,-0.00019698,-0.00010433,0.00003335,0.00000119,
 -0.00004147,-0.00002964,0.00006326,0.00003071,0.00001012,0.00000066,0.
 00000566,0.00000508,-0.00000362,-0.00000309,-0.00000762,0.00002674,0.0
 0001647,-0.00000827,-0.00000058,-0.00003027,0.00001657,-0.00001046,-0.
 00001181,-0.00000496,0.00001137,-0.00002142,0.00001220,-0.00000153,-0.
 00001387,0.00000054,0.00000313,-0.00012675,0.00011628,-0.00006214,0.00
 004146,-0.00002292,0.00003277,0.00006720,-0.00007164,0.00001156,-0.000
 01356,-0.00000149,-0.00001189,-0.00002138,0.00001773,-0.00003564,0.000
 00453,-0.00001299,-0.00001531,-0.00001140,0.00001033,0.00000505,0.0000
 0875,-0.00002002,-0.00000626,0.00000531,-0.00000658,0.00001173,-0.0000
 0439,-0.00002160,-0.00000269,0.00000322,-0.00001539,0.00000182,0.00209
 635,-0.00598141,0.00044181,-0.01039358,-0.00245038,0.01511196,0.000212
 70,0.00023483,-0.00098994,-0.24831790,-0.06898543,0.13974987,-0.000891
 28,0.00202444,-0.00233367,0.00396653,-0.00193924,0.00289309,-0.0004705
 2,0.00046961,-0.00030487,0.00003815,-0.00453242,0.00047035,0.25561016,
 -0.00079480,0.00001186,0.00087575,0.00003824,0.00007810,-0.00000088,-0
 .00004232,-0.00041500,-0.00010768,-0.00005075,0.00002902,-0.00000279,-
 0.00007640,0.00001310,-0.00000513,-0.00002904,0.00003821,0.00001315,0.
 00000049,-0.00001508,-0.00000667,0.00005246,0.00000870,-0.00000337,0.0
 0000818,-0.00000244,0.00000144,-0.00002703,-0.00002831,0.00004125,-0.0
 0001169,-0.00000282,0.00001118,-0.00000746,0.00000473,-0.00000430,-0.0
 0000827,-0.00000172,0.00000111,-0.00015360,0.00005724,-0.00005119,0.00
 004536,-0.00004237,0.00000531,0.00003302,-0.00006716,0.00002178,0.0000
 1304,-0.00000658,-0.00002013,-0.00004479,0.00000876,0.00000112,0.00001
 241,-0.00000251,-0.00001674,-0.00000765,0.00000841,0.00001430,0.000024
 65,-0.00003251,0.00000075,0.00000139,-0.00001650,0.00002194,-0.0000021
 4,-0.00001345,0.00000193,-0.00000375,-0.00001079,0.00000539,-0.0054574
 8,0.00000377,-0.00501301,-0.02270061,-0.00090586,0.01760559,0.00036475
 ,-0.00098018,-0.00049090,-0.06890945,-0.08262236,0.03551131,0.00271598
 ,-0.00133526,0.00174036,-0.00225638,0.00187932,-0.00596775,0.00041428,
 -0.00046922,0.00050706,0.01559520,0.00995198,-0.01203180,0.07873771,0.
 07594668,-0.00047592,-0.00007989,0.00026917,0.00001774,0.00004207,-0.0
 0003590,-0.00001243,-0.00000703,-0.00008290,-0.00001398,0.00000646,0.0
 0003804,0.00001996,0.00000526,0.00002721,0.00002304,-0.00000547,0.0000
 1358,-0.00000309,-0.00000917,-0.00000415,-0.00003302,0.00000917,0.0000
 1469,-0.00000738,-0.00000404,-0.00001783,-0.00000857,0.00002070,-0.000
 02097,0.00000016,-0.00000209,-0.00000622,-0.00000164,-0.00000289,0.000
 00156,0.00000358,-0.00000200,-0.00000409,0.00008850,0.00006406,0.00002
 017,-0.00001884,0.00001960,-0.00001215,0.00000468,0.00000201,-0.000043
 91,0.00000468,-0.00001605,0.00002873,0.00003030,-0.00002017,-0.0000020
 3,-0.00001617,0.00000729,-0.00000572,-0.00000206,-0.00000480,-0.000003
 02,-0.00000290,0.00002265,0.00001232,-0.00000033,0.00000984,-0.0000170
 3,-0.00000238,0.00000500,0.00000271,0.00000124,0.00000924,-0.00000165,
 0.00067911,-0.00473675,0.00249684,-0.01028341,-0.00547727,0.01051306,-
 0.00097628,-0.00046739,-0.00043376,0.13992819,0.03567001,-0.16305088,-
 0.00147578,0.00245119,-0.00041867,0.00253326,-0.00626697,-0.00212817,-
 0.00030543,0.00047089,-0.00032268,0.02571582,0.01087995,-0.01007868,-0
 .15431410,-0.03460336,0.16433356,0.00043588,-0.00012254,-0.00080598,-0
 .00009462,-0.00013611,-0.00013119,0.00010888,0.00004005,0.00000414,0.0
 0002889,0.00001310,0.00001690,-0.00004294,0.00000544,0.00001323,-0.000
 02848,0.00001634,0.00001522,0.00000368,-0.00000749,-0.00000895,0.00001
 496,0.00001973,-0.00000573,0.00000285,-0.00001166,-0.00001265,-0.00003
 135,0.00000191,0.00003272,-0.00000651,-0.00000771,-0.00000304,-0.00001
 309,-0.00000283,-0.00000885,-0.00000577,-0.00000673,-0.00000371,-0.000
 09639,-0.00003812,-0.00002969,0.00002125,0.00002077,0.00002758,-0.0000
 0464,-0.00003756,0.00000886,0.00001008,-0.00000211,0.00000371,0.000008
 35,-0.00001294,0.00001337,0.00001122,-0.00000979,-0.00000676,-0.000004
 26,0.00000322,0.00000506,-0.00000193,-0.00000623,-0.00000436,-0.000001
 85,0.00000540,-0.00000043,0.00000227,-0.00000479,-0.00000336,-0.000000
 96,-0.00000182,0.00000195,0.00040926,-0.00657276,0.00112519,-0.0011830
 8,-0.00038922,-0.00028342,0.00937427,-0.01232855,-0.01970262,-0.001315
 07,-0.00507166,0.00519534,-0.00034863,0.00051342,-0.00037342,-0.077782
 72,0.02154174,0.05911319,-0.00069856,0.00267409,-0.00146284,0.00061225
 ,0.01604151,0.02551211,-0.00025621,0.00073850,0.00115566,0.07168295,0.
 00051725,-0.00025415,-0.00089267,-0.00019064,-0.00031621,-0.00011843,0
 .00028740,0.00001945,-0.00003282,-0.00009185,0.00003666,0.00004432,-0.
 00001742,0.00003668,0.00000880,0.00002252,-0.00000155,0.00001700,0.000
 00973,-0.00001945,-0.00001447,-0.00000943,-0.00000946,0.00001899,0.000
 01144,-0.00001552,0.00001975,-0.00004058,0.00002484,0.00000594,-0.0000
 2175,-0.00001877,0.00000882,-0.00000824,0.00000261,-0.00000229,-0.0000
 1318,-0.00000346,-0.00000064,-0.00018826,0.00009241,-0.00014806,-0.000
 01599,-0.00011634,0.00001213,0.00007045,-0.00010973,0.00005015,-0.0000
 1300,0.00000780,-0.00000301,-0.00000243,0.00003350,-0.00005740,-0.0000
 0072,-0.00000630,-0.00000631,0.00001196,0.00001777,0.00001466,0.000011
 89,-0.00002513,0.00000500,0.00002065,-0.00002311,0.00001151,0.00000345
 ,-0.00001555,-0.00000029,0.00000650,-0.00000871,-0.00000009,-0.0065249
 1,0.00033357,-0.00301661,-0.00035765,-0.00057481,0.00087364,0.00789998
 ,-0.00727500,-0.02476342,-0.00484820,0.00366127,-0.00115575,0.00052720
 ,-0.00051073,0.00033626,0.02158099,-0.13596010,-0.13287489,0.00191099,
 -0.00131867,0.00244233,-0.00436656,0.00979473,0.01007564,-0.00009730,0
 .00018942,0.00046496,-0.01876758,0.13370198,0.00043762,0.00022694,-0.0
 0033082,-0.00005155,-0.00010207,-0.00007380,0.00010102,-0.00008399,-0.
 00002909,-0.00001613,0.00002262,-0.00003315,-0.00007021,-0.00000642,0.
 00001881,-0.00002096,0.00002581,0.00000236,0.00000916,0.00000501,-0.00
 001178,0.00003931,0.00001227,0.00000344,0.00002161,-0.00001849,-0.0000
 0305,-0.00003601,-0.00000288,0.00004758,-0.00001323,-0.00000993,0.0000
 0675,-0.00002637,0.00000220,-0.00001772,-0.00001875,-0.00000706,0.0000
 0030,-0.00016829,-0.00001214,-0.00003796,0.00003120,-0.00002844,0.0000
 4069,0.00002379,-0.00005487,0.00004649,-0.00002194,0.00000831,-0.00001
 909,-0.00000974,0.00001214,-0.00004078,0.00001486,-0.00001427,-0.00000
 381,-0.00000185,0.00001145,0.00000123,-0.00000140,-0.00002176,-0.00000
 858,0.00001194,-0.00000481,0.00000644,0.00000319,-0.00001567,-0.000007
 58,0.00000437,-0.00001389,-0.00000007,0.00085040,-0.00357548,0.0032439
 7,-0.00040580,0.00082642,0.00053103,0.00553947,-0.00194442,-0.00310255
 ,0.00553789,-0.00081758,0.00173470,-0.00037009,0.00034527,-0.00042720,
 0.05888275,-0.13278996,-0.27998283,-0.00215167,0.00175348,-0.00041764,
 0.00026908,-0.01278718,-0.01057124,0.00006329,-0.00048940,-0.00077895,
 -0.06705249,0.14709595,0.29065522,-0.00027038,0.00052991,-0.00031184,-
 0.00000058,-0.00007507,-0.00014232,0.00005101,-0.00003815,-0.00003399,
 -0.00005491,-0.00000252,-0.00003315,0.00000139,-0.00002500,0.00003109,
 0.00002825,-0.00000459,-0.00002225,0.00000524,0.00002356,0.00000069,0.
 00000595,-0.00000843,0.00001643,0.00001470,-0.00000283,0.00000167,-0.0
 0000578,0.00001264,-0.00000306,-0.00000483,-0.00000184,0.00000967,-0.0
 0001548,0.00000586,-0.00000794,-0.00001355,-0.00000011,0.00000289,0.00
 001485,0.00008658,0.00003386,0.00002716,0.00000023,0.00003689,0.000002
 32,0.00000279,0.00000817,-0.00001700,-0.00000010,-0.00001859,-0.000021
 19,0.00000842,-0.00001947,0.00000541,-0.00000361,0.00000603,-0.0000018
 8,0.00000422,-0.00000108,-0.00000104,-0.00000885,-0.00000420,0.0000051
 0,0.00000093,0.00000278,-0.00000198,-0.00000778,-0.00000444,0.00000291
 ,-0.00000975,-0.00000064,-0.00048564,0.00084289,0.00050304,0.00330058,
 -0.00177098,0.00388634,-0.00047223,-0.00347220,0.00630453,0.00899785,0
 .00747751,0.00489378,0.00016076,0.00031773,0.00012448,-0.00992375,-0.0
 2280639,-0.01141011,-0.00071517,-0.00095413,-0.00048152,-0.16858438,-0
 .14276007,-0.04276460,-0.00083639,0.00178796,-0.00225220,-0.00080999,0
 .00268329,-0.00140447,0.16961268,0.00036242,-0.00048094,0.00034870,-0.
 00000719,0.00002840,0.00011490,0.00002284,-0.00006631,-0.00001094,-0.0
 0003445,0.00001264,-0.00003827,-0.00002423,-0.00003424,-0.00001262,0.0
 0001481,0.00000616,-0.00001291,0.00000678,0.00000931,0.00000439,0.0000
 1838,-0.00001876,0.00000841,0.00001114,-0.00000026,0.00001748,-0.00001
 367,0.00000488,0.00000734,-0.00000853,-0.00000661,0.00000965,-0.000006
 09,0.00000848,-0.00000203,-0.00001151,0.00000130,0.00000428,-0.0001411
 7,-0.00002829,-0.00008823,0.00002663,-0.00004529,0.00001668,0.00004290
 ,-0.00005239,0.00003888,-0.00002191,0.00001870,-0.00003127,-0.00003937
 ,0.00003154,-0.00003502,0.00001121,-0.00001094,-0.00000140,0.00000251,
 0.00000971,0.00000574,0.00000435,-0.00002346,-0.00000797,0.00000949,-0
 .00001552,0.00001747,0.00000085,-0.00001374,-0.00000304,0.00000225,-0.
 00001464,0.00000079,0.00094794,0.00026734,0.00042082,-0.00144180,0.003
 13543,-0.00532885,-0.00386270,0.00439582,-0.00138626,-0.01271660,-0.00
 742258,-0.00121582,-0.00048388,-0.00060283,-0.00013062,-0.00229922,-0.
 00155127,-0.00583300,-0.00010806,-0.00031492,-0.00016645,-0.14289629,-
 0.23467964,-0.07256614,0.00256128,-0.00125917,0.00154502,0.00190298,-0
 .00136995,0.00245285,0.15816790,0.24008206,-0.00035543,0.00041011,-0.0
 0020867,0.00007203,-0.00000437,-0.00002190,0.00004998,-0.00003463,0.00
 000580,-0.00003112,0.00001360,0.00004030,-0.00002611,0.00003577,0.0000
 1210,-0.00001850,0.00000193,0.00001028,0.00000078,-0.00000459,-0.00000
 898,0.00000352,0.00000458,0.00000052,0.00001078,-0.00001073,-0.0000019
 7,-0.00000596,-0.00000804,0.00000429,-0.00000221,0.00000074,0.00000171
 ,-0.00000666,0.00000046,-0.00000222,-0.00000220,-0.00000083,0.00000105
 ,0.00000486,0.00007335,0.00006159,-0.00001563,-0.00000931,0.00001449,-
 0.00001478,0.00002279,0.00000913,-0.00000545,0.00000799,0.00000015,0.0
 0002057,-0.00000583,-0.00001126,0.00000473,0.00000265,0.00001209,0.000
 00482,0.00000447,-0.00000311,-0.00000090,-0.00000302,-0.00000778,0.000
 00147,0.00000218,0.00000148,-0.00000080,-0.00000309,-0.00000396,0.0000
 0221,-0.00000469,0.00000053,0.00048229,0.00033070,-0.00112240,0.004341
 93,-0.00496157,-0.00251871,0.00583537,-0.00174258,0.00032515,-0.020409
 15,-0.02423235,-0.00216886,-0.00093565,-0.00108576,-0.00042698,0.01384
 891,0.01712228,0.01100698,0.00052773,0.00076006,0.00027010,-0.04280055
 ,-0.07255539,-0.09077580,-0.00128965,0.00243438,-0.00030227,-0.0023447
 4,0.00158133,-0.00044130,0.04305352,0.08185742,0.08624842||0.00001840,
 0.00000818,0.00000364,-0.00000570,-0.00000492,0.00000018,-0.00000294,0
 .00000417,0.00000685,0.00001491,0.00000239,-0.00001568,-0.00000306,-0.
 00000249,-0.00000237,-0.00001634,0.00000372,-0.00000408,0.00000014,-0.
 00000237,0.00000367,0.00000579,0.00000275,0.00000054,0.00000130,0.0000
 0092,-0.00000053,0.00000028,-0.00000337,0.00001187,0.00000235,0.000000
 37,0.00000307,-0.00000081,-0.00000099,-0.00000176,-0.00000158,0.000000
 08,-0.00000134,0.00000944,0.00000851,0.00003220,-0.00003061,0.00003004
 ,-0.00002595,0.00000567,-0.00002949,-0.00001395,0.00001020,-0.00004268
 ,-0.00001423,0.00000488,0.00000476,0.00000192,-0.00001644,0.00002622,-
 0.00002480,-0.00000052,0.00000446,0.00000046,0.00001419,0.00001205,0.0
 0004069,-0.00000040,0.00000304,0.00000187,0.00000260,-0.00000334,0.000
 00283,-0.00000172,-0.00000342,-0.00000335,-0.00003024,-0.00000919,0.00
 003801,0.00003555,0.00002735,-0.00000801,-0.00001024,-0.00004539,-0.00
 004365,-0.00001478,-0.00003144,-0.00003010,-0.00000372,-0.00000421,-0.
 00000027,0.00004380,0.00003646,-0.00000946,-0.00000661,0.00000115,0.00
 000466,-0.00002418,0.00000612,0.00004535,0.00000115,0.00000216,0.00000
 215,-0.00000350,-0.00000260,0.00000213,0.00000274,0.00000100,-0.000002
 59|||@


 THE POLHOLDE ROLLS WITHOUT SLIPPING ON THE HERPOLHOLDE LYING IN
 THE INVARIABLE PLANE.
 H.GOLDSTEIN, "CLASSICAL MECHANICS", PG 161
 Job cpu time:  0 days  0 hours  6 minutes 53.0 seconds.
 File lengths (MBytes):  RWF=    350 Int=      0 D2E=      0 Chk=      7 Scr=      1
 Normal termination of Gaussian 09 at Mon Sep 06 14:41:14 2021.
