 Entering Link 1 = b:\programy\g09w\l1.exe PID=     12756.
  
 Copyright (c) 1988,1990,1992,1993,1995,1998,2003,2009, Gaussian, Inc.
                  All Rights Reserved.
  
 This is part of the Gaussian(R) 09 program.  It is based on
 the Gaussian(R) 03 system (copyright 2003, Gaussian, Inc.),
 the Gaussian(R) 98 system (copyright 1998, Gaussian, Inc.),
 the Gaussian(R) 94 system (copyright 1995, Gaussian, Inc.),
 the Gaussian 92(TM) system (copyright 1992, Gaussian, Inc.),
 the Gaussian 90(TM) system (copyright 1990, Gaussian, Inc.),
 the Gaussian 88(TM) system (copyright 1988, Gaussian, Inc.),
 the Gaussian 86(TM) system (copyright 1986, Carnegie Mellon
 University), and the Gaussian 82(TM) system (copyright 1983,
 Carnegie Mellon University). Gaussian is a federally registered
 trademark of Gaussian, Inc.
  
 This software contains proprietary and confidential information,
 including trade secrets, belonging to Gaussian, Inc.
  
 This software is provided under written license and may be
 used, copied, transmitted, or stored only in accord with that
 written license.
  
 The following legend is applicable only to US Government
 contracts under FAR:
  
                    RESTRICTED RIGHTS LEGEND
  
 Use, reproduction and disclosure by the US Government is
 subject to restrictions as set forth in subparagraphs (a)
 and (c) of the Commercial Computer Software - Restricted
 Rights clause in FAR 52.227-19.
  
 Gaussian, Inc.
 340 Quinnipiac St., Bldg. 40, Wallingford CT 06492
  
  
 ---------------------------------------------------------------
 Warning -- This program may not be used in any manner that
 competes with the business of Gaussian, Inc. or will provide
 assistance to any competitor of Gaussian, Inc.  The licensee
 of this program is prohibited from giving any competitor of
 Gaussian, Inc. access to this program.  By using this program,
 the user acknowledges that Gaussian, Inc. is engaged in the
 business of creating and licensing software in the field of
 computational chemistry and represents and warrants to the
 licensee that it is not a competitor of Gaussian, Inc. and that
 it will not use this program in any manner prohibited above.
 ---------------------------------------------------------------
  

 Cite this work as:
 Gaussian 09, Revision A.02,
 M. J. Frisch, G. W. Trucks, H. B. Schlegel, G. E. Scuseria, 
 M. A. Robb, J. R. Cheeseman, G. Scalmani, V. Barone, B. Mennucci, 
 G. A. Petersson, H. Nakatsuji, M. Caricato, X. Li, H. P. Hratchian, 
 A. F. Izmaylov, J. Bloino, G. Zheng, J. L. Sonnenberg, M. Hada, 
 M. Ehara, K. Toyota, R. Fukuda, J. Hasegawa, M. Ishida, T. Nakajima, 
 Y. Honda, O. Kitao, H. Nakai, T. Vreven, J. A. Montgomery, Jr., 
 J. E. Peralta, F. Ogliaro, M. Bearpark, J. J. Heyd, E. Brothers, 
 K. N. Kudin, V. N. Staroverov, R. Kobayashi, J. Normand, 
 K. Raghavachari, A. Rendell, J. C. Burant, S. S. Iyengar, J. Tomasi, 
 M. Cossi, N. Rega, J. M. Millam, M. Klene, J. E. Knox, J. B. Cross, 
 V. Bakken, C. Adamo, J. Jaramillo, R. Gomperts, R. E. Stratmann, 
 O. Yazyev, A. J. Austin, R. Cammi, C. Pomelli, J. W. Ochterski, 
 R. L. Martin, K. Morokuma, V. G. Zakrzewski, G. A. Voth, 
 P. Salvador, J. J. Dannenberg, S. Dapprich, A. D. Daniels, 
 O. Farkas, J. B. Foresman, J. V. Ortiz, J. Cioslowski, 
 and D. J. Fox, Gaussian, Inc., Wallingford CT, 2009.
 
 ******************************************
 Gaussian 09:  IA32W-G09RevA.02 11-Jun-2009
                07-Sep-2021 
 ******************************************
 %nprocshared=12
 Will use up to   12 processors via shared memory.
 ----------------------------------------------
 # opt freq=noraman hf/6-311g geom=connectivity
 ----------------------------------------------
 1/18=20,19=15,38=1,57=2/1,3;
 2/9=110,12=2,17=6,18=5,40=1/2;
 3/5=4,6=6,11=9,16=1,25=1,30=1,71=1/1,2,3;
 4//1;
 5/5=2,38=5/2;
 6/7=2,8=2,9=2,10=2,28=1/1;
 7//1,2,3,16;
 1/18=20,19=15/3(2);
 2/9=110/2;
 99//99;
 2/9=110/2;
 3/5=4,6=6,11=9,16=1,25=1,30=1,71=1/1,2,3;
 4/5=5,16=3/1;
 5/5=2,38=5/2;
 7//1,2,3,16;
 1/18=20,19=15/3(-5);
 2/9=110/2;
 6/7=2,8=2,9=2,10=2,19=2,28=1/1;
 99/9=1/99;
 -----
 M0001
 -----
 Symbolic Z-matrix:
 Charge =  0 Multiplicity = 1
 C                    -0.76218   0.01164  -0.14163 
 H                    -1.87469   0.01377  -0.29541 
 C                    -0.11906  -0.12892  -1.4985 
 C                     1.26718  -0.20605  -1.65137 
 C                    -0.93204  -0.19139  -2.63259 
 C                     1.83025  -0.34236  -2.91431 
 H                     1.90732  -0.1707   -0.75565 
 C                    -0.36643  -0.32697  -3.89581 
 H                    -2.02215  -0.13363  -2.52974 
 C                     1.0145   -0.40179  -4.03938 
 H                     2.91796  -0.40454  -3.02163 
 H                    -1.01208  -0.37578  -4.7787 
 H                     1.45836  -0.50859  -5.03428 
 C                    -0.46596   1.31768   0.5536 
 C                    -0.96922   1.51317   1.84453 
 C                     0.24055   2.35128  -0.05987 
 C                    -0.76215   2.71529   2.50752 
 H                    -1.52624   0.70497   2.33363 
 C                     0.44526   3.55595   0.60562 
 H                     0.63833   2.21605  -1.07374 
 C                    -0.05353   3.74088   1.88897 
 H                    -1.15803   2.85543   3.51853 
 H                     1.00147   4.35988   0.11259 
 H                     0.109     4.68885   2.41146 
 C                    -0.41741  -1.16772   0.73591 
 C                    -1.41177  -2.09081   1.06669 
 C                     0.87583  -1.35242   1.22929 
 C                    -1.11554  -3.178     1.88155 
 H                    -2.43078  -1.96112   0.68347 
 C                     1.16874  -2.43786   2.04563 
 H                     1.66281  -0.63631   0.94763 
 C                     0.17303  -3.35203   2.37433 
 H                    -1.90055  -3.89805   2.13508 
 H                     2.18544  -2.57281   2.42878 
 H                     0.40378  -4.20699   3.0178 
 

 GradGradGradGradGradGradGradGradGradGradGradGradGradGradGradGradGradGrad
 Berny optimization.
 Initialization pass.
                           ----------------------------
                           !    Initial Parameters    !
                           ! (Angstroms and Degrees)  !
 --------------------------                            --------------------------
 ! Name  Definition              Value          Derivative Info.                !
 --------------------------------------------------------------------------------
 ! R1    R(1,2)                  1.1231         estimate D2E/DX2                !
 ! R2    R(1,3)                  1.5081         estimate D2E/DX2                !
 ! R3    R(1,14)                 1.5089         estimate D2E/DX2                !
 ! R4    R(1,25)                 1.5099         estimate D2E/DX2                !
 ! R5    R(3,4)                  1.3968         estimate D2E/DX2                !
 ! R6    R(3,5)                  1.3968         estimate D2E/DX2                !
 ! R7    R(4,6)                  1.3895         estimate D2E/DX2                !
 ! R8    R(4,7)                  1.1015         estimate D2E/DX2                !
 ! R9    R(5,8)                  1.3907         estimate D2E/DX2                !
 ! R10   R(5,9)                  1.0965         estimate D2E/DX2                !
 ! R11   R(6,10)                 1.391          estimate D2E/DX2                !
 ! R12   R(6,11)                 1.0948         estimate D2E/DX2                !
 ! R13   R(8,10)                 1.3904         estimate D2E/DX2                !
 ! R14   R(8,12)                 1.0949         estimate D2E/DX2                !
 ! R15   R(10,13)                1.0946         estimate D2E/DX2                !
 ! R16   R(14,15)                1.3993         estimate D2E/DX2                !
 ! R17   R(14,16)                1.3942         estimate D2E/DX2                !
 ! R18   R(15,17)                1.3883         estimate D2E/DX2                !
 ! R19   R(15,18)                1.0967         estimate D2E/DX2                !
 ! R20   R(16,19)                1.3914         estimate D2E/DX2                !
 ! R21   R(16,20)                1.0975         estimate D2E/DX2                !
 ! R22   R(17,21)                1.3916         estimate D2E/DX2                !
 ! R23   R(17,22)                1.0948         estimate D2E/DX2                !
 ! R24   R(19,21)                1.3892         estimate D2E/DX2                !
 ! R25   R(19,23)                1.0949         estimate D2E/DX2                !
 ! R26   R(21,24)                1.0946         estimate D2E/DX2                !
 ! R27   R(25,26)                1.3965         estimate D2E/DX2                !
 ! R28   R(25,27)                1.3964         estimate D2E/DX2                !
 ! R29   R(26,28)                1.3906         estimate D2E/DX2                !
 ! R30   R(26,29)                1.0964         estimate D2E/DX2                !
 ! R31   R(27,30)                1.3894         estimate D2E/DX2                !
 ! R32   R(27,31)                1.1007         estimate D2E/DX2                !
 ! R33   R(28,32)                1.3905         estimate D2E/DX2                !
 ! R34   R(28,33)                1.095          estimate D2E/DX2                !
 ! R35   R(30,32)                1.3911         estimate D2E/DX2                !
 ! R36   R(30,34)                1.0948         estimate D2E/DX2                !
 ! R37   R(32,35)                1.0946         estimate D2E/DX2                !
 ! A1    A(2,1,3)              107.4214         estimate D2E/DX2                !
 ! A2    A(2,1,14)             104.8278         estimate D2E/DX2                !
 ! A3    A(2,1,25)             107.8935         estimate D2E/DX2                !
 ! A4    A(3,1,14)             114.2983         estimate D2E/DX2                !
 ! A5    A(3,1,25)             110.654          estimate D2E/DX2                !
 ! A6    A(14,1,25)            111.313          estimate D2E/DX2                !
 ! A7    A(1,3,4)              121.7919         estimate D2E/DX2                !
 ! A8    A(1,3,5)              119.1085         estimate D2E/DX2                !
 ! A9    A(4,3,5)              119.0986         estimate D2E/DX2                !
 ! A10   A(3,4,6)              120.4695         estimate D2E/DX2                !
 ! A11   A(3,4,7)              119.0776         estimate D2E/DX2                !
 ! A12   A(6,4,7)              120.448          estimate D2E/DX2                !
 ! A13   A(3,5,8)              120.3411         estimate D2E/DX2                !
 ! A14   A(3,5,9)              120.0093         estimate D2E/DX2                !
 ! A15   A(8,5,9)              119.6496         estimate D2E/DX2                !
 ! A16   A(4,6,10)             120.1136         estimate D2E/DX2                !
 ! A17   A(4,6,11)             119.8219         estimate D2E/DX2                !
 ! A18   A(10,6,11)            120.0645         estimate D2E/DX2                !
 ! A19   A(5,8,10)             120.1981         estimate D2E/DX2                !
 ! A20   A(5,8,12)             119.8004         estimate D2E/DX2                !
 ! A21   A(10,8,12)            120.0015         estimate D2E/DX2                !
 ! A22   A(6,10,8)             119.779          estimate D2E/DX2                !
 ! A23   A(6,10,13)            120.0994         estimate D2E/DX2                !
 ! A24   A(8,10,13)            120.1216         estimate D2E/DX2                !
 ! A25   A(1,14,15)            118.3845         estimate D2E/DX2                !
 ! A26   A(1,14,16)            122.5767         estimate D2E/DX2                !
 ! A27   A(15,14,16)           118.9873         estimate D2E/DX2                !
 ! A28   A(14,15,17)           120.5232         estimate D2E/DX2                !
 ! A29   A(14,15,18)           119.4171         estimate D2E/DX2                !
 ! A30   A(17,15,18)           120.0589         estimate D2E/DX2                !
 ! A31   A(14,16,19)           120.3953         estimate D2E/DX2                !
 ! A32   A(14,16,20)           119.9214         estimate D2E/DX2                !
 ! A33   A(19,16,20)           119.6834         estimate D2E/DX2                !
 ! A34   A(15,17,21)           120.1199         estimate D2E/DX2                !
 ! A35   A(15,17,22)           119.8624         estimate D2E/DX2                !
 ! A36   A(21,17,22)           120.0177         estimate D2E/DX2                !
 ! A37   A(16,19,21)           120.2822         estimate D2E/DX2                !
 ! A38   A(16,19,23)           119.6758         estimate D2E/DX2                !
 ! A39   A(21,19,23)           120.042          estimate D2E/DX2                !
 ! A40   A(17,21,19)           119.6914         estimate D2E/DX2                !
 ! A41   A(17,21,24)           120.1138         estimate D2E/DX2                !
 ! A42   A(19,21,24)           120.1947         estimate D2E/DX2                !
 ! A43   A(1,25,26)            119.4303         estimate D2E/DX2                !
 ! A44   A(1,25,27)            121.3403         estimate D2E/DX2                !
 ! A45   A(26,25,27)           119.2288         estimate D2E/DX2                !
 ! A46   A(25,26,28)           120.2578         estimate D2E/DX2                !
 ! A47   A(25,26,29)           120.053          estimate D2E/DX2                !
 ! A48   A(28,26,29)           119.6891         estimate D2E/DX2                !
 ! A49   A(25,27,30)           120.4091         estimate D2E/DX2                !
 ! A50   A(25,27,31)           119.058          estimate D2E/DX2                !
 ! A51   A(30,27,31)           120.524          estimate D2E/DX2                !
 ! A52   A(26,28,32)           120.1934         estimate D2E/DX2                !
 ! A53   A(26,28,33)           119.8066         estimate D2E/DX2                !
 ! A54   A(32,28,33)           120.0            estimate D2E/DX2                !
 ! A55   A(27,30,32)           120.0873         estimate D2E/DX2                !
 ! A56   A(27,30,34)           119.8468         estimate D2E/DX2                !
 ! A57   A(32,30,34)           120.0659         estimate D2E/DX2                !
 ! A58   A(28,32,30)           119.8225         estimate D2E/DX2                !
 ! A59   A(28,32,35)           120.0933         estimate D2E/DX2                !
 ! A60   A(30,32,35)           120.0841         estimate D2E/DX2                !
 ! D1    D(2,1,3,4)           -178.0165         estimate D2E/DX2                !
 ! D2    D(2,1,3,5)              1.6094         estimate D2E/DX2                !
 ! D3    D(14,1,3,4)            66.1372         estimate D2E/DX2                !
 ! D4    D(14,1,3,5)          -114.2369         estimate D2E/DX2                !
 ! D5    D(25,1,3,4)           -60.473          estimate D2E/DX2                !
 ! D6    D(25,1,3,5)           119.1529         estimate D2E/DX2                !
 ! D7    D(2,1,14,15)           65.561          estimate D2E/DX2                !
 ! D8    D(2,1,14,16)         -111.8005         estimate D2E/DX2                !
 ! D9    D(3,1,14,15)         -177.0949         estimate D2E/DX2                !
 ! D10   D(3,1,14,16)            5.5436         estimate D2E/DX2                !
 ! D11   D(25,1,14,15)         -50.827          estimate D2E/DX2                !
 ! D12   D(25,1,14,16)         131.8115         estimate D2E/DX2                !
 ! D13   D(2,1,25,26)            7.0232         estimate D2E/DX2                !
 ! D14   D(2,1,25,27)         -172.7073         estimate D2E/DX2                !
 ! D15   D(3,1,25,26)         -110.2304         estimate D2E/DX2                !
 ! D16   D(3,1,25,27)           70.0391         estimate D2E/DX2                !
 ! D17   D(14,1,25,26)         121.5191         estimate D2E/DX2                !
 ! D18   D(14,1,25,27)         -58.2113         estimate D2E/DX2                !
 ! D19   D(1,3,4,6)            179.6603         estimate D2E/DX2                !
 ! D20   D(1,3,4,7)              0.4594         estimate D2E/DX2                !
 ! D21   D(5,3,4,6)              0.0343         estimate D2E/DX2                !
 ! D22   D(5,3,4,7)           -179.1665         estimate D2E/DX2                !
 ! D23   D(1,3,5,8)           -179.7114         estimate D2E/DX2                !
 ! D24   D(1,3,5,9)              0.2816         estimate D2E/DX2                !
 ! D25   D(4,3,5,8)             -0.0753         estimate D2E/DX2                !
 ! D26   D(4,3,5,9)            179.9177         estimate D2E/DX2                !
 ! D27   D(3,4,6,10)             0.0657         estimate D2E/DX2                !
 ! D28   D(3,4,6,11)          -179.8339         estimate D2E/DX2                !
 ! D29   D(7,4,6,10)           179.2555         estimate D2E/DX2                !
 ! D30   D(7,4,6,11)            -0.6441         estimate D2E/DX2                !
 ! D31   D(3,5,8,10)             0.0165         estimate D2E/DX2                !
 ! D32   D(3,5,8,12)           179.9547         estimate D2E/DX2                !
 ! D33   D(9,5,8,10)          -179.9765         estimate D2E/DX2                !
 ! D34   D(9,5,8,12)            -0.0383         estimate D2E/DX2                !
 ! D35   D(4,6,10,8)            -0.1249         estimate D2E/DX2                !
 ! D36   D(4,6,10,13)          179.9648         estimate D2E/DX2                !
 ! D37   D(11,6,10,8)          179.7745         estimate D2E/DX2                !
 ! D38   D(11,6,10,13)          -0.1358         estimate D2E/DX2                !
 ! D39   D(5,8,10,6)             0.084          estimate D2E/DX2                !
 ! D40   D(5,8,10,13)          179.9943         estimate D2E/DX2                !
 ! D41   D(12,8,10,6)         -179.8542         estimate D2E/DX2                !
 ! D42   D(12,8,10,13)           0.0561         estimate D2E/DX2                !
 ! D43   D(1,14,15,17)        -177.8036         estimate D2E/DX2                !
 ! D44   D(1,14,15,18)           2.5256         estimate D2E/DX2                !
 ! D45   D(16,14,15,17)         -0.3454         estimate D2E/DX2                !
 ! D46   D(16,14,15,18)        179.9839         estimate D2E/DX2                !
 ! D47   D(1,14,16,19)         177.5973         estimate D2E/DX2                !
 ! D48   D(1,14,16,20)          -2.3934         estimate D2E/DX2                !
 ! D49   D(15,14,16,19)          0.251          estimate D2E/DX2                !
 ! D50   D(15,14,16,20)       -179.7396         estimate D2E/DX2                !
 ! D51   D(14,15,17,21)          0.2213         estimate D2E/DX2                !
 ! D52   D(14,15,17,22)       -179.8082         estimate D2E/DX2                !
 ! D53   D(18,15,17,21)        179.8899         estimate D2E/DX2                !
 ! D54   D(18,15,17,22)         -0.1395         estimate D2E/DX2                !
 ! D55   D(14,16,19,21)         -0.033          estimate D2E/DX2                !
 ! D56   D(14,16,19,23)       -179.9776         estimate D2E/DX2                !
 ! D57   D(20,16,19,21)        179.9576         estimate D2E/DX2                !
 ! D58   D(20,16,19,23)          0.0131         estimate D2E/DX2                !
 ! D59   D(15,17,21,19)          0.0012         estimate D2E/DX2                !
 ! D60   D(15,17,21,24)        179.9533         estimate D2E/DX2                !
 ! D61   D(22,17,21,19)       -179.9693         estimate D2E/DX2                !
 ! D62   D(22,17,21,24)         -0.0173         estimate D2E/DX2                !
 ! D63   D(16,19,21,17)         -0.0951         estimate D2E/DX2                !
 ! D64   D(16,19,21,24)        179.9529         estimate D2E/DX2                !
 ! D65   D(23,19,21,17)        179.8492         estimate D2E/DX2                !
 ! D66   D(23,19,21,24)         -0.1028         estimate D2E/DX2                !
 ! D67   D(1,25,26,28)        -179.5356         estimate D2E/DX2                !
 ! D68   D(1,25,26,29)           0.5093         estimate D2E/DX2                !
 ! D69   D(27,25,26,28)          0.2005         estimate D2E/DX2                !
 ! D70   D(27,25,26,29)       -179.7546         estimate D2E/DX2                !
 ! D71   D(1,25,27,30)         179.3907         estimate D2E/DX2                !
 ! D72   D(1,25,27,31)          -1.6917         estimate D2E/DX2                !
 ! D73   D(26,25,27,30)         -0.3403         estimate D2E/DX2                !
 ! D74   D(26,25,27,31)        178.5773         estimate D2E/DX2                !
 ! D75   D(25,26,28,32)          0.1012         estimate D2E/DX2                !
 ! D76   D(25,26,28,33)       -179.9139         estimate D2E/DX2                !
 ! D77   D(29,26,28,32)       -179.9435         estimate D2E/DX2                !
 ! D78   D(29,26,28,33)          0.0414         estimate D2E/DX2                !
 ! D79   D(25,27,30,32)          0.1784         estimate D2E/DX2                !
 ! D80   D(25,27,30,34)       -179.8936         estimate D2E/DX2                !
 ! D81   D(31,27,30,32)       -178.7233         estimate D2E/DX2                !
 ! D82   D(31,27,30,34)          1.2047         estimate D2E/DX2                !
 ! D83   D(26,28,32,30)         -0.2656         estimate D2E/DX2                !
 ! D84   D(26,28,32,35)        179.8382         estimate D2E/DX2                !
 ! D85   D(33,28,32,30)        179.7495         estimate D2E/DX2                !
 ! D86   D(33,28,32,35)         -0.1467         estimate D2E/DX2                !
 ! D87   D(27,30,32,28)          0.1262         estimate D2E/DX2                !
 ! D88   D(27,30,32,35)       -179.9776         estimate D2E/DX2                !
 ! D89   D(34,30,32,28)       -179.8016         estimate D2E/DX2                !
 ! D90   D(34,30,32,35)          0.0945         estimate D2E/DX2                !
 --------------------------------------------------------------------------------
 Trust Radius=3.00D-01 FncErr=1.00D-07 GrdErr=1.00D-07
 Number of steps in this run= 197 maximum allowed number of steps= 210.
 GradGradGradGradGradGradGradGradGradGradGradGradGradGradGradGradGradGrad

                          Input orientation:                          
 ---------------------------------------------------------------------
 Center     Atomic      Atomic             Coordinates (Angstroms)
 Number     Number       Type             X           Y           Z
 ---------------------------------------------------------------------
      1          6           0       -0.762178    0.011640   -0.141626
      2          1           0       -1.874687    0.013767   -0.295413
      3          6           0       -0.119057   -0.128918   -1.498496
      4          6           0        1.267176   -0.206053   -1.651365
      5          6           0       -0.932039   -0.191389   -2.632593
      6          6           0        1.830250   -0.342356   -2.914308
      7          1           0        1.907316   -0.170696   -0.755653
      8          6           0       -0.366428   -0.326968   -3.895806
      9          1           0       -2.022147   -0.133630   -2.529741
     10          6           0        1.014495   -0.401789   -4.039381
     11          1           0        2.917959   -0.404542   -3.021626
     12          1           0       -1.012079   -0.375784   -4.778701
     13          1           0        1.458365   -0.508593   -5.034279
     14          6           0       -0.465959    1.317679    0.553596
     15          6           0       -0.969225    1.513174    1.844534
     16          6           0        0.240555    2.351282   -0.059867
     17          6           0       -0.762155    2.715285    2.507522
     18          1           0       -1.526241    0.704972    2.333626
     19          6           0        0.445263    3.555949    0.605622
     20          1           0        0.638334    2.216055   -1.073744
     21          6           0       -0.053534    3.740881    1.888968
     22          1           0       -1.158026    2.855435    3.518533
     23          1           0        1.001466    4.359882    0.112594
     24          1           0        0.109001    4.688849    2.411456
     25          6           0       -0.417409   -1.167721    0.735909
     26          6           0       -1.411772   -2.090814    1.066687
     27          6           0        0.875827   -1.352424    1.229292
     28          6           0       -1.115540   -3.178001    1.881546
     29          1           0       -2.430777   -1.961124    0.683468
     30          6           0        1.168739   -2.437864    2.045635
     31          1           0        1.662813   -0.636309    0.947629
     32          6           0        0.173028   -3.352026    2.374327
     33          1           0       -1.900550   -3.898050    2.135083
     34          1           0        2.185439   -2.572812    2.428776
     35          1           0        0.403775   -4.206986    3.017798
 ---------------------------------------------------------------------
                    Distance matrix (angstroms):
                    1          2          3          4          5
     1  C    0.000000
     2  H    1.123090   0.000000
     3  C    1.508130   2.133074   0.000000
     4  C    2.538697   3.429028   1.396768   0.000000
     5  C    2.504993   2.528455   1.396789   2.408229   0.000000
     6  C    3.812318   4.551044   2.418653   1.389481   2.780718
     7  H    2.745264   3.814367   2.158645   1.101513   3.403714
     8  C    3.790138   3.918390   2.418164   2.778632   1.390685
     9  H    2.704019   2.244034   2.164541   3.405353   1.096472
    10  C    4.303486   4.747353   2.795621   2.409311   2.410875
    11  H    4.691590   5.529619   3.408719   2.154553   3.875470
    12  H    4.659937   4.582108   3.408545   3.873505   2.155502
    13  H    5.398102   5.817125   3.890267   3.401792   3.403343
    14  C    1.508912   2.098933   2.534573   3.191766   3.556166
    15  C    2.498460   2.765404   3.820353   4.492053   4.790782
    16  C    2.546778   3.161283   2.889699   3.182260   3.802508
    17  C    3.785192   4.048749   4.954921   5.472544   5.907487
    18  H    2.681673   2.740625   4.166617   4.951091   5.081326
    19  C    3.818169   4.329098   4.280655   4.463428   5.140578
    20  H    2.773034   3.430910   2.500590   2.568209   3.269842
    21  C    4.304965   4.688230   5.143398   5.464112   6.056322
    22  H    4.651948   4.809871   5.929282   6.479364   6.868082
    23  H    4.699178   5.227566   4.899032   4.902032   5.655844
    24  H    5.399395   5.754872   6.208914   6.465907   7.095275
    25  C    1.509910   2.140841   2.482074   3.075989   3.544697
    26  C    2.510440   2.549288   3.478550   4.256395   4.186004
    27  C    2.534393   3.428780   3.150807   3.124981   4.419337
    28  C    3.793666   3.937364   4.659889   5.195312   5.415808
    29  H    2.712343   2.273244   3.669059   4.712386   4.046535
    30  C    3.809543   4.555594   4.421596   4.319546   5.598726
    31  H    2.736219   3.805478   3.068555   2.663910   4.444007
    32  C    4.303357   4.759119   5.047029   5.224989   6.023293
    33  H    4.665294   4.605463   5.530187   6.164618   6.116215
    34  H    4.687730   5.531386   5.167861   4.805446   6.403695
    35  H    5.397983   5.829538   6.107446   6.209188   7.059486
                    6          7          8          9         10
     6  C    0.000000
     7  H    2.166841   0.000000
     8  C    2.406027   3.880064   0.000000
     9  H    3.877167   4.311547   2.155208   0.000000
    10  C    1.390962   3.410778   1.390381   3.401782   0.000000
    11  H    1.094758   2.492131   3.399618   4.971920   2.158473
    12  H    3.399399   4.974922   1.094875   2.477236   2.157377
    13  H    2.158751   4.315364   2.158466   4.304331   1.094645
    14  C    4.478242   3.092220   4.744676   3.746329   5.122866
    15  C    5.824658   4.227396   6.058135   4.791126   6.497899
    16  C    4.234460   3.102029   4.717614   4.170717   4.900501
    17  C    6.742846   5.109136   7.100318   5.922661   7.465559
    18  H    6.316941   4.701038   6.419960   4.959991   6.949495
    19  C    5.431840   4.228304   5.999895   5.434299   6.128929
    20  H    3.369541   2.721779   3.929446   3.836548   3.973614
    21  C    6.579737   5.112670   7.078765   6.197763   7.310795
    22  H    7.780560   6.068151   8.107203   6.801678   8.511840
    23  H    5.653324   4.701123   6.317039   6.026262   6.317641
    24  H    7.525921   6.072866   8.072547   7.225893   8.267274
    25  C    4.365465   2.936522   4.707680   3.782723   5.043847
    26  C    5.423665   4.245483   5.369379   4.139736   5.900128
    27  C    4.370422   2.529912   5.372279   4.900412   5.355544
    28  C    6.302284   5.013617   6.485935   5.435952   6.877629
    29  H    5.806958   4.908743   5.282212   3.719062   6.050350
    30  C    5.424923   3.678690   6.489479   6.035338   6.418474
    31  H    3.876726   1.782623   5.260453   5.091533   5.034439
    32  C    6.306676   4.788047   6.982590   6.263126   7.109685
    33  H    7.215135   6.062125   7.174801   5.995516   7.671071
    34  H    5.800832   3.998513   7.180264   6.945522   6.922537
    35  H    7.222194   5.726360   7.965279   7.297432   8.040913
                   11         12         13         14         15
    11  H    0.000000
    12  H    4.305036   0.000000
    13  H    2.488375   2.487177   0.000000
    14  C    5.215281   5.621339   6.185680   0.000000
    15  C    6.516698   6.887470   7.569597   1.399292   0.000000
    16  C    4.851297   5.592260   5.865724   1.394214   2.406810
    17  C    7.338123   7.918726   8.497226   2.420509   1.388345
    18  H    7.047032   7.212322   8.041556   2.160582   1.096662
    19  C    5.912415   6.824464   7.025337   2.417206   2.776438
    20  H    3.982269   4.813336   4.876679   2.162123   3.405089
    21  C    7.080131   7.894527   8.262882   2.797360   2.408971
    22  H    8.367484   8.905401   9.555772   3.410939   2.153969
    23  H    6.016313   7.099695   7.099374   3.406291   3.871303
    24  H    7.959351   8.865985   9.180041   3.891916   3.401306
    25  C    5.081948   5.602831   6.103117   2.492551   2.953092
    26  C    6.189054   6.104887   6.925524   3.574304   3.713439
    27  C    4.810311   6.372911   6.346945   3.063724   3.463292
    28  C    6.928368   7.226480   7.847251   4.732499   4.693602
    29  H    6.690266   5.861852   7.065968   3.824648   3.943977
    30  C    5.733350   7.455179   7.343782   4.359188   4.496891
    31  H    4.169424   6.325644   5.986762   2.916333   3.514589
    32  C    6.733396   7.837621   8.038945   5.052674   5.025494
    33  H    7.874914   7.810003   8.612228   5.635866   5.498466
    34  H    5.911419   8.185279   7.777328   5.067755   5.195049
    35  H    7.566660   8.801599   8.923352   6.111518   5.998492
                   16         17         18         19         20
    16  C    0.000000
    17  C    2.780182   0.000000
    18  H    3.400105   2.157644   0.000000
    19  C    1.391404   2.404537   3.873099   0.000000
    20  H    1.097479   3.877636   4.310327   2.157049   0.000000
    21  C    2.411521   1.391617   3.403429   1.389236   3.403151
    22  H    3.874938   1.094760   2.482756   3.397986   4.972396
    23  H    2.154810   3.398638   4.967963   1.094873   2.476946
    24  H    3.404257   2.159420   4.307128   2.158141   4.305987
    25  C    3.667364   4.281963   2.699850   4.803565   3.979871
    26  C    4.871501   5.059308   3.071589   5.962139   5.228145
    27  C    3.972774   4.567616   3.349979   4.966536   4.253753
    28  C    6.015068   5.936965   3.930717   7.029237   6.395753
    29  H    5.126930   5.289639   3.263323   6.222199   5.473213
    30  C    5.313246   5.522376   4.150093   6.206678   5.627683
    31  H    3.458838   4.421190   3.726941   4.378861   3.643005
    32  C    6.201418   6.140405   4.398683   7.136004   6.565762
    33  H    6.961055   6.720927   4.622482   7.962675   7.356954
    34  H    5.850011   6.054626   4.952726   6.626751   6.131430
    35  H    7.246347   7.038297   5.321690   8.129175   7.619133
                   21         22         23         24         25
    21  C    0.000000
    22  H    2.158564   0.000000
    23  H    2.156779   4.304322   0.000000
    24  H    1.094557   2.488450   2.487867   0.000000
    25  C    5.055327   4.947453   5.740743   6.114244   0.000000
    26  C    6.043974   5.526420   6.953093   7.077075   1.396522
    27  C    5.219256   5.204158   5.821790   6.203427   1.396424
    28  C    6.999917   6.251710   8.026867   7.979200   2.416836
    29  H    6.294234   5.732079   7.215353   7.325200   2.164692
    30  C    6.300427   5.966764   7.069228   7.214354   2.417541
    31  H    4.794972   5.172906   5.108482   5.737110   2.157440
    32  C    7.113103   6.450851   8.079312   8.041216   2.793603
    33  H    7.862907   6.933602   8.983630   8.823237   3.407652
    34  H    6.720649   6.467782   7.404644   7.552723   3.408064
    35  H    8.040645   7.250362   9.065797   8.921347   3.888250
                   26         27         28         29         30
    26  C    0.000000
    27  C    2.409309   0.000000
    28  C    1.390584   2.779156   0.000000
    29  H    1.096379   3.406181   2.155465   0.000000
    30  C    2.781694   1.389386   2.406794   3.878053   0.000000
    31  H    3.403357   1.100683   3.879645   4.310730   2.166870
    32  C    2.410845   2.409033   1.390513   3.401972   1.391104
    33  H    2.155568   3.874137   1.094985   2.477904   3.400100
    34  H    3.876538   2.154808   3.400320   4.972898   1.094847
    35  H    3.403121   3.401487   2.158286   4.304379   2.158718
                   31         32         33         34         35
    31  H    0.000000
    32  C    3.410286   0.000000
    33  H    4.974591   2.157570   0.000000
    34  H    2.493388   2.158689   4.305557   0.000000
    35  H    4.315149   1.094648   2.486874   2.488332   0.000000
 Stoichiometry    C19H16
 Framework group  C1[X(C19H16)]
 Deg. of freedom    99
 Full point group                 C1      NOp   1
 Largest Abelian subgroup         C1      NOp   1
 Largest concise Abelian subgroup C1      NOp   1
                         Standard orientation:                         
 ---------------------------------------------------------------------
 Center     Atomic      Atomic             Coordinates (Angstroms)
 Number     Number       Type             X           Y           Z
 ---------------------------------------------------------------------
      1          6           0        0.013053    0.011975   -0.760779
      2          1           0       -0.017262    0.014059   -1.883458
      3          6           0        1.461652   -0.064910   -0.348342
      4          6           0        1.842249   -0.126786    0.994147
      5          6           0        2.449303   -0.082465   -1.335894
      6          6           0        3.185010   -0.204035    1.342978
      7          1           0        1.062502   -0.126902    1.772173
      8          6           0        3.792712   -0.158964   -0.984604
      9          1           0        2.167248   -0.035941   -2.394445
     10          6           0        4.163178   -0.218969    0.354170
     11          1           0        3.471270   -0.254802    2.398427
     12          1           0        4.559524   -0.172890   -1.765986
     13          1           0        5.220977   -0.279251    0.629263
     14          6           0       -0.681635    1.287997   -0.353356
     15          6           0       -2.044839    1.423515   -0.638537
     16          6           0       -0.007409    2.351847    0.244536
     17          6           0       -2.717716    2.596583   -0.324456
     18          1           0       -2.582054    0.591220   -1.109020
     19          6           0       -0.683252    3.527345    0.556699
     20          1           0        1.062823    2.263722    0.471022
     21          6           0       -2.037775    3.652671    0.274674
     22          1           0       -3.785032    2.689763   -0.549523
     23          1           0       -0.142101    4.355543    1.025732
     24          1           0       -2.568191    4.577746    0.521553
     25          6           0       -0.743187   -1.202670   -0.278528
     26          6           0       -1.190744   -2.145459   -1.206490
     27          6           0       -1.009940   -1.400966    1.077762
     28          6           0       -1.897231   -3.265564   -0.782264
     29          1           0       -0.985317   -2.005287   -2.274291
     30          6           0       -1.718509   -2.519410    1.498957
     31          1           0       -0.635498   -0.668375    1.808930
     32          6           0       -2.164627   -3.453194    0.569335
     33          1           0       -2.243455   -4.000837   -1.516086
     34          1           0       -1.924004   -2.664847    2.564466
     35          1           0       -2.723196   -4.334171    0.901202
 ---------------------------------------------------------------------
 Rotational constants (GHZ):      0.4046134      0.3806570      0.2328625
 Standard basis: 6-311G (5D, 7F)
 There are   295 symmetry adapted basis functions of A   symmetry.
 Integral buffers will be    262144 words long.
 Raffenetti 1 integral format.
 Two-electron integral symmetry is turned on.
   295 basis functions,   574 primitive gaussians,   295 cartesian basis functions
    65 alpha electrons       65 beta electrons
       nuclear repulsion energy      1290.5524660523 Hartrees.
 NAtoms=   35 NActive=   35 NUniq=   35 SFac= 7.50D-01 NAtFMM=   80 NAOKFM=F Big=F
 One-electron integrals computed using PRISM.
 PrsmSu:  requested number of processors reduced to:  10 ShMem   1 Linda.
 NBasis=   295 RedAO= T  NBF=   295
 NBsUse=   295 1.00D-06 NBFU=   295
 Harris functional with IExCor=  205 diagonalized for initial guess.
 ExpMin= 1.03D-01 ExpMax= 4.56D+03 ExpMxC= 6.82D+02 IAcc=1 IRadAn=         1 AccDes= 0.00D+00
 HarFok:  IExCor=  205 AccDes= 0.00D+00 IRadAn=         1 IDoV= 1
 ScaDFX=  1.000000  1.000000  1.000000  1.000000
 FoFCou: FMM=F IPFlag=           0 FMFlag=      100000 FMFlg1=           0
         NFxFlg=           0 DoJE=T BraDBF=F KetDBF=T FulRan=T
         Omega=  0.000000  0.000000  1.000000  0.000000  0.000000 ICntrl=     500 IOpCl=  0
         NMat0=    1 NMatS0=    1 NMatT0=    0 NMatD0=    1 NMtDS0=    0 NMtDT0=    0
         I1Cent=           4 NGrid=           0.
 Petite list used in FoFCou.
 Initial guess orbital symmetries:
       Occupied  (A) (A) (A) (A) (A) (A) (A) (A) (A) (A) (A) (A)
                 (A) (A) (A) (A) (A) (A) (A) (A) (A) (A) (A) (A)
                 (A) (A) (A) (A) (A) (A) (A) (A) (A) (A) (A) (A)
                 (A) (A) (A) (A) (A) (A) (A) (A) (A) (A) (A) (A)
                 (A) (A) (A) (A) (A) (A) (A) (A) (A) (A) (A) (A)
                 (A) (A) (A) (A) (A)
       Virtual   (A) (A) (A) (A) (A) (A) (A) (A) (A) (A) (A) (A)
                 (A) (A) (A) (A) (A) (A) (A) (A) (A) (A) (A) (A)
                 (A) (A) (A) (A) (A) (A) (A) (A) (A) (A) (A) (A)
                 (A) (A) (A) (A) (A) (A) (A) (A) (A) (A) (A) (A)
                 (A) (A) (A) (A) (A) (A) (A) (A) (A) (A) (A) (A)
                 (A) (A) (A) (A) (A) (A) (A) (A) (A) (A) (A) (A)
                 (A) (A) (A) (A) (A) (A) (A) (A) (A) (A) (A) (A)
                 (A) (A) (A) (A) (A) (A) (A) (A) (A) (A) (A) (A)
                 (A) (A) (A) (A) (A) (A) (A) (A) (A) (A) (A) (A)
                 (A) (A) (A) (A) (A) (A) (A) (A) (A) (A) (A) (A)
                 (A) (A) (A) (A) (A) (A) (A) (A) (A) (A) (A) (A)
                 (A) (A) (A) (A) (A) (A) (A) (A) (A) (A) (A) (A)
                 (A) (A) (A) (A) (A) (A) (A) (A) (A) (A) (A) (A)
                 (A) (A) (A) (A) (A) (A) (A) (A) (A) (A) (A) (A)
                 (A) (A) (A) (A) (A) (A) (A) (A) (A) (A) (A) (A)
                 (A) (A) (A) (A) (A) (A) (A) (A) (A) (A) (A) (A)
                 (A) (A) (A) (A) (A) (A) (A) (A) (A) (A) (A) (A)
                 (A) (A) (A) (A) (A) (A) (A) (A) (A) (A) (A) (A)
                 (A) (A) (A) (A) (A) (A) (A) (A) (A) (A) (A) (A)
                 (A) (A)
 The electronic state of the initial guess is 1-A.
 Requested convergence on RMS density matrix=1.00D-08 within 128 cycles.
 Requested convergence on MAX density matrix=1.00D-06.
 Requested convergence on             energy=1.00D-06.
 No special actions if energy rises.
 Integral accuracy reduced to 1.0D-05 until final iterations.
 Initial convergence to 1.0D-05 achieved.  Increase integral accuracy.
 SCF Done:  E(RHF) =  -728.672358485     A.U. after   14 cycles
             Convg  =    0.8582D-08             -V/T =  2.0001

 **********************************************************************

            Population analysis using the SCF density.

 **********************************************************************

 Orbital symmetries:
       Occupied  (A) (A) (A) (A) (A) (A) (A) (A) (A) (A) (A) (A)
                 (A) (A) (A) (A) (A) (A) (A) (A) (A) (A) (A) (A)
                 (A) (A) (A) (A) (A) (A) (A) (A) (A) (A) (A) (A)
                 (A) (A) (A) (A) (A) (A) (A) (A) (A) (A) (A) (A)
                 (A) (A) (A) (A) (A) (A) (A) (A) (A) (A) (A) (A)
                 (A) (A) (A) (A) (A)
       Virtual   (A) (A) (A) (A) (A) (A) (A) (A) (A) (A) (A) (A)
                 (A) (A) (A) (A) (A) (A) (A) (A) (A) (A) (A) (A)
                 (A) (A) (A) (A) (A) (A) (A) (A) (A) (A) (A) (A)
                 (A) (A) (A) (A) (A) (A) (A) (A) (A) (A) (A) (A)
                 (A) (A) (A) (A) (A) (A) (A) (A) (A) (A) (A) (A)
                 (A) (A) (A) (A) (A) (A) (A) (A) (A) (A) (A) (A)
                 (A) (A) (A) (A) (A) (A) (A) (A) (A) (A) (A) (A)
                 (A) (A) (A) (A) (A) (A) (A) (A) (A) (A) (A) (A)
                 (A) (A) (A) (A) (A) (A) (A) (A) (A) (A) (A) (A)
                 (A) (A) (A) (A) (A) (A) (A) (A) (A) (A) (A) (A)
                 (A) (A) (A) (A) (A) (A) (A) (A) (A) (A) (A) (A)
                 (A) (A) (A) (A) (A) (A) (A) (A) (A) (A) (A) (A)
                 (A) (A) (A) (A) (A) (A) (A) (A) (A) (A) (A) (A)
                 (A) (A) (A) (A) (A) (A) (A) (A) (A) (A) (A) (A)
                 (A) (A) (A) (A) (A) (A) (A) (A) (A) (A) (A) (A)
                 (A) (A) (A) (A) (A) (A) (A) (A) (A) (A) (A) (A)
                 (A) (A) (A) (A) (A) (A) (A) (A) (A) (A) (A) (A)
                 (A) (A) (A) (A) (A) (A) (A) (A) (A) (A) (A) (A)
                 (A) (A) (A) (A) (A) (A) (A) (A) (A) (A) (A) (A)
                 (A) (A)
 The electronic state is 1-A.
 Alpha  occ. eigenvalues --  -11.25765 -11.25237 -11.25191 -11.24927 -11.24523
 Alpha  occ. eigenvalues --  -11.24437 -11.24420 -11.24372 -11.24224 -11.24170
 Alpha  occ. eigenvalues --  -11.24143 -11.24120 -11.24076 -11.24040 -11.24032
 Alpha  occ. eigenvalues --  -11.23975 -11.23733 -11.23646 -11.23502  -1.18614
 Alpha  occ. eigenvalues --   -1.15870  -1.15575  -1.09027  -1.02380  -1.02234
 Alpha  occ. eigenvalues --   -1.01876  -1.01486  -1.01100  -0.92921  -0.84296
 Alpha  occ. eigenvalues --   -0.83341  -0.82345  -0.81897  -0.81155  -0.77593
 Alpha  occ. eigenvalues --   -0.70863  -0.70369  -0.68985  -0.65702  -0.63891
 Alpha  occ. eigenvalues --   -0.63604  -0.62505  -0.61714  -0.61598  -0.59713
 Alpha  occ. eigenvalues --   -0.58849  -0.58486  -0.58322  -0.56828  -0.55006
 Alpha  occ. eigenvalues --   -0.51723  -0.50931  -0.50244  -0.49851  -0.49381
 Alpha  occ. eigenvalues --   -0.48444  -0.47931  -0.47511  -0.46328  -0.35004
 Alpha  occ. eigenvalues --   -0.34319  -0.33935  -0.33337  -0.32610  -0.31423
 Alpha virt. eigenvalues --    0.11517   0.12284   0.12795   0.13559   0.14956
 Alpha virt. eigenvalues --    0.15080   0.15599   0.16239   0.16479   0.16925
 Alpha virt. eigenvalues --    0.18905   0.19183   0.19229   0.21248   0.21301
 Alpha virt. eigenvalues --    0.21578   0.23576   0.23984   0.24993   0.25424
 Alpha virt. eigenvalues --    0.26930   0.31343   0.33222   0.34258   0.35770
 Alpha virt. eigenvalues --    0.37531   0.39839   0.40468   0.41528   0.43133
 Alpha virt. eigenvalues --    0.44091   0.44425   0.44893   0.45455   0.45630
 Alpha virt. eigenvalues --    0.45855   0.46751   0.47202   0.48044   0.50569
 Alpha virt. eigenvalues --    0.51100   0.51449   0.52083   0.54926   0.56030
 Alpha virt. eigenvalues --    0.57351   0.57839   0.58480   0.58965   0.59373
 Alpha virt. eigenvalues --    0.60145   0.60437   0.60629   0.61157   0.61453
 Alpha virt. eigenvalues --    0.62073   0.62253   0.62949   0.63530   0.63723
 Alpha virt. eigenvalues --    0.64288   0.64540   0.65216   0.65919   0.66411
 Alpha virt. eigenvalues --    0.67187   0.67811   0.68588   0.69883   0.72357
 Alpha virt. eigenvalues --    0.73144   0.73930   0.74290   0.75244   0.75749
 Alpha virt. eigenvalues --    0.76712   0.78871   0.79312   0.79844   0.81350
 Alpha virt. eigenvalues --    0.81513   0.82188   0.82500   0.82929   0.83237
 Alpha virt. eigenvalues --    0.83823   0.84350   0.84775   0.84856   0.85464
 Alpha virt. eigenvalues --    0.85986   0.86266   0.86434   0.87677   0.88175
 Alpha virt. eigenvalues --    0.90318   0.90763   0.92207   0.93386   0.94957
 Alpha virt. eigenvalues --    0.95982   0.96402   0.97061   0.98183   0.99654
 Alpha virt. eigenvalues --    0.99909   1.02320   1.02998   1.04664   1.06198
 Alpha virt. eigenvalues --    1.07089   1.08227   1.09205   1.10259   1.10651
 Alpha virt. eigenvalues --    1.11367   1.11752   1.12467   1.12688   1.13835
 Alpha virt. eigenvalues --    1.14947   1.16588   1.19474   1.20606   1.20957
 Alpha virt. eigenvalues --    1.23905   1.25834   1.27279   1.28362   1.28982
 Alpha virt. eigenvalues --    1.29414   1.32141   1.33058   1.46669   1.47656
 Alpha virt. eigenvalues --    1.52134   1.54107   1.57172   2.53562   2.55691
 Alpha virt. eigenvalues --    2.56125   2.57759   2.62076   2.62274   2.63920
 Alpha virt. eigenvalues --    2.66320   2.67209   2.68497   2.71929   2.74311
 Alpha virt. eigenvalues --    2.78330   2.83463   2.86543   2.91572   2.94353
 Alpha virt. eigenvalues --    2.94591   2.94747   2.96033   2.98041   2.98545
 Alpha virt. eigenvalues --    3.00014   3.02207   3.03886   3.04502   3.06423
 Alpha virt. eigenvalues --    3.08524   3.09177   3.09725   3.10124   3.13183
 Alpha virt. eigenvalues --    3.15195   3.16236   3.17694   3.18413   3.19365
 Alpha virt. eigenvalues --    3.21627   3.24132   3.25157   3.27636   3.28765
 Alpha virt. eigenvalues --    3.31333   3.33869   3.34253   3.35669   3.41061
 Alpha virt. eigenvalues --    3.41452   3.44183   3.45117   3.49918   3.52386
 Alpha virt. eigenvalues --    3.53476   3.55904   3.57479   3.58237   3.59669
 Alpha virt. eigenvalues --    3.62304   3.64166   3.65008   3.66228   3.66602
 Alpha virt. eigenvalues --    3.67654   3.69219   3.71260   3.72488   3.74059
 Alpha virt. eigenvalues --    3.76099   3.77400   3.78611   3.85472   3.87896
 Alpha virt. eigenvalues --    3.91190  24.25993  24.30049  24.31803  24.50503
 Alpha virt. eigenvalues --   24.50792  24.51028  24.53128  24.54591  24.56516
 Alpha virt. eigenvalues --   24.76289  24.77082  24.79105  24.80201  24.80665
 Alpha virt. eigenvalues --   24.82713  24.87251  25.04663  25.05795  25.07111
          Condensed to atoms (all electrons):
              1          2          3          4          5          6
     1  C    6.094521   0.473389   0.119489  -0.070561  -0.024883   0.002390
     2  H    0.473389   0.503611  -0.076064   0.004449   0.006513  -0.000226
     3  C    0.119489  -0.076064   5.391265   0.450885   0.499640  -0.064510
     4  C   -0.070561   0.004449   0.450885   5.099764  -0.062927   0.480116
     5  C   -0.024883   0.006513   0.499640  -0.062927   5.046491  -0.034140
     6  C    0.002390  -0.000226  -0.064510   0.480116  -0.034140   5.046898
     7  H    0.000954  -0.000038  -0.048012   0.386315   0.004610  -0.026964
     8  C    0.008267   0.001465  -0.076912  -0.029614   0.468892  -0.077272
     9  H   -0.002073   0.002820  -0.045449   0.004764   0.394311  -0.000289
    10  C    0.001724   0.000004  -0.016000  -0.093625  -0.088926   0.490200
    11  H   -0.000371   0.000012   0.005970  -0.038519  -0.000373   0.396986
    12  H   -0.000413  -0.000034   0.007038  -0.000632  -0.039477   0.006275
    13  H   -0.000026  -0.000002  -0.001674   0.007983   0.007556  -0.042941
    14  C    0.037838  -0.062582  -0.066482   0.006597  -0.000645   0.000842
    15  C   -0.085738  -0.004902   0.011404   0.000764  -0.000258   0.000016
    16  C   -0.028659   0.001147  -0.012427  -0.017940   0.000871  -0.001460
    17  C    0.008021   0.000695  -0.000880  -0.000021   0.000009   0.000000
    18  H   -0.002300  -0.000144   0.000835  -0.000041  -0.000005   0.000000
    19  C    0.012029  -0.000133  -0.001473  -0.000907  -0.000116  -0.000041
    20  H   -0.011092  -0.000276   0.000689  -0.001180  -0.001155   0.000420
    21  C    0.000434   0.000030   0.000118  -0.000019  -0.000004   0.000000
    22  H   -0.000355   0.000004   0.000012   0.000000   0.000000   0.000000
    23  H   -0.000361   0.000014   0.000058   0.000029   0.000004  -0.000001
    24  H   -0.000014  -0.000002   0.000001   0.000001   0.000000   0.000000
    25  C    0.151672  -0.070647  -0.139003  -0.003308  -0.004303   0.001983
    26  C   -0.024644   0.001450  -0.001910   0.000526   0.000613   0.000045
    27  C   -0.054954   0.005577  -0.003633  -0.012036   0.000726  -0.000099
    28  C    0.006851   0.001573  -0.000514   0.000132  -0.000017   0.000001
    29  H   -0.000031   0.002333   0.000371  -0.000006   0.000265  -0.000001
    30  C    0.003148  -0.000265   0.001903  -0.000463   0.000029  -0.000101
    31  H    0.000296   0.000114  -0.002796  -0.001095  -0.000198   0.000862
    32  C    0.001264  -0.000001  -0.000087  -0.000024  -0.000008   0.000001
    33  H   -0.000340  -0.000039   0.000025   0.000000   0.000001   0.000000
    34  H   -0.000347   0.000011   0.000027   0.000056   0.000000   0.000002
    35  H   -0.000012  -0.000001  -0.000003   0.000000   0.000000   0.000000
              7          8          9         10         11         12
     1  C    0.000954   0.008267  -0.002073   0.001724  -0.000371  -0.000413
     2  H   -0.000038   0.001465   0.002820   0.000004   0.000012  -0.000034
     3  C   -0.048012  -0.076912  -0.045449  -0.016000   0.005970   0.007038
     4  C    0.386315  -0.029614   0.004764  -0.093625  -0.038519  -0.000632
     5  C    0.004610   0.468892   0.394311  -0.088926  -0.000373  -0.039477
     6  C   -0.026964  -0.077272  -0.000289   0.490200   0.396986   0.006275
     7  H    0.497288  -0.000136  -0.000269   0.004645  -0.003394   0.000017
     8  C   -0.000136   5.046800  -0.033762   0.499588   0.005895   0.396371
     9  H   -0.000269  -0.033762   0.506460   0.005068   0.000025  -0.004076
    10  C    0.004645   0.499588   0.005068   5.033748  -0.039794  -0.041067
    11  H   -0.003394   0.005895   0.000025  -0.039794   0.514419  -0.000206
    12  H    0.000017   0.396371  -0.004076  -0.041067  -0.000206   0.517970
    13  H   -0.000171  -0.042541  -0.000179   0.399428  -0.004362  -0.004551
    14  C    0.001267  -0.000774   0.000503  -0.000069   0.000017   0.000024
    15  C    0.000028   0.000005   0.000013   0.000000   0.000000   0.000000
    16  C    0.001526   0.000366   0.000140   0.000124   0.000006  -0.000007
    17  C   -0.000043   0.000000  -0.000001   0.000000   0.000000   0.000000
    18  H    0.000021   0.000000  -0.000002   0.000000   0.000000   0.000000
    19  C    0.000092   0.000004   0.000005   0.000004  -0.000002   0.000000
    20  H   -0.000009  -0.000121   0.000079   0.000092   0.000041   0.000010
    21  C    0.000001   0.000000   0.000000   0.000000   0.000000   0.000000
    22  H   -0.000001   0.000000   0.000000   0.000000   0.000000   0.000000
    23  H    0.000000   0.000000   0.000000  -0.000001   0.000000   0.000000
    24  H    0.000000   0.000000   0.000000   0.000000   0.000000   0.000000
    25  C   -0.003662  -0.000597   0.000161  -0.000054   0.000026   0.000020
    26  C   -0.000215  -0.000011   0.000187  -0.000013   0.000002   0.000001
    27  C    0.002132   0.000052  -0.000025  -0.000003   0.000037  -0.000001
    28  C   -0.000063   0.000002  -0.000002   0.000000   0.000000   0.000000
    29  H    0.000001   0.000007   0.000059  -0.000002   0.000000   0.000000
    30  C    0.001153  -0.000001   0.000001   0.000002  -0.000001   0.000000
    31  H    0.001719   0.000002  -0.000002  -0.000014  -0.000034   0.000000
    32  C    0.000007   0.000000  -0.000001   0.000000   0.000000   0.000000
    33  H    0.000001   0.000000   0.000000   0.000000   0.000000   0.000000
    34  H   -0.000062   0.000000   0.000000   0.000000   0.000001   0.000000
    35  H    0.000000   0.000000   0.000000   0.000000   0.000000   0.000000
             13         14         15         16         17         18
     1  C   -0.000026   0.037838  -0.085738  -0.028659   0.008021  -0.002300
     2  H   -0.000002  -0.062582  -0.004902   0.001147   0.000695  -0.000144
     3  C   -0.001674  -0.066482   0.011404  -0.012427  -0.000880   0.000835
     4  C    0.007983   0.006597   0.000764  -0.017940  -0.000021  -0.000041
     5  C    0.007556  -0.000645  -0.000258   0.000871   0.000009  -0.000005
     6  C   -0.042941   0.000842   0.000016  -0.001460   0.000000   0.000000
     7  H   -0.000171   0.001267   0.000028   0.001526  -0.000043   0.000021
     8  C   -0.042541  -0.000774   0.000005   0.000366   0.000000   0.000000
     9  H   -0.000179   0.000503   0.000013   0.000140  -0.000001  -0.000002
    10  C    0.399428  -0.000069   0.000000   0.000124   0.000000   0.000000
    11  H   -0.004362   0.000017   0.000000   0.000006   0.000000   0.000000
    12  H   -0.004551   0.000024   0.000000  -0.000007   0.000000   0.000000
    13  H    0.516887   0.000002   0.000000  -0.000003   0.000000   0.000000
    14  C    0.000002   5.353874   0.470745   0.501948  -0.056817  -0.045761
    15  C    0.000000   0.470745   5.122055  -0.082887   0.464275   0.397657
    16  C   -0.000003   0.501948  -0.082887   5.094150  -0.029930   0.004432
    17  C    0.000000  -0.056817   0.464275  -0.029930   5.060666  -0.035148
    18  H    0.000000  -0.045761   0.397657   0.004432  -0.035148   0.491036
    19  C    0.000000  -0.069529  -0.033335   0.454597  -0.074057  -0.000462
    20  H    0.000009  -0.034718   0.004934   0.393693  -0.000421  -0.000199
    21  C    0.000000  -0.020492  -0.085036  -0.090337   0.480312   0.005234
    22  H    0.000000   0.006160  -0.038466  -0.000444   0.397173  -0.003902
    23  H    0.000000   0.006488  -0.000408  -0.036816   0.006014   0.000017
    24  H    0.000000  -0.001459   0.007441   0.007683  -0.043258  -0.000173
    25  C   -0.000003  -0.098221  -0.006354   0.000127  -0.001530   0.003906
    26  C    0.000000  -0.001652   0.000651  -0.000442  -0.000047   0.001771
    27  C    0.000001  -0.007913  -0.008068   0.001661  -0.000218  -0.000554
    28  C    0.000000  -0.000420  -0.000113   0.000021   0.000013   0.000117
    29  H    0.000000   0.000134   0.000300  -0.000036  -0.000008   0.000208
    30  C    0.000000  -0.000581  -0.000330   0.000022  -0.000006  -0.000230
    31  H    0.000000   0.001066   0.000166  -0.000041   0.000036  -0.000072
    32  C    0.000000   0.000051   0.000102  -0.000002   0.000002  -0.000091
    33  H    0.000000   0.000011  -0.000002   0.000000   0.000000   0.000005
    34  H    0.000000   0.000023   0.000017   0.000000   0.000001   0.000005
    35  H    0.000000   0.000000   0.000000   0.000000   0.000000   0.000001
             19         20         21         22         23         24
     1  C    0.012029  -0.011092   0.000434  -0.000355  -0.000361  -0.000014
     2  H   -0.000133  -0.000276   0.000030   0.000004   0.000014  -0.000002
     3  C   -0.001473   0.000689   0.000118   0.000012   0.000058   0.000001
     4  C   -0.000907  -0.001180  -0.000019   0.000000   0.000029   0.000001
     5  C   -0.000116  -0.001155  -0.000004   0.000000   0.000004   0.000000
     6  C   -0.000041   0.000420   0.000000   0.000000  -0.000001   0.000000
     7  H    0.000092  -0.000009   0.000001  -0.000001   0.000000   0.000000
     8  C    0.000004  -0.000121   0.000000   0.000000   0.000000   0.000000
     9  H    0.000005   0.000079   0.000000   0.000000   0.000000   0.000000
    10  C    0.000004   0.000092   0.000000   0.000000  -0.000001   0.000000
    11  H   -0.000002   0.000041   0.000000   0.000000   0.000000   0.000000
    12  H    0.000000   0.000010   0.000000   0.000000   0.000000   0.000000
    13  H    0.000000   0.000009   0.000000   0.000000   0.000000   0.000000
    14  C   -0.069529  -0.034718  -0.020492   0.006160   0.006488  -0.001459
    15  C   -0.033335   0.004934  -0.085036  -0.038466  -0.000408   0.007441
    16  C    0.454597   0.393693  -0.090337  -0.000444  -0.036816   0.007683
    17  C   -0.074057  -0.000421   0.480312   0.397173   0.006014  -0.043258
    18  H   -0.000462  -0.000199   0.005234  -0.003902   0.000017  -0.000173
    19  C    5.078194  -0.036215   0.496514   0.006007   0.395572  -0.042124
    20  H   -0.036215   0.476956   0.005009   0.000017  -0.003497  -0.000170
    21  C    0.496514   0.005009   5.042479  -0.040842  -0.041233   0.399499
    22  H    0.006007   0.000017  -0.040842   0.517630  -0.000213  -0.004410
    23  H    0.395572  -0.003497  -0.041233  -0.000213   0.517802  -0.004470
    24  H   -0.042124  -0.000170   0.399499  -0.004410  -0.004470   0.519359
    25  C   -0.000788   0.000400   0.000125   0.000014   0.000012   0.000002
    26  C    0.000007  -0.000018  -0.000003  -0.000005   0.000000   0.000000
    27  C    0.000051   0.000076   0.000036   0.000014   0.000000   0.000000
    28  C    0.000000   0.000000   0.000000  -0.000001   0.000000   0.000000
    29  H    0.000000   0.000001   0.000001   0.000000   0.000000   0.000000
    30  C    0.000005  -0.000001   0.000002   0.000002   0.000000   0.000000
    31  H   -0.000081   0.000018  -0.000043   0.000005   0.000000   0.000001
    32  C    0.000000   0.000000   0.000000   0.000000   0.000000   0.000000
    33  H    0.000000   0.000000   0.000000   0.000000   0.000000   0.000000
    34  H    0.000000   0.000000   0.000000   0.000000   0.000000   0.000000
    35  H    0.000000   0.000000   0.000000   0.000000   0.000000   0.000000
             25         26         27         28         29         30
     1  C    0.151672  -0.024644  -0.054954   0.006851  -0.000031   0.003148
     2  H   -0.070647   0.001450   0.005577   0.001573   0.002333  -0.000265
     3  C   -0.139003  -0.001910  -0.003633  -0.000514   0.000371   0.001903
     4  C   -0.003308   0.000526  -0.012036   0.000132  -0.000006  -0.000463
     5  C   -0.004303   0.000613   0.000726  -0.000017   0.000265   0.000029
     6  C    0.001983   0.000045  -0.000099   0.000001  -0.000001  -0.000101
     7  H   -0.003662  -0.000215   0.002132  -0.000063   0.000001   0.001153
     8  C   -0.000597  -0.000011   0.000052   0.000002   0.000007  -0.000001
     9  H    0.000161   0.000187  -0.000025  -0.000002   0.000059   0.000001
    10  C   -0.000054  -0.000013  -0.000003   0.000000  -0.000002   0.000002
    11  H    0.000026   0.000002   0.000037   0.000000   0.000000  -0.000001
    12  H    0.000020   0.000001  -0.000001   0.000000   0.000000   0.000000
    13  H   -0.000003   0.000000   0.000001   0.000000   0.000000   0.000000
    14  C   -0.098221  -0.001652  -0.007913  -0.000420   0.000134  -0.000581
    15  C   -0.006354   0.000651  -0.008068  -0.000113   0.000300  -0.000330
    16  C    0.000127  -0.000442   0.001661   0.000021  -0.000036   0.000022
    17  C   -0.001530  -0.000047  -0.000218   0.000013  -0.000008  -0.000006
    18  H    0.003906   0.001771  -0.000554   0.000117   0.000208  -0.000230
    19  C   -0.000788   0.000007   0.000051   0.000000   0.000000   0.000005
    20  H    0.000400  -0.000018   0.000076   0.000000   0.000001  -0.000001
    21  C    0.000125  -0.000003   0.000036   0.000000   0.000001   0.000002
    22  H    0.000014  -0.000005   0.000014  -0.000001   0.000000   0.000002
    23  H    0.000012   0.000000   0.000000   0.000000   0.000000   0.000000
    24  H    0.000002   0.000000   0.000000   0.000000   0.000000   0.000000
    25  C    5.388373   0.492920   0.446323  -0.073485  -0.050740  -0.058392
    26  C    0.492920   5.092308  -0.072021   0.453872   0.400490  -0.030619
    27  C    0.446323  -0.072021   5.070317  -0.026577   0.004320   0.478947
    28  C   -0.073485   0.453872  -0.026577   5.059830  -0.034901  -0.078493
    29  H   -0.050740   0.400490   0.004320  -0.034901   0.509848  -0.000281
    30  C   -0.058392  -0.030619   0.478947  -0.078493  -0.000281   5.040114
    31  H   -0.044705   0.004067   0.388996   0.000012  -0.000271  -0.028391
    32  C   -0.018779  -0.086265  -0.091175   0.497507   0.005245   0.491213
    33  H    0.006932  -0.039688  -0.000683   0.396946  -0.004208   0.006232
    34  H    0.006022  -0.000479  -0.038930   0.005970   0.000025   0.397209
    35  H   -0.001545   0.007487   0.007889  -0.042562  -0.000185  -0.042919
             31         32         33         34         35
     1  C    0.000296   0.001264  -0.000340  -0.000347  -0.000012
     2  H    0.000114  -0.000001  -0.000039   0.000011  -0.000001
     3  C   -0.002796  -0.000087   0.000025   0.000027  -0.000003
     4  C   -0.001095  -0.000024   0.000000   0.000056   0.000000
     5  C   -0.000198  -0.000008   0.000001   0.000000   0.000000
     6  C    0.000862   0.000001   0.000000   0.000002   0.000000
     7  H    0.001719   0.000007   0.000001  -0.000062   0.000000
     8  C    0.000002   0.000000   0.000000   0.000000   0.000000
     9  H   -0.000002  -0.000001   0.000000   0.000000   0.000000
    10  C   -0.000014   0.000000   0.000000   0.000000   0.000000
    11  H   -0.000034   0.000000   0.000000   0.000001   0.000000
    12  H    0.000000   0.000000   0.000000   0.000000   0.000000
    13  H    0.000000   0.000000   0.000000   0.000000   0.000000
    14  C    0.001066   0.000051   0.000011   0.000023   0.000000
    15  C    0.000166   0.000102  -0.000002   0.000017   0.000000
    16  C   -0.000041  -0.000002   0.000000   0.000000   0.000000
    17  C    0.000036   0.000002   0.000000   0.000001   0.000000
    18  H   -0.000072  -0.000091   0.000005   0.000005   0.000001
    19  C   -0.000081   0.000000   0.000000   0.000000   0.000000
    20  H    0.000018   0.000000   0.000000   0.000000   0.000000
    21  C   -0.000043   0.000000   0.000000   0.000000   0.000000
    22  H    0.000005   0.000000   0.000000   0.000000   0.000000
    23  H    0.000000   0.000000   0.000000   0.000000   0.000000
    24  H    0.000001   0.000000   0.000000   0.000000   0.000000
    25  C   -0.044705  -0.018779   0.006932   0.006022  -0.001545
    26  C    0.004067  -0.086265  -0.039688  -0.000479   0.007487
    27  C    0.388996  -0.091175  -0.000683  -0.038930   0.007889
    28  C    0.000012   0.497507   0.396946   0.005970  -0.042562
    29  H   -0.000271   0.005245  -0.004208   0.000025  -0.000185
    30  C   -0.028391   0.491213   0.006232   0.397209  -0.042919
    31  H    0.496738   0.004552   0.000015  -0.003331  -0.000172
    32  C    0.004552   5.034134  -0.040666  -0.039819   0.399670
    33  H    0.000015  -0.040666   0.518095  -0.000206  -0.004583
    34  H   -0.003331  -0.039819  -0.000206   0.514826  -0.004471
    35  H   -0.000172   0.399670  -0.004583  -0.004471   0.517433
 Mulliken atomic charges:
              1
     1  C   -0.615117
     2  H    0.210144
     3  C    0.068096
     4  C   -0.109463
     5  C   -0.173097
     6  C   -0.178992
     7  H    0.181263
     8  C   -0.165975
     9  H    0.171533
    10  C   -0.155059
    11  H    0.163620
    12  H    0.162738
    13  H    0.164587
    14  C    0.080523
    15  C   -0.134676
    16  C   -0.161081
    17  C   -0.174834
    18  H    0.183840
    19  C   -0.183819
    20  H    0.206625
    21  C   -0.151788
    22  H    0.161600
    23  H    0.160989
    24  H    0.162093
    25  C    0.077096
    26  C   -0.198367
    27  C   -0.090264
    28  C   -0.165701
    29  H    0.167061
    30  C   -0.178907
    31  H    0.182582
    32  C   -0.156830
    33  H    0.162152
    34  H    0.163451
    35  H    0.163973
 Sum of Mulliken atomic charges =   0.00000
 Mulliken charges with hydrogens summed into heavy atoms:
              1
     1  C   -0.404973
     3  C    0.068096
     4  C    0.071801
     5  C   -0.001563
     6  C   -0.015372
     8  C   -0.003237
    10  C    0.009529
    14  C    0.080523
    15  C    0.049164
    16  C    0.045545
    17  C   -0.013234
    19  C   -0.022830
    21  C    0.010306
    25  C    0.077096
    26  C   -0.031306
    27  C    0.092318
    28  C   -0.003549
    30  C   -0.015456
    32  C    0.007143
 Sum of Mulliken charges with hydrogens summed into heavy atoms =   0.00000
 Electronic spatial extent (au):  <R**2>=           4932.0868
 Charge=              0.0000 electrons
 Dipole moment (field-independent basis, Debye):
    X=              0.0931    Y=             -0.1634    Z=             -0.0186  Tot=              0.1889
 Quadrupole moment (field-independent basis, Debye-Ang):
   XX=           -107.7914   YY=           -113.3213   ZZ=           -106.6452
   XY=              2.7212   XZ=              1.0762   YZ=              2.6448
 Traceless Quadrupole moment (field-independent basis, Debye-Ang):
   XX=              1.4612   YY=             -4.0687   ZZ=              2.6075
   XY=              2.7212   XZ=              1.0762   YZ=              2.6448
 Octapole moment (field-independent basis, Debye-Ang**2):
  XXX=             28.3313  YYY=              8.0477  ZZZ=              0.6773  XYY=            -37.4015
  XXY=              2.2428  XXZ=             -3.4877  XZZ=              9.8194  YZZ=            -17.8957
  YYZ=             12.3402  XYZ=              1.4978
 Hexadecapole moment (field-independent basis, Debye-Ang**3):
 XXXX=          -3058.8028 YYYY=          -2907.2838 ZZZZ=           -672.7161 XXXY=            -60.7599
 XXXZ=             16.9410 YYYX=             63.6726 YYYZ=             76.5997 ZZZX=             -6.6961
 ZZZY=             -2.8331 XXYY=          -1018.1327 XXZZ=           -628.9728 YYZZ=           -632.7298
 XXYZ=            -11.4407 YYXZ=            -10.0081 ZZXY=             33.2158
 N-N= 1.290552466052D+03 E-N=-4.277176744867D+03  KE= 7.286000327493D+02
 PrsmSu:  requested number of processors reduced to:  10 ShMem   1 Linda.
 Calling FoFJK, ICntrl=      2127 FMM=F ISym2X=0 I1Cent= 0 IOpClX= 0 NMat=1 NMatS=1 NMatT=0.
 ***** Axes restored to original set *****
 -------------------------------------------------------------------
 Center     Atomic                   Forces (Hartrees/Bohr)
 Number     Number              X              Y              Z
 -------------------------------------------------------------------
      1        6          -0.022844494   -0.000794117   -0.004284548
      2        1           0.025005609   -0.004150674    0.001937455
      3        6          -0.004770512   -0.000931243   -0.012870463
      4        6           0.009115774   -0.001509258    0.008409212
      5        6          -0.005839168    0.000779100    0.001023055
      6        6           0.012403133   -0.000395558    0.001237730
      7        1          -0.011397474    0.001565403   -0.027342476
      8        6          -0.005906988   -0.000891373   -0.012221691
      9        1           0.017778739   -0.000767280   -0.001075120
     10        6           0.003337794   -0.001272620   -0.013164065
     11        1          -0.016584583    0.000979483    0.001538215
     12        1           0.009990884    0.000711527    0.013360429
     13        1          -0.006855470    0.001569897    0.015260739
     14        6           0.002637672    0.013976916    0.004812662
     15        6          -0.004602810   -0.004305943    0.005719123
     16        6           0.003862351   -0.001206662   -0.011544902
     17        6          -0.005713828   -0.000381015    0.011399250
     18        1           0.009487755    0.014191749   -0.007407890
     19        6           0.006009779    0.011003971   -0.002718433
     20        1          -0.008274539    0.004581549    0.020028750
     21        6           0.003339802    0.012570348    0.004638866
     22        1           0.005929878   -0.002094298   -0.015372202
     23        1          -0.008482428   -0.012204953    0.007571148
     24        1          -0.002393139   -0.014411859   -0.007938815
     25        6          -0.006979405   -0.010872628    0.006461498
     26        6          -0.005205557    0.000818797   -0.002520864
     27        6           0.009228898    0.006393855   -0.001310450
     28        6          -0.007868207   -0.010300539    0.004405731
     29        1           0.016514138   -0.001489862    0.005855404
     30        6           0.012075768    0.000449574    0.002656004
     31        1          -0.016650380   -0.016360643    0.015036974
     32        6           0.000731035   -0.011291918    0.007757581
     33        1           0.012101057    0.010927763   -0.003670263
     34        1          -0.015599758    0.001967170   -0.005830462
     35        1          -0.003581325    0.013145339   -0.009837182
 -------------------------------------------------------------------
 Cartesian Forces:  Max     0.027342476 RMS     0.009555710

 GradGradGradGradGradGradGradGradGradGradGradGradGradGradGradGradGradGrad
 Berny optimization.
 Internal  Forces:  Max     0.028807317 RMS     0.007794158
 Search for a local minimum.
 Step number   1 out of a maximum of  197
 All quantities printed in internal units (Hartrees-Bohrs-Radians)
 Mixed Optimization -- RFO/linear search
 Second derivative matrix not updated -- first step.
     Eigenvalues ---    0.00635   0.00648   0.00658   0.01532   0.01538
     Eigenvalues ---    0.01538   0.02137   0.02142   0.02145   0.02170
     Eigenvalues ---    0.02172   0.02172   0.02181   0.02184   0.02184
     Eigenvalues ---    0.02200   0.02201   0.02203   0.02210   0.02211
     Eigenvalues ---    0.02212   0.02214   0.02214   0.02214   0.02215
     Eigenvalues ---    0.02218   0.02219   0.02219   0.02219   0.02227
     Eigenvalues ---    0.04555   0.06388   0.06641   0.15997   0.15998
     Eigenvalues ---    0.16000   0.16000   0.16000   0.16000   0.16000
     Eigenvalues ---    0.16000   0.16000   0.16000   0.16000   0.16000
     Eigenvalues ---    0.16000   0.16000   0.16000   0.18862   0.19348
     Eigenvalues ---    0.22000   0.22000   0.22000   0.22000   0.22000
     Eigenvalues ---    0.22000   0.23467   0.23477   0.23478   0.24973
     Eigenvalues ---    0.24999   0.25000   0.31252   0.31360   0.31460
     Eigenvalues ---    0.31539   0.33515   0.33607   0.33962   0.34054
     Eigenvalues ---    0.34075   0.34086   0.34243   0.34255   0.34256
     Eigenvalues ---    0.34259   0.34268   0.34269   0.34281   0.34281
     Eigenvalues ---    0.34291   0.42386   0.42460   0.42472   0.42550
     Eigenvalues ---    0.42573   0.42624   0.46319   0.46386   0.46426
     Eigenvalues ---    0.46730   0.46737   0.46818   0.47193   0.47204
     Eigenvalues ---    0.47212   0.47330   0.47343   0.474601000.00000
     Eigenvalues --- 1000.000001000.000001000.000001000.000001000.00000
     Eigenvalues --- 1000.000001000.000001000.000001000.000001000.00000
     Eigenvalues --- 1000.000001000.000001000.000001000.000001000.00000
     Eigenvalues --- 1000.000001000.000001000.000001000.000001000.00000
     Eigenvalues --- 1000.000001000.000001000.000001000.000001000.00000
     Eigenvalues --- 1000.000001000.000001000.000001000.000001000.00000
     Eigenvalues --- 1000.000001000.000001000.000001000.000001000.00000
     Eigenvalues --- 1000.000001000.000001000.000001000.000001000.00000
     Eigenvalues --- 1000.000001000.000001000.000001000.000001000.00000
     Eigenvalues --- 1000.000001000.000001000.000001000.000001000.00000
     Eigenvalues --- 1000.000001000.000001000.000001000.000001000.00000
     Eigenvalues --- 1000.000001000.000001000.000001000.000001000.00000
     Eigenvalues --- 1000.000001000.000001000.000001000.000001000.00000
     Eigenvalues --- 1000.000001000.000001000.000001000.000001000.00000
     Eigenvalues --- 1000.000001000.000001000.000001000.000001000.00000
     Eigenvalues --- 1000.000001000.000001000.000001000.000001000.00000
     Eigenvalues --- 1000.000001000.000001000.000001000.000001000.00000
     Eigenvalues --- 1000.000001000.00000
 RFO step:  Lambda=-4.19373835D-02 EMin= 6.34861204D-03
 Linear search not attempted -- first point.
 Maximum step size (   0.300) exceeded in Quadratic search.
    -- Step size scaled by   0.591
 Iteration  1 RMS(Cart)=  0.12554213 RMS(Int)=  0.00302517
 Iteration  2 RMS(Cart)=  0.00611723 RMS(Int)=  0.00028172
 Iteration  3 RMS(Cart)=  0.00001063 RMS(Int)=  0.00028165
 Iteration  4 RMS(Cart)=  0.00000000 RMS(Int)=  0.00028165
 Variable       Old X    -DE/DX   Delta X   Delta X   Delta X     New X
                                 (Linear)    (Quad)   (Total)
    R1        2.12233  -0.02504   0.00000  -0.04173  -0.04173   2.08060
    R2        2.84995   0.02381   0.00000   0.03936   0.03936   2.88931
    R3        2.85143   0.02339   0.00000   0.03875   0.03875   2.89018
    R4        2.85332   0.02283   0.00000   0.03792   0.03792   2.89124
    R5        2.63951   0.00081   0.00000   0.00110   0.00112   2.64063
    R6        2.63955  -0.00423   0.00000  -0.00490  -0.00488   2.63467
    R7        2.62574  -0.00442   0.00000  -0.00497  -0.00497   2.62077
    R8        2.08156  -0.02881   0.00000  -0.04513  -0.04513   2.03643
    R9        2.62801  -0.00259   0.00000  -0.00306  -0.00306   2.62495
   R10        2.07203  -0.01782   0.00000  -0.02750  -0.02750   2.04453
   R11        2.62854  -0.00565   0.00000  -0.00657  -0.00659   2.62195
   R12        2.06879  -0.01668   0.00000  -0.02562  -0.02562   2.04317
   R13        2.62744  -0.00924   0.00000  -0.01076  -0.01077   2.61667
   R14        2.06901  -0.01670   0.00000  -0.02565  -0.02565   2.04336
   R15        2.06858  -0.01680   0.00000  -0.02580  -0.02580   2.04278
   R16        2.64428  -0.00213   0.00000  -0.00248  -0.00247   2.64181
   R17        2.63468  -0.00236   0.00000  -0.00261  -0.00261   2.63208
   R18        2.62359  -0.00492   0.00000  -0.00570  -0.00570   2.61790
   R19        2.07239  -0.01858   0.00000  -0.02870  -0.02870   2.04369
   R20        2.62937  -0.00121   0.00000  -0.00131  -0.00131   2.62806
   R21        2.07393  -0.02207   0.00000  -0.03416  -0.03416   2.03977
   R22        2.62977  -0.00483   0.00000  -0.00570  -0.00571   2.62407
   R23        2.06880  -0.01661   0.00000  -0.02551  -0.02551   2.04329
   R24        2.62528  -0.00754   0.00000  -0.00867  -0.00868   2.61660
   R25        2.06901  -0.01668   0.00000  -0.02563  -0.02563   2.04338
   R26        2.06841  -0.01663   0.00000  -0.02552  -0.02552   2.04289
   R27        2.63904  -0.00437   0.00000  -0.00507  -0.00506   2.63399
   R28        2.63886  -0.00019   0.00000  -0.00011  -0.00009   2.63877
   R29        2.62782  -0.00229   0.00000  -0.00268  -0.00268   2.62514
   R30        2.07186  -0.01757   0.00000  -0.02712  -0.02712   2.04474
   R31        2.62556  -0.00465   0.00000  -0.00527  -0.00527   2.62029
   R32        2.07999  -0.02640   0.00000  -0.04125  -0.04125   2.03874
   R33        2.62769  -0.00886   0.00000  -0.01028  -0.01030   2.61739
   R34        2.06922  -0.01671   0.00000  -0.02568  -0.02568   2.04354
   R35        2.62881  -0.00540   0.00000  -0.00627  -0.00628   2.62252
   R36        2.06896  -0.01677   0.00000  -0.02576  -0.02576   2.04320
   R37        2.06859  -0.01680   0.00000  -0.02580  -0.02580   2.04279
    A1        1.87486  -0.01004   0.00000  -0.05139  -0.05047   1.82439
    A2        1.82959   0.00358   0.00000  -0.00084  -0.00059   1.82900
    A3        1.88310  -0.00844   0.00000  -0.04744  -0.04663   1.83646
    A4        1.99488   0.00122   0.00000   0.02246   0.02057   2.01545
    A5        1.93128   0.01524   0.00000   0.05410   0.05293   1.98421
    A6        1.94278  -0.00346   0.00000   0.01156   0.00937   1.95215
    A7        2.12567   0.02311   0.00000   0.04678   0.04676   2.17243
    A8        2.07884  -0.01121   0.00000  -0.02266  -0.02269   2.05615
    A9        2.07866  -0.01189   0.00000  -0.02409  -0.02405   2.05461
   A10        2.10259   0.00448   0.00000   0.01015   0.01014   2.11273
   A11        2.07830   0.00441   0.00000   0.01443   0.01441   2.09270
   A12        2.10221  -0.00888   0.00000  -0.02443  -0.02446   2.07776
   A13        2.10035   0.00818   0.00000   0.01794   0.01797   2.11831
   A14        2.09456  -0.00473   0.00000  -0.01082  -0.01084   2.08372
   A15        2.08828  -0.00346   0.00000  -0.00712  -0.00713   2.08115
   A16        2.09638   0.00239   0.00000   0.00499   0.00496   2.10134
   A17        2.09129  -0.00110   0.00000  -0.00221  -0.00220   2.08909
   A18        2.09552  -0.00129   0.00000  -0.00278  -0.00277   2.09276
   A19        2.09785  -0.00020   0.00000  -0.00139  -0.00140   2.09645
   A20        2.09091   0.00029   0.00000   0.00124   0.00125   2.09216
   A21        2.09442  -0.00009   0.00000   0.00015   0.00016   2.09458
   A22        2.09054  -0.00297   0.00000  -0.00759  -0.00762   2.08292
   A23        2.09613   0.00153   0.00000   0.00392   0.00394   2.10007
   A24        2.09652   0.00144   0.00000   0.00367   0.00368   2.10020
   A25        2.06620   0.00023   0.00000   0.00040   0.00039   2.06659
   A26        2.13937   0.00767   0.00000   0.01547   0.01545   2.15482
   A27        2.07672  -0.00793   0.00000  -0.01608  -0.01606   2.06066
   A28        2.10353   0.00478   0.00000   0.01041   0.01041   2.11394
   A29        2.08422  -0.00136   0.00000  -0.00220  -0.00221   2.08202
   A30        2.09542  -0.00342   0.00000  -0.00821  -0.00821   2.08721
   A31        2.10129   0.00347   0.00000   0.00794   0.00794   2.10924
   A32        2.09302  -0.00006   0.00000   0.00092   0.00092   2.09394
   A33        2.08887  -0.00341   0.00000  -0.00886  -0.00887   2.08000
   A34        2.09649   0.00079   0.00000   0.00108   0.00107   2.09756
   A35        2.09199  -0.00040   0.00000  -0.00054  -0.00053   2.09146
   A36        2.09470  -0.00040   0.00000  -0.00054  -0.00053   2.09417
   A37        2.09932   0.00113   0.00000   0.00234   0.00233   2.10165
   A38        2.08874  -0.00049   0.00000  -0.00094  -0.00094   2.08780
   A39        2.09513  -0.00064   0.00000  -0.00139  -0.00139   2.09374
   A40        2.08901  -0.00224   0.00000  -0.00569  -0.00571   2.08330
   A41        2.09638   0.00116   0.00000   0.00295   0.00296   2.09934
   A42        2.09779   0.00108   0.00000   0.00274   0.00275   2.10054
   A43        2.08445  -0.00764   0.00000  -0.01544  -0.01550   2.06896
   A44        2.11779   0.01832   0.00000   0.03709   0.03703   2.15481
   A45        2.08094  -0.01068   0.00000  -0.02172  -0.02171   2.05922
   A46        2.09889   0.00734   0.00000   0.01616   0.01617   2.11506
   A47        2.09532  -0.00437   0.00000  -0.01014  -0.01015   2.08517
   A48        2.08897  -0.00297   0.00000  -0.00603  -0.00604   2.08293
   A49        2.10153   0.00416   0.00000   0.00935   0.00929   2.11083
   A50        2.07795   0.00369   0.00000   0.01233   0.01223   2.09018
   A51        2.10354  -0.00780   0.00000  -0.02127  -0.02138   2.08216
   A52        2.09777  -0.00027   0.00000  -0.00132  -0.00135   2.09643
   A53        2.09102   0.00036   0.00000   0.00133   0.00134   2.09236
   A54        2.09439  -0.00009   0.00000   0.00000   0.00001   2.09440
   A55        2.09592   0.00226   0.00000   0.00467   0.00467   2.10058
   A56        2.09172  -0.00102   0.00000  -0.00201  -0.00201   2.08971
   A57        2.09554  -0.00124   0.00000  -0.00266  -0.00266   2.09288
[...]
 00261890,-0.00012272,0.00115752,-0.00113498,0.00063748,-0.00035445,0.0
 0061102,0.00002201,0.00008877,-0.00004055,-0.00013414,0.00015027,0.000
 30193,0.00010889,-0.00014149,0.00016600,0.00019881,-0.00007294,-0.0001
 8847,0.00016098,-0.00007746,-0.00000125,0.00003480,-0.00006160,0.00001
 398,-0.00008539,0.00004786,-0.00001502,-0.00000587,0.00001373,0.000005
 29,-0.00001118,-0.00001485,0.00002502,0.00001044,-0.00000204,0.0000217
 1,0.00005021,-0.00063339,0.00018740,0.00010984,-0.00022821,0.00034223,
 0.00038163,0.00018323,0.00016801,0.00007512,0.00016595,0.00012551,-0.0
 0015293,0.00002221,-0.00009274,0.00006188,0.00002555,-0.00006758,-0.00
 002032,0.00002649,-0.00003715,-0.00011858,0.00000062,0.00003247,0.0000
 0614,0.00001224,-0.00001552,-0.00002115,-0.00001544,0.00001285,-0.0000
 0243,-0.00002885,-0.00001141,-0.03983510,0.00406111,-0.02974983,0.0044
 6806,0.02722622,-0.01229324,-0.05495976,0.13074569,-0.18409576,-0.0007
 0152,-0.03499709,0.02296992,0.00101407,0.00025233,-0.00016477,0.307156
 58,-0.09750843,0.49703229,-0.00154998,-0.00000078,0.00250943,0.0000341
 1,0.00021661,-0.00014639,0.00038945,-0.00025754,0.00019238,0.00011834,
 -0.00007359,0.00007844,-0.00008270,0.00002126,0.00011226,-0.00002147,0
 .00004742,-0.00004062,-0.00004342,0.00004820,-0.00001680,0.00000509,0.
 00002030,-0.00000064,-0.00003723,-0.00001410,-0.00001019,0.00000133,-0
 .00000963,0.00001535,-0.00001202,0.00000281,0.00001686,-0.00000463,0.0
 0000201,0.00000745,-0.00000895,-0.00000216,-0.00000467,-0.00014874,0.0
 0018072,-0.00063005,-0.00021810,0.00010896,0.00061533,0.00056665,0.000
 20685,0.00004918,-0.00011286,0.00007598,0.00019200,-0.00005670,-0.0000
 1384,-0.00009055,0.00005956,0.00023356,0.00004724,-0.00004085,-0.00003
 712,0.00005556,0.00006238,-0.00001821,-0.00017615,0.00000109,-0.000005
 95,-0.00003667,-0.00003246,-0.00006335,0.00002661,-0.00000440,-0.00004
 235,-0.00001189,-0.00642831,-0.02520851,-0.00163722,0.00010179,-0.0011
 9549,-0.00738399,-0.12863132,-0.12760513,-0.02561307,-0.00074254,0.000
 97723,-0.00012522,-0.00061811,-0.00117154,0.00000374,0.00983872,0.0118
 6605,-0.00037701,0.12561221,0.00094087,-0.00085332,-0.00087746,-0.0000
 0350,-0.00006815,-0.00005694,-0.00029178,0.00029842,-0.00002090,-0.000
 10913,0.00025413,-0.00015978,0.00008987,-0.00000255,-0.00012058,0.0000
 7380,-0.00002226,0.00003219,0.00000577,-0.00023085,-0.00003600,-0.0000
 1265,-0.00000347,0.00000903,0.00000990,-0.00001103,0.00001053,0.000001
 98,-0.00000960,-0.00000225,0.00000411,-0.00000736,-0.00002000,0.000003
 95,-0.00000602,-0.00000819,0.00000340,-0.00000802,0.00000844,0.0019545
 7,-0.00099188,0.00150228,0.00010466,0.00000772,0.00060469,0.00067611,-
 0.00082431,0.00070636,-0.00002175,-0.00001357,-0.00004493,-0.00007657,
 0.00003587,-0.00004836,-0.00004621,-0.00002044,0.00018937,-0.00002449,
 0.00009338,-0.00015448,0.00003473,-0.00003171,-0.00019484,-0.00001402,
 -0.00000079,0.00000727,0.00000029,0.00002118,-0.00001322,-0.00000602,0
 .00001655,-0.00000250,0.00028149,0.00145873,0.00162011,-0.00089078,0.0
 0195938,0.00136974,-0.12963142,-0.30399705,-0.02427782,0.00086616,0.00
 048952,0.00025946,0.00003535,-0.00000725,0.00008159,-0.01568783,-0.017
 28651,-0.00573095,0.13967220,0.32177058,0.00272957,-0.00121749,-0.0017
 2901,0.00027280,-0.00030791,0.00051051,-0.00043975,0.00048889,-0.00030
 792,-0.00015884,0.00026057,-0.00009895,0.00011883,-0.00000161,-0.00018
 041,0.00011015,-0.00002235,-0.00000846,0.00000051,-0.00033298,-0.00000
 605,-0.00006133,0.00000121,0.00002456,0.00001057,-0.00000823,0.0000029
 2,0.00002349,-0.00002486,0.00001562,-0.00000987,-0.00000300,-0.0000081
 7,0.00000903,-0.00001283,-0.00000291,0.00000219,-0.00000847,0.00002257
 ,-0.00051036,0.00071205,-0.00037741,-0.00022469,0.00034684,0.00021100,
 -0.00012684,0.00017038,-0.00002607,-0.00015796,-0.00036270,-0.00024366
 ,0.00015176,-0.00000717,0.00001742,0.00004547,0.00039336,0.00031187,0.
 00000294,0.00014093,-0.00033261,0.00026008,0.00000372,-0.00028565,0.00
 004106,-0.00004376,-0.00001493,-0.00001096,-0.00000875,0.00001240,0.00
 002860,-0.00004467,-0.00001308,-0.01090859,-0.02245432,0.00378294,-0.0
 0712942,0.00179157,0.00125809,-0.02597563,-0.02425499,-0.06449568,0.00
 001609,0.00015933,-0.00104756,-0.00054497,-0.00106929,-0.00012468,0.01
 020043,0.02035156,0.00713635,0.03372246,0.02182067,0.05622796,-0.00103
 739,0.00017972,-0.00160056,0.00086459,0.00037553,-0.00019144,0.0002407
 5,0.00111028,0.00016242,0.00005517,0.00030075,-0.00028461,0.00024550,0
 .00012287,0.00034314,0.00007929,-0.00009900,0.00042136,0.00006493,-0.0
 0017309,-0.00010335,0.00020186,-0.00019440,-0.00021791,0.00000429,0.00
 000412,0.00001111,-0.00025976,0.00015903,-0.00017247,0.00004755,0.0000
 2079,-0.00002462,-0.00001959,-0.00003439,-0.00002400,0.00000423,-0.000
 00684,-0.00000351,-0.00050368,0.00013218,0.00011721,0.00012810,-0.0003
 5127,0.00006222,0.00016749,0.00034989,0.00017484,0.00019103,0.00030499
 ,0.00012993,-0.00007612,0.00000260,-0.00004760,0.00006662,-0.00021404,
 -0.00022196,-0.00000010,0.00001615,-0.00000947,-0.00025717,-0.00003047
 ,0.00016567,0.00000812,0.00000535,-0.00000430,-0.00000620,0.00000663,-
 0.00000489,-0.00000634,-0.00000599,-0.00000187,-0.05906837,-0.04503180
 ,-0.02874261,-0.00037468,0.08020468,-0.03899880,0.05838913,-0.02595970
 ,0.05403934,-0.24246891,-0.06088909,-0.12098333,0.00455953,-0.00028754
 ,-0.00401009,-0.17372410,-0.06705342,-0.05695642,0.00374593,0.00106509
 ,-0.00534015,0.50826271,-0.00039097,0.00063007,-0.00127122,0.00063936,
 -0.00015476,0.00002040,0.00030890,0.00042654,-0.00028576,0.00013320,0.
 00013599,0.00009978,-0.00006415,0.00013580,0.00039795,0.00007160,-0.00
 009586,0.00028892,0.00023040,-0.00030778,0.00002214,0.00017271,-0.0001
 1489,-0.00012518,-0.00000093,0.00000443,-0.00002289,-0.00019664,0.0001
 1143,-0.00001782,-0.00002637,0.00001200,0.00005080,-0.00002060,-0.0000
 2464,0.00002276,0.00000037,-0.00000068,0.00001852,-0.00027088,0.000155
 37,0.00040321,0.00003639,-0.00037124,0.00000599,0.00024421,0.00019899,
 0.00007984,0.00013311,0.00029126,0.00008696,-0.00005311,0.00001374,-0.
 00000280,0.00008292,-0.00016020,-0.00019183,0.00001860,0.00002405,-0.0
 0001316,-0.00026163,-0.00010076,0.00010257,0.00002766,-0.00002574,-0.0
 0001292,-0.00001893,-0.00002548,-0.00000282,-0.00000044,-0.00002489,-0
 .00000468,-0.04381832,-0.03750059,-0.02830903,0.02909226,0.06481049,0.
 00668046,0.02450095,-0.06239402,0.04970404,0.00277470,-0.15871505,0.03
 202081,0.00030579,-0.00353543,0.00507346,-0.13026109,-0.31843813,-0.02
 817936,0.00068775,-0.00168579,0.00464077,0.07807402,0.76282115,-0.0001
 1030,-0.00050730,-0.00179543,0.00060885,0.00019128,-0.00004936,-0.0000
 7653,0.00112559,0.00019904,-0.00007383,0.00012068,-0.00017116,0.000230
 07,0.00005471,0.00002555,0.00011057,-0.00009108,0.00022716,0.00010052,
 -0.00014641,-0.00001185,0.00006069,-0.00011472,-0.00011774,0.00000548,
 0.00001114,0.00002548,-0.00012744,0.00008432,-0.00010284,0.00002752,0.
 00000997,-0.00001858,-0.00000937,-0.00002110,-0.00003524,0.00001020,-0
 .00000788,-0.00000004,-0.00034279,0.00002316,0.00003320,0.00011843,-0.
 00015081,-0.00002105,0.00001373,0.00017321,0.00011205,0.00012262,0.000
 13860,0.00005949,-0.00002418,-0.00003232,-0.00006144,0.00002152,-0.000
 11557,-0.00010676,0.00000272,0.00001041,-0.00001664,-0.00011320,0.0000
 1387,0.00010667,-0.00001225,0.00003094,0.00000617,0.00000036,0.0000164
 5,-0.00000395,-0.00000168,0.00000867,-0.00000107,-0.03012042,-0.028994
 28,-0.02272825,-0.02078170,0.05177380,-0.02818054,0.03521979,0.0042627
 7,0.04016956,-0.14608921,-0.02599317,-0.20692296,-0.00431689,0.0046646
 5,0.00334804,-0.03176244,0.03041026,-0.12519364,-0.00511598,0.00473233
 ,0.00216363,0.27443238,-0.15813569,0.48774230,0.00021540,0.00048619,0.
 00014043,-0.00004542,-0.00002515,0.00001822,0.00002053,-0.00010242,0.0
 0004440,-0.00001231,0.00000877,0.00002344,-0.00004148,-0.00001402,-0.0
 0001084,0.00002999,0.00000667,-0.00001070,-0.00000072,-0.00002413,-0.0
 0002806,-0.00000890,0.00001306,0.00000961,-0.00000364,0.00000367,-0.00
 000350,0.00000806,-0.00000255,0.00002427,-0.00001811,-0.00000546,0.000
 00722,0.00000134,0.00000171,0.00000422,-0.00000243,-0.00000479,0.00000
 660,-0.00009712,-0.00001240,-0.00001006,0.00003881,-0.00001649,-0.0000
 0194,0.00003316,0.00002297,0.00002041,0.00001211,0.00003543,0.00002138
 ,-0.00001783,0.00000525,-0.00000530,0.00001699,-0.00002426,-0.00001509
 ,-0.00000349,0.00000400,-0.00000619,-0.00002994,-0.00000180,0.00002337
 ,0.00000135,0.00000435,-0.00000003,-0.00000537,0.00000055,-0.00000303,
 -0.00000312,-0.00000207,-0.00000290,0.00376362,0.00070044,-0.00521510,
 0.00978959,0.01164254,-0.00084244,-0.00061229,0.00096491,-0.00007426,-
 0.13018766,-0.12865439,-0.02355001,-0.00145685,0.00071014,0.00311446,0
 .00008401,-0.00099288,-0.00741801,-0.00052329,0.00015153,0.00061276,-0
 .00606830,-0.02613178,-0.00023333,0.12699889,-0.00081976,-0.00074697,-
 0.00056732,0.00005852,0.00000228,0.00000823,0.00011391,-0.00011964,-0.
 00015932,-0.00004491,0.00003650,0.00004798,-0.00004175,0.00003699,0.00
 010417,0.00002143,-0.00000691,0.00000202,0.00003993,-0.00002513,-0.000
 02751,0.00001623,0.00000672,0.00001879,-0.00000644,-0.00000889,-0.0000
 1766,0.00000113,0.00000577,0.00003607,-0.00002173,-0.00000104,0.000010
 71,0.00000019,-0.00001245,0.00002251,-0.00000578,-0.00000509,0.0000177
 6,0.00016724,-0.00004843,0.00036506,-0.00004715,-0.00007562,-0.0000063
 2,0.00002376,-0.00009255,-0.00007304,-0.00002518,0.00001273,0.00000728
 ,-0.00000521,0.00001486,0.00001339,-0.00000362,0.00002296,-0.00001648,
 0.00000437,0.00000618,0.00000192,-0.00000029,-0.00003348,-0.00001621,0
 .00000751,-0.00001631,-0.00001912,-0.00001319,-0.00001734,-0.00000183,
 -0.00000136,-0.00001544,-0.00000575,0.00093575,-0.00146579,0.00505967,
 -0.01657991,-0.01781403,-0.00591076,0.00096688,0.00047851,0.00033534,-
 0.12844900,-0.30079567,-0.01821537,0.00164069,0.00075690,-0.00084513,-
 0.00137971,0.00226911,0.00125780,0.00014749,-0.00016934,-0.00029748,0.
 00191432,0.00203736,0.00311059,0.14080258,0.31523571,0.00053229,0.0006
 7350,0.00022749,0.00001204,-0.00006786,0.00006993,-0.00004082,0.000074
 67,0.00004974,-0.00000016,-0.00001600,-0.00003730,0.00001595,0.0000045
 6,-0.00003944,-0.00000760,-0.00001456,-0.00001452,0.00000748,0.0000303
 1,0.00001123,-0.00001069,-0.00000951,-0.00000154,0.00001026,0.00000346
 ,0.00000656,0.00000935,-0.00001132,-0.00002529,0.00001539,0.00000581,-
 0.00000904,0.00000338,0.00000289,-0.00000403,0.00000397,0.00000582,-0.
 00000171,-0.00002571,0.00015890,-0.00028918,-0.00003082,0.00004273,0.0
 0003562,-0.00000172,0.00001004,0.00002210,-0.00000410,-0.00004751,-0.0
 0000459,-0.00000077,-0.00000134,-0.00000084,0.00000580,0.00002239,0.00
 004252,-0.00000412,0.00000674,-0.00001626,0.00003891,0.00002945,-0.000
 01605,-0.00000336,0.00000004,-0.00000017,0.00000503,0.00000783,0.00000
 184,-0.00000071,0.00000332,-0.00000111,-0.00534264,0.00448065,0.002295
 49,0.01037542,0.01988490,0.00723657,-0.00007915,0.00020271,-0.00106764
 ,-0.02363237,-0.01832960,-0.06301334,0.00280080,-0.00171405,-0.0019429
 7,-0.00728817,0.00164922,0.00136883,0.00064087,-0.00023791,-0.00056992
 ,-0.01135222,-0.02252635,0.00394465,0.03080686,0.01737577,0.05366028,-
 0.00030462,-0.00052442,0.00002916,-0.00007529,0.00006297,-0.00007911,-
 0.00004594,0.00015630,0.00002179,0.00004841,-0.00002454,-0.00001738,0.
 00004838,0.00000554,-0.00004408,-0.00002107,0.00001355,0.00001000,-0.0
 0003375,0.00000219,0.00000422,-0.00000019,-0.00001077,-0.00001958,-0.0
 0000111,0.00000018,0.00001051,-0.00000779,0.00000826,-0.00001896,0.000
 00651,-0.00000776,-0.00000375,-0.00000586,0.00000110,-0.00001572,0.000
 00205,0.00000106,-0.00001331,-0.00000409,-0.00005633,-0.00010466,0.000
 00970,0.00007387,0.00001727,-0.00003672,-0.00000794,0.00001489,0.00000
 496,-0.00004435,0.00000174,-0.00000191,-0.00001387,-0.00002459,-0.0000
 0398,0.00001632,0.00003504,-0.00001060,-0.00001111,0.00000117,0.000045
 53,0.00004035,0.00001381,-0.00002216,0.00002294,0.00000729,0.00000448,
 0.00001451,-0.00000393,-0.00000193,0.00001930,-0.00000144,0.00428624,0
 .00038555,-0.00417744,0.00022911,0.00026556,0.00099059,-0.00211422,-0.
 00496895,-0.00509073,0.00352682,-0.00452230,-0.00323212,-0.00061353,0.
 00023385,0.00051114,-0.23191943,-0.02975000,-0.15711983,-0.00142487,0.
 00143576,0.00273977,-0.00644628,0.00221782,-0.01199421,-0.00059571,0.0
 0003234,-0.00047670,0.23692987,0.00090484,0.00053196,0.00052288,0.0001
 5064,-0.00019586,0.00018426,0.00009071,-0.00012128,-0.00002893,-0.0000
 2870,0.00000283,0.00001509,-0.00002906,-0.00000838,0.00006429,-0.00000
 541,0.00000637,0.00000193,0.00000100,0.00000703,0.00000500,0.00000567,
 0.00000578,0.00001314,-0.00000855,0.00000177,-0.00000858,-0.00000002,-
 0.00000168,0.00001217,-0.00000349,0.00000270,0.00000282,0.00000120,0.0
 0000034,0.00000886,-0.00000222,-0.00000048,0.00000300,-0.00001718,0.00
 019338,0.00001055,-0.00000586,-0.00003203,-0.00003104,-0.00003080,0.00
 000235,-0.00002619,-0.00000010,0.00001117,-0.00001113,0.00000286,-0.00
 000019,0.00001542,-0.00001568,-0.00001403,-0.00001971,0.00000958,0.000
 00197,0.00001667,-0.00002084,-0.00003622,-0.00002605,0.00000871,-0.000
 01153,-0.00000098,0.00000102,-0.00001531,0.00000799,0.00000410,-0.0000
 0927,0.00000437,-0.00005608,-0.00360654,0.00479543,0.00013218,-0.00132
 263,0.00022816,0.02303002,0.00826567,0.02012018,-0.00412614,-0.0047652
 2,0.00156076,0.00023795,0.00000340,-0.00026921,-0.02994503,-0.07506834
 ,-0.01749231,0.00068071,0.00086135,-0.00164427,-0.02577043,0.00279975,
 -0.02268859,-0.00117443,-0.00012722,-0.00103072,0.03429932,0.07186234,
 -0.00054553,-0.00039225,-0.00037631,-0.00007362,0.00022745,-0.00021379
 ,-0.00016681,0.00011386,0.00012548,0.00001818,0.00005678,-0.00010572,0
 .00007027,-0.00002867,-0.00010788,-0.00001016,0.00001364,0.00001350,-0
 .00006764,-0.00001284,0.00002784,-0.00000403,0.00000315,-0.00000450,0.
 00001210,-0.00001604,0.00001409,0.00000893,-0.00000217,-0.00002616,0.0
 0001721,-0.00001116,-0.00002774,0.00000170,0.00000225,-0.00001534,0.00
 000128,-0.00000349,-0.00001130,0.00000038,-0.00023579,-0.00009009,0.00
 000156,0.00000222,0.00003486,0.00001376,0.00008354,0.00006676,0.000020
 01,0.00001388,-0.00000716,0.00002497,-0.00000541,-0.00001359,0.0000154
 4,-0.00002326,-0.00000965,-0.00000937,-0.00000491,-0.00001893,-0.00000
 500,0.00002405,0.00003167,-0.00000327,0.00000549,0.00000548,0.00000887
 ,0.00002550,-0.00000770,-0.00000104,0.00001316,0.00000227,-0.00373962,
 0.00485495,0.00331133,0.00099730,0.00021651,-0.00013327,-0.01611350,-0
 .00560289,-0.00715133,-0.00341306,0.00125782,0.00531542,0.00050514,-0.
 00028439,-0.00067646,-0.15727235,-0.01751773,-0.18674440,0.00308143,-0
 .00072503,-0.00187380,-0.00094797,0.00321565,0.00347943,-0.00002669,0.
 00003873,-0.00012288,0.17495392,0.01638520,0.18725378,-0.00039472,0.00
 019554,0.00058883,-0.00004059,-0.00006670,-0.00004685,0.00006725,-0.00
 004149,0.00008584,0.00001595,0.00001664,0.00000283,0.00000055,0.000008
 71,0.00003316,-0.00000068,0.00000329,0.00000741,-0.00000629,-0.0000184
 1,-0.00001549,0.00001296,-0.00000378,0.00000351,-0.00000356,-0.0000056
 6,0.00000188,-0.00000734,0.00000125,-0.00000230,-0.00000017,-0.0000024
 0,0.00000325,-0.00000403,0.00000157,-0.00000280,0.00000114,-0.00000068
 ,-0.00000491,0.00001316,-0.00003969,-0.00004760,0.00001043,0.00001178,
 0.00004286,0.00003213,0.00003271,0.00002763,0.00000172,-0.00000389,0.0
 0000439,-0.00000066,-0.00000757,-0.00001442,0.00000587,0.00001544,0.00
 000679,-0.00000872,-0.00000098,-0.00000360,0.00000298,0.00000748,-0.00
 000414,-0.00000425,0.00000717,0.00000252,0.00000164,0.00000170,0.00000
 200,0.00000068,0.00000315,0.00000016,-0.00105972,-0.00053610,0.0001399
 7,-0.00011518,-0.00291979,-0.00686115,0.00245942,-0.00468380,-0.004215
 30,-0.00152181,0.02361184,-0.01533449,-0.00040512,0.00107644,-0.000690
 41,0.01002264,-0.01528438,0.01040556,0.00020630,-0.00059545,0.00050080
 ,-0.08700983,0.06176310,-0.05977968,-0.00127989,0.00055074,0.00301802,
 -0.00145102,0.00167949,0.00264719,0.08045875,0.00019798,0.00002200,-0.
 00028717,0.00008707,-0.00002020,0.00006693,0.00001491,-0.00000943,-0.0
 0007051,-0.00004458,0.00002521,0.00001879,-0.00002357,0.00000916,0.000
 01879,0.00003114,-0.00001672,-0.00000814,0.00003518,-0.00002369,-0.000
 02471,-0.00000584,0.00000498,0.00000888,-0.00000029,0.00000077,-0.0000
 0692,0.00000402,-0.00000414,0.00001579,-0.00000968,0.00000499,0.000005
 49,0.00000373,-0.00000474,0.00001103,-0.00000147,-0.00000139,0.0000137
 7,0.00002275,0.00003294,0.00007201,-0.00002675,-0.00001896,0.00003126,
 0.00005559,-0.00005118,-0.00001248,-0.00002097,0.00000395,0.00001464,-
 0.00000992,0.00001407,0.00000567,0.00002080,0.00003302,0.00001658,-0.0
 0000133,0.00001485,-0.00002226,0.00000365,-0.00000395,-0.00001623,0.00
 001088,-0.00001136,-0.00001162,-0.00001131,-0.00000923,-0.00000025,-0.
 00000161,-0.00001556,-0.00000611,-0.00059953,0.00002942,-0.00095725,-0
 .00242341,0.00179410,0.00050403,-0.00518061,-0.00324815,0.00002393,-0.
 00451182,0.00776188,-0.00519990,-0.00010531,0.00013615,-0.00018438,0.0
 1273393,-0.01720012,0.02050388,0.00052318,-0.00101553,0.00084529,0.061
 75248,-0.25093250,0.13603152,0.00162426,0.00067475,-0.00066897,0.00063
 369,0.00077604,-0.00168782,-0.06477727,0.26124858,0.00049977,-0.000126
 33,-0.00058728,0.00014274,-0.00000485,0.00006678,-0.00009816,0.0001339
 7,-0.00000970,0.00001249,0.00000185,-0.00004478,0.00004474,-0.00001604
 ,-0.00005067,-0.00002725,0.00000641,0.00001924,-0.00003441,0.00001413,
 0.00002907,0.00000077,-0.00000616,-0.00001141,0.00000485,-0.00000567,0
 .00000750,-0.00000453,0.00000178,-0.00002082,0.00001803,-0.00000064,-0
 .00001376,-0.00000069,0.00000217,-0.00001090,0.00000238,0.00000244,-0.
 00001095,0.00000859,0.00000666,-0.00005532,-0.00002148,0.00002951,-0.0
 0001231,-0.00002362,0.00001141,0.00001701,0.00000648,-0.00000984,-0.00
 001801,0.00001648,-0.00000503,-0.00000092,-0.00000399,-0.00000507,0.00
 000575,0.00000320,-0.00000447,-0.00000055,0.00000667,0.00001215,0.0000
 0445,-0.00000060,-0.00000035,0.00000639,0.00000574,0.00000882,-0.00000
 214,0.00000212,0.00000636,0.00000369,0.00022830,-0.00104581,-0.0003105
 1,-0.00702192,0.00008143,0.00224245,-0.00407523,0.00050647,0.00503327,
 -0.00414212,0.02052322,-0.00683151,-0.00022567,0.00084824,-0.00060007,
 -0.00071247,-0.00551285,0.00670660,0.00005052,-0.00022192,0.00004910,-
 0.05981545,0.13616647,-0.15610385,0.00257988,-0.00165448,-0.00179503,0
 .00307527,-0.00070044,-0.00194391,0.06949856,-0.14904354,0.15424309||-
 0.00000050,-0.00001058,0.00000682,0.00000486,-0.00000002,-0.00000055,-
 0.00002359,0.00002360,-0.00001325,0.00001816,-0.00001476,-0.00001876,-
 0.00000036,-0.00001347,0.00003065,0.00000602,-0.00000317,0.00002885,-0
 .00000145,0.00000055,0.00000293,0.00002190,-0.00000198,-0.00001969,0.0
 0000075,0.00000024,-0.00000258,-0.00002488,0.00001048,-0.00001051,-0.0
 0000122,0.00000144,-0.00000235,-0.00000075,-0.00000046,0.00000269,0.00
 000182,-0.00000111,0.00000152,-0.00002704,0.00000537,0.00000660,0.0000
 1587,-0.00003082,-0.00001912,0.00002413,0.00002907,0.00001073,0.000020
 21,0.00003319,0.00000600,-0.00000174,0.00000185,0.00000111,0.00001099,
 -0.00002852,-0.00002429,-0.00000293,-0.00000128,-0.00000019,-0.0000357
 5,-0.00000133,0.00002005,-0.00000169,-0.00000373,-0.00000148,-0.000002
 14,0.00000186,0.00000242,0.00000421,-0.00000082,-0.00000201,-0.0000039
 6,0.00000189,-0.00000295,-0.00000169,-0.00000449,-0.00000042,-0.000000
 87,0.00000351,-0.00000189,-0.00000641,0.00000137,-0.00000048,0.0000016
 2,0.00000026,-0.00000009,0.00000003,-0.00000066,0.00000376,0.00000055,
 -0.00000054,-0.00000166,0.00000539,0.00000095,0.00000012,0.00000123,0.
 00000099,-0.00000024,-0.00000067,-0.00000010,-0.00000083,-0.00000012,0
 .00000123,-0.00000091|||@


 K N O W I N G  IS A BARRIER WHICH PREVENTS LEARNING

                     -- TEACHING OF THE BENE GESSERIT
 Job cpu time:  0 days  0 hours  6 minutes 24.0 seconds.
 File lengths (MBytes):  RWF=    350 Int=      0 D2E=      0 Chk=      7 Scr=      1
 Normal termination of Gaussian 09 at Tue Sep 07 02:24:53 2021.
