 Entering Link 1 = b:\programy\g09w\l1.exe PID=     10100.
  
 Copyright (c) 1988,1990,1992,1993,1995,1998,2003,2009, Gaussian, Inc.
                  All Rights Reserved.
  
 This is part of the Gaussian(R) 09 program.  It is based on
 the Gaussian(R) 03 system (copyright 2003, Gaussian, Inc.),
 the Gaussian(R) 98 system (copyright 1998, Gaussian, Inc.),
 the Gaussian(R) 94 system (copyright 1995, Gaussian, Inc.),
 the Gaussian 92(TM) system (copyright 1992, Gaussian, Inc.),
 the Gaussian 90(TM) system (copyright 1990, Gaussian, Inc.),
 the Gaussian 88(TM) system (copyright 1988, Gaussian, Inc.),
 the Gaussian 86(TM) system (copyright 1986, Carnegie Mellon
 University), and the Gaussian 82(TM) system (copyright 1983,
 Carnegie Mellon University). Gaussian is a federally registered
 trademark of Gaussian, Inc.
  
 This software contains proprietary and confidential information,
 including trade secrets, belonging to Gaussian, Inc.
  
 This software is provided under written license and may be
 used, copied, transmitted, or stored only in accord with that
 written license.
  
 The following legend is applicable only to US Government
 contracts under FAR:
  
                    RESTRICTED RIGHTS LEGEND
  
 Use, reproduction and disclosure by the US Government is
 subject to restrictions as set forth in subparagraphs (a)
 and (c) of the Commercial Computer Software - Restricted
 Rights clause in FAR 52.227-19.
  
 Gaussian, Inc.
 340 Quinnipiac St., Bldg. 40, Wallingford CT 06492
  
  
 ---------------------------------------------------------------
 Warning -- This program may not be used in any manner that
 competes with the business of Gaussian, Inc. or will provide
 assistance to any competitor of Gaussian, Inc.  The licensee
 of this program is prohibited from giving any competitor of
 Gaussian, Inc. access to this program.  By using this program,
 the user acknowledges that Gaussian, Inc. is engaged in the
 business of creating and licensing software in the field of
 computational chemistry and represents and warrants to the
 licensee that it is not a competitor of Gaussian, Inc. and that
 it will not use this program in any manner prohibited above.
 ---------------------------------------------------------------
  

 Cite this work as:
 Gaussian 09, Revision A.02,
 M. J. Frisch, G. W. Trucks, H. B. Schlegel, G. E. Scuseria, 
 M. A. Robb, J. R. Cheeseman, G. Scalmani, V. Barone, B. Mennucci, 
 G. A. Petersson, H. Nakatsuji, M. Caricato, X. Li, H. P. Hratchian, 
 A. F. Izmaylov, J. Bloino, G. Zheng, J. L. Sonnenberg, M. Hada, 
 M. Ehara, K. Toyota, R. Fukuda, J. Hasegawa, M. Ishida, T. Nakajima, 
 Y. Honda, O. Kitao, H. Nakai, T. Vreven, J. A. Montgomery, Jr., 
 J. E. Peralta, F. Ogliaro, M. Bearpark, J. J. Heyd, E. Brothers, 
 K. N. Kudin, V. N. Staroverov, R. Kobayashi, J. Normand, 
 K. Raghavachari, A. Rendell, J. C. Burant, S. S. Iyengar, J. Tomasi, 
 M. Cossi, N. Rega, J. M. Millam, M. Klene, J. E. Knox, J. B. Cross, 
 V. Bakken, C. Adamo, J. Jaramillo, R. Gomperts, R. E. Stratmann, 
 O. Yazyev, A. J. Austin, R. Cammi, C. Pomelli, J. W. Ochterski, 
 R. L. Martin, K. Morokuma, V. G. Zakrzewski, G. A. Voth, 
 P. Salvador, J. J. Dannenberg, S. Dapprich, A. D. Daniels, 
 O. Farkas, J. B. Foresman, J. V. Ortiz, J. Cioslowski, 
 and D. J. Fox, Gaussian, Inc., Wallingford CT, 2009.
 
 ******************************************
 Gaussian 09:  IA32W-G09RevA.02 11-Jun-2009
                06-Sep-2021 
 ******************************************
 %nprocshared=12
 Will use up to   12 processors via shared memory.
 ----------------------------------------------
 # opt freq=noraman hf/6-311g geom=connectivity
 ----------------------------------------------
 1/18=20,19=15,38=1,57=2/1,3;
 2/9=110,12=2,17=6,18=5,40=1/2;
 3/5=4,6=6,11=9,16=1,25=1,30=1,71=1/1,2,3;
 4//1;
 5/5=2,38=5/2;
 6/7=2,8=2,9=2,10=2,28=1/1;
 7//1,2,3,16;
 1/18=20,19=15/3(2);
 2/9=110/2;
 99//99;
 2/9=110/2;
 3/5=4,6=6,11=9,16=1,25=1,30=1,71=1/1,2,3;
 4/5=5,16=3/1;
 5/5=2,38=5/2;
 7//1,2,3,16;
 1/18=20,19=15/3(-5);
 2/9=110/2;
 6/7=2,8=2,9=2,10=2,19=2,28=1/1;
 99/9=1/99;
 -----
 M0001
 -----
 Symbolic Z-matrix:
 Charge =  0 Multiplicity = 1
 C                     0.        0.       -0.79508 
 H                     0.        0.       -1.91778 
 C                     0.93816  -1.09604  -0.35528 
 C                     1.13389  -2.19405  -1.19739 
 C                     1.61122  -1.04701   0.86624 
 C                     1.98747  -3.22415  -0.82069 
 H                     0.61062  -2.247    -2.15915 
 C                     2.46652  -2.07794   1.23933 
 H                     1.46881  -0.18283   1.52838 
 C                     2.65558  -3.16827   0.39792 
 H                     2.13382  -4.08112  -1.48608 
 H                     2.99224  -2.02801   2.19835 
 H                     3.32876  -3.97956   0.69265 
 C                     0.48012   1.36049  -0.35528 
 C                     0.10113   1.91886   0.86624 
 C                     1.33316   2.079    -1.19739 
 C                     0.56629   3.17504   1.23933 
 H                    -0.57607   1.36344   1.52838 
 C                     1.79845   3.33328  -0.82069 
 H                     1.64065   1.65231  -2.15915 
 C                     1.41602   3.88393   0.39792 
 H                     0.26019   3.60536   2.19835 
 H                     2.46745   3.8885   -1.48608 
 H                     1.78202   4.87257   0.69265 
 C                    -1.41828  -0.26445  -0.35528 
 C                    -1.71235  -0.87185   0.86624 
 C                    -2.46705   0.11505  -1.19739 
 C                    -3.03281  -1.0971    1.23933 
 H                    -0.89274  -1.18061   1.52838 
 C                    -3.78593  -0.10913  -0.82069 
 H                    -2.25127   0.59469  -2.15915 
 C                    -4.07159  -0.71566   0.39792 
 H                    -3.25243  -1.57735   2.19835 
 H                    -4.60126   0.19262  -1.48608 
 H                    -5.11078  -0.89301   0.69265 
 

 GradGradGradGradGradGradGradGradGradGradGradGradGradGradGradGradGradGrad
 Berny optimization.
 Initialization pass.
                           ----------------------------
                           !    Initial Parameters    !
                           ! (Angstroms and Degrees)  !
 --------------------------                            --------------------------
 ! Name  Definition              Value          Derivative Info.                !
 --------------------------------------------------------------------------------
 ! R1    R(1,2)                  1.1227         estimate D2E/DX2                !
 ! R2    R(1,3)                  1.5083         estimate D2E/DX2                !
 ! R3    R(1,14)                 1.5083         estimate D2E/DX2                !
 ! R4    R(1,25)                 1.5083         estimate D2E/DX2                !
 ! R5    R(3,4)                  1.3975         estimate D2E/DX2                !
 ! R6    R(3,5)                  1.3955         estimate D2E/DX2                !
 ! R7    R(4,6)                  1.3898         estimate D2E/DX2                !
 ! R8    R(4,7)                  1.0962         estimate D2E/DX2                !
 ! R9    R(5,8)                  1.3905         estimate D2E/DX2                !
 ! R10   R(5,9)                  1.098          estimate D2E/DX2                !
 ! R11   R(6,10)                 1.3909         estimate D2E/DX2                !
 ! R12   R(6,11)                 1.0948         estimate D2E/DX2                !
 ! R13   R(8,10)                 1.3902         estimate D2E/DX2                !
 ! R14   R(8,12)                 1.0948         estimate D2E/DX2                !
 ! R15   R(10,13)                1.0946         estimate D2E/DX2                !
 ! R16   R(14,15)                1.3955         estimate D2E/DX2                !
 ! R17   R(14,16)                1.3975         estimate D2E/DX2                !
 ! R18   R(15,17)                1.3905         estimate D2E/DX2                !
 ! R19   R(15,18)                1.098          estimate D2E/DX2                !
 ! R20   R(16,19)                1.3898         estimate D2E/DX2                !
 ! R21   R(16,20)                1.0962         estimate D2E/DX2                !
 ! R22   R(17,21)                1.3902         estimate D2E/DX2                !
 ! R23   R(17,22)                1.0948         estimate D2E/DX2                !
 ! R24   R(19,21)                1.3909         estimate D2E/DX2                !
 ! R25   R(19,23)                1.0948         estimate D2E/DX2                !
 ! R26   R(21,24)                1.0946         estimate D2E/DX2                !
 ! R27   R(25,26)                1.3955         estimate D2E/DX2                !
 ! R28   R(25,27)                1.3975         estimate D2E/DX2                !
 ! R29   R(26,28)                1.3905         estimate D2E/DX2                !
 ! R30   R(26,29)                1.098          estimate D2E/DX2                !
 ! R31   R(27,30)                1.3898         estimate D2E/DX2                !
 ! R32   R(27,31)                1.0962         estimate D2E/DX2                !
 ! R33   R(28,32)                1.3902         estimate D2E/DX2                !
 ! R34   R(28,33)                1.0948         estimate D2E/DX2                !
 ! R35   R(30,32)                1.3909         estimate D2E/DX2                !
 ! R36   R(30,34)                1.0948         estimate D2E/DX2                !
 ! R37   R(32,35)                1.0946         estimate D2E/DX2                !
 ! A1    A(2,1,3)              106.9531         estimate D2E/DX2                !
 ! A2    A(2,1,14)             106.9531         estimate D2E/DX2                !
 ! A3    A(2,1,25)             106.9531         estimate D2E/DX2                !
 ! A4    A(3,1,14)             111.8677         estimate D2E/DX2                !
 ! A5    A(3,1,25)             111.8677         estimate D2E/DX2                !
 ! A6    A(14,1,25)            111.8677         estimate D2E/DX2                !
 ! A7    A(1,3,4)              118.8398         estimate D2E/DX2                !
 ! A8    A(1,3,5)              121.9845         estimate D2E/DX2                !
 ! A9    A(4,3,5)              119.1755         estimate D2E/DX2                !
 ! A10   A(3,4,6)              120.3326         estimate D2E/DX2                !
 ! A11   A(3,4,7)              119.985          estimate D2E/DX2                !
 ! A12   A(6,4,7)              119.6822         estimate D2E/DX2                !
 ! A13   A(3,5,8)              120.3617         estimate D2E/DX2                !
 ! A14   A(3,5,9)              119.5356         estimate D2E/DX2                !
 ! A15   A(8,5,9)              120.0999         estimate D2E/DX2                !
 ! A16   A(4,6,10)             120.1802         estimate D2E/DX2                !
 ! A17   A(4,6,11)             119.8367         estimate D2E/DX2                !
 ! A18   A(10,6,11)            119.9831         estimate D2E/DX2                !
 ! A19   A(5,8,10)             120.1823         estimate D2E/DX2                !
 ! A20   A(5,8,12)             119.7739         estimate D2E/DX2                !
 ! A21   A(10,8,12)            120.0437         estimate D2E/DX2                !
 ! A22   A(6,10,8)             119.7675         estimate D2E/DX2                !
 ! A23   A(6,10,13)            120.1023         estimate D2E/DX2                !
 ! A24   A(8,10,13)            120.1302         estimate D2E/DX2                !
 ! A25   A(1,14,15)            121.9845         estimate D2E/DX2                !
 ! A26   A(1,14,16)            118.8398         estimate D2E/DX2                !
 ! A27   A(15,14,16)           119.1755         estimate D2E/DX2                !
 ! A28   A(14,15,17)           120.3617         estimate D2E/DX2                !
 ! A29   A(14,15,18)           119.5356         estimate D2E/DX2                !
 ! A30   A(17,15,18)           120.0999         estimate D2E/DX2                !
 ! A31   A(14,16,19)           120.3326         estimate D2E/DX2                !
 ! A32   A(14,16,20)           119.985          estimate D2E/DX2                !
 ! A33   A(19,16,20)           119.6822         estimate D2E/DX2                !
 ! A34   A(15,17,21)           120.1823         estimate D2E/DX2                !
 ! A35   A(15,17,22)           119.7739         estimate D2E/DX2                !
 ! A36   A(21,17,22)           120.0437         estimate D2E/DX2                !
 ! A37   A(16,19,21)           120.1802         estimate D2E/DX2                !
 ! A38   A(16,19,23)           119.8367         estimate D2E/DX2                !
 ! A39   A(21,19,23)           119.9831         estimate D2E/DX2                !
 ! A40   A(17,21,19)           119.7675         estimate D2E/DX2                !
 ! A41   A(17,21,24)           120.1302         estimate D2E/DX2                !
 ! A42   A(19,21,24)           120.1023         estimate D2E/DX2                !
 ! A43   A(1,25,26)            121.9845         estimate D2E/DX2                !
 ! A44   A(1,25,27)            118.8398         estimate D2E/DX2                !
 ! A45   A(26,25,27)           119.1755         estimate D2E/DX2                !
 ! A46   A(25,26,28)           120.3617         estimate D2E/DX2                !
 ! A47   A(25,26,29)           119.5356         estimate D2E/DX2                !
 ! A48   A(28,26,29)           120.0999         estimate D2E/DX2                !
 ! A49   A(25,27,30)           120.3326         estimate D2E/DX2                !
 ! A50   A(25,27,31)           119.985          estimate D2E/DX2                !
 ! A51   A(30,27,31)           119.6822         estimate D2E/DX2                !
 ! A52   A(26,28,32)           120.1823         estimate D2E/DX2                !
 ! A53   A(26,28,33)           119.7739         estimate D2E/DX2                !
 ! A54   A(32,28,33)           120.0437         estimate D2E/DX2                !
 ! A55   A(27,30,32)           120.1802         estimate D2E/DX2                !
 ! A56   A(27,30,34)           119.8367         estimate D2E/DX2                !
 ! A57   A(32,30,34)           119.9831         estimate D2E/DX2                !
 ! A58   A(28,32,30)           119.7675         estimate D2E/DX2                !
 ! A59   A(28,32,35)           120.1302         estimate D2E/DX2                !
 ! A60   A(30,32,35)           120.1023         estimate D2E/DX2                !
 ! D1    D(2,1,3,4)            -27.502          estimate D2E/DX2                !
 ! D2    D(2,1,3,5)            152.683          estimate D2E/DX2                !
 ! D3    D(14,1,3,4)          -144.2978         estimate D2E/DX2                !
 ! D4    D(14,1,3,5)            35.8872         estimate D2E/DX2                !
 ! D5    D(25,1,3,4)            89.2939         estimate D2E/DX2                !
 ! D6    D(25,1,3,5)           -90.5211         estimate D2E/DX2                !
 ! D7    D(2,1,14,15)          152.683          estimate D2E/DX2                !
 ! D8    D(2,1,14,16)          -27.502          estimate D2E/DX2                !
 ! D9    D(3,1,14,15)          -90.5211         estimate D2E/DX2                !
 ! D10   D(3,1,14,16)           89.2939         estimate D2E/DX2                !
 ! D11   D(25,1,14,15)          35.8872         estimate D2E/DX2                !
 ! D12   D(25,1,14,16)        -144.2978         estimate D2E/DX2                !
 ! D13   D(2,1,25,26)          152.683          estimate D2E/DX2                !
 ! D14   D(2,1,25,27)          -27.502          estimate D2E/DX2                !
 ! D15   D(3,1,25,26)           35.8872         estimate D2E/DX2                !
 ! D16   D(3,1,25,27)         -144.2978         estimate D2E/DX2                !
 ! D17   D(14,1,25,26)         -90.5211         estimate D2E/DX2                !
 ! D18   D(14,1,25,27)          89.2939         estimate D2E/DX2                !
 ! D19   D(1,3,4,6)           -179.7501         estimate D2E/DX2                !
 ! D20   D(1,3,4,7)              0.0772         estimate D2E/DX2                !
 ! D21   D(5,3,4,6)              0.0702         estimate D2E/DX2                !
 ! D22   D(5,3,4,7)            179.8975         estimate D2E/DX2                !
 ! D23   D(1,3,5,8)            179.8636         estimate D2E/DX2                !
 ! D24   D(1,3,5,9)             -0.7353         estimate D2E/DX2                !
 ! D25   D(4,3,5,8)              0.0492         estimate D2E/DX2                !
 ! D26   D(4,3,5,9)            179.4503         estimate D2E/DX2                !
 ! D27   D(3,4,6,10)            -0.1059         estimate D2E/DX2                !
 ! D28   D(3,4,6,11)           179.9198         estimate D2E/DX2                !
 ! D29   D(7,4,6,10)          -179.9337         estimate D2E/DX2                !
 ! D30   D(7,4,6,11)             0.092          estimate D2E/DX2                !
 ! D31   D(3,5,8,10)            -0.1336         estimate D2E/DX2                !
 ! D32   D(3,5,8,12)           179.7973         estimate D2E/DX2                !
 ! D33   D(9,5,8,10)          -179.5313         estimate D2E/DX2                !
 ! D34   D(9,5,8,12)             0.3996         estimate D2E/DX2                !
 ! D35   D(4,6,10,8)             0.0215         estimate D2E/DX2                !
 ! D36   D(4,6,10,13)         -179.9059         estimate D2E/DX2                !
 ! D37   D(11,6,10,8)          179.9958         estimate D2E/DX2                !
 ! D38   D(11,6,10,13)           0.0684         estimate D2E/DX2                !
 ! D39   D(5,8,10,6)             0.0979         estimate D2E/DX2                !
 ! D40   D(5,8,10,13)         -179.9747         estimate D2E/DX2                !
 ! D41   D(12,8,10,6)         -179.8328         estimate D2E/DX2                !
 ! D42   D(12,8,10,13)           0.0946         estimate D2E/DX2                !
 ! D43   D(1,14,15,17)         179.8636         estimate D2E/DX2                !
 ! D44   D(1,14,15,18)          -0.7353         estimate D2E/DX2                !
 ! D45   D(16,14,15,17)          0.0492         estimate D2E/DX2                !
 ! D46   D(16,14,15,18)        179.4503         estimate D2E/DX2                !
 ! D47   D(1,14,16,19)        -179.7501         estimate D2E/DX2                !
 ! D48   D(1,14,16,20)           0.0772         estimate D2E/DX2                !
 ! D49   D(15,14,16,19)          0.0702         estimate D2E/DX2                !
 ! D50   D(15,14,16,20)        179.8975         estimate D2E/DX2                !
 ! D51   D(14,15,17,21)         -0.1336         estimate D2E/DX2                !
 ! D52   D(14,15,17,22)        179.7973         estimate D2E/DX2                !
 ! D53   D(18,15,17,21)       -179.5313         estimate D2E/DX2                !
 ! D54   D(18,15,17,22)          0.3996         estimate D2E/DX2                !
 ! D55   D(14,16,19,21)         -0.1059         estimate D2E/DX2                !
 ! D56   D(14,16,19,23)        179.9198         estimate D2E/DX2                !
 ! D57   D(20,16,19,21)       -179.9337         estimate D2E/DX2                !
 ! D58   D(20,16,19,23)          0.092          estimate D2E/DX2                !
 ! D59   D(15,17,21,19)          0.0979         estimate D2E/DX2                !
 ! D60   D(15,17,21,24)       -179.9747         estimate D2E/DX2                !
 ! D61   D(22,17,21,19)       -179.8328         estimate D2E/DX2                !
 ! D62   D(22,17,21,24)          0.0946         estimate D2E/DX2                !
 ! D63   D(16,19,21,17)          0.0215         estimate D2E/DX2                !
 ! D64   D(16,19,21,24)       -179.9059         estimate D2E/DX2                !
 ! D65   D(23,19,21,17)        179.9958         estimate D2E/DX2                !
 ! D66   D(23,19,21,24)          0.0684         estimate D2E/DX2                !
 ! D67   D(1,25,26,28)         179.8636         estimate D2E/DX2                !
 ! D68   D(1,25,26,29)          -0.7353         estimate D2E/DX2                !
 ! D69   D(27,25,26,28)          0.0492         estimate D2E/DX2                !
 ! D70   D(27,25,26,29)        179.4503         estimate D2E/DX2                !
 ! D71   D(1,25,27,30)        -179.7501         estimate D2E/DX2                !
 ! D72   D(1,25,27,31)           0.0772         estimate D2E/DX2                !
 ! D73   D(26,25,27,30)          0.0702         estimate D2E/DX2                !
 ! D74   D(26,25,27,31)        179.8975         estimate D2E/DX2                !
 ! D75   D(25,26,28,32)         -0.1336         estimate D2E/DX2                !
 ! D76   D(25,26,28,33)        179.7973         estimate D2E/DX2                !
 ! D77   D(29,26,28,32)       -179.5313         estimate D2E/DX2                !
 ! D78   D(29,26,28,33)          0.3996         estimate D2E/DX2                !
 ! D79   D(25,27,30,32)         -0.1059         estimate D2E/DX2                !
 ! D80   D(25,27,30,34)        179.9198         estimate D2E/DX2                !
 ! D81   D(31,27,30,32)       -179.9337         estimate D2E/DX2                !
 ! D82   D(31,27,30,34)          0.092          estimate D2E/DX2                !
 ! D83   D(26,28,32,30)          0.0979         estimate D2E/DX2                !
 ! D84   D(26,28,32,35)       -179.9747         estimate D2E/DX2                !
 ! D85   D(33,28,32,30)       -179.8328         estimate D2E/DX2                !
 ! D86   D(33,28,32,35)          0.0946         estimate D2E/DX2                !
 ! D87   D(27,30,32,28)          0.0215         estimate D2E/DX2                !
 ! D88   D(27,30,32,35)       -179.9059         estimate D2E/DX2                !
 ! D89   D(34,30,32,28)        179.9958         estimate D2E/DX2                !
 ! D90   D(34,30,32,35)          0.0684         estimate D2E/DX2                !
 --------------------------------------------------------------------------------
 Trust Radius=3.00D-01 FncErr=1.00D-07 GrdErr=1.00D-07
 Number of steps in this run= 197 maximum allowed number of steps= 210.
 GradGradGradGradGradGradGradGradGradGradGradGradGradGradGradGradGradGrad

                          Input orientation:                          
 ---------------------------------------------------------------------
 Center     Atomic      Atomic             Coordinates (Angstroms)
 Number     Number       Type             X           Y           Z
 ---------------------------------------------------------------------
      1          6           0        0.000000    0.000000   -0.795075
      2          1           0        0.000000    0.000000   -1.917778
      3          6           0        0.938156   -1.096039   -0.355284
      4          6           0        1.133886   -2.194053   -1.197388
      5          6           0        1.611216   -1.047010    0.866241
      6          6           0        1.987474   -3.224145   -0.820686
      7          1           0        0.610618   -2.246997   -2.159153
      8          6           0        2.466518   -2.077942    1.239328
      9          1           0        1.468811   -0.182826    1.528384
     10          6           0        2.655578   -3.168273    0.397920
     11          1           0        2.133818   -4.081121   -1.486081
     12          1           0        2.992239   -2.028008    2.198350
     13          1           0        3.328761   -3.979556    0.692654
     14          6           0        0.480120    1.360487   -0.355284
     15          6           0        0.101129    1.918859    0.866241
     16          6           0        1.333162    2.079001   -1.197388
     17          6           0        0.566291    3.175039    1.239328
     18          1           0       -0.576074    1.363441    1.528384
     19          6           0        1.798455    3.333276   -0.820686
     20          1           0        1.640647    1.652309   -2.159153
     21          6           0        1.416016    3.883935    0.397920
     22          1           0        0.260187    3.605359    2.198350
     23          1           0        2.467446    3.888501   -1.486081
     24          1           0        1.782016    4.872570    0.692654
     25          6           0       -1.418276   -0.264447   -0.355284
     26          6           0       -1.712345   -0.871849    0.866241
     27          6           0       -2.467048    0.115052   -1.197388
     28          6           0       -3.032810   -1.097097    1.239328
     29          1           0       -0.892738   -1.180615    1.528384
     30          6           0       -3.785929   -0.109130   -0.820686
     31          1           0       -2.251266    0.594687   -2.159153
     32          6           0       -4.071594   -0.715662    0.397920
     33          1           0       -3.252426   -1.577351    2.198350
     34          1           0       -4.601263    0.192620   -1.486081
     35          1           0       -5.110777   -0.893014    0.692654
 ---------------------------------------------------------------------
                    Distance matrix (angstroms):
                    1          2          3          4          5
     1  C    0.000000
     2  H    1.122702   0.000000
     3  C    1.508263   2.126694   0.000000
     4  C    2.502283   2.572650   1.397527   0.000000
     5  C    2.540122   3.382751   1.395542   2.408758   0.000000
     6  C    3.787588   3.943194   2.417954   1.389823   2.779787
     7  H    2.698622   2.340964   2.164701   1.096177   3.405022
     8  C    3.813181   4.513188   2.417190   2.779743   1.390524
     9  H    2.754868   3.750582   2.159574   3.403974   1.097964
    10  C    4.302707   4.738407   2.794818   2.410324   2.410347
    11  H    4.656846   4.625482   3.408669   2.155048   3.874579
    12  H    4.693283   5.478030   3.407178   3.874543   2.155016
    13  H    5.397301   5.807914   3.889451   3.402610   3.402928
    14  C    1.508263   2.126694   2.498863   3.710970   2.927036
    15  C    2.540122   3.382751   3.358921   4.716057   3.328174
    16  C    2.502283   2.572650   3.308481   4.277697   3.756038
    17  C    3.813181   4.513188   4.574186   5.923419   4.365404
    18  H    2.754868   3.750582   3.448208   4.796828   3.321588
    19  C    3.787588   3.943194   4.536028   5.579867   4.697625
    20  H    2.698622   2.340964   3.361675   3.997036   4.054652
    21  C    4.302707   4.738407   5.059230   6.290193   4.956979
    22  H    4.693283   5.478030   5.392943   6.776987   5.024373
    23  H    4.656846   4.625482   5.335079   6.233713   5.534059
    24  H    5.397301   5.807914   6.118379   7.343669   5.924586
    25  C    1.508263   2.126694   2.498863   3.308481   3.358921
    26  C    2.540122   3.382751   2.927036   3.756038   3.328174
    27  C    2.502283   2.572650   3.710970   4.277697   4.716057
    28  C    3.813181   4.513188   4.279177   4.949975   4.659258
    29  H    2.754868   3.750582   2.628218   3.544587   2.593467
    30  C    3.787588   3.943194   4.848461   5.356621   5.731886
    31  H    2.698622   2.340964   4.035457   4.490135   5.173678
    32  C    4.302707   4.738407   5.080315   5.641602   5.711694
    33  H    4.693283   5.478030   4.930891   5.581316   5.070581
    34  H    4.656846   4.625482   5.798665   6.218640   6.757589
    35  H    5.397301   5.807914   6.142392   6.652878   6.725997
                    6          7          8          9         10
     6  C    0.000000
     7  H    2.154540   0.000000
     8  C    2.405602   3.875902   0.000000
     9  H    3.877727   4.312219   2.161119   0.000000
    10  C    1.390858   3.401358   1.390155   3.405768   0.000000
    11  H    1.094794   2.477332   3.398716   4.972518   2.157542
    12  H    3.399247   4.970705   1.094805   2.484830   2.157566
    13  H    2.158679   4.303820   2.158344   4.309642   1.094634
    14  C    4.848460   4.035457   4.279177   2.628218   5.080315
    15  C    5.731886   5.173678   4.659258   2.593467   5.711694
    16  C    5.356621   4.490135   4.949975   3.544587   5.641602
    17  C    6.871170   6.399227   5.586114   3.489033   6.731322
    18  H    5.756376   5.295416   4.602612   2.563688   5.679609
    19  C    6.560145   5.860196   5.828486   4.241435   6.670067
    20  H    5.068688   4.033057   5.113366   4.122522   5.550381
    21  C    7.234388   6.691458   6.111914   4.221289   7.160318
    22  H    7.664217   7.304841   6.171510   4.032366   7.406857
    23  H    7.159808   6.445554   6.559443   5.163330   7.306361
    24  H    8.239491   7.758428   7.005498   5.133573   8.093524
    25  C    4.536028   3.361675   4.574186   3.448208   5.059230
    26  C    4.697625   4.054652   4.365404   3.321588   4.956979
    27  C    5.579867   3.997036   5.923419   4.796828   6.290193
    28  C    5.828486   5.113366   5.586114   4.602612   6.111914
    29  H    4.241435   4.122522   3.489033   2.563688   4.221289
    30  C    6.560145   5.068688   6.871170   5.756376   7.234388
    31  H    5.860196   4.033057   6.399227   5.295416   6.691458
    32  C    6.670067   5.550381   6.731322   5.679609   7.160318
    33  H    6.267620   5.861687   5.820364   4.968263   6.377860
    34  H    7.451745   5.793830   7.908024   6.787766   8.216253
    35  H    7.622962   6.534557   7.688843   6.670367   8.098145
                   11         12         13         14         15
    11  H    0.000000
    12  H    4.304323   0.000000
    13  H    2.486985   2.487751   0.000000
    14  C    5.798665   4.930891   6.142392   0.000000
    15  C    6.757589   5.070581   6.725997   1.395542   0.000000
    16  C    6.218640   5.581316   6.652878   1.397527   2.408758
    17  C    7.908024   5.820364   7.688844   2.417190   1.390524
    18  H    6.787766   4.968263   6.670367   2.159574   1.097964
    19  C    7.451745   6.267620   7.622962   2.417954   2.779787
    20  H    5.793830   5.861687   6.534557   2.164701   3.405022
    21  C    8.216253   6.377860   8.098145   2.794818   2.410347
    22  H    8.727399   6.260905   8.319507   3.407178   2.155016
    23  H    7.976602   6.989672   8.209450   3.408669   3.874579
    24  H    9.221671   7.165873   8.986242   3.889451   3.402928
    25  C    5.335079   5.392943   6.118379   2.498863   2.927036
    26  C    5.534059   5.024373   5.924586   3.358921   3.328174
    27  C    6.233713   6.776987   7.343669   3.308481   3.756038
    28  C    6.559443   6.171510   7.005498   4.574186   4.365404
    29  H    5.163330   4.032366   5.133573   3.448208   3.321588
    30  C    7.159809   7.664217   8.239491   4.536028   4.697625
    31  H    6.445554   7.304841   7.758428   3.361675   4.054652
    32  C    7.306361   7.406857   8.093524   5.059230   4.956979
    33  H    6.989672   6.260905   7.165873   5.392943   5.024373
    34  H    7.976602   8.727399   9.221671   5.335079   5.534059
    35  H    8.209450   8.319507   8.986242   6.118379   5.924586
                   16         17         18         19         20
    16  C    0.000000
    17  C    2.779743   0.000000
    18  H    3.403974   2.161119   0.000000
    19  C    1.389823   2.405602   3.877727   0.000000
    20  H    1.096177   3.875902   4.312219   2.154541   0.000000
    21  C    2.410323   1.390155   3.405768   1.390858   3.401358
    22  H    3.874543   1.094805   2.484830   3.399247   4.970705
    23  H    2.155048   3.398716   4.972518   1.094794   2.477332
    24  H    3.402610   2.158344   4.309642   2.158679   4.303820
    25  C    3.710970   4.279177   2.628218   4.848461   4.035457
    26  C    4.716057   4.659258   2.593467   5.731886   5.173678
    27  C    4.277697   4.949975   3.544587   5.356621   4.490135
    28  C    5.923419   5.586114   3.489033   6.871170   6.399227
    29  H    4.796828   4.602612   2.563688   5.756376   5.295416
    30  C    5.579867   5.828486   4.241435   6.560145   5.860196
    31  H    3.997036   5.113366   4.122522   5.068688   4.033057
    32  C    6.290194   6.111915   4.221289   7.234388   6.691458
    33  H    6.776987   6.171510   4.032366   7.664217   7.304841
    34  H    6.233713   6.559443   5.163330   7.159809   6.445554
    35  H    7.343669   7.005498   5.133573   8.239491   7.758428
                   21         22         23         24         25
    21  C    0.000000
    22  H    2.157566   0.000000
    23  H    2.157542   4.304323   0.000000
    24  H    1.094634   2.487751   2.486985   0.000000
    25  C    5.080315   4.930891   5.798665   6.142392   0.000000
    26  C    5.711694   5.070581   6.757589   6.725997   1.395542
    27  C    5.641602   5.581316   6.218640   6.652878   1.397527
    28  C    6.731322   5.820364   7.908024   7.688844   2.417190
    29  H    5.679609   4.968263   6.787766   6.670367   2.159574
    30  C    6.670068   6.267620   7.451745   7.622962   2.417954
    31  H    5.550381   5.861687   5.793830   6.534557   2.164701
    32  C    7.160318   6.377860   8.216253   8.098145   2.794818
    33  H    7.406857   6.260905   8.727399   8.319507   3.407178
    34  H    7.306361   6.989672   7.976602   8.209450   3.408669
    35  H    8.093524   7.165872   9.221671   8.986242   3.889451
                   26         27         28         29         30
    26  C    0.000000
    27  C    2.408758   0.000000
    28  C    1.390524   2.779743   0.000000
    29  H    1.097964   3.403974   2.161119   0.000000
    30  C    2.779787   1.389823   2.405602   3.877727   0.000000
    31  H    3.405022   1.096177   3.875902   4.312219   2.154541
    32  C    2.410348   2.410324   1.390155   3.405768   1.390858
    33  H    2.155016   3.874543   1.094805   2.484830   3.399247
    34  H    3.874579   2.155048   3.398716   4.972518   1.094794
    35  H    3.402928   3.402610   2.158344   4.309642   2.158679
                   31         32         33         34         35
    31  H    0.000000
    32  C    3.401358   0.000000
    33  H    4.970705   2.157566   0.000000
    34  H    2.477332   2.157542   4.304323   0.000000
    35  H    4.303820   1.094634   2.487751   2.486985   0.000000
 Stoichiometry    C19H16
 Framework group  C3[C3(CH),X(C18H15)]
 Deg. of freedom    33
 Full point group                 C3      NOp   3
 Largest Abelian subgroup         C1      NOp   1
 Largest concise Abelian subgroup C1      NOp   1
                         Standard orientation:                         
 ---------------------------------------------------------------------
 Center     Atomic      Atomic             Coordinates (Angstroms)
 Number     Number       Type             X           Y           Z
 ---------------------------------------------------------------------
      1          6           0        0.000000    0.000000    0.779511
      2          1           0        0.000000    0.000000    1.902213
      3          6           0        0.000000    1.442719    0.339719
      4          6           0       -0.565307    2.404161    1.181823
      5          6           0        0.543209    1.843142   -0.881806
      6          6           0       -0.586671    3.741789    0.805122
      7          1           0       -0.997264    2.104118    2.143589
      8          6           0        0.522601    3.182522   -1.254892
      9          1           0        0.996975    1.094017   -1.543949
     10          6           0       -0.042778    4.133790   -0.413485
     11          1           0       -1.032759    4.487999    1.470517
     12          1           0        0.954464    3.486446   -2.213915
     13          1           0       -0.058911    5.187875   -0.708219
     14          6           0        1.249432   -0.721360    0.339719
     15          6           0        1.324603   -1.392003   -0.881806
     16          6           0        2.364719   -0.712510    1.181823
     17          6           0        2.494844   -2.043847   -1.254892
     18          1           0        0.448959   -1.410414   -1.543949
     19          6           0        3.533820   -1.362822    0.805122
     20          1           0        2.320852   -0.188403    2.143589
     21          6           0        3.601356   -2.029848   -0.413485
     22          1           0        2.542119   -2.569813   -2.213915
     23          1           0        4.403100   -1.349604    1.470517
     24          1           0        4.522287   -2.542919   -0.708219
     25          6           0       -1.249432   -0.721360    0.339719
     26          6           0       -1.867812   -0.451138   -0.881806
     27          6           0       -1.799411   -1.691651    1.181823
     28          6           0       -3.017445   -1.138675   -1.254892
     29          1           0       -1.445934    0.316398   -1.543949
     30          6           0       -2.947149   -2.378967    0.805122
     31          1           0       -1.323588   -1.915715    2.143589
     32          6           0       -3.558578   -2.103942   -0.413485
     33          1           0       -3.496583   -0.916633   -2.213915
     34          1           0       -3.370342   -3.138395    1.470517
     35          1           0       -4.463376   -2.644956   -0.708219
 ---------------------------------------------------------------------
 Rotational constants (GHZ):      0.3904598      0.3904598      0.2359829
 Standard basis: 6-311G (5D, 7F)
 There are   295 symmetry adapted basis functions of A   symmetry.
 Integral buffers will be    262144 words long.
 Raffenetti 1 integral format.
 Two-electron integral symmetry is turned on.
   295 basis functions,   574 primitive gaussians,   295 cartesian basis functions
    65 alpha electrons       65 beta electrons
       nuclear repulsion energy      1290.5513030294 Hartrees.
 NAtoms=   35 NActive=   35 NUniq=   13 SFac= 3.00D+00 NAtFMM=   80 NAOKFM=F Big=F
 One-electron integrals computed using PRISM.
 PrsmSu:  requested number of processors reduced to:  10 ShMem   1 Linda.
 NBasis=   295 RedAO= T  NBF=   295
 NBsUse=   295 1.00D-06 NBFU=   295
 Harris functional with IExCor=  205 diagonalized for initial guess.
 ExpMin= 1.03D-01 ExpMax= 4.56D+03 ExpMxC= 6.82D+02 IAcc=1 IRadAn=         1 AccDes= 0.00D+00
 HarFok:  IExCor=  205 AccDes= 0.00D+00 IRadAn=         1 IDoV= 1
 ScaDFX=  1.000000  1.000000  1.000000  1.000000
 FoFCou: FMM=F IPFlag=           0 FMFlag=      100000 FMFlg1=           0
         NFxFlg=           0 DoJE=T BraDBF=F KetDBF=T FulRan=T
         Omega=  0.000000  0.000000  1.000000  0.000000  0.000000 ICntrl=     500 IOpCl=  0
         NMat0=    1 NMatS0=    1 NMatT0=    0 NMatD0=    1 NMtDS0=    0 NMtDT0=    0
         I1Cent=           4 NGrid=           0.
 Petite list used in FoFCou.
 Initial guess orbital symmetries:
       Occupied  (E) (E) (A) (A) (E) (E) (A) (E) (E) (E) (E) (A)
                 (E) (E) (A) (E) (E) (A) (A) (A) (E) (E) (A) (A)
                 (E) (E) (E) (E) (A) (A) (E) (E) (E) (E) (A) (E)
                 (E) (A) (A) (E) (E) (E) (E) (A) (E) (E) (A) (E)
                 (E) (A) (E) (E) (A) (A) (E) (E) (E) (E) (A) (E)
                 (E) (A) (E) (E) (A)
       Virtual   (E) (E) (A) (E) (E) (A) (A) (A) (E) (E) (E) (E)
                 (A) (A) (E) (E) (E) (E) (A) (A) (E) (E) (E) (E)
                 (A) (A) (E) (E) (A) (E) (E) (A) (E) (E) (E) (E)
                 (A) (E) (E) (A) (E) (E) (A) (E) (E) (A) (A) (E)
                 (E) (E) (E) (A) (A) (E) (E) (A) (E) (E) (E) (E)
                 (A) (E) (E) (A) (E) (E) (A) (A) (E) (E) (E) (E)
                 (A) (A) (E) (E) (A) (A) (E) (E) (A) (E) (E) (A)
                 (E) (E) (A) (A) (E) (E) (E) (E) (A) (E) (E) (A)
                 (E) (E) (A) (E) (E) (A) (E) (E) (E) (E) (A) (E)
                 (E) (A) (E) (E) (E) (E) (A) (A) (E) (E) (A) (E)
                 (E) (A) (A) (E) (E) (E) (E) (A) (A) (E) (E) (A)
                 (E) (E) (A) (E) (E) (A) (E) (E) (A) (A) (E) (E)
                 (E) (E) (A) (A) (E) (E) (A) (E) (E) (A) (E) (E)
                 (A) (E) (E) (E) (E) (A) (A) (A) (E) (E) (A) (E)
                 (E) (A) (E) (E) (A) (E) (E) (A) (E) (E) (E) (E)
                 (A) (A) (E) (E) (E) (E) (A) (E) (E) (E) (E) (A)
                 (E) (E) (A) (A) (E) (E) (E) (E) (E) (E) (A) (A)
                 (E) (E) (A) (A) (E) (E) (A) (A) (E) (E) (E) (E)
                 (A) (A) (E) (E) (A) (E) (E) (A) (E) (E) (A) (A)
                 (E) (E)
 The electronic state of the initial guess is 1-A.
 Requested convergence on RMS density matrix=1.00D-08 within 128 cycles.
 Requested convergence on MAX density matrix=1.00D-06.
 Requested convergence on             energy=1.00D-06.
 No special actions if energy rises.
 Integral accuracy reduced to 1.0D-05 until final iterations.
 Initial convergence to 1.0D-05 achieved.  Increase integral accuracy.
 SCF Done:  E(RHF) =  -728.678072879     A.U. after   14 cycles
             Convg  =    0.6774D-08             -V/T =  2.0001

 **********************************************************************

            Population analysis using the SCF density.

 **********************************************************************

 Orbital symmetries:
       Occupied  (A) (E) (E) (A) (E) (E) (A) (A) (E) (E) (E) (E)
                 (A) (E) (E) (A) (E) (E) (A) (A) (E) (E) (A) (A)
                 (E) (E) (E) (E) (A) (A) (E) (E) (E) (E) (A) (E)
                 (E) (A) (A) (E) (E) (E) (E) (A) (A) (E) (E) (E)
                 (E) (A) (A) (E) (E) (A) (E) (E) (A) (E) (E) (E)
                 (E) (A) (E) (E) (A)
       Virtual   (E) (E) (A) (A) (E) (E) (A) (E) (E) (A) (A) (E)
                 (E) (E) (E) (A) (E) (E) (A) (E) (E) (A) (E) (E)
                 (A) (E) (E) (A) (A) (A) (E) (E) (E) (E) (E) (E)
                 (A) (A) (E) (E) (A) (E) (E) (E) (E) (A) (E) (E)
                 (A) (A) (E) (E) (A) (E) (E) (A) (E) (E) (A) (E)
                 (E) (E) (E) (A) (A) (E) (E) (A) (E) (E) (A) (E)
                 (E) (A) (E) (E) (A) (E) (E) (A) (A) (E) (E) (E)
                 (E) (A) (E) (E) (A) (E) (E) (A) (A) (E) (E) (A)
                 (E) (E) (A) (E) (E) (E) (E) (A) (E) (E) (A) (E)
                 (E) (A) (E) (E) (E) (E) (A) (A) (A) (E) (E) (A)
                 (E) (E) (A) (E) (E) (A) (E) (E) (A) (E) (E) (A)
                 (E) (E) (A) (E) (E) (A) (E) (E) (A) (E) (E) (A)
                 (E) (E) (A) (E) (E) (A) (A) (E) (E) (A) (A) (E)
                 (E) (E) (E) (A) (E) (E) (A) (A) (E) (E) (E) (E)
                 (A) (E) (E) (A) (A) (E) (E) (A) (E) (E) (E) (E)
                 (A) (A) (E) (E) (E) (E) (A) (E) (E) (A) (E) (E)
                 (A) (E) (E) (A) (E) (E) (E) (E) (E) (E) (A) (A)
                 (A) (E) (E) (A) (E) (E) (A) (A) (E) (E) (E) (E)
                 (A) (A) (E) (E) (A) (E) (E) (A) (E) (E) (A) (A)
                 (E) (E)
 The electronic state is 1-A.
 Alpha  occ. eigenvalues --  -11.25712 -11.25089 -11.25089 -11.25083 -11.24306
 Alpha  occ. eigenvalues --  -11.24306 -11.24306 -11.24283 -11.24283 -11.24283
 Alpha  occ. eigenvalues --  -11.24019 -11.24019 -11.24019 -11.23960 -11.23960
 Alpha  occ. eigenvalues --  -11.23960 -11.23816 -11.23816 -11.23816  -1.18587
 Alpha  occ. eigenvalues --   -1.15715  -1.15715  -1.09030  -1.02187  -1.02044
 Alpha  occ. eigenvalues --   -1.02044  -1.01369  -1.01369  -0.92886  -0.84083
 Alpha  occ. eigenvalues --   -0.82995  -0.82995  -0.81454  -0.81454  -0.77510
 Alpha  occ. eigenvalues --   -0.70627  -0.70627  -0.68785  -0.65642  -0.63794
 Alpha  occ. eigenvalues --   -0.63794  -0.61932  -0.61932  -0.61740  -0.59097
 Alpha  occ. eigenvalues --   -0.58736  -0.58736  -0.58063  -0.58063  -0.54337
 Alpha  occ. eigenvalues --   -0.51184  -0.50835  -0.50835  -0.49663  -0.49108
 Alpha  occ. eigenvalues --   -0.49108  -0.47442  -0.47179  -0.47179  -0.34453
 Alpha  occ. eigenvalues --   -0.34453  -0.34004  -0.33231  -0.33231  -0.31221
 Alpha virt. eigenvalues --    0.12204   0.12204   0.12399   0.14450   0.14462
 Alpha virt. eigenvalues --    0.14462   0.15131   0.16317   0.16317   0.17110
 Alpha virt. eigenvalues --    0.19071   0.19126   0.19126   0.21253   0.21253
 Alpha virt. eigenvalues --    0.21554   0.23847   0.23847   0.24468   0.26739
 Alpha virt. eigenvalues --    0.26739   0.28544   0.34019   0.34019   0.35095
 Alpha virt. eigenvalues --    0.39182   0.39182   0.39363   0.41082   0.43775
 Alpha virt. eigenvalues --    0.43877   0.43877   0.44972   0.44972   0.45562
 Alpha virt. eigenvalues --    0.45562   0.45807   0.48358   0.49762   0.49762
 Alpha virt. eigenvalues --    0.50695   0.50885   0.50885   0.55388   0.55388
 Alpha virt. eigenvalues --    0.57219   0.58699   0.58699   0.58774   0.59466
 Alpha virt. eigenvalues --    0.60070   0.60070   0.61459   0.61557   0.61557
 Alpha virt. eigenvalues --    0.61704   0.62244   0.62244   0.63518   0.63798
 Alpha virt. eigenvalues --    0.63798   0.65430   0.65430   0.66734   0.67111
 Alpha virt. eigenvalues --    0.67865   0.67865   0.69142   0.70654   0.70654
 Alpha virt. eigenvalues --    0.73048   0.74596   0.74596   0.74988   0.75569
 Alpha virt. eigenvalues --    0.75569   0.78135   0.80265   0.80265   0.80284
 Alpha virt. eigenvalues --    0.81938   0.82007   0.82007   0.82966   0.82966
 Alpha virt. eigenvalues --    0.83743   0.84375   0.84375   0.85150   0.86019
 Alpha virt. eigenvalues --    0.86019   0.86226   0.87300   0.87739   0.87739
 Alpha virt. eigenvalues --    0.88552   0.90873   0.90873   0.92790   0.94585
 Alpha virt. eigenvalues --    0.94585   0.97231   0.97231   0.97800   1.00030
 Alpha virt. eigenvalues --    1.00030   1.00724   1.04037   1.04037   1.06251
 Alpha virt. eigenvalues --    1.07008   1.07008   1.08788   1.08788   1.09893
 Alpha virt. eigenvalues --    1.11088   1.12259   1.12940   1.12940   1.14207
 Alpha virt. eigenvalues --    1.14664   1.14664   1.17911   1.20741   1.20741
 Alpha virt. eigenvalues --    1.26744   1.27478   1.27478   1.28642   1.30070
 Alpha virt. eigenvalues --    1.30070   1.39687   1.40603   1.40603   1.49117
 Alpha virt. eigenvalues --    1.52304   1.52304   1.54948   2.55832   2.55832
 Alpha virt. eigenvalues --    2.56442   2.61667   2.61667   2.61692   2.66498
 Alpha virt. eigenvalues --    2.66498   2.67963   2.70421   2.70421   2.70900
 Alpha virt. eigenvalues --    2.78505   2.84854   2.84854   2.88552   2.94550
 Alpha virt. eigenvalues --    2.94642   2.94642   2.97631   2.97631   2.97660
 Alpha virt. eigenvalues --    3.01464   3.01464   3.04385   3.06188   3.07544
 Alpha virt. eigenvalues --    3.07544   3.08645   3.08645   3.09327   3.15407
 Alpha virt. eigenvalues --    3.15407   3.15650   3.17431   3.18990   3.18990
 Alpha virt. eigenvalues --    3.23294   3.25366   3.25366   3.28847   3.28847
 Alpha virt. eigenvalues --    3.29674   3.33098   3.34957   3.34957   3.42289
 Alpha virt. eigenvalues --    3.42289   3.43266   3.48641   3.48641   3.53946
 Alpha virt. eigenvalues --    3.54119   3.54119   3.59966   3.60367   3.60367
 Alpha virt. eigenvalues --    3.63138   3.63609   3.63609   3.65839   3.65839
 Alpha virt. eigenvalues --    3.69797   3.69797   3.70485   3.70716   3.75237
 Alpha virt. eigenvalues --    3.75900   3.75900   3.84562   3.87420   3.87420
 Alpha virt. eigenvalues --    3.91516  24.25952  24.31585  24.31585  24.50737
 Alpha virt. eigenvalues --   24.50737  24.51256  24.54564  24.55843  24.55843
 Alpha virt. eigenvalues --   24.77632  24.79326  24.79326  24.79951  24.80808
 Alpha virt. eigenvalues --   24.80808  24.83374  25.05348  25.06165  25.06165
          Condensed to atoms (all electrons):
              1          2          3          4          5          6
     1  C    5.860962   0.483670   0.145066  -0.054833  -0.041012   0.007241
     2  H    0.483670   0.515270  -0.072151  -0.001106   0.005315   0.001487
     3  C    0.145066  -0.072151   5.358107   0.483999   0.479833  -0.065753
     4  C   -0.054833  -0.001106   0.483999   5.058801  -0.068596   0.463594
     5  C   -0.041012   0.005315   0.479833  -0.068596   5.113992  -0.029440
     6  C    0.007241   0.001487  -0.065753   0.463594  -0.029440   5.055090
     7  H    0.000518   0.001469  -0.048817   0.399266   0.004435  -0.036078
     8  C    0.004240  -0.000241  -0.067540  -0.031783   0.468981  -0.075891
     9  H   -0.000850  -0.000120  -0.042530   0.004185   0.392301  -0.000228
    10  C    0.001170  -0.000011  -0.016407  -0.087579  -0.093831   0.490282
    11  H   -0.000372  -0.000026   0.006681  -0.039635  -0.000532   0.397077
    12  H   -0.000337   0.000014   0.006121  -0.000380  -0.037816   0.005937
    13  H   -0.000017  -0.000001  -0.001542   0.007433   0.007821  -0.042927
    14  C    0.145066  -0.072151  -0.097058   0.005752  -0.018618  -0.000779
    15  C   -0.041012   0.005315  -0.008175  -0.000167  -0.005058   0.000027
    16  C   -0.054833  -0.001106  -0.001181   0.000844   0.000220  -0.000034
    17  C    0.004240  -0.000241   0.000682   0.000022  -0.001064   0.000000
    18  H   -0.000850  -0.000120  -0.000788  -0.000017   0.000731   0.000003
    19  C    0.007241   0.001487  -0.000634   0.000003   0.000384   0.000002
    20  H    0.000518   0.001469   0.000949   0.000234   0.000222  -0.000005
    21  C    0.001170  -0.000011   0.000039  -0.000001   0.000068   0.000000
    22  H   -0.000337   0.000014  -0.000003   0.000000   0.000016   0.000000
    23  H   -0.000372  -0.000026   0.000024   0.000000   0.000003   0.000000
    24  H   -0.000017  -0.000001   0.000000   0.000000  -0.000001   0.000000
    25  C    0.145066  -0.072151  -0.097058  -0.001181  -0.008175  -0.000634
    26  C   -0.041012   0.005315  -0.018618   0.000220  -0.005058   0.000384
    27  C   -0.054833  -0.001106   0.005752   0.000844  -0.000167   0.000003
    28  C    0.004240  -0.000241   0.000091  -0.000167  -0.000021  -0.000009
    29  H   -0.000850  -0.000120  -0.001931  -0.000878   0.001466  -0.000190
    30  C    0.007241   0.001487  -0.000779  -0.000034   0.000027   0.000002
    31  H    0.000518   0.001469   0.000487   0.000044  -0.000031   0.000001
    32  C    0.001170  -0.000011   0.000098  -0.000008  -0.000017   0.000000
    33  H   -0.000337   0.000014   0.000028   0.000007   0.000018   0.000001
    34  H   -0.000372  -0.000026   0.000011   0.000001   0.000000   0.000000
    35  H   -0.000017  -0.000001  -0.000001   0.000000   0.000000   0.000000
              7          8          9         10         11         12
     1  C    0.000518   0.004240  -0.000850   0.001170  -0.000372  -0.000337
     2  H    0.001469  -0.000241  -0.000120  -0.000011  -0.000026   0.000014
     3  C   -0.048817  -0.067540  -0.042530  -0.016407   0.006681   0.006121
     4  C    0.399266  -0.031783   0.004185  -0.087579  -0.039635  -0.000380
     5  C    0.004435   0.468981   0.392301  -0.093831  -0.000532  -0.037816
     6  C   -0.036078  -0.075891  -0.000228   0.490282   0.397077   0.005937
     7  H    0.507669  -0.000423  -0.000239   0.005357  -0.004229   0.000022
     8  C   -0.000423   5.051908  -0.029877   0.496670   0.006120   0.396196
     9  H   -0.000239  -0.029877   0.474260   0.004628   0.000018  -0.003312
    10  C    0.005357   0.496670   0.004628   5.033083  -0.040652  -0.040241
    11  H   -0.004229   0.006120   0.000018  -0.040652   0.517994  -0.000211
    12  H    0.000022   0.396196  -0.003312  -0.040241  -0.000211   0.515685
    13  H   -0.000179  -0.042464  -0.000174   0.399533  -0.004496  -0.004405
    14  C    0.000487   0.000091  -0.001931   0.000098   0.000011   0.000028
    15  C   -0.000031  -0.000021   0.001466  -0.000017   0.000000   0.000018
    16  C    0.000044  -0.000167  -0.000878  -0.000008   0.000001   0.000007
    17  C    0.000000  -0.000021   0.000922   0.000000   0.000000   0.000000
    18  H    0.000000   0.000042   0.000216   0.000000   0.000000  -0.000007
    19  C    0.000001  -0.000009  -0.000190   0.000000   0.000000   0.000001
    20  H   -0.000001   0.000007  -0.000038  -0.000009   0.000000   0.000000
    21  C    0.000000   0.000005   0.000001   0.000000   0.000000  -0.000001
    22  H    0.000000   0.000001   0.000008   0.000000   0.000000   0.000000
    23  H    0.000000   0.000000   0.000003   0.000000   0.000000   0.000000
    24  H    0.000000   0.000000   0.000000   0.000000   0.000000   0.000000
    25  C    0.000949   0.000682  -0.000788   0.000039   0.000024  -0.000003
    26  C    0.000222  -0.001064   0.000731   0.000068   0.000003   0.000016
    27  C    0.000234   0.000022  -0.000017  -0.000001   0.000000   0.000000
    28  C    0.000007  -0.000021   0.000042   0.000005   0.000000   0.000001
    29  H   -0.000038   0.000922   0.000216   0.000001   0.000003   0.000008
    30  C   -0.000005   0.000000   0.000003   0.000000   0.000000   0.000000
    31  H   -0.000001   0.000000   0.000000   0.000000   0.000000   0.000000
    32  C   -0.000009   0.000000   0.000000   0.000000   0.000000   0.000000
    33  H    0.000000   0.000000  -0.000007  -0.000001   0.000000   0.000000
    34  H    0.000000   0.000000   0.000000   0.000000   0.000000   0.000000
    35  H    0.000000   0.000000   0.000000   0.000000   0.000000   0.000000
             13         14         15         16         17         18
     1  C   -0.000017   0.145066  -0.041012  -0.054833   0.004240  -0.000850
     2  H   -0.000001  -0.072151   0.005315  -0.001106  -0.000241  -0.000120
     3  C   -0.001542  -0.097058  -0.008175  -0.001181   0.000682  -0.000788
     4  C    0.007433   0.005752  -0.000167   0.000844   0.000022  -0.000017
     5  C    0.007821  -0.018618  -0.005058   0.000220  -0.001064   0.000731
     6  C   -0.042927  -0.000779   0.000027  -0.000034   0.000000   0.000003
     7  H   -0.000179   0.000487  -0.000031   0.000044   0.000000   0.000000
     8  C   -0.042464   0.000091  -0.000021  -0.000167  -0.000021   0.000042
     9  H   -0.000174  -0.001931   0.001466  -0.000878   0.000922   0.000216
    10  C    0.399533   0.000098  -0.000017  -0.000008   0.000000   0.000000
    11  H   -0.004496   0.000011   0.000000   0.000001   0.000000   0.000000
    12  H   -0.004405   0.000028   0.000018   0.000007   0.000000  -0.000007
    13  H    0.517915  -0.000001   0.000000   0.000000   0.000000   0.000000
    14  C   -0.000001   5.358107   0.479833   0.483999  -0.067540  -0.042530
    15  C    0.000000   0.479833   5.113992  -0.068596   0.468981   0.392301
    16  C    0.000000   0.483999  -0.068596   5.058801  -0.031783   0.004185
    17  C    0.000000  -0.067540   0.468981  -0.031783   5.051908  -0.029877
    18  H    0.000000  -0.042530   0.392301   0.004185  -0.029877   0.474260
    19  C    0.000000  -0.065753  -0.029440   0.463594  -0.075891  -0.000228
    20  H    0.000000  -0.048817   0.004435   0.399266  -0.000423  -0.000239
    21  C    0.000000  -0.016407  -0.093831  -0.087579   0.496670   0.004628
    22  H    0.000000   0.006121  -0.037816  -0.000380   0.396196  -0.003312
    23  H    0.000000   0.006681  -0.000532  -0.039635   0.006120   0.000018
    24  H    0.000000  -0.001542   0.007821   0.007433  -0.042464  -0.000174
    25  C    0.000000  -0.097058  -0.018618   0.005752   0.000091  -0.001931
    26  C   -0.000001  -0.008175  -0.005058  -0.000167  -0.000021   0.001466
    27  C    0.000000  -0.001181   0.000220   0.000844  -0.000167  -0.000878
    28  C    0.000000   0.000682  -0.001064   0.000022  -0.000021   0.000922
    29  H    0.000000  -0.000788   0.000731  -0.000017   0.000042   0.000216
    30  C    0.000000  -0.000634   0.000384   0.000003  -0.000009  -0.000190
    31  H    0.000000   0.000949   0.000222   0.000234   0.000007  -0.000038
    32  C    0.000000   0.000039   0.000068  -0.000001   0.000005   0.000001
    33  H    0.000000  -0.000003   0.000016   0.000000   0.000001   0.000008
    34  H    0.000000   0.000024   0.000003   0.000000   0.000000   0.000003
    35  H    0.000000   0.000000  -0.000001   0.000000   0.000000   0.000000
             19         20         21         22         23         24
     1  C    0.007241   0.000518   0.001170  -0.000337  -0.000372  -0.000017
     2  H    0.001487   0.001469  -0.000011   0.000014  -0.000026  -0.000001
     3  C   -0.000634   0.000949   0.000039  -0.000003   0.000024   0.000000
     4  C    0.000003   0.000234  -0.000001   0.000000   0.000000   0.000000
     5  C    0.000384   0.000222   0.000068   0.000016   0.000003  -0.000001
     6  C    0.000002  -0.000005   0.000000   0.000000   0.000000   0.000000
     7  H    0.000001  -0.000001   0.000000   0.000000   0.000000   0.000000
     8  C   -0.000009   0.000007   0.000005   0.000001   0.000000   0.000000
     9  H   -0.000190  -0.000038   0.000001   0.000008   0.000003   0.000000
    10  C    0.000000  -0.000009   0.000000   0.000000   0.000000   0.000000
    11  H    0.000000   0.000000   0.000000   0.000000   0.000000   0.000000
    12  H    0.000001   0.000000  -0.000001   0.000000   0.000000   0.000000
    13  H    0.000000   0.000000   0.000000   0.000000   0.000000   0.000000
    14  C   -0.065753  -0.048817  -0.016407   0.006121   0.006681  -0.001542
    15  C   -0.029440   0.004435  -0.093831  -0.037816  -0.000532   0.007821
    16  C    0.463594   0.399266  -0.087579  -0.000380  -0.039635   0.007433
    17  C   -0.075891  -0.000423   0.496670   0.396196   0.006120  -0.042464
    18  H   -0.000228  -0.000239   0.004628  -0.003312   0.000018  -0.000174
    19  C    5.055090  -0.036078   0.490282   0.005937   0.397077  -0.042927
    20  H   -0.036078   0.507669   0.005357   0.000022  -0.004229  -0.000179
    21  C    0.490282   0.005357   5.033083  -0.040241  -0.040652   0.399533
    22  H    0.005937   0.000022  -0.040241   0.515685  -0.000211  -0.004405
    23  H    0.397077  -0.004229  -0.040652  -0.000211   0.517994  -0.004496
    24  H   -0.042927  -0.000179   0.399533  -0.004405  -0.004496   0.517915
    25  C   -0.000779   0.000487   0.000098   0.000028   0.000011  -0.000001
    26  C    0.000027  -0.000031  -0.000017   0.000018   0.000000   0.000000
    27  C   -0.000034   0.000044  -0.000008   0.000007   0.000001   0.000000
    28  C    0.000000   0.000000   0.000000   0.000000   0.000000   0.000000
    29  H    0.000003   0.000000   0.000000  -0.000007   0.000000   0.000000
    30  C    0.000002   0.000001   0.000000   0.000001   0.000000   0.000000
    31  H   -0.000005  -0.000001  -0.000009   0.000000   0.000000   0.000000
    32  C    0.000000   0.000000   0.000000  -0.000001   0.000000   0.000000
    33  H    0.000000   0.000000   0.000000   0.000000   0.000000   0.000000
    34  H    0.000000   0.000000   0.000000   0.000000   0.000000   0.000000
    35  H    0.000000   0.000000   0.000000   0.000000   0.000000   0.000000
             25         26         27         28         29         30
     1  C    0.145066  -0.041012  -0.054833   0.004240  -0.000850   0.007241
     2  H   -0.072151   0.005315  -0.001106  -0.000241  -0.000120   0.001487
     3  C   -0.097058  -0.018618   0.005752   0.000091  -0.001931  -0.000779
     4  C   -0.001181   0.000220   0.000844  -0.000167  -0.000878  -0.000034
     5  C   -0.008175  -0.005058  -0.000167  -0.000021   0.001466   0.000027
     6  C   -0.000634   0.000384   0.000003  -0.000009  -0.000190   0.000002
     7  H    0.000949   0.000222   0.000234   0.000007  -0.000038  -0.000005
     8  C    0.000682  -0.001064   0.000022  -0.000021   0.000922   0.000000
     9  H   -0.000788   0.000731  -0.000017   0.000042   0.000216   0.000003
    10  C    0.000039   0.000068  -0.000001   0.000005   0.000001   0.000000
    11  H    0.000024   0.000003   0.000000   0.000000   0.000003   0.000000
    12  H   -0.000003   0.000016   0.000000   0.000001   0.000008   0.000000
    13  H    0.000000  -0.000001   0.000000   0.000000   0.000000   0.000000
    14  C   -0.097058  -0.008175  -0.001181   0.000682  -0.000788  -0.000634
    15  C   -0.018618  -0.005058   0.000220  -0.001064   0.000731   0.000384
    16  C    0.005752  -0.000167   0.000844   0.000022  -0.000017   0.000003
    17  C    0.000091  -0.000021  -0.000167  -0.000021   0.000042  -0.000009
    18  H   -0.001931   0.001466  -0.000878   0.000922   0.000216  -0.000190
    19  C   -0.000779   0.000027  -0.000034   0.000000   0.000003   0.000002
    20  H    0.000487  -0.000031   0.000044   0.000000   0.000000   0.000001
    21  C    0.000098  -0.000017  -0.000008   0.000000   0.000000   0.000000
    22  H    0.000028   0.000018   0.000007   0.000000  -0.000007   0.000001
    23  H    0.000011   0.000000   0.000001   0.000000   0.000000   0.000000
    24  H   -0.000001   0.000000   0.000000   0.000000   0.000000   0.000000
    25  C    5.358107   0.479833   0.483999  -0.067540  -0.042530  -0.065753
    26  C    0.479833   5.113992  -0.068596   0.468981   0.392301  -0.029440
    27  C    0.483999  -0.068596   5.058801  -0.031783   0.004185   0.463594
    28  C   -0.067540   0.468981  -0.031783   5.051908  -0.029877  -0.075891
    29  H   -0.042530   0.392301   0.004185  -0.029877   0.474260  -0.000228
    30  C   -0.065753  -0.029440   0.463594  -0.075891  -0.000228   5.055090
    31  H   -0.048817   0.004435   0.399266  -0.000423  -0.000239  -0.036078
    32  C   -0.016407  -0.093831  -0.087579   0.496670   0.004628   0.490282
    33  H    0.006121  -0.037816  -0.000380   0.396196  -0.003312   0.005937
    34  H    0.006681  -0.000532  -0.039635   0.006120   0.000018   0.397077
    35  H   -0.001542   0.007821   0.007433  -0.042464  -0.000174  -0.042927
             31         32         33         34         35
     1  C    0.000518   0.001170  -0.000337  -0.000372  -0.000017
     2  H    0.001469  -0.000011   0.000014  -0.000026  -0.000001
     3  C    0.000487   0.000098   0.000028   0.000011  -0.000001
     4  C    0.000044  -0.000008   0.000007   0.000001   0.000000
     5  C   -0.000031  -0.000017   0.000018   0.000000   0.000000
     6  C    0.000001   0.000000   0.000001   0.000000   0.000000
     7  H   -0.000001  -0.000009   0.000000   0.000000   0.000000
     8  C    0.000000   0.000000   0.000000   0.000000   0.000000
     9  H    0.000000   0.000000  -0.000007   0.000000   0.000000
    10  C    0.000000   0.000000  -0.000001   0.000000   0.000000
    11  H    0.000000   0.000000   0.000000   0.000000   0.000000
    12  H    0.000000   0.000000   0.000000   0.000000   0.000000
    13  H    0.000000   0.000000   0.000000   0.000000   0.000000
    14  C    0.000949   0.000039  -0.000003   0.000024   0.000000
    15  C    0.000222   0.000068   0.000016   0.000003  -0.000001
    16  C    0.000234  -0.000001   0.000000   0.000000   0.000000
    17  C    0.000007   0.000005   0.000001   0.000000   0.000000
    18  H   -0.000038   0.000001   0.000008   0.000003   0.000000
    19  C   -0.000005   0.000000   0.000000   0.000000   0.000000
    20  H   -0.000001   0.000000   0.000000   0.000000   0.000000
    21  C   -0.000009   0.000000   0.000000   0.000000   0.000000
    22  H    0.000000  -0.000001   0.000000   0.000000   0.000000
    23  H    0.000000   0.000000   0.000000   0.000000   0.000000
    24  H    0.000000   0.000000   0.000000   0.000000   0.000000
    25  C   -0.048817  -0.016407   0.006121   0.006681  -0.001542
    26  C    0.004435  -0.093831  -0.037816  -0.000532   0.007821
    27  C    0.399266  -0.087579  -0.000380  -0.039635   0.007433
    28  C   -0.000423   0.496670   0.396196   0.006120  -0.042464
    29  H   -0.000239   0.004628  -0.003312   0.000018  -0.000174
    30  C   -0.036078   0.490282   0.005937   0.397077  -0.042927
    31  H    0.507669   0.005357   0.000022  -0.004229  -0.000179
    32  C    0.005357   5.033083  -0.040241  -0.040652   0.399533
    33  H    0.000022  -0.040241   0.515685  -0.000211  -0.004405
    34  H   -0.004229  -0.040652  -0.000211   0.517994  -0.004496
    35  H   -0.000179   0.399533  -0.004405  -0.004496   0.517915
 Mulliken atomic charges:
              1
     1  C   -0.527076
     2  H    0.197178
     3  C    0.053002
     4  C   -0.138880
     5  C   -0.166392
     6  C   -0.169162
     7  H    0.169373
     8  C   -0.176363
     9  H    0.202179
    10  C   -0.152175
    11  H    0.162223
    12  H    0.162658
    13  H    0.163504
    14  C    0.053002
    15  C   -0.166392
    16  C   -0.138880
    17  C   -0.176363
    18  H    0.202179
    19  C   -0.169162
    20  H    0.169373
    21  C   -0.152175
    22  H    0.162658
    23  H    0.162223
    24  H    0.163504
    25  C    0.053002
    26  C   -0.166392
    27  C   -0.138880
    28  C   -0.176363
    29  H    0.202179
    30  C   -0.169162
    31  H    0.169373
    32  C   -0.152175
    33  H    0.162658
    34  H    0.162223
    35  H    0.163504
 Sum of Mulliken atomic charges =   0.00000
 Mulliken charges with hydrogens summed into heavy atoms:
              1
     1  C   -0.329897
     3  C    0.053002
     4  C    0.030493
     5  C    0.035787
     6  C   -0.006939
     8  C   -0.013706
    10  C    0.011329
    14  C    0.053002
    15  C    0.035787
    16  C    0.030493
    17  C   -0.013706
    19  C   -0.006939
    21  C    0.011329
    25  C    0.053002
    26  C    0.035787
    27  C    0.030493
    28  C   -0.013706
    30  C   -0.006939
    32  C    0.011329
 Sum of Mulliken charges with hydrogens summed into heavy atoms =   0.00000
 Electronic spatial extent (au):  <R**2>=           4915.9769
 Charge=              0.0000 electrons
 Dipole moment (field-independent basis, Debye):
    X=              0.0000    Y=              0.0000    Z=              0.0233  Tot=              0.0233
 Quadrupole moment (field-independent basis, Debye-Ang):
   XX=           -111.4714   YY=           -111.4714   ZZ=           -104.7093
   XY=              0.0000   XZ=              0.0000   YZ=              0.0000
 Traceless Quadrupole moment (field-independent basis, Debye-Ang):
   XX=             -2.2540   YY=             -2.2540   ZZ=              4.5080
   XY=              0.0000   XZ=              0.0000   YZ=              0.0000
 Octapole moment (field-independent basis, Debye-Ang**2):
  XXX=             13.8965  YYY=             39.4420  ZZZ=              0.7840  XYY=            -13.8965
  XXY=            -39.4420  XXZ=             -3.6422  XZZ=              0.0000  YZZ=              0.0000
  YYZ=             -3.6422  XYZ=              0.0000
 Hexadecapole moment (field-independent basis, Debye-Ang**3):
 XXXX=          -2984.7303 YYYY=          -2984.7303 ZZZZ=           -746.1846 XXXY=              0.0000
 XXXZ=             75.9991 YYYX=              0.0000 YYYZ=            -17.7515 ZZZX=              0.0000
 ZZZY=              0.0000 XXYY=           -994.9101 XXZZ=           -612.5328 YYZZ=           -612.5328
 XXYZ=             17.7515 YYXZ=            -75.9991 ZZXY=              0.0000
 N-N= 1.290551303029D+03 E-N=-4.277207401160D+03  KE= 7.286005091410D+02
 PrsmSu:  requested number of processors reduced to:  10 ShMem   1 Linda.
 Calling FoFJK, ICntrl=      2127 FMM=F ISym2X=1 I1Cent= 0 IOpClX= 0 NMat=1 NMatS=1 NMatT=0.
 ***** Axes restored to original set *****
 -------------------------------------------------------------------
 Center     Atomic                   Forces (Hartrees/Bohr)
 Number     Number              X              Y              Z
 -------------------------------------------------------------------
      1        6           0.000000000    0.000000000   -0.022790691
      2        1           0.000000000    0.000000000    0.025888523
      3        6           0.010065669   -0.009108487   -0.003061647
      4        6          -0.002416192   -0.001707326   -0.005430680
      5        6           0.000367796    0.008364823    0.006228865
      6        6           0.001351093   -0.010433048   -0.007789816
      7        1           0.008036872    0.001509011    0.015275053
      8        6           0.005270572   -0.000091843    0.011190099
      9        1           0.005240118   -0.017133731   -0.011992777
     10        6           0.008329943   -0.010128274    0.003712233
     11        1          -0.002020694    0.013044589    0.010086805
     12        1          -0.007938729   -0.000817977   -0.014635390
     13        1          -0.010150032    0.012504955   -0.004615356
     14        6           0.002855347    0.013271368   -0.003061647
     15        6          -0.007428047   -0.003863891    0.006228865
     16        6           0.002686684   -0.001238821   -0.005430680
     17        6          -0.002555748    0.004610371    0.011190099
     18        1           0.012218187    0.013104941   -0.011992777
     19        6           0.008359738    0.006386605   -0.007789816
     20        1          -0.005325278    0.006205630    0.015275053
     21        6           0.004606371    0.012278079    0.003712233
     22        1           0.004677753   -0.006466152   -0.014635390
     23        1          -0.010286598   -0.008272267    0.010086805
     24        1          -0.005754592   -0.015042663   -0.004615356
     25        6          -0.012921016   -0.004162881   -0.003061647
     26        6           0.007060251   -0.004500932    0.006228865
     27        6          -0.000270491    0.002946147   -0.005430680
     28        6          -0.002714825   -0.004518528    0.011190099
     29        1          -0.017458305    0.004028790   -0.011992777
     30        6          -0.009710831    0.004046443   -0.007789816
     31        1          -0.002711594   -0.007714641    0.015275053
     32        6          -0.012936314   -0.002149805    0.003712233
     33        1           0.003260976    0.007284129   -0.014635390
     34        1           0.012307292   -0.004772322    0.010086805
     35        1           0.015904625    0.002537709   -0.004615356
 -------------------------------------------------------------------
 Cartesian Forces:  Max     0.025888523 RMS     0.009019155

 GradGradGradGradGradGradGradGradGradGradGradGradGradGradGradGradGradGrad
 Berny optimization.
 Internal  Forces:  Max     0.025888523 RMS     0.006571448
 Search for a local minimum.
 Step number   1 out of a maximum of  197
 All quantities printed in internal units (Hartrees-Bohrs-Radians)
 Mixed Optimization -- RFO/linear search
 Second derivative matrix not updated -- first step.
     Eigenvalues ---    0.00657   0.00657   0.00657   0.01540   0.01540
     Eigenvalues ---    0.01540   0.02143   0.02143   0.02143   0.02171
     Eigenvalues ---    0.02171   0.02171   0.02182   0.02182   0.02182
     Eigenvalues ---    0.02201   0.02201   0.02201   0.02213   0.02213
     Eigenvalues ---    0.02213   0.02216   0.02216   0.02216   0.02217
     Eigenvalues ---    0.02217   0.02217   0.02218   0.02218   0.02218
     Eigenvalues ---    0.04657   0.06502   0.06502   0.15999   0.15999
     Eigenvalues ---    0.15999   0.16000   0.16000   0.16000   0.16000
     Eigenvalues ---    0.16000   0.16000   0.16000   0.16000   0.16000
     Eigenvalues ---    0.16000   0.16000   0.16000   0.19013   0.19013
     Eigenvalues ---    0.22000   0.22000   0.22000   0.22000   0.22000
     Eigenvalues ---    0.22000   0.23478   0.23478   0.23478   0.25000
     Eigenvalues ---    0.25000   0.25000   0.31291   0.31526   0.31526
     Eigenvalues ---    0.31526   0.33908   0.33908   0.33908   0.34108
     Eigenvalues ---    0.34108   0.34108   0.34263   0.34263   0.34263
     Eigenvalues ---    0.34264   0.34264   0.34264   0.34283   0.34283
     Eigenvalues ---    0.34283   0.42465   0.42465   0.42465   0.42576
     Eigenvalues ---    0.42576   0.42576   0.46402   0.46402   0.46402
     Eigenvalues ---    0.46781   0.46781   0.46781   0.47233   0.47233
     Eigenvalues ---    0.47233   0.47303   0.47303   0.473031000.00000
     Eigenvalues --- 1000.000001000.000001000.000001000.000001000.00000
     Eigenvalues --- 1000.000001000.000001000.000001000.000001000.00000
     Eigenvalues --- 1000.000001000.000001000.000001000.000001000.00000
     Eigenvalues --- 1000.000001000.000001000.000001000.000001000.00000
     Eigenvalues --- 1000.000001000.000001000.000001000.000001000.00000
     Eigenvalues --- 1000.000001000.000001000.000001000.000001000.00000
     Eigenvalues --- 1000.000001000.000001000.000001000.000001000.00000
     Eigenvalues --- 1000.000001000.000001000.000001000.000001000.00000
     Eigenvalues --- 1000.000001000.000001000.000001000.000001000.00000
     Eigenvalues --- 1000.000001000.000001000.000001000.000001000.00000
     Eigenvalues --- 1000.000001000.000001000.000001000.000001000.00000
     Eigenvalues --- 1000.000001000.000001000.000001000.000001000.00000
     Eigenvalues --- 1000.000001000.000001000.000001000.000001000.00000
     Eigenvalues --- 1000.000001000.000001000.000001000.000001000.00000
     Eigenvalues --- 1000.000001000.000001000.000001000.000001000.00000
     Eigenvalues --- 1000.000001000.000001000.000001000.000001000.00000
     Eigenvalues --- 1000.000001000.000001000.000001000.000001000.00000
     Eigenvalues --- 1000.000001000.00000
 RFO step:  Lambda=-2.70913741D-02 EMin= 6.56649782D-03
 Linear search not attempted -- first point.
 Maximum step size (   0.300) exceeded in Quadratic search.
    -- Step size scaled by   0.785
 Iteration  1 RMS(Cart)=  0.10426790 RMS(Int)=  0.00167578
 Iteration  2 RMS(Cart)=  0.00448308 RMS(Int)=  0.00031900
 Iteration  3 RMS(Cart)=  0.00000472 RMS(Int)=  0.00031899
 Iteration  4 RMS(Cart)=  0.00000000 RMS(Int)=  0.00031899
 ClnCor:  largest displacement from symmetrization is 1.05D-10 for atom    24.
 Variable       Old X    -DE/DX   Delta X   Delta X   Delta X     New X
                                 (Linear)    (Quad)   (Total)
    R1        2.12160  -0.02589   0.00000  -0.05980  -0.05980   2.06180
    R2        2.85020   0.01991   0.00000   0.04567   0.04567   2.89587
    R3        2.85020   0.01991   0.00000   0.04567   0.04567   2.89587
    R4        2.85020   0.01991   0.00000   0.04567   0.04567   2.89587
    R5        2.64094  -0.00435   0.00000  -0.00705  -0.00704   2.63390
    R6        2.63719  -0.00237   0.00000  -0.00373  -0.00373   2.63346
    R7        2.62638  -0.00374   0.00000  -0.00596  -0.00596   2.62043
    R8        2.07148  -0.01731   0.00000  -0.03693  -0.03693   2.03455
    R9        2.62771  -0.00302   0.00000  -0.00464  -0.00465   2.62306
   R10        2.07485  -0.02140   0.00000  -0.04589  -0.04589   2.02896
   R11        2.62834  -0.00620   0.00000  -0.00983  -0.00983   2.61851
   R12        2.06886  -0.01661   0.00000  -0.03529  -0.03529   2.03358
   R13        2.62701  -0.00575   0.00000  -0.00900  -0.00901   2.61800
   R14        2.06888  -0.01667   0.00000  -0.03541  -0.03541   2.03347
   R15        2.06856  -0.01675   0.00000  -0.03557  -0.03557   2.03299
   R16        2.63719  -0.00237   0.00000  -0.00373  -0.00373   2.63346
   R17        2.64094  -0.00435   0.00000  -0.00705  -0.00704   2.63390
   R18        2.62771  -0.00302   0.00000  -0.00464  -0.00465   2.62306
   R19        2.07485  -0.02140   0.00000  -0.04589  -0.04589   2.02896
   R20        2.62638  -0.00374   0.00000  -0.00596  -0.00596   2.62043
   R21        2.07148  -0.01731   0.00000  -0.03693  -0.03693   2.03455
   R22        2.62701  -0.00575   0.00000  -0.00900  -0.00901   2.61800
   R23        2.06888  -0.01667   0.00000  -0.03541  -0.03541   2.03347
   R24        2.62834  -0.00620   0.00000  -0.00983  -0.00983   2.61851
   R25        2.06886  -0.01661   0.00000  -0.03529  -0.03529   2.03358
   R26        2.06856  -0.01675   0.00000  -0.03557  -0.03557   2.03299
   R27        2.63719  -0.00237   0.00000  -0.00373  -0.00373   2.63346
   R28        2.64094  -0.00435   0.00000  -0.00705  -0.00704   2.63390
   R29        2.62771  -0.00302   0.00000  -0.00464  -0.00465   2.62306
   R30        2.07485  -0.02140   0.00000  -0.04589  -0.04589   2.02896
   R31        2.62638  -0.00374   0.00000  -0.00596  -0.00596   2.62043
   R32        2.07148  -0.01731   0.00000  -0.03693  -0.03693   2.03455
   R33        2.62701  -0.00575   0.00000  -0.00900  -0.00901   2.61800
   R34        2.06888  -0.01667   0.00000  -0.03541  -0.03541   2.03347
   R35        2.62834  -0.00620   0.00000  -0.00983  -0.00983   2.61851
   R36        2.06886  -0.01661   0.00000  -0.03529  -0.03529   2.03358
   R37        2.06856  -0.01675   0.00000  -0.03557  -0.03557   2.03299
    A1        1.86668  -0.00346   0.00000  -0.03687  -0.03615   1.83054
    A2        1.86668  -0.00346   0.00000  -0.03687  -0.03615   1.83054
    A3        1.86668  -0.00346   0.00000  -0.03687  -0.03615   1.83054
    A4        1.95246   0.00312   0.00000   0.03324   0.03101   1.98347
    A5        1.95246   0.00312   0.00000   0.03324   0.03101   1.98347
    A6        1.95246   0.00312   0.00000   0.03324   0.03101   1.98347
    A7        2.07415  -0.00218   0.00000  -0.00600  -0.00601   2.06813
    A8        2.12903   0.00988   0.00000   0.02819   0.02818   2.15721
    A9        2.08000  -0.00770   0.00000  -0.02218  -0.02216   2.05784
   A10        2.10020   0.00547   0.00000   0.01664   0.01666   2.11686
   A11        2.09413  -0.00347   0.00000  -0.01140  -0.01141   2.08273
   A12        2.08885  -0.00200   0.00000  -0.00525  -0.00526   2.08359
   A13        2.10071   0.00329   0.00000   0.01033   0.01032   2.11103
   A14        2.08629   0.00072   0.00000   0.00474   0.00474   2.09103
   A15        2.09614  -0.00401   0.00000  -0.01509  -0.01509   2.08104
   A16        2.09754  -0.00007   0.00000  -0.00100  -0.00100   2.09654
   A17        2.09155   0.00014   0.00000   0.00095   0.00095   2.09249
   A18        2.09410  -0.00007   0.00000   0.00005   0.00005   2.09415
   A19        2.09758   0.00126   0.00000   0.00386   0.00383   2.10140
   A20        2.09045  -0.00054   0.00000  -0.00156  -0.00155   2.08890
   A21        2.09516  -0.00072   0.00000  -0.00230  -0.00230   2.09286
   A22        2.09034  -0.00225   0.00000  -0.00764  -0.00767   2.08267
   A23        2.09618   0.00111   0.00000   0.00375   0.00376   2.09994
   A24        2.09667   0.00114   0.00000   0.00389   0.00390   2.10057
   A25        2.12903   0.00988   0.00000   0.02819   0.02818   2.15721
   A26        2.07415  -0.00218   0.00000  -0.00600  -0.00601   2.06813
   A27        2.08000  -0.00770   0.00000  -0.02218  -0.02216   2.05784
   A28        2.10071   0.00329   0.00000   0.01033   0.01032   2.11103
   A29        2.08629   0.00072   0.00000   0.00474   0.00474   2.09103
   A30        2.09614  -0.00401   0.00000  -0.01509  -0.01509   2.08104
   A31        2.10020   0.00547   0.00000   0.01664   0.01666   2.11686
   A32        2.09413  -0.00347   0.00000  -0.01140  -0.01141   2.08273
   A33        2.08885  -0.00200   0.00000  -0.00525  -0.00526   2.08359
   A34        2.09758   0.00126   0.00000   0.00386   0.00383   2.10140
   A35        2.09045  -0.00054   0.00000  -0.00156  -0.00155   2.08890
   A36        2.09516  -0.00072   0.00000  -0.00230  -0.00230   2.09286
   A37        2.09754  -0.00007   0.00000  -0.00100  -0.00100   2.09654
   A38        2.09155   0.00014   0.00000   0.00095   0.00095   2.09249
   A39        2.09410  -0.00007   0.00000   0.00005   0.00005   2.09415
   A40        2.09034  -0.00225   0.00000  -0.00764  -0.00767   2.08267
   A41        2.09667   0.00114   0.00000   0.00389   0.00390   2.10057
   A42        2.09618   0.00111   0.00000   0.00375   0.00376   2.09994
   A43        2.12903   0.00988   0.00000   0.02819   0.02818   2.15721
   A44        2.07415  -0.00218   0.00000  -0.00600  -0.00601   2.06813
   A45        2.08000  -0.00770   0.00000  -0.02218  -0.02216   2.05784
   A46        2.10071   0.00329   0.00000   0.01033   0.01032   2.11103
   A47        2.08629   0.00072   0.00000   0.00474   0.00474   2.09103
   A48        2.09614  -0.00401   0.00000  -0.01509  -0.01509   2.08104
   A49        2.10020   0.00547   0.00000   0.01664   0.01666   2.11686
   A50        2.09413  -0.00347   0.00000  -0.01140  -0.01141   2.08273
   A51        2.08885  -0.00200   0.00000  -0.00525  -0.00526   2.08359
   A52        2.09758   0.00126   0.00000   0.00386   0.00383   2.10140
   A53        2.09045  -0.00054   0.00000  -0.00156  -0.00155   2.08890
   A54        2.09516  -0.00072   0.00000  -0.00230  -0.00230   2.09286
   A55        2.09754  -0.00007   0.00000  -0.00100  -0.00100   2.09654
[...]
 7685,0.00005737,-0.00001814,0.00002538,-0.00124289,-0.00025725,0.00107
 049,0.00014775,-0.00007434,-0.00021853,-0.00019406,0.00029296,-0.00014
 682,-0.00008790,0.00016714,-0.00019503,-0.00002327,0.00000625,0.000131
 28,0.00017248,-0.00016261,-0.00006550,-0.00005820,-0.00001821,0.000002
 20,0.00002002,0.00014090,0.00018608,-0.00001285,0.00001732,-0.00000619
 ,-0.00000450,0.00000672,-0.00000190,-0.00000061,-0.00000604,0.00001222
 ,0.00030249,0.00058275,-0.00050647,-0.00021973,-0.00005929,-0.00008658
 ,0.00007725,0.00045942,-0.00002741,0.00026077,0.00031211,-0.00014622,0
 .00012752,-0.00015108,-0.00010845,0.00007630,-0.00026802,-0.00019503,-
 0.00003024,0.00000697,-0.00002463,-0.00018756,0.00001891,0.00024532,-0
 .00001196,0.00001676,0.00000236,0.00002567,0.00000670,0.00001371,0.000
 01348,0.00001510,0.00000010,0.00154366,-0.03928210,0.06386472,0.044210
 48,0.02458893,-0.04309650,0.01183956,0.04779361,-0.14875548,-0.0682463
 7,0.03211470,-0.03408927,0.00088305,-0.00041175,-0.00057563,0.03789187
 ,-0.28751562,0.58251227,0.00106537,0.00038932,-0.00122275,-0.00035853,
 0.00033255,0.00033449,0.00010761,0.00011968,0.00015257,0.00003829,-0.0
 0004634,0.00003240,0.00005424,-0.00010512,0.00003243,-0.00001115,0.000
 00281,0.00000909,0.00000646,0.00003002,-0.00001054,0.00001879,-0.00001
 364,0.00000944,0.00000244,0.00001187,-0.00000574,0.00002554,-0.0000217
 5,0.00000974,0.00000738,-0.00001541,-0.00000475,0.00001510,-0.00000784
 ,0.00001056,0.00000824,-0.00000643,0.00000241,-0.00001493,-0.00022563,
 -0.00011609,0.00005035,0.00004921,-0.00007832,-0.00002542,-0.00000811,
 0.00002243,-0.00000144,0.00002395,-0.00002005,0.00000684,0.00001522,0.
 00005680,-0.00003949,-0.00006110,0.00001705,-0.00004439,-0.00000066,0.
 00001392,-0.00001984,0.00005693,0.00001927,0.00000095,0.00001707,0.000
 02515,0.00001529,0.00001293,-0.00000478,0.00001061,0.00001432,0.000013
 26,0.00958434,0.01587649,-0.02242760,-0.00389042,0.00228221,-0.0030473
 3,-0.08577204,-0.03530234,0.05059531,-0.00111394,0.00022990,-0.0003137
 4,0.00039048,0.00072771,-0.00107806,-0.00159449,-0.02157668,0.02995089
 ,0.08663390,-0.00160351,-0.00237402,-0.00113825,0.00069278,0.00034728,
 -0.00131132,0.00020452,-0.00001215,-0.00037065,0.00010937,0.00002736,0
 .00016041,-0.00001458,0.00011410,-0.00008174,-0.00003182,-0.00000456,-
 0.00002967,-0.00000576,-0.00004733,-0.00002771,-0.00005866,-0.00003261
 ,-0.00003124,-0.00000723,-0.00001056,-0.00001285,0.00001230,0.00000309
 ,0.00000559,0.00000380,-0.00000979,0.00000295,-0.00001591,0.00000024,0
 .00000046,-0.00000513,0.00000017,-0.00000539,-0.00021299,0.00017493,-0
 .00000993,-0.00003422,-0.00006109,0.00012726,-0.00001364,-0.00015479,0
 .00008018,0.00003221,-0.00008415,-0.00003288,0.00003113,0.00005005,-0.
 00006993,-0.00002720,0.00004024,0.00001703,0.00003511,0.00000352,-0.00
 001881,0.00002232,-0.00001986,-0.00004321,-0.00000706,-0.00001380,-0.0
 0001132,-0.00000271,-0.00000130,-0.00000717,0.00000082,0.00000382,-0.0
 0000753,-0.00519746,-0.00266508,0.01154695,0.00247445,0.00481875,0.004
 56897,-0.03530166,-0.15171630,0.14471056,0.00028708,-0.00033915,-0.000
 88058,-0.00029767,-0.00039242,0.00044699,0.00195654,0.00217566,0.00463
 223,0.03823472,0.14773009,0.00083664,-0.00249009,-0.00084877,-0.000593
 77,0.00012768,0.00039300,0.00015075,0.00018790,0.00032738,-0.00000444,
 -0.00004605,0.00006681,0.00007863,-0.00014586,0.00006038,-0.00001216,-
 0.00003134,-0.00002463,0.00000934,0.00002146,-0.00003109,0.00002867,-0
 .00001495,0.00004893,0.00001095,0.00001396,-0.00003721,0.00000780,-0.0
 0000161,0.00000558,0.00001178,-0.00000685,-0.00000358,0.00001224,-0.00
 000770,-0.00000059,0.00000499,0.00000018,-0.00000368,-0.00045903,-0.00
 006446,0.00035783,0.00027087,-0.00005744,-0.00007424,-0.00014321,-0.00
 037094,0.00009201,-0.00003230,-0.00021329,0.00000475,-0.00003216,0.000
 16676,-0.00006017,-0.00007017,0.00003563,0.00013128,-0.00001873,0.0000
 2299,-0.00003109,0.00005108,0.00000474,-0.00008394,-0.00001705,0.00001
 707,-0.00000283,0.00000117,0.00000096,-0.00001780,-0.00000264,0.000017
 74,-0.00000195,0.00883419,0.01139652,-0.01064619,-0.00348791,0.0043627
 4,0.00204280,0.04966874,0.14425416,-0.25165941,-0.00043214,-0.00090758
 ,0.00029801,0.00034573,0.00050237,-0.00074807,-0.00244412,0.00541682,-
 0.00177613,-0.05469561,-0.16236232,0.25994426,0.00084401,-0.00006237,-
 0.00019843,-0.00025495,0.00007953,0.00025535,-0.00002858,-0.00037020,-
 0.00004192,-0.00023272,0.00009293,-0.00004554,0.00006160,-0.00003204,0
 .00021344,0.00014812,-0.00011490,0.00007741,0.00001446,-0.00003713,-0.
 00002965,-0.00003130,0.00014619,0.00004778,0.00001594,-0.00000142,0.00
 001689,-0.00009292,-0.00001140,-0.00018026,-0.00002892,0.00003052,0.00
 002552,-0.00002630,0.00001160,-0.00001957,-0.00002193,0.00001409,-0.00
 000182,-0.00000330,0.00040621,0.00026307,-0.00003263,-0.00017087,0.000
 16297,-0.00004481,-0.00035305,-0.00013999,-0.00009971,-0.00011028,0.00
 001847,-0.00020999,0.00007267,0.00014553,-0.00002579,0.00007627,0.0001
 1201,0.00001280,0.00002911,-0.00000530,0.00004208,-0.00006654,-0.00010
 230,-0.00001602,-0.00005570,-0.00003418,-0.00002510,-0.00002975,-0.000
 01242,-0.00000410,-0.00001706,-0.00000288,-0.01006559,0.01899018,-0.02
 617649,-0.06230818,0.00110513,0.00056211,0.01907902,-0.02847300,0.0389
 4214,-0.27679423,0.08716511,-0.11892729,-0.00488731,-0.00155164,0.0024
 3642,-0.17308232,-0.05054731,0.07264840,-0.00619716,-0.00080412,0.0015
 6549,0.83864005,-0.00065670,-0.00189340,0.00030337,-0.00003496,-0.0000
 5248,-0.00074001,-0.00000928,0.00023304,0.00035776,0.00023120,-0.00013
 685,-0.00008611,-0.00013294,0.00018498,-0.00012299,-0.00015702,0.00014
 798,-0.00017188,-0.00000252,-0.00005416,0.00004187,0.00007461,-0.00020
 854,-0.00002516,-0.00002391,-0.00001132,-0.00001061,0.00006546,0.00011
 829,0.00018176,-0.00001508,0.00000759,-0.00000114,-0.00000559,-0.00000
 171,0.00000680,0.00000052,-0.00000315,0.00000144,-0.00097143,0.0004937
 8,-0.00013645,-0.00016350,-0.00002147,0.00000976,-0.00001095,0.0001669
 7,-0.00017633,0.00023015,0.00020255,-0.00012871,0.00023463,-0.00011037
 ,-0.00015852,0.00006930,-0.00019096,-0.00008779,-0.00000494,0.00001584
 ,-0.00000595,-0.00014340,-0.00001671,0.00016789,-0.00000776,0.00000990
 ,-0.00001113,0.00001435,-0.00002790,0.00001865,0.00000998,0.00000359,-
 0.00000885,0.01947997,-0.03893523,0.04495536,0.04169169,0.03577850,-0.
 03788827,-0.06872498,0.01067388,0.00195278,0.03481115,-0.14323999,0.08
 229969,-0.00160074,0.00581851,0.00409841,0.00121224,-0.17287014,0.1258
 1621,-0.00045899,0.00650470,0.00360303,0.01105151,0.36602466,0.0010040
 2,0.00145712,-0.00115342,0.00036282,0.00010563,0.00096818,0.00009817,-
 0.00024903,-0.00051962,-0.00038723,0.00011825,0.00010568,0.00025100,-0
 .00030840,0.00023180,0.00023485,-0.00024784,0.00024532,0.00002779,0.00
 003829,-0.00008394,-0.00011351,0.00032420,0.00003973,0.00002175,0.0000
 0282,0.00000275,-0.00009425,-0.00017254,-0.00027670,0.00000598,0.00000
 345,0.00000988,0.00000746,0.00000193,-0.00000760,-0.00000560,0.0000046
 9,-0.00000719,0.00101738,-0.00061050,0.00037603,0.00040366,0.00013166,
 0.00007312,-0.00004815,-0.00037645,0.00028443,-0.00029902,-0.00036000,
 0.00010789,-0.00015095,0.00018597,0.00006636,-0.00010437,0.00031916,0.
 00018608,-0.00000003,-0.00001123,0.00000558,0.00024754,0.00006523,-0.0
 0027670,0.00002644,0.00001406,0.00004701,-0.00002279,0.00003523,-0.000
 02640,-0.00000610,0.00000511,0.00000410,-0.02790768,0.04417605,-0.0702
 9809,-0.05702489,-0.03632761,0.06269503,0.09684146,-0.00044308,0.00650
 318,-0.04597530,0.08190907,-0.19712843,0.00288020,0.00414935,0.0032974
 2,-0.00063058,0.12651022,-0.26232549,0.00086453,0.00354947,0.00405982,
 -0.02703390,-0.26909221,0.55410811,0.00028862,-0.00075433,0.00115638,-
 0.00036956,-0.00010674,0.00016144,0.00022970,-0.00016429,0.00001211,-0
 .00001226,0.00005315,-0.00001201,-0.00000559,0.00005824,-0.00003732,0.
 00000966,0.00000288,-0.00000853,-0.00000578,-0.00002095,-0.00000625,0.
 00000425,0.00001407,-0.00002158,-0.00000632,-0.00002150,0.00001485,-0.
 00002406,0.00005106,-0.00002540,-0.00001180,0.00001000,0.00000899,-0.0
 0002731,0.00000055,-0.00000466,-0.00001512,0.00000379,0.00000308,-0.00
 012576,0.00015532,0.00013444,-0.00004072,-0.00004846,-0.00003443,-0.00
 003745,-0.00010296,-0.00005162,0.00000121,0.00000440,0.00000022,0.0000
 1190,0.00000466,0.00003157,-0.00000251,-0.00001474,0.00000807,0.000014
 24,0.00000834,-0.00001279,-0.00001046,-0.00002075,-0.00000205,0.000001
 41,-0.00001713,-0.00000917,-0.00000711,-0.00001354,0.00000154,-0.00000
 241,-0.00000807,-0.00000209,-0.00623424,-0.00057322,0.00098337,-0.0014
 1217,-0.02118695,0.02973433,-0.00125115,0.00032372,-0.00041260,-0.0862
 7057,-0.03551725,0.05047028,0.00130279,0.00030844,-0.00055297,-0.00375
 445,0.00224811,-0.00293518,0.00009216,-0.00005173,0.00004839,0.0111811
 6,0.01686721,-0.02360981,0.08497926,0.00002136,-0.00014339,0.00010738,
 -0.00015437,-0.00005084,-0.00000653,0.00008770,-0.00011414,0.00002162,
 0.00002322,0.00000839,0.00000246,-0.00004965,0.00007551,-0.00001263,-0
 .00002289,-0.00000304,-0.00001874,0.00000317,-0.00000707,-0.00002330,0
 .00001770,-0.00003054,-0.00000414,-0.00000214,-0.00001015,0.00000439,0
 .00000312,0.00001794,0.00001587,0.00000347,0.00000255,-0.00000268,-0.0
 0001495,0.00000267,-0.00000918,-0.00000403,0.00000616,-0.00000172,0.00
 000039,0.00011634,0.00009956,-0.00008652,-0.00005708,0.00000012,0.0000
 0156,-0.00007748,-0.00004049,-0.00000790,0.00001757,0.00000755,0.00001
 611,0.00002590,0.00005668,-0.00000439,0.00000550,0.00000054,0.00001641
 ,0.00000110,-0.00000675,-0.00000355,-0.00001756,-0.00000742,-0.0000016
 4,-0.00002605,-0.00001138,-0.00000544,-0.00000736,-0.00000221,-0.00000
 014,-0.00000850,0.00000070,-0.00056674,0.00638556,0.00321080,0.0017902
 5,0.00202564,0.00482578,0.00034252,-0.00034366,-0.00089260,-0.03549772
 ,-0.15331719,0.14663104,-0.00053183,-0.00284402,-0.00299379,0.00251068
 ,0.00549205,0.00478797,-0.00003750,-0.00086720,-0.00053832,-0.00628452
 ,-0.00208952,0.01083579,0.03830126,0.14916673,-0.00045873,0.00013447,-
 0.00029391,0.00008804,0.00003759,-0.00006466,-0.00000186,0.00011941,-0
 .00001648,0.00005665,-0.00004333,0.00001639,-0.00000724,-0.00001710,-0
 .00003752,-0.00003878,0.00001772,0.00000236,-0.00000277,0.00002744,-0.
 00000283,-0.00000105,-0.00003547,-0.00000134,-0.00001018,0.00000231,-0
 .00001107,0.00002673,-0.00002403,0.00004701,0.00001809,-0.00001783,-0.
 00001894,0.00001444,-0.00000226,0.00000611,0.00001781,-0.00000723,0.00
 000003,0.00012864,-0.00009081,-0.00003217,-0.00001220,0.00003280,0.000
 04327,0.00001868,0.00004343,0.00004700,0.00001010,-0.00001797,-0.00001
 995,0.00000133,-0.00000984,-0.00003664,-0.00000131,0.00002095,-0.00000
 190,-0.00000489,-0.00000938,-0.00000059,0.00001568,0.00001354,-0.00000
 760,-0.00000562,0.00000862,0.00000611,0.00000805,0.00001323,-0.0000064
 0,0.00000633,0.00001218,0.00000119,0.00157105,0.00342492,0.00384412,-0
 .00250102,0.00513774,-0.00161182,-0.00029156,-0.00094296,0.00036807,0.
 05058159,0.14640550,-0.25411870,0.00035468,-0.00294962,-0.00089869,-0.
 00339569,0.00477485,0.00233451,0.00004065,-0.00054296,-0.00051142,0.00
 864229,0.01056337,-0.00926293,-0.05456773,-0.16356423,0.26187683,-0.00
 058028,0.00087947,-0.00109572,0.00003578,0.00001208,0.00005171,-0.0002
 9863,-0.00034955,0.00018344,-0.00006711,0.00005116,-0.00004055,-0.0000
 4998,0.00010814,0.00000794,0.00002488,-0.00002076,-0.00001863,0.000007
 27,-0.00001756,-0.00000142,0.00002532,0.00002303,-0.00000733,-0.000001
 74,-0.00000859,0.00000659,-0.00003387,0.00002469,-0.00001911,-0.000006
 85,0.00002258,0.00000577,-0.00001552,0.00000868,-0.00001549,-0.0000118
 7,0.00001040,-0.00000237,-0.00005779,0.00021808,0.00009687,0.00001354,
 -0.00007216,-0.00003285,-0.00001509,-0.00011826,-0.00003259,-0.0000052
 1,-0.00000563,0.00002124,-0.00002099,0.00004247,0.00002825,0.00000021,
 -0.00001761,0.00002142,-0.00000048,0.00001994,-0.00001182,-0.00000822,
 -0.00004247,0.,-0.00000687,-0.00001285,-0.00002449,-0.00002049,-0.0000
 1471,-0.00000115,-0.00001266,-0.00001269,-0.00000637,-0.00474529,-0.00
 194417,0.00280163,-0.00010298,-0.00072191,0.00100846,-0.01815639,0.016
 16758,-0.02252053,0.00077430,-0.00131514,0.00197423,-0.00002317,0.0000
 7499,-0.00011443,-0.23255946,0.08749971,-0.12074698,0.00126701,-0.0004
 1546,0.00050490,0.01068429,-0.00573138,0.00799466,0.00029521,-0.000214
 57,0.00030023,0.24253511,-0.00024366,0.00005790,-0.00014338,0.00008229
 ,0.00003136,-0.00003762,-0.00015627,-0.00005281,-0.00005888,0.00000163
 ,0.00003522,0.00004814,0.00002354,-0.00002430,-0.00000186,0.00003492,-
 0.00001834,0.00001888,-0.00000192,0.00000671,0.00000054,-0.00001494,0.
 00004292,-0.00000696,-0.00001323,-0.00000855,0.00000165,-0.00001941,-0
 .00001913,-0.00003735,0.00000306,-0.00001024,0.00000114,0.00000058,0.0
 0000105,0.00000036,0.00000153,-0.00000407,0.00000139,-0.00003472,-0.00
 001193,-0.00000921,-0.00000753,-0.00001297,0.00001845,-0.00001519,0.00
 001603,-0.00000319,0.00001027,-0.00001714,0.00000285,-0.00001555,0.000
 00705,-0.00002499,0.00000853,0.00000231,0.00000247,0.00000074,-0.00000
 194,-0.00000678,0.00000313,-0.00001311,-0.00000691,-0.00000631,-0.0000
 0238,-0.00000675,0.00000481,0.00000341,-0.00000308,-0.00000100,0.00000
 608,-0.00000204,-0.00139393,0.00603645,0.00419114,-0.00059131,-0.00065
 737,-0.00035886,-0.00684540,0.00761239,-0.00274392,-0.00167007,0.00388
 888,0.00677767,0.00001854,-0.00081487,-0.00061788,0.08759192,-0.104573
 89,0.07761007,0.00036633,-0.00300282,-0.00307250,0.01714592,-0.0018951
 9,0.01013604,0.00073881,-0.00041573,0.00044643,-0.09454121,0.09658582,
 0.00036087,-0.00026638,0.00021795,-0.00003348,-0.00001239,-0.00004029,
 -0.00000427,-0.00000940,-0.00008307,-0.00002028,0.00001179,0.00003059,
 0.00000545,-0.00001685,0.00003697,0.00002080,-0.00003262,0.00001371,0.
 00000860,-0.00000055,-0.00001780,-0.00001389,0.00002275,0.00001417,0.0
 0000755,0.00000396,-0.00000326,-0.00000994,-0.00002008,-0.00002640,0.0
 0000324,0.00000054,0.00000196,0.00000115,0.00000244,-0.00000640,-0.000
 00130,0.00000418,-0.00000373,-0.00011329,0.00001745,0.00002033,0.00000
 028,-0.00002897,-0.00001369,-0.00000535,0.00000383,-0.00004488,0.00000
 769,0.00001089,0.00003089,-0.00000989,0.00003728,-0.00000064,0.0000075
 8,-0.00001618,-0.00000619,0.00000493,0.00000264,-0.00000358,-0.0000137
 5,-0.00002153,0.00000988,-0.00000682,-0.00000645,-0.00001894,-0.000001
 89,-0.00000557,0.00000196,-0.00000764,-0.00000551,-0.00000264,0.002483
 31,0.00414390,0.00329792,0.00099157,-0.00037070,-0.00044110,0.01000665
 ,-0.00296862,0.00975195,0.00241382,0.00675502,-0.00093629,-0.00009387,
 -0.00059085,-0.00042461,-0.12097885,0.07761447,-0.15684318,-0.00054559
 ,-0.00301533,-0.00090420,-0.02431550,0.01038545,-0.00887146,-0.0010752
 7,0.00048440,-0.00072526,0.13035654,-0.08924395,0.15675342,0.00007627,
 0.00001630,-0.00000520,-0.00002731,-0.00002485,0.00002214,-0.00001254,
 -0.00009321,0.00002403,-0.00003949,-0.00001707,-0.00001661,-0.00004296
 ,0.00004526,0.00005227,-0.00000025,-0.00002382,-0.00001982,0.00001208,
 -0.00001347,-0.00001404,0.00002199,-0.00002220,0.00002354,0.00002236,0
 .00001136,-0.00000182,-0.00000140,0.00001862,-0.00000138,-0.00000454,0
 .00001738,0.00000859,-0.00001053,0.00000338,-0.00001371,-0.00001225,0.
 00001322,-0.00000428,-0.00003225,0.00008897,0.00004131,0.00000680,-0.0
 0004518,-0.00004232,0.00000011,-0.00004261,-0.00003650,-0.00001190,0.0
 0002537,0.00003693,-0.00001235,0.00004561,0.00004209,0.00000168,-0.000
 01502,-0.00000493,0.00000719,0.00000703,-0.00000234,-0.00001417,-0.000
 01857,0.00000686,0.00000094,-0.00001306,-0.00001517,-0.00001119,-0.000
 01079,0.00000427,-0.00000917,-0.00001500,-0.00000156,0.00079378,0.0004
 1805,-0.00057584,-0.00166993,0.00259397,-0.00347005,0.00158998,-0.0005
 6933,0.00089995,-0.01825009,-0.00760619,0.01099542,-0.00104477,-0.0002
 8172,0.00041022,-0.00208375,0.00188899,-0.00256683,-0.00031816,0.00001
 137,0.00000309,-0.34620964,-0.04718786,0.07112444,0.00121522,0.0003515
 3,-0.00060046,0.00113802,-0.00046491,0.00057085,0.36493217,-0.00015191
 ,-0.00073968,-0.00051486,0.00005426,0.00006572,-0.00017288,-0.00002683
 ,-0.00000632,-0.00001700,-0.00001874,0.00000823,0.00002983,0.00001562,
 0.00000150,0.00000204,0.00000161,-0.00001222,0.00000412,0.00000003,0.0
 0000236,-0.00001116,-0.00000188,0.00001310,-0.00000578,-0.00000574,-0.
 00000788,-0.00000277,-0.00000842,0.00000088,-0.00000784,0.00000569,-0.
 00000205,-0.00000386,-0.00000455,-0.00000038,-0.00000060,0.00000127,0.
 00000022,-0.00000115,-0.00013393,0.00001681,0.00008021,-0.00002394,-0.
 00002479,0.00000951,-0.00000509,-0.00004476,-0.00002713,0.00000625,0.0
 0001261,0.00001101,0.00000224,0.00001920,0.00001450,-0.00000019,-0.000
 00738,0.00000355,0.00000574,0.00000121,-0.00000441,-0.00000500,-0.0000
 1091,0.00000250,-0.00000525,-0.00000990,-0.00001181,-0.00000193,-0.000
 00475,-0.00000096,-0.00000305,-0.00000285,-0.00000137,0.00051800,-0.00
 099762,0.00006594,0.00215696,0.00483358,0.00577262,-0.00019219,0.00369
 640,0.00705194,0.01564745,0.00756485,-0.00354427,0.00067441,0.00005953
 ,-0.00021233,-0.02106222,0.00232938,0.00411349,-0.00090570,-0.00018501
 ,0.00017861,-0.04732369,-0.06462564,0.02412012,-0.00053141,-0.00291910
 ,-0.00296154,0.00041366,-0.00277681,-0.00286908,0.05090849,0.05375247,
 -0.00002994,-0.00058578,-0.00029646,-0.00004523,0.00005942,-0.00003243
 ,-0.00001506,0.00005649,0.00000975,-0.00000838,-0.00004480,0.00001033,
 0.00001247,-0.00003345,0.00003937,-0.00000571,-0.00000242,0.00000010,-
 0.00000011,0.00001525,-0.00000195,0.00001230,-0.00001459,0.00000949,0.
 00000291,0.00000427,-0.00000887,0.00000910,0.00000193,0.00000410,0.000
 00495,-0.00000450,-0.00000264,0.00000043,-0.00000216,0.00000119,0.0000
 0197,-0.00000067,0.00000083,-0.00006745,-0.00005139,0.00006362,0.00001
 564,-0.00000833,0.00001432,-0.00000560,-0.00003210,0.00000368,-0.00000
 131,-0.00000788,0.00000113,-0.00001078,0.00002202,-0.00000777,-0.00000
 553,-0.00000065,0.00001222,-0.00000587,0.00000061,-0.00000368,0.000002
 16,0.00000086,-0.00000719,-0.00000303,-0.00000181,0.00000003,0.0000023
 9,0.00000136,-0.00000373,0.00000114,0.00000428,0.00000083,-0.00048893,
 0.00011295,-0.00113697,-0.00291756,0.00572001,0.00107623,0.00034574,0.
 00709103,-0.00136027,-0.02132537,-0.00332954,0.01020951,-0.00088535,-0
 .00021115,0.00022490,0.02985209,0.00390739,-0.00083336,0.00135856,0.00
 016174,-0.00036583,0.07113217,0.02408850,-0.08317950,0.00061237,-0.002
 95656,-0.00091217,-0.00067206,-0.00287114,-0.00076407,-0.07687311,-0.0
 3108919,0.07723526||0.,0.,0.00004298,0.,0.,0.00001849,0.00000087,-0.00
 002901,-0.00007131,-0.00001417,0.00005533,0.00001420,0.00004730,-0.000
 04576,0.00004736,0.00003837,-0.00002475,0.00004001,-0.00000793,-0.0000
 0792,-0.00001120,-0.00004033,0.00005999,0.00000562,-0.00000218,0.00001
 245,0.00000562,-0.00002118,-0.00002422,-0.00005479,-0.00000579,-0.0000
 0454,-0.00000759,0.00001027,-0.00000111,0.00000404,0.00001117,-0.00000
 436,0.00000754,0.00002468,0.00001526,-0.00007131,0.00001598,0.00006384
 ,0.00004736,-0.00004083,-0.00003994,0.00001420,-0.00003178,-0.00006492
 ,0.00000562,-0.00000969,-0.00000812,0.00000562,0.00000225,0.00004560,0
 .00004001,0.00001083,-0.00000290,-0.00001120,0.00003156,-0.00000623,-0
 .00005479,-0.00000417,0.00000945,0.00000404,0.00000683,-0.00000274,-0.
 00000759,-0.00000181,0.00001186,0.00000754,-0.00002556,0.00001375,-0.0
 0007131,-0.00006328,-0.00001808,0.00004736,0.00005500,-0.00001539,0.00
 001420,0.00007212,0.00000493,0.00000562,0.00001187,-0.00000434,0.00000
 562,-0.00004062,-0.00002086,0.00004001,-0.00000290,0.00001083,-0.00001
 120,-0.00001038,0.00003045,-0.00005479,-0.00000610,-0.00000834,0.00000
 404,-0.00000104,0.00000728,-0.00000759,-0.00000936,-0.00000750,0.00000
 754|||@


 A MAN IS NEVER SO BRILLIANT AS WHEN HE TAKES THE WORDS RIGHT OUT
 OF YOUR MOUTH. -- ARNOT SHEPPARD, JR.
 Job cpu time:  0 days  0 hours  3 minutes 33.0 seconds.
 File lengths (MBytes):  RWF=    178 Int=      0 D2E=      0 Chk=      7 Scr=      1
 Normal termination of Gaussian 09 at Mon Sep 06 14:13:01 2021.
