 Entering Link 1 = b:\programy\g09w\l1.exe PID=     11984.
  
 Copyright (c) 1988,1990,1992,1993,1995,1998,2003,2009, Gaussian, Inc.
                  All Rights Reserved.
  
 This is part of the Gaussian(R) 09 program.  It is based on
 the Gaussian(R) 03 system (copyright 2003, Gaussian, Inc.),
 the Gaussian(R) 98 system (copyright 1998, Gaussian, Inc.),
 the Gaussian(R) 94 system (copyright 1995, Gaussian, Inc.),
 the Gaussian 92(TM) system (copyright 1992, Gaussian, Inc.),
 the Gaussian 90(TM) system (copyright 1990, Gaussian, Inc.),
 the Gaussian 88(TM) system (copyright 1988, Gaussian, Inc.),
 the Gaussian 86(TM) system (copyright 1986, Carnegie Mellon
 University), and the Gaussian 82(TM) system (copyright 1983,
 Carnegie Mellon University). Gaussian is a federally registered
 trademark of Gaussian, Inc.
  
 This software contains proprietary and confidential information,
 including trade secrets, belonging to Gaussian, Inc.
  
 This software is provided under written license and may be
 used, copied, transmitted, or stored only in accord with that
 written license.
  
 The following legend is applicable only to US Government
 contracts under FAR:
  
                    RESTRICTED RIGHTS LEGEND
  
 Use, reproduction and disclosure by the US Government is
 subject to restrictions as set forth in subparagraphs (a)
 and (c) of the Commercial Computer Software - Restricted
 Rights clause in FAR 52.227-19.
  
 Gaussian, Inc.
 340 Quinnipiac St., Bldg. 40, Wallingford CT 06492
  
  
 ---------------------------------------------------------------
 Warning -- This program may not be used in any manner that
 competes with the business of Gaussian, Inc. or will provide
 assistance to any competitor of Gaussian, Inc.  The licensee
 of this program is prohibited from giving any competitor of
 Gaussian, Inc. access to this program.  By using this program,
 the user acknowledges that Gaussian, Inc. is engaged in the
 business of creating and licensing software in the field of
 computational chemistry and represents and warrants to the
 licensee that it is not a competitor of Gaussian, Inc. and that
 it will not use this program in any manner prohibited above.
 ---------------------------------------------------------------
  

 Cite this work as:
 Gaussian 09, Revision A.02,
 M. J. Frisch, G. W. Trucks, H. B. Schlegel, G. E. Scuseria, 
 M. A. Robb, J. R. Cheeseman, G. Scalmani, V. Barone, B. Mennucci, 
 G. A. Petersson, H. Nakatsuji, M. Caricato, X. Li, H. P. Hratchian, 
 A. F. Izmaylov, J. Bloino, G. Zheng, J. L. Sonnenberg, M. Hada, 
 M. Ehara, K. Toyota, R. Fukuda, J. Hasegawa, M. Ishida, T. Nakajima, 
 Y. Honda, O. Kitao, H. Nakai, T. Vreven, J. A. Montgomery, Jr., 
 J. E. Peralta, F. Ogliaro, M. Bearpark, J. J. Heyd, E. Brothers, 
 K. N. Kudin, V. N. Staroverov, R. Kobayashi, J. Normand, 
 K. Raghavachari, A. Rendell, J. C. Burant, S. S. Iyengar, J. Tomasi, 
 M. Cossi, N. Rega, J. M. Millam, M. Klene, J. E. Knox, J. B. Cross, 
 V. Bakken, C. Adamo, J. Jaramillo, R. Gomperts, R. E. Stratmann, 
 O. Yazyev, A. J. Austin, R. Cammi, C. Pomelli, J. W. Ochterski, 
 R. L. Martin, K. Morokuma, V. G. Zakrzewski, G. A. Voth, 
 P. Salvador, J. J. Dannenberg, S. Dapprich, A. D. Daniels, 
 O. Farkas, J. B. Foresman, J. V. Ortiz, J. Cioslowski, 
 and D. J. Fox, Gaussian, Inc., Wallingford CT, 2009.
 
 ******************************************
 Gaussian 09:  IA32W-G09RevA.02 11-Jun-2009
                06-Sep-2021 
 ******************************************
 %nprocshared=12
 Will use up to   12 processors via shared memory.
 ----------------------------------------------
 # opt freq=noraman hf/6-311g geom=connectivity
 ----------------------------------------------
 1/18=20,19=15,38=1,57=2/1,3;
 2/9=110,12=2,17=6,18=5,40=1/2;
 3/5=4,6=6,11=9,16=1,25=1,30=1,71=1/1,2,3;
 4//1;
 5/5=2,38=5/2;
 6/7=2,8=2,9=2,10=2,28=1/1;
 7//1,2,3,16;
 1/18=20,19=15/3(2);
 2/9=110/2;
 99//99;
 2/9=110/2;
 3/5=4,6=6,11=9,16=1,25=1,30=1,71=1/1,2,3;
 4/5=5,16=3/1;
 5/5=2,38=5/2;
 7//1,2,3,16;
 1/18=20,19=15/3(-5);
 2/9=110/2;
 6/7=2,8=2,9=2,10=2,19=2,28=1/1;
 99/9=1/99;
 -----
 M0001
 -----
 Symbolic Z-matrix:
 Charge =  0 Multiplicity = 1
 C                     0.        0.        0.79556 
 H                     0.        0.        1.91825 
 C                     0.00898  -1.44341   0.35528 
 C                     0.5555   -1.83982  -0.86614 
 C                    -0.54996  -2.40889   1.19704 
 C                     0.54511  -3.17934  -1.23909 
 H                     1.00374  -1.08728  -1.52822 
 C                    -0.56126  -3.74663   0.82039 
 H                    -0.98473  -2.11192   2.15848 
 C                    -0.01351  -4.13471  -0.39779 
 H                     0.97978  -3.48014  -2.19784 
 H                    -1.00231  -4.49609   1.48555 
 H                    -0.02135  -5.18896  -0.69226 
 C                    -1.25452   0.71393   0.35528 
 C                    -1.87109   0.43883  -0.86614 
 C                    -1.81118   1.68072   1.19704 
 C                    -3.02594   1.11759  -1.23909 
 H                    -1.44348  -0.32562  -1.52822 
 C                    -2.96404   2.35938   0.82039 
 H                    -1.33661   1.90877   2.15848 
 C                    -3.57401   2.07906  -0.39779 
 H                    -3.50378   0.89156  -2.19784 
 H                    -3.39257   3.11607   1.48555 
 H                    -4.4831    2.61298  -0.69226 
 C                     1.24554   0.72948   0.35528 
 C                     2.36113   0.72817   1.19704 
 C                     1.31558   1.40099  -0.86614 
 C                     3.52531   1.38725   0.82039 
 H                     2.32135   0.20316   2.15848 
 C                     2.48083   2.06175  -1.23909 
 H                     0.43974   1.4129   -1.52822 
 C                     3.58752   2.05565  -0.39779 
 H                     4.39488   1.38002   1.48555 
 H                     2.524     2.58858  -2.19784 
 H                     4.50445   2.57599  -0.69226 
 

 GradGradGradGradGradGradGradGradGradGradGradGradGradGradGradGradGradGrad
 Berny optimization.
 Initialization pass.
                           ----------------------------
                           !    Initial Parameters    !
                           ! (Angstroms and Degrees)  !
 --------------------------                            --------------------------
 ! Name  Definition              Value          Derivative Info.                !
 --------------------------------------------------------------------------------
 ! R1    R(1,2)                  1.1227         estimate D2E/DX2                !
 ! R2    R(1,3)                  1.5091         estimate D2E/DX2                !
 ! R3    R(1,14)                 1.5091         estimate D2E/DX2                !
 ! R4    R(1,25)                 1.5091         estimate D2E/DX2                !
 ! R5    R(3,4)                  1.3956         estimate D2E/DX2                !
 ! R6    R(3,5)                  1.3975         estimate D2E/DX2                !
 ! R7    R(4,6)                  1.3905         estimate D2E/DX2                !
 ! R8    R(4,7)                  1.098          estimate D2E/DX2                !
 ! R9    R(5,8)                  1.3898         estimate D2E/DX2                !
 ! R10   R(5,9)                  1.0962         estimate D2E/DX2                !
 ! R11   R(6,10)                 1.3902         estimate D2E/DX2                !
 ! R12   R(6,11)                 1.0948         estimate D2E/DX2                !
 ! R13   R(8,10)                 1.3909         estimate D2E/DX2                !
 ! R14   R(8,12)                 1.0948         estimate D2E/DX2                !
 ! R15   R(10,13)                1.0946         estimate D2E/DX2                !
 ! R16   R(14,15)                1.3956         estimate D2E/DX2                !
 ! R17   R(14,16)                1.3975         estimate D2E/DX2                !
 ! R18   R(15,17)                1.3905         estimate D2E/DX2                !
 ! R19   R(15,18)                1.098          estimate D2E/DX2                !
 ! R20   R(16,19)                1.3898         estimate D2E/DX2                !
 ! R21   R(16,20)                1.0962         estimate D2E/DX2                !
 ! R22   R(17,21)                1.3902         estimate D2E/DX2                !
 ! R23   R(17,22)                1.0948         estimate D2E/DX2                !
 ! R24   R(19,21)                1.3909         estimate D2E/DX2                !
 ! R25   R(19,23)                1.0948         estimate D2E/DX2                !
 ! R26   R(21,24)                1.0946         estimate D2E/DX2                !
 ! R27   R(25,26)                1.3975         estimate D2E/DX2                !
 ! R28   R(25,27)                1.3956         estimate D2E/DX2                !
 ! R29   R(26,28)                1.3898         estimate D2E/DX2                !
 ! R30   R(26,29)                1.0962         estimate D2E/DX2                !
 ! R31   R(27,30)                1.3905         estimate D2E/DX2                !
 ! R32   R(27,31)                1.098          estimate D2E/DX2                !
 ! R33   R(28,32)                1.3909         estimate D2E/DX2                !
 ! R34   R(28,33)                1.0948         estimate D2E/DX2                !
 ! R35   R(30,32)                1.3902         estimate D2E/DX2                !
 ! R36   R(30,34)                1.0948         estimate D2E/DX2                !
 ! R37   R(32,35)                1.0946         estimate D2E/DX2                !
 ! A1    A(2,1,3)              106.963          estimate D2E/DX2                !
 ! A2    A(2,1,14)             106.963          estimate D2E/DX2                !
 ! A3    A(2,1,25)             106.963          estimate D2E/DX2                !
 ! A4    A(3,1,14)             111.8588         estimate D2E/DX2                !
 ! A5    A(3,1,25)             111.8588         estimate D2E/DX2                !
 ! A6    A(14,1,25)            111.8588         estimate D2E/DX2                !
 ! A7    A(1,3,4)              121.962          estimate D2E/DX2                !
 ! A8    A(1,3,5)              118.8595         estimate D2E/DX2                !
 ! A9    A(4,3,5)              119.1784         estimate D2E/DX2                !
 ! A10   A(3,4,6)              120.3609         estimate D2E/DX2                !
 ! A11   A(3,4,7)              119.5328         estimate D2E/DX2                !
 ! A12   A(6,4,7)              120.1036         estimate D2E/DX2                !
 ! A13   A(3,5,8)              120.3302         estimate D2E/DX2                !
 ! A14   A(3,5,9)              119.9843         estimate D2E/DX2                !
 ! A15   A(8,5,9)              119.6853         estimate D2E/DX2                !
 ! A16   A(4,6,10)             120.18           estimate D2E/DX2                !
 ! A17   A(4,6,11)             119.7745         estimate D2E/DX2                !
 ! A18   A(10,6,11)            120.0455         estimate D2E/DX2                !
 ! A19   A(5,8,10)             120.1799         estimate D2E/DX2                !
 ! A20   A(5,8,12)             119.837          estimate D2E/DX2                !
 ! A21   A(10,8,12)            119.9831         estimate D2E/DX2                !
 ! A22   A(6,10,8)             119.7704         estimate D2E/DX2                !
 ! A23   A(6,10,13)            120.1296         estimate D2E/DX2                !
 ! A24   A(8,10,13)            120.1            estimate D2E/DX2                !
 ! A25   A(1,14,15)            121.962          estimate D2E/DX2                !
 ! A26   A(1,14,16)            118.8595         estimate D2E/DX2                !
 ! A27   A(15,14,16)           119.1784         estimate D2E/DX2                !
 ! A28   A(14,15,17)           120.3609         estimate D2E/DX2                !
 ! A29   A(14,15,18)           119.5328         estimate D2E/DX2                !
 ! A30   A(17,15,18)           120.1036         estimate D2E/DX2                !
 ! A31   A(14,16,19)           120.3302         estimate D2E/DX2                !
 ! A32   A(14,16,20)           119.9843         estimate D2E/DX2                !
 ! A33   A(19,16,20)           119.6853         estimate D2E/DX2                !
 ! A34   A(15,17,21)           120.18           estimate D2E/DX2                !
 ! A35   A(15,17,22)           119.7745         estimate D2E/DX2                !
 ! A36   A(21,17,22)           120.0455         estimate D2E/DX2                !
 ! A37   A(16,19,21)           120.1799         estimate D2E/DX2                !
 ! A38   A(16,19,23)           119.837          estimate D2E/DX2                !
 ! A39   A(21,19,23)           119.9831         estimate D2E/DX2                !
 ! A40   A(17,21,19)           119.7704         estimate D2E/DX2                !
 ! A41   A(17,21,24)           120.1296         estimate D2E/DX2                !
 ! A42   A(19,21,24)           120.1            estimate D2E/DX2                !
 ! A43   A(1,25,26)            118.8595         estimate D2E/DX2                !
 ! A44   A(1,25,27)            121.962          estimate D2E/DX2                !
 ! A45   A(26,25,27)           119.1784         estimate D2E/DX2                !
 ! A46   A(25,26,28)           120.3302         estimate D2E/DX2                !
 ! A47   A(25,26,29)           119.9843         estimate D2E/DX2                !
 ! A48   A(28,26,29)           119.6853         estimate D2E/DX2                !
 ! A49   A(25,27,30)           120.3609         estimate D2E/DX2                !
 ! A50   A(25,27,31)           119.5328         estimate D2E/DX2                !
 ! A51   A(30,27,31)           120.1036         estimate D2E/DX2                !
 ! A52   A(26,28,32)           120.1799         estimate D2E/DX2                !
 ! A53   A(26,28,33)           119.837          estimate D2E/DX2                !
 ! A54   A(32,28,33)           119.9831         estimate D2E/DX2                !
 ! A55   A(27,30,32)           120.18           estimate D2E/DX2                !
 ! A56   A(27,30,34)           119.7745         estimate D2E/DX2                !
 ! A57   A(32,30,34)           120.0455         estimate D2E/DX2                !
 ! A58   A(28,32,30)           119.7704         estimate D2E/DX2                !
 ! A59   A(28,32,35)           120.1            estimate D2E/DX2                !
 ! A60   A(30,32,35)           120.1296         estimate D2E/DX2                !
 ! D1    D(2,1,3,4)           -152.6459         estimate D2E/DX2                !
 ! D2    D(2,1,3,5)             27.4875         estimate D2E/DX2                !
 ! D3    D(14,1,3,4)            90.5451         estimate D2E/DX2                !
 ! D4    D(14,1,3,5)           -89.3214         estimate D2E/DX2                !
 ! D5    D(25,1,3,4)           -35.837          estimate D2E/DX2                !
 ! D6    D(25,1,3,5)           144.2965         estimate D2E/DX2                !
 ! D7    D(2,1,14,15)         -152.6459         estimate D2E/DX2                !
 ! D8    D(2,1,14,16)           27.4875         estimate D2E/DX2                !
 ! D9    D(3,1,14,15)          -35.837          estimate D2E/DX2                !
 ! D10   D(3,1,14,16)          144.2965         estimate D2E/DX2                !
 ! D11   D(25,1,14,15)          90.5451         estimate D2E/DX2                !
 ! D12   D(25,1,14,16)         -89.3214         estimate D2E/DX2                !
 ! D13   D(2,1,25,26)           27.4875         estimate D2E/DX2                !
 ! D14   D(2,1,25,27)         -152.6459         estimate D2E/DX2                !
 ! D15   D(3,1,25,26)          -89.3214         estimate D2E/DX2                !
 ! D16   D(3,1,25,27)           90.5451         estimate D2E/DX2                !
 ! D17   D(14,1,25,26)         144.2965         estimate D2E/DX2                !
 ! D18   D(14,1,25,27)         -35.837          estimate D2E/DX2                !
 ! D19   D(1,3,4,6)           -179.9529         estimate D2E/DX2                !
 ! D20   D(1,3,4,7)              0.6462         estimate D2E/DX2                !
 ! D21   D(5,3,4,6)             -0.0868         estimate D2E/DX2                !
 ! D22   D(5,3,4,7)           -179.4877         estimate D2E/DX2                !
 ! D23   D(1,3,5,8)            179.8296         estimate D2E/DX2                !
 ! D24   D(1,3,5,9)             -0.003          estimate D2E/DX2                !
 ! D25   D(4,3,5,8)             -0.0407         estimate D2E/DX2                !
 ! D26   D(4,3,5,9)           -179.8733         estimate D2E/DX2                !
 ! D27   D(3,4,6,10)             0.1467         estimate D2E/DX2                !
 ! D28   D(3,4,6,11)          -179.7765         estimate D2E/DX2                !
 ! D29   D(7,4,6,10)           179.5442         estimate D2E/DX2                !
 ! D30   D(7,4,6,11)            -0.379          estimate D2E/DX2                !
 ! D31   D(3,5,8,10)             0.1089         estimate D2E/DX2                !
 ! D32   D(3,5,8,12)          -179.927          estimate D2E/DX2                !
 ! D33   D(9,5,8,10)           179.942          estimate D2E/DX2                !
 ! D34   D(9,5,8,12)            -0.0939         estimate D2E/DX2                !
 ! D35   D(4,6,10,8)            -0.078          estimate D2E/DX2                !
 ! D36   D(4,6,10,13)          179.9929         estimate D2E/DX2                !
 ! D37   D(11,6,10,8)          179.8449         estimate D2E/DX2                !
 ! D38   D(11,6,10,13)          -0.0841         estimate D2E/DX2                !
 ! D39   D(5,8,10,6)            -0.0494         estimate D2E/DX2                !
 ! D40   D(5,8,10,13)          179.8797         estimate D2E/DX2                !
 ! D41   D(12,8,10,6)          179.9866         estimate D2E/DX2                !
 ! D42   D(12,8,10,13)          -0.0844         estimate D2E/DX2                !
 ! D43   D(1,14,15,17)        -179.9529         estimate D2E/DX2                !
 ! D44   D(1,14,15,18)           0.6462         estimate D2E/DX2                !
 ! D45   D(16,14,15,17)         -0.0868         estimate D2E/DX2                !
 ! D46   D(16,14,15,18)       -179.4877         estimate D2E/DX2                !
 ! D47   D(1,14,16,19)         179.8296         estimate D2E/DX2                !
 ! D48   D(1,14,16,20)          -0.003          estimate D2E/DX2                !
 ! D49   D(15,14,16,19)         -0.0407         estimate D2E/DX2                !
 ! D50   D(15,14,16,20)       -179.8733         estimate D2E/DX2                !
 ! D51   D(14,15,17,21)          0.1467         estimate D2E/DX2                !
 ! D52   D(14,15,17,22)       -179.7765         estimate D2E/DX2                !
 ! D53   D(18,15,17,21)        179.5442         estimate D2E/DX2                !
 ! D54   D(18,15,17,22)         -0.379          estimate D2E/DX2                !
 ! D55   D(14,16,19,21)          0.1089         estimate D2E/DX2                !
 ! D56   D(14,16,19,23)       -179.927          estimate D2E/DX2                !
 ! D57   D(20,16,19,21)        179.942          estimate D2E/DX2                !
 ! D58   D(20,16,19,23)         -0.0939         estimate D2E/DX2                !
 ! D59   D(15,17,21,19)         -0.078          estimate D2E/DX2                !
 ! D60   D(15,17,21,24)        179.9929         estimate D2E/DX2                !
 ! D61   D(22,17,21,19)        179.8449         estimate D2E/DX2                !
 ! D62   D(22,17,21,24)         -0.0841         estimate D2E/DX2                !
 ! D63   D(16,19,21,17)         -0.0494         estimate D2E/DX2                !
 ! D64   D(16,19,21,24)        179.8797         estimate D2E/DX2                !
 ! D65   D(23,19,21,17)        179.9866         estimate D2E/DX2                !
 ! D66   D(23,19,21,24)         -0.0844         estimate D2E/DX2                !
 ! D67   D(1,25,26,28)         179.8296         estimate D2E/DX2                !
 ! D68   D(1,25,26,29)          -0.003          estimate D2E/DX2                !
 ! D69   D(27,25,26,28)         -0.0407         estimate D2E/DX2                !
 ! D70   D(27,25,26,29)       -179.8733         estimate D2E/DX2                !
 ! D71   D(1,25,27,30)        -179.9529         estimate D2E/DX2                !
 ! D72   D(1,25,27,31)           0.6462         estimate D2E/DX2                !
 ! D73   D(26,25,27,30)         -0.0868         estimate D2E/DX2                !
 ! D74   D(26,25,27,31)       -179.4877         estimate D2E/DX2                !
 ! D75   D(25,26,28,32)          0.1089         estimate D2E/DX2                !
 ! D76   D(25,26,28,33)       -179.927          estimate D2E/DX2                !
 ! D77   D(29,26,28,32)        179.942          estimate D2E/DX2                !
 ! D78   D(29,26,28,33)         -0.0939         estimate D2E/DX2                !
 ! D79   D(25,27,30,32)          0.1467         estimate D2E/DX2                !
 ! D80   D(25,27,30,34)       -179.7765         estimate D2E/DX2                !
 ! D81   D(31,27,30,32)        179.5442         estimate D2E/DX2                !
 ! D82   D(31,27,30,34)         -0.379          estimate D2E/DX2                !
 ! D83   D(26,28,32,30)         -0.0494         estimate D2E/DX2                !
 ! D84   D(26,28,32,35)        179.8797         estimate D2E/DX2                !
 ! D85   D(33,28,32,30)        179.9866         estimate D2E/DX2                !
 ! D86   D(33,28,32,35)         -0.0844         estimate D2E/DX2                !
 ! D87   D(27,30,32,28)         -0.078          estimate D2E/DX2                !
 ! D88   D(27,30,32,35)        179.9929         estimate D2E/DX2                !
 ! D89   D(34,30,32,28)        179.8449         estimate D2E/DX2                !
 ! D90   D(34,30,32,35)         -0.0841         estimate D2E/DX2                !
 --------------------------------------------------------------------------------
 Trust Radius=3.00D-01 FncErr=1.00D-07 GrdErr=1.00D-07
 Number of steps in this run= 197 maximum allowed number of steps= 210.
 GradGradGradGradGradGradGradGradGradGradGradGradGradGradGradGradGradGrad

                          Input orientation:                          
 ---------------------------------------------------------------------
 Center     Atomic      Atomic             Coordinates (Angstroms)
 Number     Number       Type             X           Y           Z
 ---------------------------------------------------------------------
      1          6           0        0.000000    0.000000    0.795560
      2          1           0        0.000000    0.000000    1.918253
      3          6           0        0.008981   -1.443407    0.355277
      4          6           0        0.555502   -1.839824   -0.866138
      5          6           0       -0.549956   -2.408886    1.197042
      6          6           0        0.545108   -3.179337   -1.239092
      7          1           0        1.003738   -1.087280   -1.528225
      8          6           0       -0.561263   -3.746627    0.820392
      9          1           0       -0.984734   -2.111923    2.158482
     10          6           0       -0.013512   -4.134711   -0.397789
     11          1           0        0.979778   -3.480136   -2.197839
     12          1           0       -1.002306   -4.496089    1.485548
     13          1           0       -0.021355   -5.188965   -0.692262
     14          6           0       -1.254518    0.713926    0.355277
     15          6           0       -1.871085    0.438833   -0.866138
     16          6           0       -1.811178    1.680719    1.197042
     17          6           0       -3.025941    1.117591   -1.239092
     18          1           0       -1.443481   -0.325623   -1.528225
     19          6           0       -2.964043    2.359381    0.820392
     20          1           0       -1.336612    1.908766    2.158482
     21          6           0       -3.574009    2.079057   -0.397789
     22          1           0       -3.503775    0.891556   -2.197839
     23          1           0       -3.392574    3.116067    1.485548
     24          1           0       -4.483098    2.612976   -0.692262
     25          6           0        1.245537    0.729481    0.355277
     26          6           0        2.361134    0.728167    1.197042
     27          6           0        1.315583    1.400991   -0.866138
     28          6           0        3.525305    1.387246    0.820392
     29          1           0        2.321346    0.203157    2.158482
     30          6           0        2.480832    2.061746   -1.239092
     31          1           0        0.439743    1.412902   -1.528225
     32          6           0        3.587521    2.055654   -0.397789
     33          1           0        4.394880    1.380022    1.485548
     34          1           0        2.523997    2.588581   -2.197839
     35          1           0        4.504452    2.575989   -0.692262
 ---------------------------------------------------------------------
                    Distance matrix (angstroms):
                    1          2          3          4          5
     1  C    0.000000
     2  H    1.122693   0.000000
     3  C    1.509090   2.127533   0.000000
     4  C    2.540624   3.383247   1.395595   0.000000
     5  C    2.503272   2.573971   1.397543   2.408854   0.000000
     6  C    3.813808   4.513773   2.417209   1.390503   2.779840
     7  H    2.754930   3.750716   2.159618   1.097997   3.404069
     8  C    3.788515   3.944303   2.417919   2.779828   1.389800
     9  H    2.699532   2.342569   2.164700   3.405097   1.096168
    10  C    4.303498   4.739205   2.794769   2.410318   2.410338
    11  H    4.693799   5.478460   3.407215   2.155009   3.874646
    12  H    4.657844   4.626734   3.408677   3.874653   2.155057
    13  H    5.398094   5.808666   3.889404   3.402902   3.402606
    14  C    1.509090   2.127533   2.500103   3.360009   3.310125
    15  C    2.540624   3.383247   2.927342   3.328754   3.756540
    16  C    2.503272   2.573971   3.712373   4.717214   4.279667
    17  C    3.813808   4.513773   4.279191   4.659627   4.949877
    18  H    2.754930   3.750716   2.628054   2.593665   3.544778
    19  C    3.788515   3.944303   4.849371   5.732792   5.357803
    20  H    2.699532   2.342569   4.037231   5.174973   4.492807
    21  C    4.303498   4.739205   5.080618   5.712253   5.641809
    22  H    4.693799   5.478460   4.930508   5.070660   5.580607
    23  H    4.657845   4.626734   5.799732   6.758593   6.220033
    24  H    5.398094   5.808666   6.142504   6.726451   6.652681
    25  C    1.509090   2.127533   2.500103   2.927342   3.712373
    26  C    2.503272   2.573971   3.310125   3.756540   4.279667
    27  C    2.540624   3.383247   3.360009   3.328754   4.717214
    28  C    3.788515   3.944303   4.538002   4.698733   5.582135
    29  H    2.699532   2.342569   3.362997   4.054664   3.998939
    30  C    3.813808   4.513774   4.575824   4.366720   5.925114
    31  H    2.754930   3.750716   3.448426   3.321443   4.797150
    32  C    4.303498   4.739205   5.061273   4.958551   6.292401
    33  H    4.657845   4.626734   5.337169   5.535220   6.236222
    34  H    4.693799   5.478460   5.394501   5.025850   6.778575
    35  H    5.398094   5.808666   6.120633   5.926537   7.346121
                    6          7          8          9         10
     6  C    0.000000
     7  H    2.161167   0.000000
     8  C    2.405691   3.877803   0.000000
     9  H    3.875989   4.312275   2.154546   0.000000
    10  C    1.390175   3.405807   1.390901   3.401391   0.000000
    11  H    1.094812   2.484898   3.399345   4.970799   2.157608
    12  H    3.398822   4.972627   1.094826   2.477376   2.157607
    13  H    2.158357   4.309695   2.158695   4.303838   1.094635
    14  C    4.575824   3.448426   4.538002   3.362997   5.061273
    15  C    4.366720   3.321443   4.698733   4.054664   4.958551
    16  C    5.925114   4.797150   5.582135   3.998939   6.292401
    17  C    5.587126   4.602538   5.828956   5.112709   6.113034
    18  H    3.490239   2.563006   4.242356   4.122271   4.222777
    19  C    6.872628   5.756627   6.561760   5.069587   7.236217
    20  H    6.401029   5.295784   5.863030   4.036057   6.693932
    21  C    6.732431   5.679730   6.670772   5.550061   7.161567
    22  H    5.821067   4.968083   6.267443   5.860374   6.378516
    23  H    7.909558   6.788115   7.453544   5.795034   8.218199
    24  H    7.689783   6.670539   7.623219   6.533756   8.099086
    25  C    4.279191   2.628054   4.849371   4.037231   5.080618
    26  C    4.949877   3.544778   5.357803   4.492807   5.641809
    27  C    4.659627   2.593664   5.732792   5.174973   5.712253
    28  C    5.828956   4.242355   6.561760   5.863030   6.670772
    29  H    5.112709   4.122271   5.069587   4.036057   5.550061
    30  C    5.587126   3.490239   6.872628   6.401029   6.732431
    31  H    4.602538   2.563006   5.756627   5.295784   5.679730
    32  C    6.113034   4.222777   7.236217   6.693932   7.161568
    33  H    6.559890   5.164325   7.161586   6.448780   7.307062
    34  H    6.172849   4.033797   7.665729   7.306399   7.408224
    35  H    7.007082   5.135501   8.241666   7.761084   8.095196
                   11         12         13         14         15
    11  H    0.000000
    12  H    4.304435   0.000000
    13  H    2.487795   2.487006   0.000000
    14  C    5.394501   5.337169   6.120633   0.000000
    15  C    5.025850   5.535220   5.926537   1.395595   0.000000
    16  C    6.778575   6.236222   7.346121   1.397543   2.408854
    17  C    6.172849   6.559890   7.007082   2.417209   1.390503
    18  H    4.033797   5.164325   5.135501   2.159618   1.097997
    19  C    7.665729   7.161586   8.241666   2.417919   2.779828
    20  H    7.306399   6.448780   7.761084   2.164700   3.405097
    21  C    7.408224   7.307062   8.095196   2.794768   2.410318
    22  H    6.262103   6.989378   7.167059   3.407215   2.155009
    23  H    8.728957   7.978615   9.223965   3.408677   3.874653
    24  H    8.320804   8.209602   8.987626   3.889404   3.402902
    25  C    4.930508   5.799732   6.142504   2.500103   3.360009
    26  C    5.580607   6.220033   6.652681   3.712373   4.717214
    27  C    5.070660   6.758593   6.726451   2.927342   3.328754
    28  C    6.267443   7.453544   7.623219   4.849371   5.732792
    29  H    5.860374   5.795034   6.533756   4.037231   5.174973
    30  C    5.821067   7.909558   7.689783   4.279191   4.659627
    31  H    4.968083   6.788115   6.670539   2.628054   2.593665
    32  C    6.378516   8.218199   8.099086   5.080618   5.712253
    33  H    6.989378   7.978615   8.209602   5.799732   6.758593
    34  H    6.262103   8.728957   8.320804   4.930508   5.070660
    35  H    7.167059   9.223965   8.987626   6.142504   6.726451
                   16         17         18         19         20
    16  C    0.000000
    17  C    2.779840   0.000000
    18  H    3.404069   2.161167   0.000000
    19  C    1.389800   2.405691   3.877803   0.000000
    20  H    1.096168   3.875989   4.312275   2.154546   0.000000
    21  C    2.410338   1.390175   3.405807   1.390901   3.401391
    22  H    3.874646   1.094812   2.484898   3.399345   4.970799
    23  H    2.155057   3.398822   4.972627   1.094826   2.477376
    24  H    3.402606   2.158357   4.309695   2.158695   4.303838
    25  C    3.310125   4.575824   3.448426   4.538002   3.362997
    26  C    4.279667   5.925114   4.797150   5.582135   3.998939
    27  C    3.756540   4.366720   3.321443   4.698733   4.054664
    28  C    5.357803   6.872628   5.756627   6.561760   5.069587
    29  H    4.492807   6.401029   5.295784   5.863030   4.036057
    30  C    4.949877   5.587126   4.602538   5.828956   5.112709
    31  H    3.544778   3.490239   2.563006   4.242355   4.122271
    32  C    5.641809   6.732431   5.679730   6.670772   5.550061
    33  H    6.220033   7.909558   6.788115   7.453544   5.795033
    34  H    5.580607   5.821067   4.968083   6.267443   5.860374
    35  H    6.652681   7.689783   6.670539   7.623219   6.533756
                   21         22         23         24         25
    21  C    0.000000
    22  H    2.157608   0.000000
    23  H    2.157607   4.304435   0.000000
    24  H    1.094635   2.487795   2.487006   0.000000
    25  C    5.061273   5.394501   5.337169   6.120633   0.000000
    26  C    6.292401   6.778575   6.236222   7.346121   1.397543
    27  C    4.958551   5.025850   5.535220   5.926537   1.395595
    28  C    7.236217   7.665729   7.161586   8.241666   2.417919
    29  H    6.693932   7.306399   6.448780   7.761084   2.164700
    30  C    6.113034   6.172849   6.559890   7.007082   2.417209
    31  H    4.222777   4.033797   5.164325   5.135501   2.159618
    32  C    7.161567   7.408224   7.307062   8.095196   2.794768
    33  H    8.218199   8.728957   7.978615   9.223965   3.408677
    34  H    6.378516   6.262103   6.989378   7.167059   3.407215
    35  H    8.099086   8.320804   8.209602   8.987626   3.889404
                   26         27         28         29         30
    26  C    0.000000
    27  C    2.408854   0.000000
    28  C    1.389800   2.779828   0.000000
    29  H    1.096168   3.405097   2.154546   0.000000
    30  C    2.779840   1.390503   2.405691   3.875989   0.000000
    31  H    3.404069   1.097997   3.877803   4.312275   2.161167
    32  C    2.410338   2.410318   1.390901   3.401391   1.390175
    33  H    2.155057   3.874653   1.094826   2.477376   3.398822
    34  H    3.874646   2.155009   3.399345   4.970799   1.094812
    35  H    3.402606   3.402902   2.158695   4.303838   2.158357
                   31         32         33         34         35
    31  H    0.000000
    32  C    3.405807   0.000000
    33  H    4.972627   2.157607   0.000000
    34  H    2.484898   2.157608   4.304435   0.000000
    35  H    4.309695   1.094635   2.487006   2.487795   0.000000
 Stoichiometry    C19H16
 Framework group  C3[C3(CH),X(C18H15)]
 Deg. of freedom    33
 Full point group                 C3      NOp   3
 Largest Abelian subgroup         C1      NOp   1
 Largest concise Abelian subgroup C1      NOp   1
                         Standard orientation:                         
 ---------------------------------------------------------------------
 Center     Atomic      Atomic             Coordinates (Angstroms)
 Number     Number       Type             X           Y           Z
 ---------------------------------------------------------------------
      1          6           0        0.000000    0.000000    0.779997
      2          1           0        0.000000    0.000000    1.902690
      3          6           0        0.000000    1.443435    0.339714
      4          6           0       -0.544044    1.843244   -0.881701
      5          6           0        0.564934    2.405417    1.181479
      6          6           0       -0.525316    3.182667   -1.254655
      7          1           0       -0.996953    1.093504   -1.543788
      8          6           0        0.584563    3.743062    0.804829
      9          1           0        0.997855    2.105755    2.142919
     10          6           0        0.039238    4.134547   -0.413352
     11          1           0       -0.958105    3.486165   -2.213402
     12          1           0        1.030261    4.489765    1.469985
     13          1           0        0.053640    5.188731   -0.707825
     14          6           0        1.250051   -0.721718    0.339714
     15          6           0        1.868318   -0.450467   -0.881701
     16          6           0        1.800686   -1.691955    1.181479
     17          6           0        3.018928   -1.136397   -1.254655
     18          1           0        1.445479    0.316635   -1.543788
     19          6           0        2.949305   -2.377778    0.804829
     20          1           0        1.324710   -1.917045    2.142919
     21          6           0        3.561003   -2.101255   -0.413352
     22          1           0        3.498160   -0.913339   -2.213402
     23          1           0        3.373120   -3.137115    1.469985
     24          1           0        4.466753   -2.640819   -0.707825
     25          6           0       -1.250051   -0.721718    0.339714
     26          6           0       -2.365619   -0.713462    1.181479
     27          6           0       -1.324275   -1.392778   -0.881701
     28          6           0       -3.533869   -1.365284    0.804829
     29          1           0       -2.322565   -0.188710    2.142919
     30          6           0       -2.493612   -2.046270   -1.254655
     31          1           0       -0.448525   -1.410139   -1.543788
     32          6           0       -3.600242   -2.033292   -0.413352
     33          1           0       -4.403382   -1.352650    1.469985
     34          1           0       -2.540055   -2.572826   -2.213402
     35          1           0       -4.520393   -2.547912   -0.707825
 ---------------------------------------------------------------------
 Rotational constants (GHZ):      0.3903333      0.3903333      0.2358704
 Standard basis: 6-311G (5D, 7F)
 There are   295 symmetry adapted basis functions of A   symmetry.
 Integral buffers will be    262144 words long.
 Raffenetti 1 integral format.
 Two-electron integral symmetry is turned on.
   295 basis functions,   574 primitive gaussians,   295 cartesian basis functions
    65 alpha electrons       65 beta electrons
       nuclear repulsion energy      1290.3692434171 Hartrees.
 NAtoms=   35 NActive=   35 NUniq=   13 SFac= 3.00D+00 NAtFMM=   80 NAOKFM=F Big=F
 One-electron integrals computed using PRISM.
 PrsmSu:  requested number of processors reduced to:  10 ShMem   1 Linda.
 NBasis=   295 RedAO= T  NBF=   295
 NBsUse=   295 1.00D-06 NBFU=   295
 Harris functional with IExCor=  205 diagonalized for initial guess.
 ExpMin= 1.03D-01 ExpMax= 4.56D+03 ExpMxC= 6.82D+02 IAcc=1 IRadAn=         1 AccDes= 0.00D+00
 HarFok:  IExCor=  205 AccDes= 0.00D+00 IRadAn=         1 IDoV= 1
 ScaDFX=  1.000000  1.000000  1.000000  1.000000
 FoFCou: FMM=F IPFlag=           0 FMFlag=      100000 FMFlg1=           0
         NFxFlg=           0 DoJE=T BraDBF=F KetDBF=T FulRan=T
         Omega=  0.000000  0.000000  1.000000  0.000000  0.000000 ICntrl=     500 IOpCl=  0
         NMat0=    1 NMatS0=    1 NMatT0=    0 NMatD0=    1 NMtDS0=    0 NMtDT0=    0
         I1Cent=           4 NGrid=           0.
 Petite list used in FoFCou.
 Initial guess orbital symmetries:
       Occupied  (E) (E) (A) (A) (E) (E) (A) (E) (E) (E) (E) (A)
                 (E) (E) (A) (E) (E) (A) (A) (A) (E) (E) (A) (A)
                 (E) (E) (E) (E) (A) (A) (E) (E) (E) (E) (A) (E)
                 (E) (A) (A) (E) (E) (E) (E) (A) (E) (E) (A) (E)
                 (E) (A) (E) (E) (A) (A) (E) (E) (E) (E) (A) (E)
                 (E) (A) (E) (E) (A)
       Virtual   (E) (E) (A) (E) (E) (A) (A) (A) (E) (E) (E) (E)
                 (A) (A) (E) (E) (E) (E) (A) (A) (E) (E) (E) (E)
                 (A) (A) (E) (E) (A) (E) (E) (A) (E) (E) (E) (E)
                 (A) (E) (E) (A) (E) (E) (A) (E) (E) (A) (A) (E)
                 (E) (E) (E) (A) (A) (E) (E) (A) (E) (E) (E) (E)
                 (A) (E) (E) (A) (E) (E) (A) (A) (E) (E) (E) (E)
                 (A) (A) (E) (E) (A) (A) (E) (E) (A) (E) (E) (A)
                 (E) (E) (A) (A) (E) (E) (E) (E) (A) (E) (E) (A)
                 (E) (E) (A) (E) (E) (A) (E) (E) (E) (E) (A) (E)
                 (E) (A) (E) (E) (E) (E) (A) (A) (E) (E) (A) (E)
                 (E) (A) (A) (E) (E) (E) (E) (A) (E) (E) (A) (A)
                 (E) (E) (A) (E) (E) (A) (E) (E) (A) (A) (E) (E)
                 (E) (E) (A) (A) (E) (E) (A) (E) (E) (A) (E) (E)
                 (A) (E) (E) (E) (E) (A) (A) (A) (E) (E) (A) (E)
                 (E) (A) (E) (E) (A) (E) (E) (A) (E) (E) (E) (E)
                 (A) (A) (E) (E) (E) (E) (A) (E) (E) (E) (E) (A)
                 (E) (E) (A) (A) (E) (E) (E) (E) (E) (E) (A) (A)
                 (E) (E) (A) (A) (E) (E) (A) (A) (E) (E) (E) (E)
                 (A) (A) (E) (E) (A) (E) (E) (A) (E) (E) (A) (A)
                 (E) (E)
 The electronic state of the initial guess is 1-A.
 Requested convergence on RMS density matrix=1.00D-08 within 128 cycles.
 Requested convergence on MAX density matrix=1.00D-06.
 Requested convergence on             energy=1.00D-06.
 No special actions if energy rises.
 Integral accuracy reduced to 1.0D-05 until final iterations.
 Initial convergence to 1.0D-05 achieved.  Increase integral accuracy.
 SCF Done:  E(RHF) =  -728.678113947     A.U. after   14 cycles
             Convg  =    0.6648D-08             -V/T =  2.0001

 **********************************************************************

            Population analysis using the SCF density.

 **********************************************************************

 Orbital symmetries:
       Occupied  (A) (E) (E) (A) (E) (E) (A) (A) (E) (E) (E) (E)
                 (A) (E) (E) (A) (E) (E) (A) (A) (E) (E) (A) (A)
                 (E) (E) (E) (E) (A) (A) (E) (E) (E) (E) (A) (E)
                 (E) (A) (A) (E) (E) (E) (E) (A) (A) (E) (E) (E)
                 (E) (A) (A) (E) (E) (A) (E) (E) (A) (E) (E) (E)
                 (E) (A) (E) (E) (A)
       Virtual   (E) (E) (A) (A) (E) (E) (A) (E) (E) (A) (A) (E)
                 (E) (E) (E) (A) (E) (E) (A) (E) (E) (A) (E) (E)
                 (A) (E) (E) (A) (A) (A) (E) (E) (E) (E) (E) (E)
                 (A) (A) (E) (E) (A) (E) (E) (E) (E) (A) (E) (E)
                 (A) (A) (E) (E) (A) (E) (E) (A) (E) (E) (A) (E)
                 (E) (E) (E) (A) (A) (E) (E) (A) (E) (E) (A) (E)
                 (E) (A) (E) (E) (A) (E) (E) (A) (A) (E) (E) (E)
                 (E) (A) (E) (E) (A) (E) (E) (A) (A) (E) (E) (A)
                 (E) (E) (A) (E) (E) (E) (E) (A) (E) (E) (A) (E)
                 (E) (A) (E) (E) (E) (E) (A) (A) (A) (E) (E) (A)
                 (E) (E) (A) (E) (E) (A) (E) (E) (A) (E) (E) (A)
                 (E) (E) (A) (E) (E) (A) (E) (E) (A) (E) (E) (A)
                 (E) (E) (A) (E) (E) (A) (A) (E) (E) (A) (A) (E)
                 (E) (E) (E) (A) (E) (E) (A) (A) (E) (E) (E) (E)
                 (A) (E) (E) (A) (A) (E) (E) (A) (E) (E) (E) (E)
                 (A) (A) (E) (E) (E) (E) (A) (E) (E) (A) (E) (E)
                 (A) (E) (E) (A) (E) (E) (E) (E) (E) (E) (A) (A)
                 (A) (E) (E) (A) (E) (E) (A) (A) (E) (E) (E) (E)
                 (A) (A) (E) (E) (A) (E) (E) (A) (E) (E) (A) (A)
                 (E) (E)
 The electronic state is 1-A.
 Alpha  occ. eigenvalues --  -11.25733 -11.25096 -11.25096 -11.25090 -11.24306
 Alpha  occ. eigenvalues --  -11.24306 -11.24306 -11.24284 -11.24284 -11.24284
 Alpha  occ. eigenvalues --  -11.24021 -11.24021 -11.24020 -11.23962 -11.23962
 Alpha  occ. eigenvalues --  -11.23962 -11.23817 -11.23817 -11.23817  -1.18571
 Alpha  occ. eigenvalues --   -1.15714  -1.15714  -1.09012  -1.02187  -1.02043
 Alpha  occ. eigenvalues --   -1.02043  -1.01367  -1.01367  -0.92878  -0.84077
 Alpha  occ. eigenvalues --   -0.82991  -0.82991  -0.81452  -0.81452  -0.77512
 Alpha  occ. eigenvalues --   -0.70622  -0.70622  -0.68787  -0.65632  -0.63787
 Alpha  occ. eigenvalues --   -0.63787  -0.61931  -0.61931  -0.61740  -0.59099
 Alpha  occ. eigenvalues --   -0.58734  -0.58734  -0.58054  -0.58054  -0.54343
 Alpha  occ. eigenvalues --   -0.51181  -0.50835  -0.50835  -0.49663  -0.49105
 Alpha  occ. eigenvalues --   -0.49105  -0.47444  -0.47174  -0.47174  -0.34452
 Alpha  occ. eigenvalues --   -0.34452  -0.34004  -0.33231  -0.33231  -0.31224
 Alpha virt. eigenvalues --    0.12204   0.12204   0.12402   0.14448   0.14461
 Alpha virt. eigenvalues --    0.14461   0.15132   0.16316   0.16316   0.17111
 Alpha virt. eigenvalues --    0.19071   0.19125   0.19125   0.21252   0.21252
 Alpha virt. eigenvalues --    0.21552   0.23843   0.23843   0.24466   0.26745
 Alpha virt. eigenvalues --    0.26745   0.28539   0.34013   0.34013   0.35101
 Alpha virt. eigenvalues --    0.39174   0.39174   0.39336   0.41078   0.43771
 Alpha virt. eigenvalues --    0.43877   0.43877   0.44970   0.44970   0.45562
 Alpha virt. eigenvalues --    0.45562   0.45804   0.48346   0.49759   0.49759
 Alpha virt. eigenvalues --    0.50691   0.50883   0.50883   0.55385   0.55385
 Alpha virt. eigenvalues --    0.57219   0.58702   0.58702   0.58770   0.59463
 Alpha virt. eigenvalues --    0.60068   0.60068   0.61457   0.61554   0.61554
 Alpha virt. eigenvalues --    0.61701   0.62244   0.62244   0.63513   0.63790
 Alpha virt. eigenvalues --    0.63790   0.65418   0.65418   0.66732   0.67116
 Alpha virt. eigenvalues --    0.67858   0.67858   0.69136   0.70644   0.70644
 Alpha virt. eigenvalues --    0.73048   0.74589   0.74589   0.74982   0.75567
 Alpha virt. eigenvalues --    0.75567   0.78129   0.80267   0.80267   0.80271
 Alpha virt. eigenvalues --    0.81937   0.82009   0.82009   0.82968   0.82968
 Alpha virt. eigenvalues --    0.83741   0.84368   0.84368   0.85136   0.86015
 Alpha virt. eigenvalues --    0.86015   0.86220   0.87292   0.87737   0.87737
 Alpha virt. eigenvalues --    0.88551   0.90857   0.90857   0.92766   0.94578
 Alpha virt. eigenvalues --    0.94578   0.97227   0.97227   0.97794   1.00025
 Alpha virt. eigenvalues --    1.00025   1.00721   1.04031   1.04031   1.06241
 Alpha virt. eigenvalues --    1.06999   1.06999   1.08765   1.08765   1.09868
 Alpha virt. eigenvalues --    1.11095   1.12253   1.12935   1.12935   1.14193
 Alpha virt. eigenvalues --    1.14656   1.14656   1.17902   1.20742   1.20742
 Alpha virt. eigenvalues --    1.26732   1.27473   1.27473   1.28637   1.30051
 Alpha virt. eigenvalues --    1.30051   1.39627   1.40637   1.40637   1.49102
 Alpha virt. eigenvalues --    1.52301   1.52301   1.54951   2.55826   2.55826
 Alpha virt. eigenvalues --    2.56437   2.61662   2.61662   2.61690   2.66492
 Alpha virt. eigenvalues --    2.66492   2.67963   2.70416   2.70416   2.70887
 Alpha virt. eigenvalues --    2.78479   2.84844   2.84844   2.88561   2.94548
 Alpha virt. eigenvalues --    2.94639   2.94639   2.97627   2.97627   2.97657
 Alpha virt. eigenvalues --    3.01459   3.01459   3.04375   3.06187   3.07548
 Alpha virt. eigenvalues --    3.07548   3.08647   3.08647   3.09321   3.15402
 Alpha virt. eigenvalues --    3.15402   3.15647   3.17433   3.18984   3.18984
 Alpha virt. eigenvalues --    3.23288   3.25379   3.25379   3.28844   3.28844
 Alpha virt. eigenvalues --    3.29670   3.33104   3.34948   3.34948   3.42262
 Alpha virt. eigenvalues --    3.42262   3.43258   3.48621   3.48621   3.53937
 Alpha virt. eigenvalues --    3.54067   3.54067   3.59943   3.60358   3.60358
 Alpha virt. eigenvalues --    3.63117   3.63600   3.63600   3.65838   3.65838
 Alpha virt. eigenvalues --    3.69790   3.69790   3.70495   3.70697   3.75182
 Alpha virt. eigenvalues --    3.75894   3.75894   3.84513   3.87416   3.87416
 Alpha virt. eigenvalues --    3.91503  24.25946  24.31575  24.31575  24.50734
 Alpha virt. eigenvalues --   24.50734  24.51247  24.54554  24.55831  24.55831
 Alpha virt. eigenvalues --   24.77634  24.79313  24.79313  24.79920  24.80802
 Alpha virt. eigenvalues --   24.80802  24.83332  25.05343  25.06156  25.06156
          Condensed to atoms (all electrons):
              1          2          3          4          5          6
     1  C    5.858917   0.483459   0.145345  -0.040966  -0.054824   0.004227
     2  H    0.483459   0.515343  -0.072018   0.005305  -0.001095  -0.000240
     3  C    0.145345  -0.072018   5.357653   0.479869   0.483875  -0.067564
     4  C   -0.040966   0.005305   0.479869   5.114201  -0.068662   0.469006
     5  C   -0.054824  -0.001095   0.483875  -0.068662   5.058976  -0.031783
     6  C    0.004227  -0.000240  -0.067564   0.469006  -0.031783   5.051890
     7  H   -0.000853  -0.000120  -0.042490   0.392258   0.004188  -0.029866
     8  C    0.007214   0.001482  -0.065728  -0.029428   0.463597  -0.075885
     9  H    0.000492   0.001466  -0.048746   0.004436   0.399230  -0.000423
    10  C    0.001167  -0.000011  -0.016447  -0.093776  -0.087556   0.496629
    11  H   -0.000337   0.000014   0.006124  -0.037824  -0.000381   0.396201
    12  H   -0.000371  -0.000026   0.006680  -0.000534  -0.039650   0.006121
    13  H   -0.000017  -0.000001  -0.001541   0.007820   0.007433  -0.042465
    14  C    0.145345  -0.072018  -0.097029  -0.008148  -0.001096   0.000676
    15  C   -0.040966   0.005305  -0.018612  -0.005046   0.000218  -0.001061
    16  C   -0.054824  -0.001095   0.005719  -0.000167   0.000841   0.000022
    17  C    0.004227  -0.000240   0.000093  -0.000019  -0.000167  -0.000021
    18  H   -0.000853  -0.000120  -0.001937   0.001456  -0.000874   0.000917
    19  C    0.007214   0.001482  -0.000774   0.000027  -0.000034   0.000000
    20  H    0.000492   0.001466   0.000484  -0.000031   0.000044   0.000000
    21  C    0.001167  -0.000011   0.000097  -0.000017  -0.000008   0.000000
    22  H   -0.000337   0.000014   0.000029   0.000018   0.000007   0.000000
    23  H   -0.000371  -0.000026   0.000011   0.000000   0.000001   0.000000
    24  H   -0.000017  -0.000001  -0.000001   0.000000   0.000000   0.000000
    25  C    0.145345  -0.072018  -0.097029  -0.018612   0.005719   0.000093
    26  C   -0.054824  -0.001095  -0.001096   0.000218   0.000841  -0.000167
    27  C   -0.040966   0.005305  -0.008148  -0.005046  -0.000167  -0.000019
    28  C    0.007214   0.001482  -0.000631   0.000382   0.000003  -0.000009
    29  H    0.000492   0.001466   0.000951   0.000223   0.000232   0.000007
    30  C    0.004227  -0.000240   0.000676  -0.001061   0.000022  -0.000021
    31  H   -0.000853  -0.000120  -0.000785   0.000735  -0.000017   0.000043
    32  C    0.001167  -0.000011   0.000038   0.000069  -0.000001   0.000005
    33  H   -0.000371  -0.000026   0.000024   0.000003   0.000000   0.000000
    34  H   -0.000337   0.000014  -0.000003   0.000016   0.000000   0.000001
    35  H   -0.000017  -0.000001   0.000000  -0.000001   0.000000   0.000000
              7          8          9         10         11         12
     1  C   -0.000853   0.007214   0.000492   0.001167  -0.000337  -0.000371
     2  H   -0.000120   0.001482   0.001466  -0.000011   0.000014  -0.000026
     3  C   -0.042490  -0.065728  -0.048746  -0.016447   0.006124   0.006680
     4  C    0.392258  -0.029428   0.004436  -0.093776  -0.037824  -0.000534
     5  C    0.004188   0.463597   0.399230  -0.087556  -0.000381  -0.039650
     6  C   -0.029866  -0.075885  -0.000423   0.496629   0.396201   0.006121
     7  H    0.474270  -0.000227  -0.000239   0.004629  -0.003312   0.000018
     8  C   -0.000227   5.055063  -0.036068   0.490298   0.005936   0.397092
     9  H   -0.000239  -0.036068   0.507625   0.005355   0.000022  -0.004230
    10  C    0.004629   0.490298   0.005355   5.033110  -0.040240  -0.040649
    11  H   -0.003312   0.005936   0.000022  -0.040240   0.515671  -0.000211
    12  H    0.000018   0.397092  -0.004230  -0.040649  -0.000211   0.517978
    13  H   -0.000174  -0.042929  -0.000179   0.399535  -0.004405  -0.004495
    14  C   -0.000785  -0.000631   0.000951   0.000038  -0.000003   0.000024
    15  C    0.000735   0.000382   0.000223   0.000069   0.000016   0.000003
    16  C   -0.000017   0.000003   0.000232  -0.000001   0.000000   0.000000
    17  C    0.000043  -0.000009   0.000007   0.000005   0.000001   0.000000
    18  H    0.000216  -0.000191  -0.000038   0.000000   0.000008   0.000003
    19  C    0.000003   0.000002  -0.000005   0.000000   0.000000   0.000000
    20  H    0.000000   0.000001  -0.000001   0.000000   0.000000   0.000000
    21  C    0.000000   0.000000  -0.000009   0.000000   0.000000   0.000000
    22  H   -0.000007   0.000001   0.000000  -0.000001   0.000000   0.000000
    23  H    0.000000   0.000000   0.000000   0.000000   0.000000   0.000000
    24  H    0.000000   0.000000   0.000000   0.000000   0.000000   0.000000
    25  C   -0.001937  -0.000774   0.000484   0.000097   0.000029   0.000011
    26  C   -0.000874  -0.000034   0.000044  -0.000008   0.000007   0.000001
    27  C    0.001456   0.000027  -0.000031  -0.000017   0.000018   0.000000
    28  C   -0.000191   0.000002   0.000001   0.000000   0.000001   0.000000
    29  H   -0.000038  -0.000005  -0.000001  -0.000009   0.000000   0.000000
    30  C    0.000917   0.000000   0.000000   0.000000   0.000000   0.000000
    31  H    0.000216   0.000003   0.000000   0.000000  -0.000007   0.000000
    32  C    0.000000   0.000000   0.000000   0.000000  -0.000001   0.000000
    33  H    0.000003   0.000000   0.000000   0.000000   0.000000   0.000000
    34  H    0.000008   0.000000   0.000000   0.000000   0.000000   0.000000
    35  H    0.000000   0.000000   0.000000   0.000000   0.000000   0.000000
             13         14         15         16         17         18
     1  C   -0.000017   0.145345  -0.040966  -0.054824   0.004227  -0.000853
     2  H   -0.000001  -0.072018   0.005305  -0.001095  -0.000240  -0.000120
     3  C   -0.001541  -0.097029  -0.018612   0.005719   0.000093  -0.001937
     4  C    0.007820  -0.008148  -0.005046  -0.000167  -0.000019   0.001456
     5  C    0.007433  -0.001096   0.000218   0.000841  -0.000167  -0.000874
     6  C   -0.042465   0.000676  -0.001061   0.000022  -0.000021   0.000917
     7  H   -0.000174  -0.000785   0.000735  -0.000017   0.000043   0.000216
     8  C   -0.042929  -0.000631   0.000382   0.000003  -0.000009  -0.000191
     9  H   -0.000179   0.000951   0.000223   0.000232   0.000007  -0.000038
    10  C    0.399535   0.000038   0.000069  -0.000001   0.000005   0.000000
    11  H   -0.004405  -0.000003   0.000016   0.000000   0.000001   0.000008
    12  H   -0.004495   0.000024   0.000003   0.000000   0.000000   0.000003
    13  H    0.517917   0.000000  -0.000001   0.000000   0.000000   0.000000
    14  C    0.000000   5.357653   0.479869   0.483875  -0.067564  -0.042490
    15  C   -0.000001   0.479869   5.114201  -0.068662   0.469006   0.392258
    16  C    0.000000   0.483875  -0.068662   5.058976  -0.031783   0.004188
    17  C    0.000000  -0.067564   0.469006  -0.031783   5.051890  -0.029866
    18  H    0.000000  -0.042490   0.392258   0.004188  -0.029866   0.474270
    19  C    0.000000  -0.065728  -0.029428   0.463597  -0.075885  -0.000227
    20  H    0.000000  -0.048746   0.004436   0.399230  -0.000423  -0.000239
    21  C    0.000000  -0.016447  -0.093776  -0.087556   0.496629   0.004629
    22  H    0.000000   0.006124  -0.037824  -0.000381   0.396201  -0.003312
    23  H    0.000000   0.006680  -0.000534  -0.039650   0.006121   0.000018
    24  H    0.000000  -0.001541   0.007820   0.007433  -0.042465  -0.000174
    25  C   -0.000001  -0.097029  -0.008148  -0.001096   0.000676  -0.000785
    26  C    0.000000   0.005719  -0.000167   0.000841   0.000022  -0.000017
    27  C    0.000000  -0.018612  -0.005046   0.000218  -0.001061   0.000735
    28  C    0.000000  -0.000774   0.000027  -0.000034   0.000000   0.000003
    29  H    0.000000   0.000484  -0.000031   0.000044   0.000000   0.000000
    30  C    0.000000   0.000093  -0.000019  -0.000167  -0.000021   0.000043
    31  H    0.000000  -0.001937   0.001456  -0.000874   0.000917   0.000216
    32  C    0.000000   0.000097  -0.000017  -0.000008   0.000000   0.000000
    33  H    0.000000   0.000011   0.000000   0.000001   0.000000   0.000000
    34  H    0.000000   0.000029   0.000018   0.000007   0.000000  -0.000007
    35  H    0.000000  -0.000001   0.000000   0.000000   0.000000   0.000000
             19         20         21         22         23         24
     1  C    0.007214   0.000492   0.001167  -0.000337  -0.000371  -0.000017
     2  H    0.001482   0.001466  -0.000011   0.000014  -0.000026  -0.000001
     3  C   -0.000774   0.000484   0.000097   0.000029   0.000011  -0.000001
     4  C    0.000027  -0.000031  -0.000017   0.000018   0.000000   0.000000
     5  C   -0.000034   0.000044  -0.000008   0.000007   0.000001   0.000000
     6  C    0.000000   0.000000   0.000000   0.000000   0.000000   0.000000
     7  H    0.000003   0.000000   0.000000  -0.000007   0.000000   0.000000
     8  C    0.000002   0.000001   0.000000   0.000001   0.000000   0.000000
     9  H   -0.000005  -0.000001  -0.000009   0.000000   0.000000   0.000000
    10  C    0.000000   0.000000   0.000000  -0.000001   0.000000   0.000000
    11  H    0.000000   0.000000   0.000000   0.000000   0.000000   0.000000
    12  H    0.000000   0.000000   0.000000   0.000000   0.000000   0.000000
    13  H    0.000000   0.000000   0.000000   0.000000   0.000000   0.000000
    14  C   -0.065728  -0.048746  -0.016447   0.006124   0.006680  -0.001541
    15  C   -0.029428   0.004436  -0.093776  -0.037824  -0.000534   0.007820
    16  C    0.463597   0.399230  -0.087556  -0.000381  -0.039650   0.007433
    17  C   -0.075885  -0.000423   0.496629   0.396201   0.006121  -0.042465
    18  H   -0.000227  -0.000239   0.004629  -0.003312   0.000018  -0.000174
    19  C    5.055063  -0.036068   0.490298   0.005936   0.397092  -0.042929
    20  H   -0.036068   0.507625   0.005355   0.000022  -0.004230  -0.000179
    21  C    0.490298   0.005355   5.033110  -0.040240  -0.040649   0.399535
    22  H    0.005936   0.000022  -0.040240   0.515671  -0.000211  -0.004405
    23  H    0.397092  -0.004230  -0.040649  -0.000211   0.517978  -0.004495
    24  H   -0.042929  -0.000179   0.399535  -0.004405  -0.004495   0.517917
    25  C   -0.000631   0.000951   0.000038  -0.000003   0.000024   0.000000
    26  C    0.000003   0.000232  -0.000001   0.000000   0.000000   0.000000
    27  C    0.000382   0.000223   0.000069   0.000016   0.000003  -0.000001
    28  C    0.000002  -0.000005   0.000000   0.000000   0.000000   0.000000
    29  H    0.000001  -0.000001   0.000000   0.000000   0.000000   0.000000
    30  C   -0.000009   0.000007   0.000005   0.000001   0.000000   0.000000
    31  H   -0.000191  -0.000038   0.000000   0.000008   0.000003   0.000000
    32  C    0.000000  -0.000009   0.000000   0.000000   0.000000   0.000000
    33  H    0.000000   0.000000   0.000000   0.000000   0.000000   0.000000
    34  H    0.000001   0.000000  -0.000001   0.000000   0.000000   0.000000
    35  H    0.000000   0.000000   0.000000   0.000000   0.000000   0.000000
             25         26         27         28         29         30
     1  C    0.145345  -0.054824  -0.040966   0.007214   0.000492   0.004227
     2  H   -0.072018  -0.001095   0.005305   0.001482   0.001466  -0.000240
     3  C   -0.097029  -0.001096  -0.008148  -0.000631   0.000951   0.000676
     4  C   -0.018612   0.000218  -0.005046   0.000382   0.000223  -0.001061
     5  C    0.005719   0.000841  -0.000167   0.000003   0.000232   0.000022
     6  C    0.000093  -0.000167  -0.000019  -0.000009   0.000007  -0.000021
     7  H   -0.001937  -0.000874   0.001456  -0.000191  -0.000038   0.000917
     8  C   -0.000774  -0.000034   0.000027   0.000002  -0.000005   0.000000
     9  H    0.000484   0.000044  -0.000031   0.000001  -0.000001   0.000000
    10  C    0.000097  -0.000008  -0.000017   0.000000  -0.000009   0.000000
    11  H    0.000029   0.000007   0.000018   0.000001   0.000000   0.000000
    12  H    0.000011   0.000001   0.000000   0.000000   0.000000   0.000000
    13  H   -0.000001   0.000000   0.000000   0.000000   0.000000   0.000000
    14  C   -0.097029   0.005719  -0.018612  -0.000774   0.000484   0.000093
    15  C   -0.008148  -0.000167  -0.005046   0.000027  -0.000031  -0.000019
    16  C   -0.001096   0.000841   0.000218  -0.000034   0.000044  -0.000167
    17  C    0.000676   0.000022  -0.001061   0.000000   0.000000  -0.000021
    18  H   -0.000785  -0.000017   0.000735   0.000003   0.000000   0.000043
    19  C   -0.000631   0.000003   0.000382   0.000002   0.000001  -0.000009
    20  H    0.000951   0.000232   0.000223  -0.000005  -0.000001   0.000007
    21  C    0.000038  -0.000001   0.000069   0.000000   0.000000   0.000005
    22  H   -0.000003   0.000000   0.000016   0.000000   0.000000   0.000001
    23  H    0.000024   0.000000   0.000003   0.000000   0.000000   0.000000
    24  H    0.000000   0.000000  -0.000001   0.000000   0.000000   0.000000
    25  C    5.357653   0.483875   0.479869  -0.065728  -0.048746  -0.067564
    26  C    0.483875   5.058976  -0.068662   0.463597   0.399230  -0.031783
    27  C    0.479869  -0.068662   5.114201  -0.029428   0.004436   0.469006
    28  C   -0.065728   0.463597  -0.029428   5.055063  -0.036068  -0.075885
    29  H   -0.048746   0.399230   0.004436  -0.036068   0.507625  -0.000423
    30  C   -0.067564  -0.031783   0.469006  -0.075885  -0.000423   5.051890
    31  H   -0.042490   0.004188   0.392258  -0.000227  -0.000239  -0.029866
    32  C   -0.016447  -0.087556  -0.093776   0.490298   0.005355   0.496629
    33  H    0.006680  -0.039650  -0.000534   0.397092  -0.004230   0.006121
    34  H    0.006124  -0.000381  -0.037824   0.005936   0.000022   0.396201
    35  H   -0.001541   0.007433   0.007820  -0.042929  -0.000179  -0.042465
             31         32         33         34         35
     1  C   -0.000853   0.001167  -0.000371  -0.000337  -0.000017
     2  H   -0.000120  -0.000011  -0.000026   0.000014  -0.000001
     3  C   -0.000785   0.000038   0.000024  -0.000003   0.000000
     4  C    0.000735   0.000069   0.000003   0.000016  -0.000001
     5  C   -0.000017  -0.000001   0.000000   0.000000   0.000000
     6  C    0.000043   0.000005   0.000000   0.000001   0.000000
     7  H    0.000216   0.000000   0.000003   0.000008   0.000000
     8  C    0.000003   0.000000   0.000000   0.000000   0.000000
     9  H    0.000000   0.000000   0.000000   0.000000   0.000000
    10  C    0.000000   0.000000   0.000000   0.000000   0.000000
    11  H   -0.000007  -0.000001   0.000000   0.000000   0.000000
    12  H    0.000000   0.000000   0.000000   0.000000   0.000000
    13  H    0.000000   0.000000   0.000000   0.000000   0.000000
    14  C   -0.001937   0.000097   0.000011   0.000029  -0.000001
    15  C    0.001456  -0.000017   0.000000   0.000018   0.000000
    16  C   -0.000874  -0.000008   0.000001   0.000007   0.000000
    17  C    0.000917   0.000000   0.000000   0.000000   0.000000
    18  H    0.000216   0.000000   0.000000  -0.000007   0.000000
    19  C   -0.000191   0.000000   0.000000   0.000001   0.000000
    20  H   -0.000038  -0.000009   0.000000   0.000000   0.000000
    21  C    0.000000   0.000000   0.000000  -0.000001   0.000000
    22  H    0.000008   0.000000   0.000000   0.000000   0.000000
    23  H    0.000003   0.000000   0.000000   0.000000   0.000000
    24  H    0.000000   0.000000   0.000000   0.000000   0.000000
    25  C   -0.042490  -0.016447   0.006680   0.006124  -0.001541
    26  C    0.004188  -0.087556  -0.039650  -0.000381   0.007433
    27  C    0.392258  -0.093776  -0.000534  -0.037824   0.007820
    28  C   -0.000227   0.490298   0.397092   0.005936  -0.042929
    29  H   -0.000239   0.005355  -0.004230   0.000022  -0.000179
    30  C   -0.029866   0.496629   0.006121   0.396201  -0.042465
    31  H    0.474270   0.004629   0.000018  -0.003312  -0.000174
    32  C    0.004629   5.033110  -0.040649  -0.040240   0.399535
    33  H    0.000018  -0.040649   0.517978  -0.000211  -0.004495
    34  H   -0.003312  -0.040240  -0.000211   0.515671  -0.004405
    35  H   -0.000174   0.399535  -0.004495  -0.004405   0.517917
 Mulliken atomic charges:
              1
     1  C   -0.525611
     2  H    0.196932
     3  C    0.052911
     4  C   -0.166703
     5  C   -0.138910
     6  C   -0.176312
     7  H    0.202169
     8  C   -0.169194
     9  H    0.169403
    10  C   -0.152215
    11  H    0.162674
    12  H    0.162236
    13  H    0.163502
    14  C    0.052911
    15  C   -0.166703
    16  C   -0.138910
    17  C   -0.176312
    18  H    0.202169
    19  C   -0.169194
    20  H    0.169403
    21  C   -0.152215
    22  H    0.162674
    23  H    0.162236
    24  H    0.163502
    25  C    0.052911
    26  C   -0.138910
    27  C   -0.166703
    28  C   -0.169194
    29  H    0.169403
    30  C   -0.176312
    31  H    0.202169
    32  C   -0.152215
    33  H    0.162236
    34  H    0.162674
    35  H    0.163502
 Sum of Mulliken atomic charges =   0.00000
 Mulliken charges with hydrogens summed into heavy atoms:
              1
     1  C   -0.328679
     3  C    0.052911
     4  C    0.035466
     5  C    0.030493
     6  C   -0.013638
     8  C   -0.006958
    10  C    0.011286
    14  C    0.052911
    15  C    0.035466
    16  C    0.030493
    17  C   -0.013638
    19  C   -0.006958
    21  C    0.011286
    25  C    0.052911
    26  C    0.030493
    27  C    0.035466
    28  C   -0.006958
    30  C   -0.013638
    32  C    0.011286
 Sum of Mulliken charges with hydrogens summed into heavy atoms =   0.00000
 Electronic spatial extent (au):  <R**2>=           4917.7620
 Charge=              0.0000 electrons
 Dipole moment (field-independent basis, Debye):
    X=              0.0000    Y=              0.0000    Z=              0.0243  Tot=              0.0243
 Quadrupole moment (field-independent basis, Debye-Ang):
   XX=           -111.4651   YY=           -111.4651   ZZ=           -104.7193
   XY=              0.0000   XZ=              0.0000   YZ=              0.0000
 Traceless Quadrupole moment (field-independent basis, Debye-Ang):
   XX=             -2.2486   YY=             -2.2486   ZZ=              4.4972
   XY=              0.0000   XZ=              0.0000   YZ=              0.0000
 Octapole moment (field-independent basis, Debye-Ang**2):
  XXX=            -13.7592  YYY=             39.4716  ZZZ=              0.7817  XYY=             13.7592
  XXY=            -39.4716  XXZ=             -3.6233  XZZ=              0.0000  YZZ=              0.0000
  YYZ=             -3.6233  XYZ=              0.0000
 Hexadecapole moment (field-independent basis, Debye-Ang**3):
 XXXX=          -2985.9212 YYYY=          -2985.9212 ZZZZ=           -746.0014 XXXY=              0.0000
 XXXZ=            -76.1706 YYYX=              0.0000 YYYZ=            -17.5746 ZZZX=              0.0000
 ZZZY=              0.0000 XXYY=           -995.3071 XXZZ=           -612.7604 YYZZ=           -612.7604
 XXYZ=             17.5746 YYXZ=             76.1706 ZZXY=              0.0000
 N-N= 1.290369243417D+03 E-N=-4.276838717917D+03  KE= 7.285944703161D+02
 PrsmSu:  requested number of processors reduced to:  10 ShMem   1 Linda.
 Calling FoFJK, ICntrl=      2127 FMM=F ISym2X=1 I1Cent= 0 IOpClX= 0 NMat=1 NMatS=1 NMatT=0.
 ***** Axes restored to original set *****
 -------------------------------------------------------------------
 Center     Atomic                   Forces (Hartrees/Bohr)
 Number     Number              X              Y              Z
 -------------------------------------------------------------------
      1        6           0.000000000    0.000000000    0.022361575
      2        1           0.000000000    0.000000000   -0.025899923
      3        6           0.001890698   -0.012987990    0.003152799
      4        6           0.005647253    0.006202865   -0.006191382
      5        6          -0.002941559    0.000362852    0.005435670
      6        6           0.003964164   -0.003484978   -0.011179971
      7        1          -0.007024638   -0.016504406    0.012013464
      8        6          -0.005681344   -0.008890576    0.007751315
      9        1           0.007133922   -0.004031533   -0.015257723
     10        6          -0.000175662   -0.013107158   -0.003688349
     11        1          -0.006613189    0.004492323    0.014634003
     12        1           0.006881777    0.011288485   -0.010096627
     13        1           0.000284655    0.016106559    0.004606250
     14        6          -0.012193278    0.004856602    0.003152799
     15        6           0.002548212   -0.007992097   -0.006191382
     16        6           0.001785018    0.002366039    0.005435670
     17        6          -0.005000161   -0.001690578   -0.011179971
     18        1          -0.010780916    0.014335717    0.012013464
     19        6          -0.004858792    0.009365476    0.007751315
     20        1          -0.007058371   -0.004162391   -0.015257723
     21        6          -0.011263301    0.006705707   -0.003688349
     22        1           0.007197060    0.003481029    0.014634003
     23        1           0.006335226   -0.011604036   -0.010096627
     24        1           0.013806362   -0.008299798    0.004606250
     25        6           0.010302580    0.008131387    0.003152799
     26        6           0.001156540   -0.002728890    0.005435670
     27        6          -0.008195465    0.001789232   -0.006191382
     28        6           0.010540136   -0.000474900    0.007751315
     29        1          -0.000075551    0.008193924   -0.015257723
     30        6           0.001035997    0.005175556   -0.011179971
     31        1           0.017805553    0.002168688    0.012013464
     32        6           0.011438963    0.006401452   -0.003688349
     33        1          -0.013217003    0.000315551   -0.010096627
     34        1          -0.000583871   -0.007973351    0.014634003
     35        1          -0.014091017   -0.007806761    0.004606250
 -------------------------------------------------------------------
 Cartesian Forces:  Max     0.025899923 RMS     0.008993221

 GradGradGradGradGradGradGradGradGradGradGradGradGradGradGradGradGradGrad
 Berny optimization.
 Internal  Forces:  Max     0.025899923 RMS     0.006550672
 Search for a local minimum.
 Step number   1 out of a maximum of  197
 All quantities printed in internal units (Hartrees-Bohrs-Radians)
 Mixed Optimization -- RFO/linear search
 Second derivative matrix not updated -- first step.
     Eigenvalues ---    0.00646   0.00646   0.00646   0.01536   0.01536
     Eigenvalues ---    0.01536   0.02143   0.02143   0.02143   0.02171
     Eigenvalues ---    0.02171   0.02171   0.02182   0.02182   0.02182
     Eigenvalues ---    0.02201   0.02201   0.02201   0.02213   0.02213
     Eigenvalues ---    0.02213   0.02215   0.02215   0.02215   0.02217
     Eigenvalues ---    0.02217   0.02217   0.02218   0.02218   0.02218
     Eigenvalues ---    0.04651   0.06494   0.06494   0.15999   0.15999
     Eigenvalues ---    0.15999   0.16000   0.16000   0.16000   0.16000
     Eigenvalues ---    0.16000   0.16000   0.16000   0.16000   0.16000
     Eigenvalues ---    0.16000   0.16000   0.16000   0.19007   0.19007
     Eigenvalues ---    0.22000   0.22000   0.22000   0.22000   0.22000
     Eigenvalues ---    0.22000   0.23478   0.23478   0.23478   0.25000
     Eigenvalues ---    0.25000   0.25000   0.31292   0.31442   0.31442
     Eigenvalues ---    0.31442   0.33905   0.33905   0.33905   0.34109
     Eigenvalues ---    0.34109   0.34109   0.34261   0.34261   0.34261
     Eigenvalues ---    0.34262   0.34262   0.34262   0.34282   0.34282
     Eigenvalues ---    0.34282   0.42462   0.42462   0.42462   0.42574
     Eigenvalues ---    0.42574   0.42574   0.46399   0.46399   0.46399
     Eigenvalues ---    0.46774   0.46774   0.46774   0.47231   0.47231
     Eigenvalues ---    0.47231   0.47306   0.47306   0.473061000.00000
     Eigenvalues --- 1000.000001000.000001000.000001000.000001000.00000
     Eigenvalues --- 1000.000001000.000001000.000001000.000001000.00000
     Eigenvalues --- 1000.000001000.000001000.000001000.000001000.00000
     Eigenvalues --- 1000.000001000.000001000.000001000.000001000.00000
     Eigenvalues --- 1000.000001000.000001000.000001000.000001000.00000
     Eigenvalues --- 1000.000001000.000001000.000001000.000001000.00000
     Eigenvalues --- 1000.000001000.000001000.000001000.000001000.00000
     Eigenvalues --- 1000.000001000.000001000.000001000.000001000.00000
     Eigenvalues --- 1000.000001000.000001000.000001000.000001000.00000
     Eigenvalues --- 1000.000001000.000001000.000001000.000001000.00000
     Eigenvalues --- 1000.000001000.000001000.000001000.000001000.00000
     Eigenvalues --- 1000.000001000.000001000.000001000.000001000.00000
     Eigenvalues --- 1000.000001000.000001000.000001000.000001000.00000
     Eigenvalues --- 1000.000001000.000001000.000001000.000001000.00000
     Eigenvalues --- 1000.000001000.000001000.000001000.000001000.00000
     Eigenvalues --- 1000.000001000.000001000.000001000.000001000.00000
     Eigenvalues --- 1000.000001000.000001000.000001000.000001000.00000
     Eigenvalues --- 1000.000001000.00000
 RFO step:  Lambda=-2.69931641D-02 EMin= 6.45700314D-03
 Linear search not attempted -- first point.
 Maximum step size (   0.300) exceeded in Quadratic search.
    -- Step size scaled by   0.784
 Iteration  1 RMS(Cart)=  0.10423568 RMS(Int)=  0.00168352
 Iteration  2 RMS(Cart)=  0.00452376 RMS(Int)=  0.00032042
 Iteration  3 RMS(Cart)=  0.00000482 RMS(Int)=  0.00032041
 Iteration  4 RMS(Cart)=  0.00000000 RMS(Int)=  0.00032041
 ClnCor:  largest displacement from symmetrization is 1.41D-10 for atom    24.
 Variable       Old X    -DE/DX   Delta X   Delta X   Delta X     New X
                                 (Linear)    (Quad)   (Total)
    R1        2.12158  -0.02590   0.00000  -0.05972  -0.05972   2.06187
    R2        2.85177   0.01933   0.00000   0.04438   0.04438   2.89615
    R3        2.85177   0.01933   0.00000   0.04438   0.04438   2.89615
    R4        2.85177   0.01933   0.00000   0.04438   0.04438   2.89615
    R5        2.63729  -0.00243   0.00000  -0.00382  -0.00381   2.63348
    R6        2.64097  -0.00441   0.00000  -0.00714  -0.00713   2.63385
    R7        2.62767  -0.00300   0.00000  -0.00461  -0.00461   2.62306
    R8        2.07491  -0.02142   0.00000  -0.04587  -0.04587   2.02904
    R9        2.62634  -0.00371   0.00000  -0.00591  -0.00590   2.62044
   R10        2.07146  -0.01730   0.00000  -0.03684  -0.03684   2.03461
   R11        2.62705  -0.00577   0.00000  -0.00900  -0.00902   2.61803
   R12        2.06890  -0.01668   0.00000  -0.03536  -0.03536   2.03354
   R13        2.62842  -0.00625   0.00000  -0.00988  -0.00988   2.61854
   R14        2.06892  -0.01663   0.00000  -0.03527  -0.03527   2.03365
   R15        2.06856  -0.01675   0.00000  -0.03550  -0.03550   2.03306
   R16        2.63729  -0.00243   0.00000  -0.00382  -0.00381   2.63348
   R17        2.64097  -0.00441   0.00000  -0.00714  -0.00713   2.63385
   R18        2.62767  -0.00300   0.00000  -0.00461  -0.00461   2.62306
   R19        2.07491  -0.02142   0.00000  -0.04587  -0.04587   2.02904
   R20        2.62634  -0.00371   0.00000  -0.00591  -0.00590   2.62044
   R21        2.07146  -0.01730   0.00000  -0.03684  -0.03684   2.03461
   R22        2.62705  -0.00577   0.00000  -0.00900  -0.00902   2.61803
   R23        2.06890  -0.01668   0.00000  -0.03536  -0.03536   2.03354
   R24        2.62842  -0.00625   0.00000  -0.00988  -0.00988   2.61854
   R25        2.06892  -0.01663   0.00000  -0.03527  -0.03527   2.03365
   R26        2.06856  -0.01675   0.00000  -0.03550  -0.03550   2.03306
   R27        2.64097  -0.00441   0.00000  -0.00714  -0.00713   2.63385
   R28        2.63729  -0.00243   0.00000  -0.00382  -0.00381   2.63348
   R29        2.62634  -0.00371   0.00000  -0.00591  -0.00590   2.62044
   R30        2.07146  -0.01730   0.00000  -0.03684  -0.03684   2.03461
   R31        2.62767  -0.00300   0.00000  -0.00461  -0.00461   2.62306
   R32        2.07491  -0.02142   0.00000  -0.04587  -0.04587   2.02904
   R33        2.62842  -0.00625   0.00000  -0.00988  -0.00988   2.61854
   R34        2.06892  -0.01663   0.00000  -0.03527  -0.03527   2.03365
   R35        2.62705  -0.00577   0.00000  -0.00900  -0.00902   2.61803
   R36        2.06890  -0.01668   0.00000  -0.03536  -0.03536   2.03354
   R37        2.06856  -0.01675   0.00000  -0.03550  -0.03550   2.03306
    A1        1.86686  -0.00347   0.00000  -0.03695  -0.03623   1.83063
    A2        1.86686  -0.00347   0.00000  -0.03695  -0.03623   1.83063
    A3        1.86686  -0.00347   0.00000  -0.03695  -0.03623   1.83063
    A4        1.95230   0.00313   0.00000   0.03333   0.03109   1.98339
    A5        1.95230   0.00313   0.00000   0.03333   0.03109   1.98339
    A6        1.95230   0.00313   0.00000   0.03333   0.03109   1.98339
    A7        2.12864   0.00997   0.00000   0.02838   0.02837   2.15701
    A8        2.07449  -0.00229   0.00000  -0.00630  -0.00631   2.06818
    A9        2.08006  -0.00768   0.00000  -0.02208  -0.02206   2.05799
   A10        2.10069   0.00327   0.00000   0.01027   0.01026   2.11096
   A11        2.08624   0.00073   0.00000   0.00478   0.00478   2.09102
   A12        2.09620  -0.00401   0.00000  -0.01508  -0.01508   2.08112
   A13        2.10016   0.00546   0.00000   0.01658   0.01660   2.11675
   A14        2.09412  -0.00346   0.00000  -0.01135  -0.01136   2.08276
   A15        2.08890  -0.00200   0.00000  -0.00524  -0.00525   2.08365
   A16        2.09754   0.00127   0.00000   0.00387   0.00384   2.10138
   A17        2.09046  -0.00054   0.00000  -0.00155  -0.00154   2.08892
   A18        2.09519  -0.00073   0.00000  -0.00233  -0.00232   2.09287
   A19        2.09754  -0.00007   0.00000  -0.00098  -0.00098   2.09655
   A20        2.09155   0.00014   0.00000   0.00094   0.00094   2.09249
   A21        2.09410  -0.00008   0.00000   0.00004   0.00004   2.09414
   A22        2.09039  -0.00226   0.00000  -0.00765  -0.00768   2.08271
   A23        2.09666   0.00115   0.00000   0.00389   0.00390   2.10056
   A24        2.09614   0.00111   0.00000   0.00375   0.00376   2.09990
   A25        2.12864   0.00997   0.00000   0.02838   0.02837   2.15701
   A26        2.07449  -0.00229   0.00000  -0.00630  -0.00631   2.06818
   A27        2.08006  -0.00768   0.00000  -0.02208  -0.02206   2.05799
   A28        2.10069   0.00327   0.00000   0.01027   0.01026   2.11096
   A29        2.08624   0.00073   0.00000   0.00478   0.00478   2.09102
   A30        2.09620  -0.00401   0.00000  -0.01508  -0.01508   2.08112
   A31        2.10016   0.00546   0.00000   0.01658   0.01660   2.11675
   A32        2.09412  -0.00346   0.00000  -0.01135  -0.01136   2.08276
   A33        2.08890  -0.00200   0.00000  -0.00524  -0.00525   2.08365
   A34        2.09754   0.00127   0.00000   0.00387   0.00384   2.10138
   A35        2.09046  -0.00054   0.00000  -0.00155  -0.00154   2.08892
   A36        2.09519  -0.00073   0.00000  -0.00233  -0.00232   2.09287
   A37        2.09754  -0.00007   0.00000  -0.00098  -0.00098   2.09655
   A38        2.09155   0.00014   0.00000   0.00094   0.00094   2.09249
   A39        2.09410  -0.00008   0.00000   0.00004   0.00004   2.09414
   A40        2.09039  -0.00226   0.00000  -0.00765  -0.00768   2.08271
   A41        2.09666   0.00115   0.00000   0.00389   0.00390   2.10056
   A42        2.09614   0.00111   0.00000   0.00375   0.00376   2.09990
   A43        2.07449  -0.00229   0.00000  -0.00630  -0.00631   2.06818
   A44        2.12864   0.00997   0.00000   0.02838   0.02837   2.15701
   A45        2.08006  -0.00768   0.00000  -0.02208  -0.02206   2.05799
   A46        2.10016   0.00546   0.00000   0.01658   0.01660   2.11675
   A47        2.09412  -0.00346   0.00000  -0.01135  -0.01136   2.08276
   A48        2.08890  -0.00200   0.00000  -0.00524  -0.00525   2.08365
   A49        2.10069   0.00327   0.00000   0.01027   0.01026   2.11096
   A50        2.08624   0.00073   0.00000   0.00478   0.00478   2.09102
   A51        2.09620  -0.00401   0.00000  -0.01508  -0.01508   2.08112
   A52        2.09754  -0.00007   0.00000  -0.00098  -0.00098   2.09655
   A53        2.09155   0.00014   0.00000   0.00094   0.00094   2.09249
   A54        2.09410  -0.00008   0.00000   0.00004   0.00004   2.09414
   A55        2.09754   0.00127   0.00000   0.00387   0.00384   2.10138
[...]
 7190,-0.00266237,0.00520362,-0.00057089,-0.00008525,0.00000151,-0.0002
 3491,0.00059501,0.00027579,-0.00081204,0.00024172,0.00008282,-0.000199
 44,0.00001419,0.00037791,0.00013873,-0.00005391,0.00001851,0.00008995,
 -0.00005115,0.00008933,0.00008476,0.00001785,-0.00002551,-0.00006550,-
 0.00003241,-0.00000377,0.00004892,-0.00003320,-0.00004259,0.00003973,-
 0.00000027,0.00002197,-0.00000134,-0.00000555,0.00000844,0.00001417,-0
 .00000984,-0.00002215,0.00000949,-0.00103819,-0.00016770,0.00043403,-0
 .00015156,-0.00001599,0.00023252,0.00018967,-0.00024843,-0.00007522,0.
 00019137,-0.00017302,0.00008995,0.00006599,0.00011329,-0.00000667,-0.0
 0009263,0.00004201,-0.00014622,0.00003653,0.00001219,0.00000475,0.0000
 6889,0.00011027,0.00010788,-0.00000504,-0.00000563,-0.00001995,-0.0000
 1807,0.00001152,0.00003089,-0.00003532,0.00001540,0.00000113,0.0364917
 0,0.01473996,0.00682621,-0.01768091,-0.00535101,-0.00732573,0.06356003
 ,0.07029746,-0.14795634,-0.02064585,0.02569591,-0.03408790,0.00000370,
 -0.00093480,0.00029797,0.09141832,-0.29953573,0.61509209,-0.00072257,0
 .00103851,0.00070093,-0.00004811,0.00009105,-0.00004022,0.00029760,-0.
 00003131,-0.00025834,0.00025628,0.00012959,-0.00009229,-0.00000138,0.0
 0011868,0.00007827,-0.00003253,-0.00002965,0.00006512,-0.00020045,0.00
 005104,-0.00001065,-0.00000519,-0.00000692,-0.00000765,-0.00001096,-0.
 00000947,0.00001180,-0.00000607,0.00000537,-0.00000106,-0.00000592,0.0
 0002142,0.00000407,-0.00000454,0.00000910,0.00000256,-0.00000792,-0.00
 000593,0.00000369,-0.00135423,-0.00134835,0.00198127,-0.00095781,-0.00
 058415,0.00059596,-0.00008792,-0.00051512,0.00016758,-0.00008253,-0.00
 015367,-0.00005179,0.00009565,0.00011991,-0.00002098,0.00001448,0.0000
 3833,0.00000002,0.00004766,0.00003315,-0.00008298,-0.00001709,0.000155
 87,-0.00000462,0.00002796,0.00001437,0.00000533,0.00000394,-0.00001293
 ,-0.00001649,0.00002435,-0.00000211,-0.00000596,0.00519087,-0.00174117
 ,0.00232467,0.00173475,-0.00202646,0.00000572,-0.27586803,0.03229542,-
 0.14156649,0.00027970,-0.00032881,0.00097038,0.00016306,-0.00009729,0.
 00015474,-0.01778991,0.00674191,-0.01931263,0.29200573,0.00134067,-0.0
 0223785,-0.00264846,0.00039048,0.00046539,-0.00026837,-0.00059168,-0.0
 0024355,0.00045581,-0.00030732,-0.00008137,0.00015553,-0.00000309,-0.0
 0020424,-0.00011841,0.00003646,-0.00001288,-0.00011380,0.00035016,-0.0
 0003729,0.00002763,-0.00000254,0.00002912,0.00006051,0.00000963,0.0000
 0285,-0.00001324,0.00002786,0.00001069,-0.00002191,0.00000207,-0.00001
 055,0.00000961,0.00001373,-0.00000575,-0.00000813,0.00001116,0.0000223
 9,-0.00000362,-0.00065659,-0.00013728,0.00029339,-0.00009434,0.0000433
 1,0.00009834,-0.00033327,0.00025793,0.00015693,-0.00033995,0.00034848,
 -0.00008896,-0.00017921,-0.00033338,0.00000316,0.00032897,-0.00027699,
 0.00019772,0.00001723,0.00000923,-0.00014819,-0.00000606,-0.00030329,-
 0.00023948,0.00000292,0.00000984,0.00000838,0.00004510,-0.00001788,-0.
 00003487,0.00004126,-0.00001751,-0.00002378,0.01989200,0.00297961,0.01
 193007,-0.00244021,0.00246995,0.00684184,0.03236355,-0.06557988,0.0351
 8355,-0.00021013,-0.00100459,-0.00008769,0.00092812,-0.00016503,0.0005
 8987,-0.01665631,0.00755490,-0.01015595,-0.03067002,0.05596011,-0.0002
 3989,-0.00237574,-0.00116864,0.00019618,0.00010751,0.00005923,-0.00024
 247,-0.00013186,0.00032590,-0.00004835,-0.00004840,0.00009839,0.000018
 42,-0.00009599,-0.00005980,0.00004756,0.00003368,-0.00000667,0.0000132
 3,0.00001659,-0.00004282,0.00001963,-0.00000320,0.00000220,-0.00001163
 ,0.00000792,-0.00003722,-0.00001342,-0.00001475,0.00000274,0.00000170,
 -0.00001539,-0.00001107,0.00000046,-0.00000677,-0.00000326,-0.00000241
 ,0.00000228,-0.00000887,0.00017753,0.00050094,-0.00002265,0.00008033,-
 0.00008043,0.00063097,0.00008806,-0.00069907,-0.00016868,0.00023990,-0
 .00009892,0.00008476,-0.00001861,-0.00002304,-0.00004282,0.00004735,-0
 .00018378,-0.00010841,0.00000169,0.00009008,-0.00006019,-0.00000898,0.
 00021497,0.00006631,-0.00006068,-0.00002295,-0.00003664,-0.00000547,0.
 00003732,-0.00000064,-0.00004152,0.00001607,-0.00000777,-0.02536019,0.
 00294326,-0.00935967,-0.00024874,0.00715665,-0.00088901,-0.13958148,0.
 03464528,-0.15563607,0.00108658,0.00003478,-0.00057566,-0.00116577,0.0
 0005467,-0.00074805,0.01066094,0.00011772,0.00992470,0.15241323,-0.043
 17702,0.15560037,0.00075839,0.00089419,-0.00028957,-0.00024586,0.00000
 976,0.00049132,0.00023434,0.00031266,0.00029377,0.00007541,-0.00013590
 ,0.00015001,0.00009577,-0.00037874,-0.00007184,-0.00010317,-0.00022057
 ,0.00006105,-0.00029661,0.00000551,0.00019066,-0.00009128,0.00011224,0
 .00013515,0.00000543,0.00002535,-0.00000297,0.00010233,-0.00002360,-0.
 00015321,0.00000722,-0.00005667,-0.00002837,-0.00002050,-0.00002708,-0
 .00001801,-0.00000096,-0.00001869,0.00000029,0.00012270,-0.00041000,-0
 .00016084,0.00012848,-0.00005243,0.00024252,-0.00032515,0.00002501,-0.
 00001362,-0.00012220,0.00017734,0.00005348,0.00002089,0.00001020,0.000
 01948,0.00023490,-0.00008354,0.00013114,0.00001922,-0.00001066,-0.0000
 4211,-0.00008585,-0.00008505,-0.00023124,-0.00002539,0.00000305,-0.000
 02071,-0.00002964,0.00001709,0.00002439,-0.00002443,0.00000641,-0.0000
 0221,-0.02566996,0.02377656,-0.03987791,0.04913726,-0.01459874,0.03596
 844,-0.06467472,-0.03513248,0.01338540,-0.15731037,-0.04493364,0.02564
 262,-0.00433137,-0.00471308,0.00024989,-0.30035783,0.03049393,-0.13980
 105,-0.00264836,-0.00460588,0.00090114,0.77717122,0.00029984,-0.001807
 78,0.00021810,-0.00010477,-0.00006158,-0.00060950,-0.00106501,0.000256
 10,-0.00003912,-0.00012858,-0.00012950,0.00006446,-0.00003664,0.000026
 40,-0.00021338,0.00011987,0.00020601,-0.00011480,0.00016743,-0.0000237
 7,-0.00009971,0.00010526,-0.00012548,-0.00004457,-0.00000869,0.0000232
 0,-0.00000739,-0.00010047,-0.00007695,0.00012322,-0.00000873,-0.000013
 34,-0.00002207,0.00001701,-0.00003249,0.00001333,0.00000834,0.00000044
 ,-0.00000930,-0.00004910,0.00008178,0.00032232,-0.00015332,0.00011811,
 -0.00004328,0.00016328,-0.00004443,-0.00009646,0.00010576,-0.00011765,
 -0.00000745,-0.00001230,-0.00001627,-0.00000425,-0.00012566,0.00006120
 ,-0.00013542,0.00002396,-0.00005892,0.00002934,-0.00000818,0.00011123,
 0.00010981,-0.00001414,-0.00000262,-0.00000024,-0.00002852,0.00000831,
 0.00000759,-0.00000716,-0.00000065,0.00000074,0.02426647,-0.02333271,0
 .03340622,-0.05485184,-0.01938476,0.01505108,0.00545533,0.03814667,-0.
 03545003,0.00682720,-0.18864497,0.14300006,-0.00436795,0.00463890,0.00
 392061,-0.02186166,-0.11968540,0.03706336,-0.00465505,0.00357925,0.004
 68194,0.15936049,0.42750845,0.00045003,0.00171131,-0.00115348,0.000305
 51,0.00022249,0.00096818,0.00116411,-0.00022899,0.00037607,0.00033506,
 0.00026086,0.00007316,0.00008244,-0.00037045,0.00028444,-0.00015909,-0
 .00044010,0.00010788,-0.00020509,0.00012374,0.00006631,-0.00020647,0.0
 0026481,0.00018607,0.00000379,-0.00001057,0.00000557,0.00021072,0.0001
 4536,-0.00027669,0.00002011,0.00002220,0.00004701,-0.00003339,0.000025
 40,-0.00002641,-0.00000747,0.00000274,0.00000409,0.00017686,-0.0002009
 3,-0.00051961,0.00034075,-0.00020491,0.00023180,-0.00040438,-0.0000201
 6,0.00010569,-0.00021680,0.00026644,0.00003973,0.00001950,0.00001004,0
 .00000274,0.00030501,-0.00015344,0.00024532,0.00001314,0.00004544,-0.0
 0008395,-0.00003011,-0.00019429,-0.00027669,0.00000636,0.00000435,-0.0
 0000760,0.00000445,0.00000528,0.00000988,-0.00000686,0.00000251,-0.000
 00719,-0.04124187,0.03208577,-0.07029617,0.09124435,0.03244408,0.00650
 349,-0.04131343,-0.05352276,0.06269328,-0.04352277,0.11878747,-0.26231
 423,-0.00039128,0.00363228,0.00406005,-0.07104605,0.06145042,-0.197127
 83,0.00130123,0.00488047,0.00329752,0.06588966,-0.26229903,0.55409271,
 -0.00070975,0.00060256,-0.00098204,0.00000514,0.00000263,0.00006140,-0
 .00011103,0.00018233,0.00009425,0.00003593,-0.00005452,-0.00003716,0.0
 0003109,-0.00011283,-0.00002957,-0.00000806,-0.00000236,0.00001901,-0.
 00002636,0.00003042,0.00003505,0.00000335,-0.00001724,0.00001931,-0.00
 000724,0.00001803,-0.00000882,0.00000377,-0.00003638,0.00000234,-0.000
 00024,-0.00001207,-0.00002074,-0.00001458,-0.00002120,-0.00000004,-0.0
 0000613,-0.00001710,-0.00000530,-0.00010886,-0.00036977,0.00019253,-0.
 00008906,0.00008478,0.00000810,-0.00007218,0.00001242,-0.00005447,0.00
 002476,0.00001648,-0.00000454,0.00000444,-0.00000391,0.00000564,0.0000
 1538,-0.00000860,-0.00002394,0.00001343,-0.00001514,-0.00000152,-0.000
 03385,0.00001937,-0.00000530,-0.00001657,0.00000233,-0.00001469,-0.000
 01543,0.00002071,0.00000504,-0.00001478,0.00000654,-0.00000270,-0.0024
 3823,-0.00500131,0.00121316,-0.01816492,0.00686929,-0.02025284,0.00025
 238,-0.00039374,0.00107036,-0.27371356,0.02648918,-0.13991592,0.000791
 05,0.00095308,0.00151756,0.00208575,-0.00196547,-0.00044282,-0.0001441
 8,0.00031692,0.00010203,0.00559212,-0.00303044,0.00408072,0.28608681,-
 0.00052061,0.00018739,-0.00050668,0.00007284,0.00006200,-0.00001784,-0
 .00007047,0.00004132,0.00002421,0.00001011,-0.00003535,0.00000621,-0.0
 0000976,-0.00003015,-0.00001405,0.00001355,-0.00001428,0.00000989,-0.0
 0002760,0.00001241,-0.00001392,0.00000890,-0.00000083,0.00000959,-0.00
 000118,0.00000483,-0.00001039,0.00000922,-0.00002510,-0.00000649,-0.00
 000554,-0.00000901,-0.00001466,-0.00000168,-0.00000250,-0.00000329,-0.
 00000540,-0.00000045,-0.00000408,-0.00017650,-0.00024258,0.00000686,0.
 00000018,0.00001478,0.00000095,-0.00003711,0.00004028,0.00003152,-0.00
 002149,0.00004348,-0.00000903,-0.00000855,-0.00001473,0.00000378,0.000
 04708,-0.00000884,0.00001144,0.00000050,0.00000056,0.00000002,-0.00002
 472,-0.00001914,-0.00004162,-0.00000577,0.00000210,-0.00000492,0.00000
 119,-0.00000166,0.00000303,-0.00000233,-0.00000116,0.00000050,-0.00445
 113,0.00372937,0.00489320,-0.01614441,0.00762116,-0.01022294,-0.000263
 20,-0.00101275,0.00000466,0.02658149,-0.06342365,0.03203383,0.00173491
 ,-0.00252678,-0.00271899,-0.00232037,0.00257697,0.00704548,0.00026048,
 -0.00069383,-0.00062005,0.01984752,0.00319646,0.01224738,-0.02618612,0
 .05303842,0.00042983,-0.00012812,0.00021795,-0.00002729,-0.00002301,-0
 .00004029,-0.00011249,-0.00002203,0.00002033,0.00001009,-0.00002716,-0
 .00001370,-0.00000633,0.00000179,-0.00004488,0.00000353,0.00001285,0.0
 0003089,-0.00002195,0.00003171,-0.00000064,0.00001262,-0.00001264,-0.0
 0000618,0.00000375,0.00000415,-0.00000358,-0.00000562,-0.00002492,0.00
 000988,-0.00000422,-0.00000838,-0.00001894,0.00000011,-0.00000588,0.00
 000195,-0.00000531,-0.00000777,-0.00000264,-0.00000083,-0.00001029,-0.
 00008308,0.00001085,-0.00001400,0.00003697,-0.00002308,0.00000421,0.00
 003059,-0.00002079,0.00001669,0.00001417,0.00000576,0.00000629,-0.0000
 0326,0.00003064,-0.00002363,0.00001371,0.00000828,0.00000240,-0.000017
 80,-0.00000254,-0.00002226,-0.00002641,0.00000025,0.00000268,-0.000006
 40,0.00000286,0.00000161,0.00000195,-0.00000264,0.00000349,-0.00000373
 ,0.00092968,0.00474082,0.00329814,0.01042015,0.00060304,0.00975186,0.0
 0105850,-0.00001227,-0.00044108,-0.14013547,0.03195901,-0.15683843,0.0
 0051002,-0.00302165,-0.00090440,-0.00002161,0.00717336,-0.00093604,0.0
 0011220,-0.00058766,-0.00042463,-0.02639656,0.00151855,-0.00887109,0.1
 5290291,-0.03971664,0.15674823,0.00047284,-0.00053205,0.00105131,-0.00
 024951,-0.00017841,0.00015408,-0.00014759,0.00006011,0.00009268,0.0000
 0048,-0.00002770,-0.00003242,-0.00000970,-0.00007850,-0.00003482,0.000
 00421,-0.00000042,-0.00000236,0.00000688,-0.00000220,0.00001047,0.0000
 0451,-0.00001509,0.00000741,0.00000483,0.00000969,-0.00000974,-0.00000
 352,-0.00001568,0.00000059,0.00000424,-0.00000621,-0.00000477,-0.00000
 108,-0.00001127,0.00000220,-0.00000049,-0.00000518,-0.00000220,0.00021
 455,-0.00004572,0.00000406,0.00000100,0.00003137,-0.00003082,-0.000034
 26,0.00003776,-0.00001213,-0.00000990,0.00002152,-0.00001889,0.0000007
 8,-0.00001755,0.00001248,0.00001458,0.00000924,-0.00000166,-0.00000025
 ,-0.00001850,0.00000202,-0.00003652,0.00003141,-0.00002928,-0.00001926
 ,-0.00000736,-0.00000126,-0.00001444,0.00000387,0.00000937,-0.00001259
 ,-0.00000298,0.00000348,-0.00441729,-0.00447010,-0.00016453,-0.0013592
 9,-0.00004265,-0.00008524,0.00517517,-0.02005135,0.02633208,-0.0042087
 5,-0.00125125,-0.00438570,0.00001018,0.00026476,0.00022819,-0.07132296
 ,-0.00593774,-0.00228243,0.00089661,0.00165776,0.00049572,0.00627497,0
 .01988526,-0.02588562,0.00004600,0.00090541,-0.00117582,0.06791897,0.0
 0024367,-0.00032761,0.00049340,-0.00022604,-0.00017088,0.00004864,-0.0
 0009482,0.00013817,0.00013927,-0.00006575,-0.00009828,-0.00001158,0.00
 002602,-0.00010524,-0.00005561,-0.00001272,0.00001457,0.00000718,0.000
 00925,0.00003092,0.00006403,-0.00000474,-0.00000153,0.00000324,0.00001
 775,0.00001052,-0.00001069,0.00000151,-0.00002449,-0.00000768,0.000009
 29,-0.00002888,-0.00001381,-0.00000317,-0.00001339,-0.00000156,0.00000
 275,-0.00001042,-0.00000005,0.00020627,-0.00009900,0.00002445,-0.00007
 653,0.00006891,-0.00002454,0.00000784,0.00003039,-0.00000176,0.0000251
 5,-0.00001640,-0.00001122,0.00000180,-0.00001725,0.00000917,-0.0000165
 3,-0.00000796,-0.00002052,0.00000563,-0.00001260,-0.00002404,-0.000016
 52,0.00003040,0.00000631,-0.00002286,-0.00000537,-0.00001022,-0.000002
 66,0.00000519,0.00000053,-0.00001080,0.00000363,-0.00000057,-0.0044636
 2,0.00456826,0.00335403,-0.00002395,-0.00023547,-0.00097967,0.00292666
 ,-0.00456194,0.01462900,-0.00098864,0.00594633,0.00350798,0.00027899,-
 0.00078519,-0.00048997,-0.00591832,-0.16827134,0.15505843,0.00081750,-
 0.00243764,-0.00300375,-0.00326715,0.00281622,0.00218168,-0.00004800,-
 0.00016654,0.00009079,0.00899081,0.16623431,-0.00047714,-0.00002915,-0
 .00029390,0.00007005,0.00006524,-0.00006467,0.00015183,-0.00004176,-0.
 00003217,-0.00002261,0.00002671,0.00004326,0.00000284,0.00004719,0.000
 04700,0.00001560,-0.00001348,-0.00001995,0.00000460,-0.00000880,-0.000
 03664,-0.00000834,0.00001926,-0.00000190,-0.00000142,-0.00001048,-0.00
 000059,0.00001015,0.00001806,-0.00000760,-0.00000822,0.00000620,0.0000
 0611,0.00000309,0.00001518,-0.00000640,0.00000182,0.00001360,0.0000011
 9,-0.00004227,0.00011169,-0.00001648,-0.00000101,-0.00001854,-0.000037
 52,0.00006799,-0.00002154,0.00001639,0.00001105,-0.00003372,-0.0000013
 4,-0.00001036,-0.00000128,-0.00001107,-0.00004249,0.00000351,0.0000023
 6,-0.00001192,0.00002488,-0.00000283,0.00003330,-0.00001353,0.00004701
 ,0.00001435,0.00000278,0.00000611,0.00002307,-0.00001063,-0.00001894,0
 .00001921,-0.00000076,0.00000002,0.00031566,0.00375478,0.00384425,0.00
 004568,-0.00098597,0.00036801,-0.00409590,0.00398434,-0.00161167,-0.00
 481447,0.00333945,0.00233476,0.00022248,-0.00049695,-0.00051145,-0.002
 10142,0.15488388,-0.25411122,0.00133454,-0.00265424,-0.00089876,0.0045
 4489,0.01286941,-0.00926244,0.00013093,0.00052183,-0.00072525,0.004174
 26,-0.17237748,0.26186862,0.00002563,0.00029236,0.00016981,-0.00002599
 ,-0.00005794,0.00007950,-0.00001225,0.00007848,0.00001164,0.00002523,-
 0.00002714,-0.00004303,0.00001018,-0.00002280,-0.00002513,-0.00001917,
 0.00001391,0.00003100,-0.00002399,0.00003002,0.00003467,0.00000550,-0.
 00001038,-0.00000584,0.00000243,0.00000747,-0.00000071,-0.00000628,-0.
 00001689,0.00000560,0.00000554,-0.00000749,-0.00001026,-0.00000639,-0.
 00001138,0.00000434,-0.00000268,-0.00001493,-0.00000101,0.00002649,-0.
 00008137,0.00002837,-0.00005727,0.00002406,0.00004848,-0.00002257,-0.0
 0002818,-0.00002574,0.00002866,-0.00001659,0.00002411,0.00001708,0.000
 02037,-0.00000077,0.00000547,-0.00001745,-0.00002004,0.00001525,-0.000
 00882,-0.00000942,-0.00000439,0.00001671,0.00000136,-0.00000899,0.0000
 0027,-0.00001269,-0.00001161,0.00001393,0.00000939,-0.00001544,0.00000
 757,-0.00000363,0.00028871,0.00088210,-0.00056404,0.00207557,-0.001153
 94,-0.00154643,-0.00243757,-0.00002893,-0.00522301,0.00454455,0.002688
 19,-0.00381031,-0.00001735,0.00007186,-0.00005770,-0.01784445,-0.01677
 260,0.01154544,-0.00104296,-0.00067944,0.00045793,-0.28361697,-0.12618
 732,0.05871688,0.00070362,0.00079054,0.00151055,0.00079658,0.00169193,
 0.00044017,0.29659985,0.00012414,-0.00068898,-0.00048609,0.00002117,0.
 00006440,-0.00015511,-0.00014441,-0.00000320,0.00008947,-0.00000590,-0
 .00004322,-0.00000542,0.00001473,-0.00005482,-0.00003791,-0.00000522,0
 .00001988,0.00002289,-0.00001334,0.00003084,0.00002792,0.00000445,-0.0
 0001119,0.00000167,0.00000618,0.00000598,-0.00000494,-0.00000332,-0.00
 001880,0.00000468,0.00000033,-0.00001450,-0.00001626,-0.00000252,-0.00
 000955,0.00000054,-0.00000298,-0.00000934,-0.00000182,-0.00001500,-0.0
 0004536,-0.00000784,-0.00000558,0.00001582,0.00001965,-0.00002986,-0.0
 0000869,0.00002242,0.00000373,0.00000644,0.00000255,0.00000327,-0.0000
 0261,-0.00000323,0.00000799,-0.00001794,-0.00000285,0.00000468,-0.0000
 0082,-0.00001526,-0.00001032,0.00000387,-0.00000784,-0.00000766,-0.000
 00192,-0.00000522,0.00000224,0.00000503,-0.00000072,-0.00000438,0.0000
 0341,-0.00000253,0.00098206,-0.00049257,-0.00013335,-0.00077676,0.0032
 1035,0.00693894,-0.00046588,0.00560114,0.00425276,-0.02026361,-0.00429
 924,0.00299832,-0.00084525,-0.00048583,0.00016906,0.00648185,0.0071594
 0,0.00039708,0.00027672,0.00005773,-0.00006054,-0.12632343,-0.12721945
 ,0.04682313,0.00166910,-0.00234219,-0.00250513,0.00080894,-0.00250041,
 -0.00298968,0.13851383,0.12208633,0.00017060,-0.00056119,-0.00029649,-
 0.00006271,0.00004055,-0.00003243,-0.00004602,-0.00007123,0.00006363,0
 .00001754,-0.00000253,0.00001432,0.00000562,-0.00003210,0.00000368,0.0
 0000144,-0.00000786,0.00000113,-0.00001761,0.00001705,-0.00000777,-0.0
 0000499,-0.00000249,0.00001222,-0.00000573,-0.00000142,-0.00000368,0.0
 0000174,0.00000154,-0.00000719,-0.00000223,-0.00000273,0.00000002,0.00
 000178,0.00000209,-0.00000373,-0.00000038,0.00000441,0.00000083,-0.000
 03333,0.00004802,0.00000975,0.00002308,-0.00002723,0.00003937,0.000007
 31,-0.00004498,0.00001033,0.00001652,-0.00000955,0.00000949,0.00000129
 ,0.00000500,-0.00000887,-0.00000455,-0.00000421,0.00000010,-0.00000528
 ,0.00001431,-0.00000195,0.00000791,0.00000490,0.00000409,0.00000114,-0
 .00000188,0.00000119,0.00000618,-0.00000255,-0.00000264,0.00000208,0.0
 0000004,0.00000083,-0.00049824,-0.00005967,-0.00113695,-0.00208100,0.0
 0678768,-0.00136004,-0.00468541,0.00439077,0.00107653,0.02675448,0.013
 80526,-0.00083318,0.00122305,0.00061313,-0.00036583,-0.01893001,-0.010
 36832,0.01020936,-0.00076115,-0.00049904,0.00022489,0.05873492,0.04679
 586,-0.08317760,0.00034208,-0.00292881,-0.00076416,0.00157931,-0.00257
 345,-0.00091234,-0.06175946,-0.05532937,0.07723308||0.,0.,-0.00004201,
 0.,0.,-0.00001845,-0.00001624,-0.00002276,0.00006863,0.00000628,-0.000
 06412,-0.00004536,0.00002384,0.00004839,-0.00001367,0.00000652,0.00006
 943,-0.00000489,0.00000627,0.00001131,-0.00000606,0.00001310,-0.000041
 48,-0.00003804,-0.00001140,-0.00000061,0.00001124,-0.00003056,-0.00000
 357,0.00005238,0.00000752,-0.00000750,-0.00000429,-0.00000768,-0.00000
 010,0.00000756,0.00000591,-0.00001087,-0.00000736,-0.00001160,0.000025
 44,0.00006863,-0.00005867,0.00002662,-0.00004536,0.00002999,-0.0000448
 4,-0.00001367,0.00005687,-0.00004036,-0.00000489,0.00000666,-0.0000110
 9,-0.00000606,-0.00004247,0.00000940,-0.00003804,0.00000517,0.00001018
 ,0.00001124,0.00001219,0.00002825,0.00005238,-0.00001025,-0.00000277,-
 0.00000429,0.00000375,0.00000670,0.00000756,-0.00001237,0.00000032,-0.
 00000736,0.00002783,-0.00000268,0.00006863,-0.00005383,-0.00000355,-0.
 00001367,0.00005239,0.00003750,-0.00004536,0.00002937,0.00003208,-0.00
 003804,0.00000622,-0.00000957,0.00001124,-0.00006339,-0.00002907,-0.00
 000489,-0.00001293,-0.00000022,-0.00000606,0.00001837,-0.00002468,0.00
 005238,0.00000393,-0.00000660,0.00000756,0.00000273,0.00001026,-0.0000
 0429,0.00000646,0.00001055,-0.00000736|||@


 IF THE FACTS DO NOT CONFORM TO THE THEORY, THEY MUST BE DISPOSED OF.
 Job cpu time:  0 days  0 hours  3 minutes 34.0 seconds.
 File lengths (MBytes):  RWF=    178 Int=      0 D2E=      0 Chk=      7 Scr=      1
 Normal termination of Gaussian 09 at Mon Sep 06 13:40:24 2021.
