 Entering Link 1 = b:\programy\g09w\l1.exe PID=      3864.
  
 Copyright (c) 1988,1990,1992,1993,1995,1998,2003,2009, Gaussian, Inc.
                  All Rights Reserved.
  
 This is part of the Gaussian(R) 09 program.  It is based on
 the Gaussian(R) 03 system (copyright 2003, Gaussian, Inc.),
 the Gaussian(R) 98 system (copyright 1998, Gaussian, Inc.),
 the Gaussian(R) 94 system (copyright 1995, Gaussian, Inc.),
 the Gaussian 92(TM) system (copyright 1992, Gaussian, Inc.),
 the Gaussian 90(TM) system (copyright 1990, Gaussian, Inc.),
 the Gaussian 88(TM) system (copyright 1988, Gaussian, Inc.),
 the Gaussian 86(TM) system (copyright 1986, Carnegie Mellon
 University), and the Gaussian 82(TM) system (copyright 1983,
 Carnegie Mellon University). Gaussian is a federally registered
 trademark of Gaussian, Inc.
  
 This software contains proprietary and confidential information,
 including trade secrets, belonging to Gaussian, Inc.
  
 This software is provided under written license and may be
 used, copied, transmitted, or stored only in accord with that
 written license.
  
 The following legend is applicable only to US Government
 contracts under FAR:
  
                    RESTRICTED RIGHTS LEGEND
  
 Use, reproduction and disclosure by the US Government is
 subject to restrictions as set forth in subparagraphs (a)
 and (c) of the Commercial Computer Software - Restricted
 Rights clause in FAR 52.227-19.
  
 Gaussian, Inc.
 340 Quinnipiac St., Bldg. 40, Wallingford CT 06492
  
  
 ---------------------------------------------------------------
 Warning -- This program may not be used in any manner that
 competes with the business of Gaussian, Inc. or will provide
 assistance to any competitor of Gaussian, Inc.  The licensee
 of this program is prohibited from giving any competitor of
 Gaussian, Inc. access to this program.  By using this program,
 the user acknowledges that Gaussian, Inc. is engaged in the
 business of creating and licensing software in the field of
 computational chemistry and represents and warrants to the
 licensee that it is not a competitor of Gaussian, Inc. and that
 it will not use this program in any manner prohibited above.
 ---------------------------------------------------------------
  

 Cite this work as:
 Gaussian 09, Revision A.02,
 M. J. Frisch, G. W. Trucks, H. B. Schlegel, G. E. Scuseria, 
 M. A. Robb, J. R. Cheeseman, G. Scalmani, V. Barone, B. Mennucci, 
 G. A. Petersson, H. Nakatsuji, M. Caricato, X. Li, H. P. Hratchian, 
 A. F. Izmaylov, J. Bloino, G. Zheng, J. L. Sonnenberg, M. Hada, 
 M. Ehara, K. Toyota, R. Fukuda, J. Hasegawa, M. Ishida, T. Nakajima, 
 Y. Honda, O. Kitao, H. Nakai, T. Vreven, J. A. Montgomery, Jr., 
 J. E. Peralta, F. Ogliaro, M. Bearpark, J. J. Heyd, E. Brothers, 
 K. N. Kudin, V. N. Staroverov, R. Kobayashi, J. Normand, 
 K. Raghavachari, A. Rendell, J. C. Burant, S. S. Iyengar, J. Tomasi, 
 M. Cossi, N. Rega, J. M. Millam, M. Klene, J. E. Knox, J. B. Cross, 
 V. Bakken, C. Adamo, J. Jaramillo, R. Gomperts, R. E. Stratmann, 
 O. Yazyev, A. J. Austin, R. Cammi, C. Pomelli, J. W. Ochterski, 
 R. L. Martin, K. Morokuma, V. G. Zakrzewski, G. A. Voth, 
 P. Salvador, J. J. Dannenberg, S. Dapprich, A. D. Daniels, 
 O. Farkas, J. B. Foresman, J. V. Ortiz, J. Cioslowski, 
 and D. J. Fox, Gaussian, Inc., Wallingford CT, 2009.
 
 ******************************************
 Gaussian 09:  IA32W-G09RevA.02 11-Jun-2009
                07-Sep-2021 
 ******************************************
 %nprocshared=12
 Will use up to   12 processors via shared memory.
 ----------------------------------------------
 # opt freq=noraman hf/6-311g geom=connectivity
 ----------------------------------------------
 1/18=20,19=15,38=1,57=2/1,3;
 2/9=110,12=2,17=6,18=5,40=1/2;
 3/5=4,6=6,11=9,16=1,25=1,30=1,71=1/1,2,3;
 4//1;
 5/5=2,38=5/2;
 6/7=2,8=2,9=2,10=2,28=1/1;
 7//1,2,3,16;
 1/18=20,19=15/3(2);
 2/9=110/2;
 99//99;
 2/9=110/2;
 3/5=4,6=6,11=9,16=1,25=1,30=1,71=1/1,2,3;
 4/5=5,16=3/1;
 5/5=2,38=5/2;
 7//1,2,3,16;
 1/18=20,19=15/3(-5);
 2/9=110/2;
 6/7=2,8=2,9=2,10=2,19=2,28=1/1;
 99/9=1/99;
 -----
 M0001
 -----
 Symbolic Z-matrix:
 Charge =  0 Multiplicity = 1
 C                    -0.05247  -0.00086   0.77231 
 H                    -0.148     0.05213   1.89013 
 C                    -1.45773  -0.23352   0.27403 
 C                    -2.41599   0.75985   0.50553 
 C                    -1.84671  -1.41315  -0.35884 
 C                    -3.73262   0.57649   0.10523 
 H                    -2.11773   1.69066   1.00263 
 C                    -3.16728  -1.59558  -0.75766 
 H                    -1.10908  -2.20449  -0.54394 
 C                    -4.11199  -0.60318  -0.52823 
 H                    -4.47289   1.36183   0.2894 
 H                    -3.46002  -2.52689  -1.25334 
 H                    -5.1502   -0.74794  -0.84324 
 C                     0.48511   1.32514   0.29001 
 C                     0.90126   2.2769    1.22329 
 C                     0.56886   1.62335  -1.07156 
 C                     1.38828   3.50829   0.79879 
 H                     0.84589   2.0553    2.29563 
 C                     1.0532    2.85544  -1.49324 
 H                     0.26326   0.86195  -1.80529 
 C                     1.46242   3.80084  -0.55854 
 H                     1.71346   4.24881   1.53692 
 H                     1.11312   3.08022  -2.56304 
 H                     1.84345   4.77179  -0.89067 
 C                     0.91227  -1.11601   0.45563 
 C                     1.29774  -1.40708  -0.85498 
 C                     1.44117  -1.87358   1.50338 
 C                     2.19484  -2.43608  -1.11326 
 H                     0.89087  -0.80091  -1.67997 
 C                     2.33852  -2.90327   1.24254 
 H                     1.1493   -1.65742   2.53801 
 C                     2.71651  -3.18687  -0.06497 
 H                     2.49166  -2.65371  -2.14434 
 H                     2.74806  -3.49108   2.07049 
 H                     3.42347  -3.99741  -0.26882 
 

 GradGradGradGradGradGradGradGradGradGradGradGradGradGradGradGradGradGrad
 Berny optimization.
 Initialization pass.
                           ----------------------------
                           !    Initial Parameters    !
                           ! (Angstroms and Degrees)  !
 --------------------------                            --------------------------
 ! Name  Definition              Value          Derivative Info.                !
 --------------------------------------------------------------------------------
 ! R1    R(1,2)                  1.1231         estimate D2E/DX2                !
 ! R2    R(1,3)                  1.509          estimate D2E/DX2                !
 ! R3    R(1,14)                 1.5099         estimate D2E/DX2                !
 ! R4    R(1,25)                 1.5082         estimate D2E/DX2                !
 ! R5    R(3,4)                  1.3995         estimate D2E/DX2                !
 ! R6    R(3,5)                  1.394          estimate D2E/DX2                !
 ! R7    R(4,6)                  1.3883         estimate D2E/DX2                !
 ! R8    R(4,7)                  1.0966         estimate D2E/DX2                !
 ! R9    R(5,8)                  1.3915         estimate D2E/DX2                !
 ! R10   R(5,9)                  1.0975         estimate D2E/DX2                !
 ! R11   R(6,10)                 1.3917         estimate D2E/DX2                !
 ! R12   R(6,11)                 1.0948         estimate D2E/DX2                !
 ! R13   R(8,10)                 1.3892         estimate D2E/DX2                !
 ! R14   R(8,12)                 1.0949         estimate D2E/DX2                !
 ! R15   R(10,13)                1.0946         estimate D2E/DX2                !
 ! R16   R(14,15)                1.3964         estimate D2E/DX2                !
 ! R17   R(14,16)                1.3964         estimate D2E/DX2                !
 ! R18   R(15,17)                1.3906         estimate D2E/DX2                !
 ! R19   R(15,18)                1.0964         estimate D2E/DX2                !
 ! R20   R(16,19)                1.3894         estimate D2E/DX2                !
 ! R21   R(16,20)                1.1007         estimate D2E/DX2                !
 ! R22   R(17,21)                1.3905         estimate D2E/DX2                !
 ! R23   R(17,22)                1.095          estimate D2E/DX2                !
 ! R24   R(19,21)                1.391          estimate D2E/DX2                !
 ! R25   R(19,23)                1.0948         estimate D2E/DX2                !
 ! R26   R(21,24)                1.0946         estimate D2E/DX2                !
 ! R27   R(25,26)                1.3968         estimate D2E/DX2                !
 ! R28   R(25,27)                1.3969         estimate D2E/DX2                !
 ! R29   R(26,28)                1.3894         estimate D2E/DX2                !
 ! R30   R(26,29)                1.1016         estimate D2E/DX2                !
 ! R31   R(27,30)                1.3905         estimate D2E/DX2                !
 ! R32   R(27,31)                1.0965         estimate D2E/DX2                !
 ! R33   R(28,32)                1.3909         estimate D2E/DX2                !
 ! R34   R(28,33)                1.0948         estimate D2E/DX2                !
 ! R35   R(30,32)                1.3903         estimate D2E/DX2                !
 ! R36   R(30,34)                1.0949         estimate D2E/DX2                !
 ! R37   R(32,35)                1.0947         estimate D2E/DX2                !
 ! A1    A(2,1,3)              104.8748         estimate D2E/DX2                !
 ! A2    A(2,1,14)             107.8641         estimate D2E/DX2                !
 ! A3    A(2,1,25)             107.3541         estimate D2E/DX2                !
 ! A4    A(3,1,14)             111.1908         estimate D2E/DX2                !
 ! A5    A(3,1,25)             114.3522         estimate D2E/DX2                !
 ! A6    A(14,1,25)            110.764          estimate D2E/DX2                !
 ! A7    A(1,3,4)              118.2657         estimate D2E/DX2                !
 ! A8    A(1,3,5)              122.6985         estimate D2E/DX2                !
 ! A9    A(4,3,5)              118.9907         estimate D2E/DX2                !
 ! A10   A(3,4,6)              120.5253         estimate D2E/DX2                !
 ! A11   A(3,4,7)              119.4228         estimate D2E/DX2                !
 ! A12   A(6,4,7)              120.0511         estimate D2E/DX2                !
 ! A13   A(3,5,8)              120.3888         estimate D2E/DX2                !
 ! A14   A(3,5,9)              119.9433         estimate D2E/DX2                !
 ! A15   A(8,5,9)              119.6678         estimate D2E/DX2                !
 ! A16   A(4,6,10)             120.1137         estimate D2E/DX2                !
 ! A17   A(4,6,11)             119.8671         estimate D2E/DX2                !
 ! A18   A(10,6,11)            120.0192         estimate D2E/DX2                !
 ! A19   A(5,8,10)             120.2901         estimate D2E/DX2                !
 ! A20   A(5,8,12)             119.6715         estimate D2E/DX2                !
 ! A21   A(10,8,12)            120.0384         estimate D2E/DX2                !
 ! A22   A(6,10,8)             119.6908         estimate D2E/DX2                !
 ! A23   A(6,10,13)            120.11           estimate D2E/DX2                !
 ! A24   A(8,10,13)            120.1991         estimate D2E/DX2                !
 ! A25   A(1,14,15)            119.4169         estimate D2E/DX2                !
 ! A26   A(1,14,16)            121.3572         estimate D2E/DX2                !
 ! A27   A(15,14,16)           119.2251         estimate D2E/DX2                !
 ! A28   A(14,15,17)           120.2577         estimate D2E/DX2                !
 ! A29   A(14,15,18)           120.0568         estimate D2E/DX2                !
 ! A30   A(17,15,18)           119.6855         estimate D2E/DX2                !
 ! A31   A(14,16,19)           120.4132         estimate D2E/DX2                !
 ! A32   A(14,16,20)           119.053          estimate D2E/DX2                !
 ! A33   A(19,16,20)           120.5244         estimate D2E/DX2                !
 ! A34   A(15,17,21)           120.1972         estimate D2E/DX2                !
 ! A35   A(15,17,22)           119.8082         estimate D2E/DX2                !
 ! A36   A(21,17,22)           119.9946         estimate D2E/DX2                !
 ! A37   A(16,19,21)           120.0866         estimate D2E/DX2                !
 ! A38   A(16,19,23)           119.849          estimate D2E/DX2                !
 ! A39   A(21,19,23)           120.0644         estimate D2E/DX2                !
 ! A40   A(17,21,19)           119.8191         estimate D2E/DX2                !
 ! A41   A(17,21,24)           120.0899         estimate D2E/DX2                !
 ! A42   A(19,21,24)           120.091          estimate D2E/DX2                !
 ! A43   A(1,25,26)            121.8463         estimate D2E/DX2                !
 ! A44   A(1,25,27)            119.0573         estimate D2E/DX2                !
 ! A45   A(26,25,27)           119.0953         estimate D2E/DX2                !
 ! A46   A(25,26,28)           120.4611         estimate D2E/DX2                !
 ! A47   A(25,26,29)           119.0838         estimate D2E/DX2                !
 ! A48   A(28,26,29)           120.4502         estimate D2E/DX2                !
 ! A49   A(25,27,30)           120.3462         estimate D2E/DX2                !
 ! A50   A(25,27,31)           120.0009         estimate D2E/DX2                !
 ! A51   A(30,27,31)           119.6529         estimate D2E/DX2                !
 ! A52   A(26,28,32)           120.1213         estimate D2E/DX2                !
 ! A53   A(26,28,33)           119.8255         estimate D2E/DX2                !
 ! A54   A(32,28,33)           120.0531         estimate D2E/DX2                !
 ! A55   A(27,30,32)           120.1936         estimate D2E/DX2                !
 ! A56   A(27,30,34)           119.8086         estimate D2E/DX2                !
 ! A57   A(32,30,34)           119.9978         estimate D2E/DX2                !
 ! A58   A(28,32,30)           119.7824         estimate D2E/DX2                !
 ! A59   A(28,32,35)           120.1014         estimate D2E/DX2                !
 ! A60   A(30,32,35)           120.1161         estimate D2E/DX2                !
 ! D1    D(2,1,3,4)             63.6429         estimate D2E/DX2                !
 ! D2    D(2,1,3,5)           -113.887          estimate D2E/DX2                !
 ! D3    D(14,1,3,4)           -52.6774         estimate D2E/DX2                !
 ! D4    D(14,1,3,5)           129.7927         estimate D2E/DX2                !
 ! D5    D(25,1,3,4)          -179.0361         estimate D2E/DX2                !
 ! D6    D(25,1,3,5)             3.434          estimate D2E/DX2                !
 ! D7    D(2,1,14,15)            7.1442         estimate D2E/DX2                !
 ! D8    D(2,1,14,16)         -172.5237         estimate D2E/DX2                !
 ! D9    D(3,1,14,15)          121.6146         estimate D2E/DX2                !
 ! D10   D(3,1,14,16)          -58.0533         estimate D2E/DX2                !
 ! D11   D(25,1,14,15)        -110.0722         estimate D2E/DX2                !
 ! D12   D(25,1,14,16)          70.26           estimate D2E/DX2                !
 ! D13   D(2,1,25,26)         -177.1215         estimate D2E/DX2                !
 ! D14   D(2,1,25,27)            2.484          estimate D2E/DX2                !
 ! D15   D(3,1,25,26)           66.9877         estimate D2E/DX2                !
 ! D16   D(3,1,25,27)         -113.4068         estimate D2E/DX2                !
 ! D17   D(14,1,25,26)         -59.5924         estimate D2E/DX2                !
 ! D18   D(14,1,25,27)         120.0131         estimate D2E/DX2                !
 ! D19   D(1,3,4,6)           -177.9407         estimate D2E/DX2                !
 ! D20   D(1,3,4,7)              2.3899         estimate D2E/DX2                !
 ! D21   D(5,3,4,6)             -0.3171         estimate D2E/DX2                !
 ! D22   D(5,3,4,7)           -179.9865         estimate D2E/DX2                !
 ! D23   D(1,3,5,8)            177.7442         estimate D2E/DX2                !
 ! D24   D(1,3,5,9)             -2.2001         estimate D2E/DX2                !
 ! D25   D(4,3,5,8)              0.2314         estimate D2E/DX2                !
 ! D26   D(4,3,5,9)           -179.7129         estimate D2E/DX2                !
 ! D27   D(3,4,6,10)             0.2003         estimate D2E/DX2                !
 ! D28   D(3,4,6,11)          -179.8399         estimate D2E/DX2                !
 ! D29   D(7,4,6,10)           179.8676         estimate D2E/DX2                !
 ! D30   D(7,4,6,11)            -0.1726         estimate D2E/DX2                !
 ! D31   D(3,5,8,10)            -0.0295         estimate D2E/DX2                !
 ! D32   D(3,5,8,12)          -179.971          estimate D2E/DX2                !
 ! D33   D(9,5,8,10)           179.915          estimate D2E/DX2                !
 ! D34   D(9,5,8,12)            -0.0265         estimate D2E/DX2                !
 ! D35   D(4,6,10,8)             0.0058         estimate D2E/DX2                !
 ! D36   D(4,6,10,13)          179.961          estimate D2E/DX2                !
 ! D37   D(11,6,10,8)         -179.954          estimate D2E/DX2                !
 ! D38   D(11,6,10,13)           0.0012         estimate D2E/DX2                !
 ! D39   D(5,8,10,6)            -0.091          estimate D2E/DX2                !
 ! D40   D(5,8,10,13)          179.9539         estimate D2E/DX2                !
 ! D41   D(12,8,10,6)          179.8503         estimate D2E/DX2                !
 ! D42   D(12,8,10,13)          -0.1049         estimate D2E/DX2                !
 ! D43   D(1,14,15,17)        -179.4381         estimate D2E/DX2                !
 ! D44   D(1,14,15,18)           0.6133         estimate D2E/DX2                !
 ! D45   D(16,14,15,17)          0.2368         estimate D2E/DX2                !
 ! D46   D(16,14,15,18)       -179.7117         estimate D2E/DX2                !
 ! D47   D(1,14,16,19)         179.2957         estimate D2E/DX2                !
 ! D48   D(1,14,16,20)          -1.8163         estimate D2E/DX2                !
 ! D49   D(15,14,16,19)         -0.3728         estimate D2E/DX2                !
 ! D50   D(15,14,16,20)        178.5153         estimate D2E/DX2                !
 ! D51   D(14,15,17,21)          0.0889         estimate D2E/DX2                !
 ! D52   D(14,15,17,22)       -179.9434         estimate D2E/DX2                !
 ! D53   D(18,15,17,21)       -179.9623         estimate D2E/DX2                !
 ! D54   D(18,15,17,22)          0.0053         estimate D2E/DX2                !
 ! D55   D(14,16,19,21)          0.183          estimate D2E/DX2                !
 ! D56   D(14,16,19,23)       -179.8853         estimate D2E/DX2                !
 ! D57   D(20,16,19,21)       -178.6886         estimate D2E/DX2                !
 ! D58   D(20,16,19,23)          1.2431         estimate D2E/DX2                !
 ! D59   D(15,17,21,19)         -0.2815         estimate D2E/DX2                !
 ! D60   D(15,17,21,24)        179.8276         estimate D2E/DX2                !
 ! D61   D(22,17,21,19)        179.7508         estimate D2E/DX2                !
 ! D62   D(22,17,21,24)         -0.1401         estimate D2E/DX2                !
 ! D63   D(16,19,21,17)          0.146          estimate D2E/DX2                !
 ! D64   D(16,19,21,24)       -179.9631         estimate D2E/DX2                !
 ! D65   D(23,19,21,17)       -179.7856         estimate D2E/DX2                !
 ! D66   D(23,19,21,24)          0.1053         estimate D2E/DX2                !
 ! D67   D(1,25,26,28)         179.6125         estimate D2E/DX2                !
 ! D68   D(1,25,26,29)           0.4098         estimate D2E/DX2                !
 ! D69   D(27,25,26,28)          0.0072         estimate D2E/DX2                !
 ! D70   D(27,25,26,29)       -179.1956         estimate D2E/DX2                !
 ! D71   D(1,25,27,30)        -179.6456         estimate D2E/DX2                !
 ! D72   D(1,25,27,31)           0.3412         estimate D2E/DX2                !
 ! D73   D(26,25,27,30)         -0.0291         estimate D2E/DX2                !
 ! D74   D(26,25,27,31)        179.9577         estimate D2E/DX2                !
 ! D75   D(25,26,28,32)          0.0453         estimate D2E/DX2                !
 ! D76   D(25,26,28,33)       -179.8549         estimate D2E/DX2                !
 ! D77   D(29,26,28,32)        179.2371         estimate D2E/DX2                !
 ! D78   D(29,26,28,33)         -0.6631         estimate D2E/DX2                !
 ! D79   D(25,27,30,32)         -0.0013         estimate D2E/DX2                !
 ! D80   D(25,27,30,34)        179.9658         estimate D2E/DX2                !
 ! D81   D(31,27,30,32)       -179.9881         estimate D2E/DX2                !
 ! D82   D(31,27,30,34)         -0.021          estimate D2E/DX2                !
 ! D83   D(26,28,32,30)         -0.0757         estimate D2E/DX2                !
 ! D84   D(26,28,32,35)       -179.987          estimate D2E/DX2                !
 ! D85   D(33,28,32,30)        179.8243         estimate D2E/DX2                !
 ! D86   D(33,28,32,35)         -0.087          estimate D2E/DX2                !
 ! D87   D(27,30,32,28)          0.0538         estimate D2E/DX2                !
 ! D88   D(27,30,32,35)        179.9651         estimate D2E/DX2                !
 ! D89   D(34,30,32,28)       -179.9133         estimate D2E/DX2                !
 ! D90   D(34,30,32,35)         -0.002          estimate D2E/DX2                !
 --------------------------------------------------------------------------------
 Trust Radius=3.00D-01 FncErr=1.00D-07 GrdErr=1.00D-07
 Number of steps in this run= 197 maximum allowed number of steps= 210.
 GradGradGradGradGradGradGradGradGradGradGradGradGradGradGradGradGradGrad

                          Input orientation:                          
 ---------------------------------------------------------------------
 Center     Atomic      Atomic             Coordinates (Angstroms)
 Number     Number       Type             X           Y           Z
 ---------------------------------------------------------------------
      1          6           0       -0.052472   -0.000855    0.772315
      2          1           0       -0.147998    0.052132    1.890131
      3          6           0       -1.457734   -0.233524    0.274028
      4          6           0       -2.415993    0.759849    0.505533
      5          6           0       -1.846714   -1.413150   -0.358845
      6          6           0       -3.732624    0.576493    0.105226
      7          1           0       -2.117728    1.690664    1.002632
      8          6           0       -3.167279   -1.595578   -0.757658
      9          1           0       -1.109075   -2.204487   -0.543936
     10          6           0       -4.111990   -0.603178   -0.528232
     11          1           0       -4.472887    1.361834    0.289402
     12          1           0       -3.460022   -2.526891   -1.253341
     13          1           0       -5.150195   -0.747939   -0.843243
     14          6           0        0.485108    1.325136    0.290010
     15          6           0        0.901259    2.276904    1.223291
     16          6           0        0.568863    1.623353   -1.071563
     17          6           0        1.388284    3.508286    0.798788
     18          1           0        0.845891    2.055305    2.295625
     19          6           0        1.053197    2.855441   -1.493245
     20          1           0        0.263260    0.861949   -1.805292
     21          6           0        1.462417    3.800836   -0.558543
     22          1           0        1.713463    4.248814    1.536921
     23          1           0        1.113119    3.080217   -2.563038
     24          1           0        1.843447    4.771787   -0.890669
     25          6           0        0.912265   -1.116006    0.455627
     26          6           0        1.297741   -1.407078   -0.854984
     27          6           0        1.441172   -1.873575    1.503382
     28          6           0        2.194836   -2.436078   -1.113256
     29          1           0        0.890872   -0.800911   -1.679975
     30          6           0        2.338518   -2.903265    1.242544
     31          1           0        1.149304   -1.657418    2.538006
     32          6           0        2.716506   -3.186867   -0.064969
     33          1           0        2.491661   -2.653715   -2.144345
     34          1           0        2.748062   -3.491075    2.070488
     35          1           0        3.423470   -3.997407   -0.268818
 ---------------------------------------------------------------------
                    Distance matrix (angstroms):
                    1          2          3          4          5
     1  C    0.000000
     2  H    1.123141   0.000000
     3  C    1.509035   2.099713   0.000000
     4  C    2.497214   2.749869   1.399515   0.000000
     5  C    2.548216   3.176567   1.394041   2.406896   0.000000
     6  C    3.784423   4.038612   2.420691   1.388302   2.780412
     7  H    2.679471   2.711509   2.160776   1.096580   3.400107
     8  C    3.819160   4.340713   2.417046   2.776349   1.391482
     9  H    2.775774   3.455529   2.162250   3.405394   1.097536
    10  C    4.305102   4.689471   2.797381   2.408924   2.411684
    11  H    4.650827   4.793988   3.411238   2.154045   3.875247
    12  H    4.700590   5.244262   3.406105   3.871214   2.154834
    13  H    5.399532   5.756164   3.891938   3.401247   3.404428
    14  C    1.509921   2.140502   2.490845   2.963509   3.654670
    15  C    2.510213   2.548573   3.573261   3.717633   4.865286
    16  C    2.534560   3.428447   3.060343   3.484571   3.945038
    17  C    3.793488   3.936520   4.730363   4.702386   6.002154
    18  H    2.712070   2.272651   3.825216   3.939864   5.130937
    19  C    3.809684   4.555067   4.355425   4.519060   5.283674
    20  H    2.736453   3.805402   2.912980   3.539596   3.423488
    21  C    4.303362   4.758384   5.049408   5.042016   6.178663
    22  H    4.665065   4.604555   5.634069   5.503548   6.951734
    23  H    4.687876   5.530861   5.063508   5.220620   5.814587
    24  H    5.397975   5.828709   6.107983   6.015635   7.221743
    25  C    1.508168   2.132253   2.535478   3.820815   2.891994
    26  C    2.539417   3.428572   3.200710   4.509812   3.183362
    27  C    2.504498   2.526535   3.550315   4.775808   3.806583
    28  C    3.812622   4.549768   4.485206   5.839022   4.236702
    29  H    2.746582   3.814785   3.107412   4.260020   3.100742
    30  C    3.789714   3.916185   4.740999   6.047063   4.722400
    31  H    2.702985   2.241717   3.734932   4.762926   4.174630
    32  C    4.303365   4.745409   5.124591   6.499583   4.904632
    33  H    4.692247   5.528688   5.225282   6.539062   4.852680
    34  H    4.659386   4.579739   5.614947   6.869273   5.597446
    35  H    5.398015   5.815085   6.187702   7.571687   5.870378
                    6          7          8          9         10
     6  C    0.000000
     7  H    2.157453   0.000000
     8  C    2.404594   3.872927   0.000000
     9  H    3.877921   4.310621   2.157000   0.000000
    10  C    1.391693   3.403283   1.389235   3.403224   0.000000
    11  H    1.094838   2.482660   3.398122   4.972759   2.158713
    12  H    3.398677   4.967790   1.094872   2.476722   2.156738
    13  H    2.159449   4.306959   2.158187   4.306015   1.094558
    14  C    4.287642   2.723270   4.792505   3.961707   5.051853
    15  C    5.061061   3.083286   5.955945   5.219904   6.041139
    16  C    4.580779   3.394788   4.941539   4.212626   5.211816
    17  C    5.941392   3.954418   7.016060   6.377733   6.994150
    18  H    5.286543   3.253895   6.225513   5.480039   6.294623
    19  C    5.536496   4.200104   6.177789   5.583858   6.290663
    20  H    4.438316   3.773634   4.348054   3.588502   4.787514
    21  C    6.150238   4.439317   7.113017   6.532740   7.104243
    22  H    6.722764   4.637631   7.952587   7.344506   7.857644
    23  H    6.072025   5.008317   6.591226   6.078076   6.708919
    24  H    7.048749   5.363657   8.103605   7.583272   8.030494
    25  C    4.956039   4.166229   4.283075   2.503944   5.145300
    26  C    5.491915   4.971134   4.470057   2.554482   5.478888
    27  C    5.892863   5.061652   5.140759   3.287062   6.048055
    28  C    6.759812   6.332866   5.439225   3.360593   6.593772
    29  H    5.144016   4.738776   4.236833   2.694513   5.137533
    30  C    7.089497   6.404676   6.002054   3.945339   7.073549
    31  H    5.894234   4.923467   5.431217   3.859784   6.180166
    32  C    7.468810   6.949813   6.134406   3.978636   7.315628
    33  H    7.364545   7.072733   5.921668   3.965906   7.101037
    34  H    7.899789   7.187952   6.825143   4.834049   7.883756
    35  H    8.501186   8.042115   7.031765   4.882030   8.268691
                   11         12         13         14         15
    11  H    0.000000
    12  H    4.304432   0.000000
    13  H    2.488528   2.487878   0.000000
    14  C    4.958130   5.725740   6.110527   0.000000
    15  C    5.530908   6.944849   7.073919   1.396445   0.000000
    16  C    5.228753   5.787010   6.195383   1.396362   2.409143
    17  C    6.262592   8.008787   7.972667   2.416759   1.390575
    18  H    5.726712   7.220289   7.325552   2.164672   1.096390
    19  C    5.995523   7.028243   7.203396   2.417551   2.781611
    20  H    5.202760   5.064753   5.729116   2.157324   3.403154
    21  C    6.472679   8.046943   8.031130   2.793611   2.410851
    22  H    6.939876   8.969988   8.817172   3.407570   2.155566
    23  H    6.503285   7.353135   7.539336   3.408018   3.876401
    24  H    7.274367   9.029343   8.909582   3.888251   3.403085
    25  C    5.930192   4.901844   6.210955   2.483760   3.478687
    26  C    6.502049   4.903977   6.481550   3.071868   4.248311
    27  C    6.849650   5.661100   7.086594   3.552194   4.194810
    28  C    7.800648   5.657322   7.541366   4.363377   5.417103
    29  H    6.109486   4.700139   6.098969   2.926697   4.231076
    30  C    8.092885   6.324095   8.067017   4.714003   5.375894
    31  H    6.766176   6.031268   7.207197   3.793451   4.155585
    32  C    8.514906   6.324342   8.272790   5.046119   5.899791
    33  H    8.399564   6.019344   7.982657   5.077754   6.179106
    34  H    8.880603   7.107588   8.854213   5.611324   6.115391
    35  H    9.559578   7.107333   9.186770   6.105385   6.924949
                   16         17         18         19         20
    16  C    0.000000
    17  C    2.778963   0.000000
    18  H    3.406066   2.155428   0.000000
    19  C    1.389401   2.406637   3.877980   0.000000
    20  H    1.100676   3.879434   4.310578   2.166884   0.000000
    21  C    2.408955   1.390477   3.401949   1.391007   3.410194
    22  H    3.873931   1.094972   2.477861   3.399903   4.974367
    23  H    2.154801   3.400122   4.972772   1.094793   2.493422
    24  H    3.401460   2.158210   4.304284   2.158698   4.315132
    25  C    3.155046   4.661376   3.667044   4.426099   3.073315
    26  C    3.124369   5.186903   4.703042   4.316972   2.668655
    27  C    4.429421   5.428045   4.051926   5.611942   4.451729
    28  C    4.373158   6.296182   5.797642   5.426592   3.884183
    29  H    2.520101   4.996084   4.895446   3.664713   1.781770
    30  C    5.383033   6.496757   5.284348   6.503790   5.269994
    31  H    4.912164   5.455867   3.732977   6.051951   5.098679
    32  C    5.363191   6.880067   6.045823   6.427756   5.043813
    33  H    4.810542   6.917349   6.678080   5.730960   4.176196
    34  H    6.385825   7.242739   5.867817   7.473354   6.335987
    35  H    6.355008   7.849662   7.060850   7.353839   5.996751
                   21         22         23         24         25
    21  C    0.000000
    22  H    2.157469   0.000000
    23  H    2.158542   4.305309   0.000000
    24  H    1.094641   2.486682   2.488294   0.000000
    25  C    5.050400   5.531040   5.173100   6.111114   0.000000
    26  C    5.218943   6.154928   4.804930   6.203019   1.396788
    27  C    6.037460   6.128532   6.417433   7.074896   1.396941
    28  C    6.304224   7.207145   5.805298   7.219858   2.418466
    29  H    4.770780   6.043574   3.986520   5.708359   2.158828
    30  C    6.996888   7.185373   7.196257   7.981361   2.418208
    31  H    6.283246   6.016977   6.961835   7.319312   2.164629
    32  C    7.116484   7.672124   6.934518   8.048863   2.795491
    33  H    6.725722   7.861438   5.912161   7.558437   3.408650
    34  H    7.857267   7.826938   8.205149   8.823926   3.408648
    35  H    8.046258   8.613070   7.790631   8.932074   3.890173
                   26         27         28         29         30
    26  C    0.000000
    27  C    2.408336   0.000000
    28  C    1.389361   2.780507   0.000000
    29  H    1.101631   3.403998   2.166856   0.000000
    30  C    2.778744   1.390514   2.405972   3.880295   0.000000
    31  H    3.405450   1.096521   3.877005   4.311816   2.155131
    32  C    2.409287   2.410589   1.390946   3.410861   1.390286
    33  H    2.154529   3.875314   1.094812   2.492197   3.399521
    34  H    3.873611   2.155430   3.399310   4.975149   1.094869
    35  H    3.401782   3.403067   2.158788   4.315438   2.158352
                   31         32         33         34         35
    31  H    0.000000
    32  C    3.401590   0.000000
    33  H    4.971815   2.158382   0.000000
    34  H    2.477277   2.157247   4.304849   0.000000
    35  H    4.304143   1.094682   2.488248   2.486946   0.000000
 Stoichiometry    C19H16
 Framework group  C1[X(C19H16)]
 Deg. of freedom    99
 Full point group                 C1      NOp   1
 Largest Abelian subgroup         C1      NOp   1
 Largest concise Abelian subgroup C1      NOp   1
                         Standard orientation:                         
 ---------------------------------------------------------------------
 Center     Atomic      Atomic             Coordinates (Angstroms)
 Number     Number       Type             X           Y           Z
 ---------------------------------------------------------------------
      1          6           0        0.014691    0.011922   -0.759619
      2          1           0       -0.016460    0.013037   -1.882327
      3          6           0       -0.693298    1.280432   -0.351184
      4          6           0       -2.048723    1.415767   -0.672354
      5          6           0       -0.040918    2.335759    0.284455
      6          6           0       -2.735243    2.580497   -0.356956
      7          1           0       -2.568951    0.589948   -1.172225
      8          6           0       -0.730486    3.502962    0.598073
      9          1           0        1.023041    2.248238    0.539241
     10          6           0       -2.076977    3.628300    0.279914
     11          1           0       -3.796140    2.673806   -0.610850
     12          1           0       -0.206396    4.324686    1.096917
     13          1           0       -2.618139    4.546813    0.527977
     14          6           0       -0.730989   -1.209016   -0.276779
     15          6           0       -1.168573   -2.156789   -1.204306
     16          6           0       -0.998914   -1.407773    1.079148
     17          6           0       -1.867074   -3.281874   -0.780066
     18          1           0       -0.961533   -2.016759   -2.271825
     19          6           0       -1.699444   -2.531277    1.500374
     20          1           0       -0.631328   -0.671558    1.810146
     21          6           0       -2.136162   -3.469725    0.571130
     22          1           0       -2.205946   -4.020834   -1.513596
     23          1           0       -1.906043   -2.676943    2.565583
     24          1           0       -2.688606   -4.354600    0.902853
     25          6           0        1.464796   -0.050462   -0.349894
     26          6           0        1.849234   -0.126394    0.990799
     27          6           0        2.450536   -0.040152   -1.339669
     28          6           0        3.193628   -0.190646    1.335473
     29          1           0        1.071325   -0.148007    1.770531
     30          6           0        3.795470   -0.104082   -0.992401
     31          1           0        2.165404    0.018371   -2.396850
     32          6           0        4.169626   -0.178824    0.344505
     33          1           0        3.483180   -0.252295    2.389500
     34          1           0        4.560731   -0.095975   -1.775374
     35          1           0        5.228775   -0.229677    0.616433
 ---------------------------------------------------------------------
 Rotational constants (GHZ):      0.4049597      0.3796628      0.2330221
 Standard basis: 6-311G (5D, 7F)
 There are   295 symmetry adapted basis functions of A   symmetry.
 Integral buffers will be    262144 words long.
 Raffenetti 1 integral format.
 Two-electron integral symmetry is turned on.
   295 basis functions,   574 primitive gaussians,   295 cartesian basis functions
    65 alpha electrons       65 beta electrons
       nuclear repulsion energy      1290.4042861033 Hartrees.
 NAtoms=   35 NActive=   35 NUniq=   35 SFac= 7.50D-01 NAtFMM=   80 NAOKFM=F Big=F
 One-electron integrals computed using PRISM.
 PrsmSu:  requested number of processors reduced to:  10 ShMem   1 Linda.
 NBasis=   295 RedAO= T  NBF=   295
 NBsUse=   295 1.00D-06 NBFU=   295
 Harris functional with IExCor=  205 diagonalized for initial guess.
 ExpMin= 1.03D-01 ExpMax= 4.56D+03 ExpMxC= 6.82D+02 IAcc=1 IRadAn=         1 AccDes= 0.00D+00
 HarFok:  IExCor=  205 AccDes= 0.00D+00 IRadAn=         1 IDoV= 1
 ScaDFX=  1.000000  1.000000  1.000000  1.000000
 FoFCou: FMM=F IPFlag=           0 FMFlag=      100000 FMFlg1=           0
         NFxFlg=           0 DoJE=T BraDBF=F KetDBF=T FulRan=T
         Omega=  0.000000  0.000000  1.000000  0.000000  0.000000 ICntrl=     500 IOpCl=  0
         NMat0=    1 NMatS0=    1 NMatT0=    0 NMatD0=    1 NMtDS0=    0 NMtDT0=    0
         I1Cent=           4 NGrid=           0.
 Petite list used in FoFCou.
 Initial guess orbital symmetries:
       Occupied  (A) (A) (A) (A) (A) (A) (A) (A) (A) (A) (A) (A)
                 (A) (A) (A) (A) (A) (A) (A) (A) (A) (A) (A) (A)
                 (A) (A) (A) (A) (A) (A) (A) (A) (A) (A) (A) (A)
                 (A) (A) (A) (A) (A) (A) (A) (A) (A) (A) (A) (A)
                 (A) (A) (A) (A) (A) (A) (A) (A) (A) (A) (A) (A)
                 (A) (A) (A) (A) (A)
       Virtual   (A) (A) (A) (A) (A) (A) (A) (A) (A) (A) (A) (A)
                 (A) (A) (A) (A) (A) (A) (A) (A) (A) (A) (A) (A)
                 (A) (A) (A) (A) (A) (A) (A) (A) (A) (A) (A) (A)
                 (A) (A) (A) (A) (A) (A) (A) (A) (A) (A) (A) (A)
                 (A) (A) (A) (A) (A) (A) (A) (A) (A) (A) (A) (A)
                 (A) (A) (A) (A) (A) (A) (A) (A) (A) (A) (A) (A)
                 (A) (A) (A) (A) (A) (A) (A) (A) (A) (A) (A) (A)
                 (A) (A) (A) (A) (A) (A) (A) (A) (A) (A) (A) (A)
                 (A) (A) (A) (A) (A) (A) (A) (A) (A) (A) (A) (A)
                 (A) (A) (A) (A) (A) (A) (A) (A) (A) (A) (A) (A)
                 (A) (A) (A) (A) (A) (A) (A) (A) (A) (A) (A) (A)
                 (A) (A) (A) (A) (A) (A) (A) (A) (A) (A) (A) (A)
                 (A) (A) (A) (A) (A) (A) (A) (A) (A) (A) (A) (A)
                 (A) (A) (A) (A) (A) (A) (A) (A) (A) (A) (A) (A)
                 (A) (A) (A) (A) (A) (A) (A) (A) (A) (A) (A) (A)
                 (A) (A) (A) (A) (A) (A) (A) (A) (A) (A) (A) (A)
                 (A) (A) (A) (A) (A) (A) (A) (A) (A) (A) (A) (A)
                 (A) (A) (A) (A) (A) (A) (A) (A) (A) (A) (A) (A)
                 (A) (A) (A) (A) (A) (A) (A) (A) (A) (A) (A) (A)
                 (A) (A)
 The electronic state of the initial guess is 1-A.
 Requested convergence on RMS density matrix=1.00D-08 within 128 cycles.
 Requested convergence on MAX density matrix=1.00D-06.
 Requested convergence on             energy=1.00D-06.
 No special actions if energy rises.
 Integral accuracy reduced to 1.0D-05 until final iterations.
 Initial convergence to 1.0D-05 achieved.  Increase integral accuracy.
 SCF Done:  E(RHF) =  -728.672299848     A.U. after   14 cycles
             Convg  =    0.8417D-08             -V/T =  2.0001

 **********************************************************************

            Population analysis using the SCF density.

 **********************************************************************

 Orbital symmetries:
       Occupied  (A) (A) (A) (A) (A) (A) (A) (A) (A) (A) (A) (A)
                 (A) (A) (A) (A) (A) (A) (A) (A) (A) (A) (A) (A)
                 (A) (A) (A) (A) (A) (A) (A) (A) (A) (A) (A) (A)
                 (A) (A) (A) (A) (A) (A) (A) (A) (A) (A) (A) (A)
                 (A) (A) (A) (A) (A) (A) (A) (A) (A) (A) (A) (A)
                 (A) (A) (A) (A) (A)
       Virtual   (A) (A) (A) (A) (A) (A) (A) (A) (A) (A) (A) (A)
                 (A) (A) (A) (A) (A) (A) (A) (A) (A) (A) (A) (A)
                 (A) (A) (A) (A) (A) (A) (A) (A) (A) (A) (A) (A)
                 (A) (A) (A) (A) (A) (A) (A) (A) (A) (A) (A) (A)
                 (A) (A) (A) (A) (A) (A) (A) (A) (A) (A) (A) (A)
                 (A) (A) (A) (A) (A) (A) (A) (A) (A) (A) (A) (A)
                 (A) (A) (A) (A) (A) (A) (A) (A) (A) (A) (A) (A)
                 (A) (A) (A) (A) (A) (A) (A) (A) (A) (A) (A) (A)
                 (A) (A) (A) (A) (A) (A) (A) (A) (A) (A) (A) (A)
                 (A) (A) (A) (A) (A) (A) (A) (A) (A) (A) (A) (A)
                 (A) (A) (A) (A) (A) (A) (A) (A) (A) (A) (A) (A)
                 (A) (A) (A) (A) (A) (A) (A) (A) (A) (A) (A) (A)
                 (A) (A) (A) (A) (A) (A) (A) (A) (A) (A) (A) (A)
                 (A) (A) (A) (A) (A) (A) (A) (A) (A) (A) (A) (A)
                 (A) (A) (A) (A) (A) (A) (A) (A) (A) (A) (A) (A)
                 (A) (A) (A) (A) (A) (A) (A) (A) (A) (A) (A) (A)
                 (A) (A) (A) (A) (A) (A) (A) (A) (A) (A) (A) (A)
                 (A) (A) (A) (A) (A) (A) (A) (A) (A) (A) (A) (A)
                 (A) (A) (A) (A) (A) (A) (A) (A) (A) (A) (A) (A)
                 (A) (A)
 The electronic state is 1-A.
 Alpha  occ. eigenvalues --  -11.25769 -11.25242 -11.25193 -11.24937 -11.24524
 Alpha  occ. eigenvalues --  -11.24434 -11.24417 -11.24368 -11.24224 -11.24169
 Alpha  occ. eigenvalues --  -11.24143 -11.24116 -11.24075 -11.24049 -11.24026
 Alpha  occ. eigenvalues --  -11.23982 -11.23736 -11.23659 -11.23504  -1.18612
 Alpha  occ. eigenvalues --   -1.15873  -1.15578  -1.09027  -1.02386  -1.02230
 Alpha  occ. eigenvalues --   -1.01877  -1.01486  -1.01113  -0.92922  -0.84309
 Alpha  occ. eigenvalues --   -0.83324  -0.82360  -0.81881  -0.81173  -0.77598
 Alpha  occ. eigenvalues --   -0.70859  -0.70373  -0.68987  -0.65717  -0.63881
 Alpha  occ. eigenvalues --   -0.63600  -0.62500  -0.61720  -0.61615  -0.59708
 Alpha  occ. eigenvalues --   -0.58850  -0.58481  -0.58326  -0.56878  -0.54944
 Alpha  occ. eigenvalues --   -0.51726  -0.50944  -0.50265  -0.49837  -0.49380
 Alpha  occ. eigenvalues --   -0.48459  -0.47910  -0.47520  -0.46339  -0.34991
 Alpha  occ. eigenvalues --   -0.34316  -0.33916  -0.33344  -0.32668  -0.31396
 Alpha virt. eigenvalues --    0.11504   0.12276   0.12836   0.13600   0.14931
 Alpha virt. eigenvalues --    0.15039   0.15563   0.16239   0.16474   0.16934
 Alpha virt. eigenvalues --    0.18907   0.19175   0.19231   0.21255   0.21308
 Alpha virt. eigenvalues --    0.21569   0.23585   0.23974   0.25026   0.25438
 Alpha virt. eigenvalues --    0.27036   0.31211   0.33282   0.34269   0.35773
 Alpha virt. eigenvalues --    0.37492   0.39851   0.40393   0.41558   0.43167
 Alpha virt. eigenvalues --    0.44094   0.44425   0.44863   0.45456   0.45641
 Alpha virt. eigenvalues --    0.45863   0.46762   0.47172   0.48117   0.50540
 Alpha virt. eigenvalues --    0.51143   0.51465   0.51991   0.54896   0.55991
 Alpha virt. eigenvalues --    0.57358   0.57839   0.58460   0.59017   0.59410
 Alpha virt. eigenvalues --    0.60075   0.60420   0.60646   0.61178   0.61448
 Alpha virt. eigenvalues --    0.62089   0.62286   0.62932   0.63627   0.63755
 Alpha virt. eigenvalues --    0.64318   0.64532   0.65210   0.65904   0.66394
 Alpha virt. eigenvalues --    0.67162   0.67808   0.68602   0.69926   0.72342
 Alpha virt. eigenvalues --    0.73164   0.73927   0.74149   0.75172   0.75762
 Alpha virt. eigenvalues --    0.76672   0.78859   0.79283   0.79769   0.81410
 Alpha virt. eigenvalues --    0.81520   0.82172   0.82501   0.82948   0.83184
 Alpha virt. eigenvalues --    0.83813   0.84335   0.84730   0.84776   0.85460
 Alpha virt. eigenvalues --    0.86015   0.86307   0.86422   0.87623   0.88196
 Alpha virt. eigenvalues --    0.90341   0.90695   0.92289   0.93291   0.94855
 Alpha virt. eigenvalues --    0.96023   0.96466   0.97081   0.98175   0.99582
 Alpha virt. eigenvalues --    0.99821   1.02329   1.03004   1.04544   1.06185
 Alpha virt. eigenvalues --    1.07050   1.08301   1.09084   1.10309   1.10461
 Alpha virt. eigenvalues --    1.11235   1.11781   1.12510   1.12640   1.13861
 Alpha virt. eigenvalues --    1.14892   1.16655   1.19202   1.20638   1.20909
 Alpha virt. eigenvalues --    1.23986   1.25832   1.27226   1.28614   1.28852
 Alpha virt. eigenvalues --    1.29355   1.32320   1.33292   1.46549   1.47563
 Alpha virt. eigenvalues --    1.52238   1.54055   1.57332   2.53591   2.55678
 Alpha virt. eigenvalues --    2.56185   2.57766   2.62075   2.62230   2.63943
 Alpha virt. eigenvalues --    2.66229   2.67321   2.68512   2.71822   2.74349
 Alpha virt. eigenvalues --    2.78332   2.83512   2.86451   2.91440   2.94350
 Alpha virt. eigenvalues --    2.94572   2.94744   2.96051   2.97989   2.98518
 Alpha virt. eigenvalues --    3.00068   3.02161   3.03856   3.04588   3.06396
 Alpha virt. eigenvalues --    3.08542   3.09094   3.09651   3.10145   3.13183
 Alpha virt. eigenvalues --    3.15240   3.16280   3.17674   3.18384   3.19345
 Alpha virt. eigenvalues --    3.21633   3.24170   3.25248   3.27610   3.28753
 Alpha virt. eigenvalues --    3.31263   3.33861   3.34185   3.35646   3.41203
 Alpha virt. eigenvalues --    3.41568   3.44210   3.45133   3.49930   3.52243
 Alpha virt. eigenvalues --    3.53416   3.55829   3.57401   3.58232   3.59775
 Alpha virt. eigenvalues --    3.62232   3.64257   3.64955   3.66184   3.66469
 Alpha virt. eigenvalues --    3.67647   3.69231   3.71276   3.72612   3.73863
 Alpha virt. eigenvalues --    3.75899   3.77249   3.78727   3.85379   3.87801
 Alpha virt. eigenvalues --    3.91275  24.25930  24.30075  24.31839  24.50485
 Alpha virt. eigenvalues --   24.50801  24.51022  24.53203  24.54571  24.56532
 Alpha virt. eigenvalues --   24.76372  24.77108  24.79112  24.80200  24.80616
 Alpha virt. eigenvalues --   24.82635  24.87063  25.04697  25.05804  25.07105
          Condensed to atoms (all electrons):
              1          2          3          4          5          6
     1  C    6.081606   0.473924   0.041815  -0.085423  -0.027413   0.007737
     2  H    0.473924   0.504452  -0.062709  -0.005005   0.001423   0.000759
     3  C    0.041815  -0.062709   5.354725   0.470071   0.503249  -0.056851
     4  C   -0.085423  -0.005005   0.470071   5.119607  -0.082137   0.464918
     5  C   -0.027413   0.001423   0.503249  -0.082137   5.092074  -0.029734
     6  C    0.007737   0.000759  -0.056851   0.464918  -0.029734   5.059527
     7  H   -0.001690  -0.000145  -0.046329   0.397802   0.004390  -0.035168
     8  C    0.011824  -0.000145  -0.069961  -0.033306   0.454774  -0.074224
     9  H   -0.010858  -0.000276  -0.034650   0.004908   0.393435  -0.000408
    10  C    0.000472   0.000027  -0.020336  -0.085007  -0.090628   0.480138
    11  H   -0.000354   0.000002   0.006170  -0.038574  -0.000451   0.397212
    12  H   -0.000359   0.000015   0.006489  -0.000410  -0.036815   0.006018
    13  H   -0.000014  -0.000002  -0.001461   0.007433   0.007694  -0.043283
    14  C    0.153864  -0.070892  -0.101449  -0.005732  -0.000822  -0.001446
    15  C   -0.024604   0.001276  -0.001861   0.000716  -0.000440  -0.000046
    16  C   -0.054253   0.005665  -0.008511  -0.007306   0.001673  -0.000163
    17  C    0.006861   0.001589  -0.000415  -0.000124   0.000022   0.000013
    18  H    0.000004   0.002301   0.000125   0.000307  -0.000037  -0.000008
    19  C    0.003020  -0.000268  -0.000593  -0.000319   0.000025  -0.000004
    20  H    0.000425   0.000120   0.000999   0.000061   0.000075   0.000013
    21  C    0.001260  -0.000002   0.000060   0.000093  -0.000002   0.000002
    22  H   -0.000340  -0.000039   0.000011  -0.000002   0.000000   0.000000
    23  H   -0.000345   0.000011   0.000022   0.000017  -0.000001   0.000002
    24  H   -0.000011  -0.000001   0.000000   0.000000   0.000000   0.000000
    25  C    0.121441  -0.076662  -0.067531   0.011320  -0.012273  -0.000877
    26  C   -0.069115   0.004455   0.006369   0.000688  -0.017383  -0.000019
    27  C   -0.025632   0.006556  -0.000793  -0.000238   0.000878   0.000008
    28  C    0.002227  -0.000227   0.000903   0.000017  -0.001462   0.000000
    29  H    0.001096  -0.000051   0.001133   0.000040   0.001408  -0.000035
    30  C    0.008314   0.001474  -0.000781   0.000005   0.000375   0.000000
    31  H   -0.002088   0.002809   0.000510   0.000012   0.000149  -0.000001
    32  C    0.001740   0.000003  -0.000069   0.000000   0.000113   0.000000
    33  H   -0.000369   0.000012   0.000016   0.000000   0.000008   0.000000
    34  H   -0.000416  -0.000033   0.000025   0.000000  -0.000007   0.000000
    35  H   -0.000026  -0.000002   0.000002   0.000000  -0.000003   0.000000
              7          8          9         10         11         12
     1  C   -0.001690   0.011824  -0.010858   0.000472  -0.000354  -0.000359
     2  H   -0.000145  -0.000145  -0.000276   0.000027   0.000002   0.000015
     3  C   -0.046329  -0.069961  -0.034650  -0.020336   0.006170   0.006489
     4  C    0.397802  -0.033306   0.004908  -0.085007  -0.038574  -0.000410
     5  C    0.004390   0.454774   0.393435  -0.090628  -0.000451  -0.036815
     6  C   -0.035168  -0.074224  -0.000408   0.480138   0.397212   0.006018
     7  H    0.492153  -0.000455  -0.000201   0.005242  -0.003931   0.000018
     8  C   -0.000455   5.077761  -0.036086   0.497242   0.006013   0.395545
     9  H   -0.000201  -0.036086   0.476651   0.004985   0.000018  -0.003475
    10  C    0.005242   0.497242   0.004985   5.042187  -0.040828  -0.041214
    11  H   -0.003931   0.006013   0.000018  -0.040828   0.517676  -0.000212
    12  H    0.000018   0.395545  -0.003475  -0.041214  -0.000212   0.517802
    13  H   -0.000174  -0.042095  -0.000170   0.399494  -0.004410  -0.004473
    14  C    0.003720  -0.000761   0.000377   0.000123   0.000013   0.000012
    15  C    0.001897   0.000008  -0.000019  -0.000003  -0.000005   0.000000
    16  C   -0.000506   0.000048   0.000091   0.000038   0.000014   0.000000
    17  C    0.000115   0.000000   0.000000   0.000000  -0.000001   0.000000
    18  H    0.000215   0.000000   0.000001   0.000001   0.000000   0.000000
    19  C   -0.000210   0.000006  -0.000001   0.000002   0.000002   0.000000
    20  H   -0.000080  -0.000057   0.000011  -0.000046   0.000005   0.000001
    21  C   -0.000092   0.000000   0.000000   0.000000   0.000000   0.000000
    22  H    0.000004   0.000000   0.000000   0.000000   0.000000   0.000000
    23  H    0.000004   0.000000   0.000000   0.000000   0.000000   0.000000
    24  H    0.000000   0.000000   0.000000   0.000000   0.000000   0.000000
    25  C    0.000850  -0.001364   0.000441   0.000115   0.000012   0.000058
    26  C   -0.000042  -0.000850  -0.001272  -0.000021   0.000000   0.000031
    27  C   -0.000005  -0.000119  -0.001211  -0.000004   0.000000   0.000004
    28  C    0.000000  -0.000040   0.000527   0.000000   0.000000  -0.000001
    29  H    0.000020   0.000072  -0.000033   0.000001   0.000000  -0.000001
    30  C    0.000000   0.000003  -0.000121   0.000000   0.000000   0.000000
    31  H   -0.000002   0.000006   0.000070   0.000000   0.000000   0.000000
    32  C    0.000000   0.000004   0.000078   0.000000   0.000000  -0.000001
    33  H    0.000000  -0.000002   0.000042   0.000000   0.000000   0.000000
    34  H    0.000000   0.000000   0.000010   0.000000   0.000000   0.000000
    35  H    0.000000   0.000000   0.000008   0.000000   0.000000   0.000000
             13         14         15         16         17         18
     1  C   -0.000014   0.153864  -0.024604  -0.054253   0.006861   0.000004
     2  H   -0.000002  -0.070892   0.001276   0.005665   0.001589   0.002301
     3  C   -0.001461  -0.101449  -0.001861  -0.008511  -0.000415   0.000125
     4  C    0.007433  -0.005732   0.000716  -0.007306  -0.000124   0.000307
     5  C    0.007694  -0.000822  -0.000440   0.001673   0.000022  -0.000037
     6  C   -0.043283  -0.001446  -0.000046  -0.000163   0.000013  -0.000008
     7  H   -0.000174   0.003720   0.001897  -0.000506   0.000115   0.000215
     8  C   -0.042095  -0.000761   0.000008   0.000048   0.000000   0.000000
     9  H   -0.000170   0.000377  -0.000019   0.000091   0.000000   0.000001
    10  C    0.399494   0.000123  -0.000003   0.000038   0.000000   0.000001
    11  H   -0.004410   0.000013  -0.000005   0.000014  -0.000001   0.000000
    12  H   -0.004473   0.000012   0.000000   0.000000   0.000000   0.000000
    13  H    0.519327   0.000002   0.000000   0.000000   0.000000   0.000000
    14  C    0.000002   5.385945   0.493340   0.445108  -0.073200  -0.050742
    15  C    0.000000   0.493340   5.092471  -0.071910   0.453604   0.400509
    16  C    0.000000   0.445108  -0.071910   5.071843  -0.026719   0.004316
    17  C    0.000000  -0.073200   0.453604  -0.026719   5.060206  -0.034977
    18  H    0.000000  -0.050742   0.400509   0.004316  -0.034977   0.510003
    19  C    0.000000  -0.058502  -0.030617   0.479175  -0.078387  -0.000282
    20  H    0.000001  -0.044895   0.004057   0.389195   0.000001  -0.000271
    21  C    0.000000  -0.018807  -0.086133  -0.091062   0.497264   0.005252
    22  H    0.000000   0.006941  -0.039713  -0.000681   0.396974  -0.004212
    23  H    0.000000   0.006028  -0.000481  -0.038963   0.005979   0.000024
    24  H    0.000000  -0.001543   0.007484   0.007884  -0.042562  -0.000185
    25  C    0.000000  -0.136898  -0.001701  -0.003873  -0.000514   0.000391
    26  C    0.000001  -0.003389   0.000541  -0.012352   0.000135  -0.000005
    27  C    0.000000  -0.004090   0.000602   0.000708  -0.000017   0.000258
    28  C    0.000000   0.001989   0.000046  -0.000101   0.000001  -0.000001
    29  H    0.000000  -0.003590  -0.000218   0.002291  -0.000068   0.000001
    30  C    0.000000  -0.000607  -0.000011   0.000049   0.000002   0.000007
    31  H    0.000000   0.000170   0.000169  -0.000025  -0.000002   0.000053
    32  C    0.000000  -0.000047  -0.000013  -0.000002   0.000000  -0.000002
    33  H    0.000000   0.000024   0.000002   0.000035   0.000000   0.000000
    34  H    0.000000   0.000019   0.000001  -0.000001   0.000000   0.000000
    35  H    0.000000  -0.000003   0.000000   0.000001   0.000000   0.000000
             19         20         21         22         23         24
     1  C    0.003020   0.000425   0.001260  -0.000340  -0.000345  -0.000011
     2  H   -0.000268   0.000120  -0.000002  -0.000039   0.000011  -0.000001
     3  C   -0.000593   0.000999   0.000060   0.000011   0.000022   0.000000
     4  C   -0.000319   0.000061   0.000093  -0.000002   0.000017   0.000000
     5  C    0.000025   0.000075  -0.000002   0.000000  -0.000001   0.000000
     6  C   -0.000004   0.000013   0.000002   0.000000   0.000002   0.000000
     7  H   -0.000210  -0.000080  -0.000092   0.000004   0.000004   0.000000
     8  C    0.000006  -0.000057   0.000000   0.000000   0.000000   0.000000
     9  H   -0.000001   0.000011   0.000000   0.000000   0.000000   0.000000
    10  C    0.000002  -0.000046   0.000000   0.000000   0.000000   0.000000
    11  H    0.000002   0.000005   0.000000   0.000000   0.000000   0.000000
    12  H    0.000000   0.000001   0.000000   0.000000   0.000000   0.000000
    13  H    0.000000   0.000001   0.000000   0.000000   0.000000   0.000000
    14  C   -0.058502  -0.044895  -0.018807   0.006941   0.006028  -0.001543
    15  C   -0.030617   0.004057  -0.086133  -0.039713  -0.000481   0.007484
    16  C    0.479175   0.389195  -0.091062  -0.000681  -0.038963   0.007884
    17  C   -0.078387   0.000001   0.497264   0.396974   0.005979  -0.042562
    18  H   -0.000282  -0.000271   0.005252  -0.004212   0.000024  -0.000185
    19  C    5.039490  -0.028293   0.491254   0.006233   0.397209  -0.042916
    20  H   -0.028293   0.496524   0.004554   0.000015  -0.003341  -0.000171
    21  C    0.491254   0.004554   5.034143  -0.040671  -0.039823   0.399687
    22  H    0.006233   0.000015  -0.040671   0.518134  -0.000206  -0.004586
    23  H    0.397209  -0.003341  -0.039823  -0.000206   0.514877  -0.004477
    24  H   -0.042916  -0.000171   0.399687  -0.004586  -0.004477   0.517431
    25  C    0.001905  -0.002757  -0.000086   0.000025   0.000026  -0.000003
    26  C   -0.000522  -0.001211  -0.000022   0.000000   0.000056   0.000000
    27  C    0.000030  -0.000198  -0.000008   0.000001   0.000000   0.000000
    28  C   -0.000101   0.000853   0.000001   0.000000   0.000002   0.000000
    29  H    0.001167   0.001831   0.000010   0.000001  -0.000064   0.000000
    30  C   -0.000001   0.000004   0.000000   0.000000   0.000000   0.000000
    31  H    0.000002  -0.000003  -0.000001   0.000000   0.000000   0.000000
    32  C    0.000002  -0.000013   0.000000   0.000000   0.000000   0.000000
    33  H   -0.000001  -0.000035   0.000000   0.000000   0.000001   0.000000
    34  H    0.000000   0.000000   0.000000   0.000000   0.000000   0.000000
    35  H    0.000000   0.000000   0.000000   0.000000   0.000000   0.000000
             25         26         27         28         29         30
     1  C    0.121441  -0.069115  -0.025632   0.002227   0.001096   0.008314
     2  H   -0.076662   0.004455   0.006556  -0.000227  -0.000051   0.001474
     3  C   -0.067531   0.006369  -0.000793   0.000903   0.001133  -0.000781
     4  C    0.011320   0.000688  -0.000238   0.000017   0.000040   0.000005
     5  C   -0.012273  -0.017383   0.000878  -0.001462   0.001408   0.000375
     6  C   -0.000877  -0.000019   0.000008   0.000000  -0.000035   0.000000
     7  H    0.000850  -0.000042  -0.000005   0.000000   0.000020   0.000000
     8  C   -0.001364  -0.000850  -0.000119  -0.000040   0.000072   0.000003
     9  H    0.000441  -0.001272  -0.001211   0.000527  -0.000033  -0.000121
    10  C    0.000115  -0.000021  -0.000004   0.000000   0.000001   0.000000
    11  H    0.000012   0.000000   0.000000   0.000000   0.000000   0.000000
    12  H    0.000058   0.000031   0.000004  -0.000001  -0.000001   0.000000
    13  H    0.000000   0.000001   0.000000   0.000000   0.000000   0.000000
    14  C   -0.136898  -0.003389  -0.004090   0.001989  -0.003590  -0.000607
    15  C   -0.001701   0.000541   0.000602   0.000046  -0.000218  -0.000011
    16  C   -0.003873  -0.012352   0.000708  -0.000101   0.002291   0.000049
    17  C   -0.000514   0.000135  -0.000017   0.000001  -0.000068   0.000002
    18  H    0.000391  -0.000005   0.000258  -0.000001   0.000001   0.000007
    19  C    0.001905  -0.000522   0.000030  -0.000101   0.001167  -0.000001
    20  H   -0.002757  -0.001211  -0.000198   0.000853   0.001831   0.000004
    21  C   -0.000086  -0.000022  -0.000008   0.000001   0.000010   0.000000
    22  H    0.000025   0.000000   0.000001   0.000000   0.000001   0.000000
    23  H    0.000026   0.000056   0.000000   0.000002  -0.000064   0.000000
    24  H   -0.000003   0.000000   0.000000   0.000000   0.000000   0.000000
    25  C    5.388990   0.450629   0.500535  -0.065026  -0.048442  -0.076926
    26  C    0.450629   5.101618  -0.062516   0.479819   0.386285  -0.029724
    27  C    0.500535  -0.062516   5.044623  -0.034332   0.004617   0.469324
    28  C   -0.065026   0.479819  -0.034332   5.047423  -0.026823  -0.077120
    29  H   -0.048442   0.386285   0.004617  -0.026823   0.497370  -0.000147
    30  C   -0.076926  -0.029724   0.469324  -0.077120  -0.000147   5.046372
    31  H   -0.045253   0.004765   0.394112  -0.000294  -0.000268  -0.033779
    32  C   -0.015947  -0.093669  -0.088917   0.490267   0.004654   0.499426
    33  H    0.005974  -0.038504  -0.000370   0.396962  -0.003402   0.005897
    34  H    0.007054  -0.000631  -0.039505   0.006278   0.000017   0.396387
    35  H   -0.001671   0.007986   0.007557  -0.042926  -0.000172  -0.042564
             31         32         33         34         35
     1  C   -0.002088   0.001740  -0.000369  -0.000416  -0.000026
     2  H    0.002809   0.000003   0.000012  -0.000033  -0.000002
     3  C    0.000510  -0.000069   0.000016   0.000025   0.000002
     4  C    0.000012   0.000000   0.000000   0.000000   0.000000
     5  C    0.000149   0.000113   0.000008  -0.000007  -0.000003
     6  C   -0.000001   0.000000   0.000000   0.000000   0.000000
     7  H   -0.000002   0.000000   0.000000   0.000000   0.000000
     8  C    0.000006   0.000004  -0.000002   0.000000   0.000000
     9  H    0.000070   0.000078   0.000042   0.000010   0.000008
    10  C    0.000000   0.000000   0.000000   0.000000   0.000000
    11  H    0.000000   0.000000   0.000000   0.000000   0.000000
    12  H    0.000000  -0.000001   0.000000   0.000000   0.000000
    13  H    0.000000   0.000000   0.000000   0.000000   0.000000
    14  C    0.000170  -0.000047   0.000024   0.000019  -0.000003
    15  C    0.000169  -0.000013   0.000002   0.000001   0.000000
    16  C   -0.000025  -0.000002   0.000035  -0.000001   0.000001
    17  C   -0.000002   0.000000   0.000000   0.000000   0.000000
    18  H    0.000053  -0.000002   0.000000   0.000000   0.000000
    19  C    0.000002   0.000002  -0.000001   0.000000   0.000000
    20  H   -0.000003  -0.000013  -0.000035   0.000000   0.000000
    21  C   -0.000001   0.000000   0.000000   0.000000   0.000000
    22  H    0.000000   0.000000   0.000000   0.000000   0.000000
    23  H    0.000000   0.000000   0.000001   0.000000   0.000000
    24  H    0.000000   0.000000   0.000000   0.000000   0.000000
    25  C   -0.045253  -0.015947   0.005974   0.007054  -0.001671
    26  C    0.004765  -0.093669  -0.038504  -0.000631   0.007986
    27  C    0.394112  -0.088917  -0.000370  -0.039505   0.007557
    28  C   -0.000294   0.490267   0.396962   0.006278  -0.042926
    29  H   -0.000268   0.004654  -0.003402   0.000017  -0.000172
    30  C   -0.033779   0.499426   0.005897   0.396387  -0.042564
    31  H    0.506368   0.005075   0.000025  -0.004080  -0.000179
    32  C    0.005075   5.033835  -0.039806  -0.041091   0.399434
    33  H    0.000025  -0.039806   0.514490  -0.000206  -0.004360
    34  H   -0.004080  -0.041091  -0.000206   0.517966  -0.004556
    35  H   -0.000179   0.399434  -0.004360  -0.004556   0.516907
 Mulliken atomic charges:
              1
     1  C   -0.614323
     2  H    0.209582
     3  C    0.081605
     4  C   -0.134435
     5  C   -0.162158
     6  C   -0.174079
     7  H    0.182598
     8  C   -0.183840
     9  H    0.207127
    10  C   -0.151979
    11  H    0.161629
    12  H    0.160969
    13  H    0.162127
    14  C    0.079740
    15  C   -0.198949
    16  C   -0.091707
    17  C   -0.165782
    18  H    0.166954
    19  C   -0.178506
    20  H    0.182627
    21  C   -0.156872
    22  H    0.162111
    23  H    0.163442
    24  H    0.163967
    25  C    0.068036
    26  C   -0.112132
    27  C   -0.171859
    28  C   -0.178861
    29  H    0.181299
    30  C   -0.165862
    31  H    0.171680
    32  C   -0.155052
    33  H    0.163568
    34  H    0.162768
    35  H    0.164567
 Sum of Mulliken atomic charges =   0.00000
 Mulliken charges with hydrogens summed into heavy atoms:
              1
     1  C   -0.404740
     3  C    0.081605
     4  C    0.048163
     5  C    0.044969
     6  C   -0.012450
     8  C   -0.022871
    10  C    0.010148
    14  C    0.079740
    15  C   -0.031995
    16  C    0.090920
    17  C   -0.003671
    19  C   -0.015063
    21  C    0.007095
    25  C    0.068036
    26  C    0.069167
    27  C   -0.000179
    28  C   -0.015293
    30  C   -0.003094
    32  C    0.009515
 Sum of Mulliken charges with hydrogens summed into heavy atoms =   0.00000
 Electronic spatial extent (au):  <R**2>=           4932.9754
 Charge=              0.0000 electrons
 Dipole moment (field-independent basis, Debye):
    X=              0.0927    Y=             -0.1609    Z=             -0.0202  Tot=              0.1868
 Quadrupole moment (field-independent basis, Debye-Ang):
   XX=           -107.9233   YY=           -113.3528   ZZ=           -106.4687
   XY=              2.6894   XZ=              1.2027   YZ=              2.6174
 Traceless Quadrupole moment (field-independent basis, Debye-Ang):
   XX=              1.3250   YY=             -4.1045   ZZ=              2.7796
   XY=              2.6894   XZ=              1.2027   YZ=              2.6174
 Octapole moment (field-independent basis, Debye-Ang**2):
  XXX=             28.7328  YYY=              6.3440  ZZZ=              0.5731  XYY=            -37.9287
  XXY=              3.4044  XXZ=             -4.0478  XZZ=              9.7045  YZZ=            -17.2201
  YYZ=             12.7146  XYZ=              1.3817
 Hexadecapole moment (field-independent basis, Debye-Ang**3):
 XXXX=          -3061.8382 YYYY=          -2901.5633 ZZZZ=           -678.8314 XXXY=            -58.6658
 XXXZ=             18.7766 YYYX=             61.2448 YYYZ=             78.0829 ZZZX=             -6.5838
 ZZZY=             -3.2373 XXYY=          -1018.9332 XXZZ=           -630.0152 YYZZ=           -629.7057
 XXYZ=            -13.8709 YYXZ=            -10.0904 ZZXY=             33.3518
 N-N= 1.290404286103D+03 E-N=-4.276877733189D+03  KE= 7.285998827027D+02
 PrsmSu:  requested number of processors reduced to:  10 ShMem   1 Linda.
 Calling FoFJK, ICntrl=      2127 FMM=F ISym2X=0 I1Cent= 0 IOpClX= 0 NMat=1 NMatS=1 NMatT=0.
 ***** Axes restored to original set *****
 -------------------------------------------------------------------
 Center     Atomic                   Forces (Hartrees/Bohr)
 Number     Number              X              Y              Z
 -------------------------------------------------------------------
      1        6          -0.000619968    0.000590588    0.023259781
      2        1           0.006190580   -0.000063070   -0.024766128
      3        6          -0.013719993   -0.004549652   -0.004037776
      4        6          -0.000478091    0.007453588    0.003513468
      5        6           0.008132499   -0.009125404   -0.001466875
      6        6          -0.006837004    0.010256157    0.003441045
      7        1          -0.005818491   -0.015248246   -0.008571420
      8        6          -0.006648035   -0.009181917   -0.006067827
      9        1          -0.016264497    0.014637059    0.004009912
     10        6          -0.012239530   -0.004027092   -0.004930845
     11        1           0.011245593   -0.011983586   -0.002735401
     12        1           0.004387028    0.014208890    0.007551841
     13        1           0.015795501    0.002177274    0.004731895
     14        6           0.004204980    0.012477684    0.005763881
     15        6          -0.000058536   -0.001562925    0.005656200
     16        6          -0.003067221   -0.006158925   -0.009000585
     17        6           0.004734142    0.010674379    0.007168174
     18        1           0.000576740    0.002958994   -0.017331717
     19        6           0.000084865   -0.000073530   -0.012398654
     20        1           0.002260487    0.024092922    0.013519808
     21        6           0.005095680    0.012624296   -0.001952836
     22        1          -0.004986904   -0.011131134   -0.011410074
     23        1          -0.000863155   -0.003352762    0.016372094
     24        1          -0.005897471   -0.014877233    0.005115235
     25        6           0.007052335   -0.008995903    0.007582368
     26        6          -0.001890901    0.006419413   -0.010635468
     27        6          -0.002297733    0.001365820    0.005410246
     28        6           0.001940875   -0.000852511   -0.012387171
     29        1           0.011933091   -0.021242779    0.017232028
     30        6           0.006327714   -0.008552923    0.008584316
     31        1           0.004321598   -0.003134339   -0.017047650
     32        6           0.008835028   -0.010472873   -0.000375627
     33        1          -0.004491215    0.003255813    0.015767681
     34        1          -0.006111815    0.008909132   -0.012727758
     35        1          -0.010828176    0.012484799    0.003163839
 -------------------------------------------------------------------
 Cartesian Forces:  Max     0.024766128 RMS     0.009566858

 GradGradGradGradGradGradGradGradGradGradGradGradGradGradGradGradGradGrad
 Berny optimization.
 Internal  Forces:  Max     0.029000769 RMS     0.007804573
 Search for a local minimum.
 Step number   1 out of a maximum of  197
 All quantities printed in internal units (Hartrees-Bohrs-Radians)
 Mixed Optimization -- RFO/linear search
 Second derivative matrix not updated -- first step.
     Eigenvalues ---    0.00635   0.00646   0.00658   0.01533   0.01537
     Eigenvalues ---    0.01538   0.02136   0.02141   0.02146   0.02170
     Eigenvalues ---    0.02172   0.02173   0.02182   0.02184   0.02185
     Eigenvalues ---    0.02201   0.02202   0.02202   0.02210   0.02211
     Eigenvalues ---    0.02212   0.02214   0.02214   0.02216   0.02216
     Eigenvalues ---    0.02217   0.02219   0.02220   0.02221   0.02227
     Eigenvalues ---    0.04548   0.06381   0.06650   0.15997   0.15999
     Eigenvalues ---    0.16000   0.16000   0.16000   0.16000   0.16000
     Eigenvalues ---    0.16000   0.16000   0.16000   0.16000   0.16000
     Eigenvalues ---    0.16000   0.16000   0.16000   0.18865   0.19358
     Eigenvalues ---    0.22000   0.22000   0.22000   0.22000   0.22000
     Eigenvalues ---    0.22000   0.23469   0.23477   0.23478   0.24976
     Eigenvalues ---    0.24999   0.25000   0.31247   0.31358   0.31448
     Eigenvalues ---    0.31535   0.33502   0.33607   0.33956   0.34063
     Eigenvalues ---    0.34070   0.34084   0.34244   0.34256   0.34256
     Eigenvalues ---    0.34259   0.34262   0.34265   0.34277   0.34282
     Eigenvalues ---    0.34291   0.42370   0.42455   0.42482   0.42561
     Eigenvalues ---    0.42575   0.42629   0.46303   0.46380   0.46435
     Eigenvalues ---    0.46730   0.46748   0.46825   0.47201   0.47205
     Eigenvalues ---    0.47220   0.47343   0.47352   0.474631000.00000
     Eigenvalues --- 1000.000001000.000001000.000001000.000001000.00000
     Eigenvalues --- 1000.000001000.000001000.000001000.000001000.00000
     Eigenvalues --- 1000.000001000.000001000.000001000.000001000.00000
     Eigenvalues --- 1000.000001000.000001000.000001000.000001000.00000
     Eigenvalues --- 1000.000001000.000001000.000001000.000001000.00000
     Eigenvalues --- 1000.000001000.000001000.000001000.000001000.00000
     Eigenvalues --- 1000.000001000.000001000.000001000.000001000.00000
     Eigenvalues --- 1000.000001000.000001000.000001000.000001000.00000
     Eigenvalues --- 1000.000001000.000001000.000001000.000001000.00000
     Eigenvalues --- 1000.000001000.000001000.000001000.000001000.00000
     Eigenvalues --- 1000.000001000.000001000.000001000.000001000.00000
     Eigenvalues --- 1000.000001000.000001000.000001000.000001000.00000
     Eigenvalues --- 1000.000001000.000001000.000001000.000001000.00000
     Eigenvalues --- 1000.000001000.000001000.000001000.000001000.00000
     Eigenvalues --- 1000.000001000.000001000.000001000.000001000.00000
     Eigenvalues --- 1000.000001000.000001000.000001000.000001000.00000
     Eigenvalues --- 1000.000001000.000001000.000001000.000001000.00000
     Eigenvalues --- 1000.000001000.00000
 RFO step:  Lambda=-4.20915755D-02 EMin= 6.34706352D-03
 Linear search not attempted -- first point.
 Maximum step size (   0.300) exceeded in Quadratic search.
    -- Step size scaled by   0.589
 Iteration  1 RMS(Cart)=  0.12553298 RMS(Int)=  0.00302073
 Iteration  2 RMS(Cart)=  0.00610037 RMS(Int)=  0.00028111
 Iteration  3 RMS(Cart)=  0.00001062 RMS(Int)=  0.00028105
 Iteration  4 RMS(Cart)=  0.00000000 RMS(Int)=  0.00028105
 Variable       Old X    -DE/DX   Delta X   Delta X   Delta X     New X
                                 (Linear)    (Quad)   (Total)
    R1        2.12243  -0.02518   0.00000  -0.04182  -0.04182   2.08061
    R2        2.85166   0.02324   0.00000   0.03838   0.03838   2.89004
    R3        2.85334   0.02281   0.00000   0.03776   0.03776   2.89110
    R4        2.85002   0.02389   0.00000   0.03936   0.03936   2.88939
    R5        2.64470  -0.00232   0.00000  -0.00270  -0.00270   2.64200
    R6        2.63436  -0.00241   0.00000  -0.00267  -0.00266   2.63170
    R7        2.62351  -0.00505   0.00000  -0.00582  -0.00582   2.61769
    R8        2.07223  -0.01841   0.00000  -0.02833  -0.02833   2.04391
    R9        2.62952  -0.00113   0.00000  -0.00121  -0.00121   2.62831
   R10        2.07404  -0.02216   0.00000  -0.03419  -0.03419   2.03985
   R11        2.62992  -0.00478   0.00000  -0.00562  -0.00563   2.62429
   R12        2.06894  -0.01666   0.00000  -0.02550  -0.02550   2.04344
   R13        2.62527  -0.00766   0.00000  -0.00876  -0.00877   2.61650
   R14        2.06901  -0.01668   0.00000  -0.02553  -0.02553   2.04347
   R15        2.06842  -0.01663   0.00000  -0.02544  -0.02544   2.04298
   R16        2.63890  -0.00427   0.00000  -0.00493  -0.00492   2.63398
   R17        2.63874  -0.00012   0.00000  -0.00003  -0.00001   2.63873
   R18        2.62781  -0.00231   0.00000  -0.00269  -0.00270   2.62511
   R19        2.07188  -0.01758   0.00000  -0.02703  -0.02703   2.04485
   R20        2.62559  -0.00465   0.00000  -0.00526  -0.00525   2.62033
   R21        2.07998  -0.02631   0.00000  -0.04096  -0.04096   2.03901
   R22        2.62762  -0.00878   0.00000  -0.01016  -0.01018   2.61744
   R23        2.06920  -0.01670   0.00000  -0.02558  -0.02558   2.04362
   R24        2.62862  -0.00532   0.00000  -0.00615  -0.00617   2.62246
   R25        2.06886  -0.01673   0.00000  -0.02561  -0.02561   2.04325
   R26        2.06857  -0.01680   0.00000  -0.02570  -0.02570   2.04287
   R27        2.63955   0.00084   0.00000   0.00113   0.00114   2.64069
   R28        2.63984  -0.00426   0.00000  -0.00493  -0.00491   2.63493
   R29        2.62551  -0.00422   0.00000  -0.00473  -0.00473   2.62078
   R30        2.08178  -0.02900   0.00000  -0.04529  -0.04529   2.03650
   R31        2.62769  -0.00249   0.00000  -0.00294  -0.00293   2.62476
   R32        2.07212  -0.01785   0.00000  -0.02747  -0.02747   2.04466
   R33        2.62851  -0.00573   0.00000  -0.00663  -0.00665   2.62186
   R34        2.06889  -0.01671   0.00000  -0.02559  -0.02559   2.04331
   R35        2.62726  -0.00914   0.00000  -0.01060  -0.01062   2.61664
   R36        2.06900  -0.01669   0.00000  -0.02556  -0.02556   2.04345
   R37        2.06865  -0.01683   0.00000  -0.02575  -0.02575   2.04290
    A1        1.83041   0.00347   0.00000  -0.00147  -0.00123   1.82918
    A2        1.88258  -0.00831   0.00000  -0.04671  -0.04591   1.83667
    A3        1.87368  -0.01007   0.00000  -0.05119  -0.05027   1.82342
    A4        1.94065  -0.00368   0.00000   0.01098   0.00878   1.94943
    A5        1.99582   0.00136   0.00000   0.02266   0.02078   2.01661
    A6        1.93320   0.01533   0.00000   0.05421   0.05305   1.98625
    A7        2.06413  -0.00002   0.00000  -0.00010  -0.00011   2.06401
    A8        2.14149   0.00790   0.00000   0.01588   0.01586   2.15736
    A9        2.07678  -0.00789   0.00000  -0.01595  -0.01594   2.06084
   A10        2.10356   0.00482   0.00000   0.01043   0.01043   2.11399
   A11        2.08432  -0.00147   0.00000  -0.00248  -0.00249   2.08183
   A12        2.09529  -0.00335   0.00000  -0.00795  -0.00795   2.08734
   A13        2.10118   0.00343   0.00000   0.00783   0.00784   2.10902
   A14        2.09341  -0.00005   0.00000   0.00094   0.00094   2.09435
   A15        2.08860  -0.00338   0.00000  -0.00878  -0.00878   2.07982
   A16        2.09638   0.00078   0.00000   0.00103   0.00102   2.09740
   A17        2.09208  -0.00038   0.00000  -0.00050  -0.00050   2.09157
   A18        2.09473  -0.00039   0.00000  -0.00052  -0.00052   2.09421
   A19        2.09946   0.00112   0.00000   0.00232   0.00231   2.10177
   A20        2.08866  -0.00048   0.00000  -0.00093  -0.00093   2.08773
   A21        2.09507  -0.00064   0.00000  -0.00139  -0.00138   2.09368
   A22        2.08900  -0.00225   0.00000  -0.00566  -0.00568   2.08332
   A23        2.09632   0.00117   0.00000   0.00297   0.00297   2.09929
   A24        2.09787   0.00108   0.00000   0.00270   0.00270   2.10057
   A25        2.08422  -0.00749   0.00000  -0.01508  -0.01514   2.06908
   A26        2.11808   0.01812   0.00000   0.03655   0.03648   2.15457
   A27        2.08087  -0.01064   0.00000  -0.02155  -0.02155   2.05932
   A28        2.09889   0.00732   0.00000   0.01606   0.01606   2.11496
   A29        2.09539  -0.00437   0.00000  -0.01009  -0.01010   2.08528
   A30        2.08891  -0.00295   0.00000  -0.00597  -0.00599   2.08292
   A31        2.10161   0.00414   0.00000   0.00927   0.00921   2.11082
   A32        2.07787   0.00369   0.00000   0.01229   0.01218   2.09005
   A33        2.10355  -0.00778   0.00000  -0.02113  -0.02124   2.08231
   A34        2.09784  -0.00028   0.00000  -0.00134  -0.00136   2.09647
   A35        2.09105   0.00036   0.00000   0.00130   0.00131   2.09236
   A36        2.09430  -0.00008   0.00000   0.00004   0.00005   2.09435
   A37        2.09591   0.00225   0.00000   0.00463   0.00463   2.10053
   A38        2.09176  -0.00103   0.00000  -0.00202  -0.00203   2.08973
   A39        2.09552  -0.00123   0.00000  -0.00261  -0.00261   2.09291
   A40        2.09124  -0.00278   0.00000  -0.00698  -0.00702   2.08422
   A41        2.09596   0.00137   0.00000   0.00345   0.00345   2.09942
   A42        2.09598   0.00141   0.00000   0.00355   0.00355   2.09953
   A43        2.12662   0.02336   0.00000   0.04713   0.04711   2.17373
   A44        2.07794  -0.01136   0.00000  -0.02288  -0.02290   2.05504
   A45        2.07860  -0.01200   0.00000  -0.02423  -0.02419   2.05441
   A46        2.10244   0.00457   0.00000   0.01029   0.01028   2.11272
   A47        2.07840   0.00443   0.00000   0.01448   0.01445   2.09285
   A48        2.10225  -0.00898   0.00000  -0.02462  -0.02465   2.07761
   A49        2.10044   0.00825   0.00000   0.01800   0.01802   2.11846
   A50        2.09441  -0.00475   0.00000  -0.01082  -0.01084   2.08357
   A51        2.08834  -0.00350   0.00000  -0.00717  -0.00719   2.08115
   A52        2.09651   0.00239   0.00000   0.00495   0.00493   2.10144
   A53        2.09135  -0.00111   0.00000  -0.00223  -0.00222   2.08913
   A54        2.09532  -0.00128   0.00000  -0.00272  -0.00271   2.09261
   A55        2.09777  -0.00017   0.00000  -0.00133  -0.00134   2.09644
   A56        2.09105   0.00026   0.00000   0.00117   0.00117   2.09223
   A57        2.09436  -0.00009   0.00000   0.00016   0.00017   2.09452
[...]
 34420,0.00035724,0.00013195,0.00003015,-0.00011856,0.00009136,-0.00006
 510,-0.00013989,-0.00017699,-0.00014270,-0.00000771,0.00002333,-0.0000
 3312,0.00031803,-0.00009259,-0.00009742,-0.00004058,-0.00013455,-0.000
 11762,-0.00005667,0.00016586,0.00016177,0.00002233,-0.00001274,0.00001
 063,0.00000854,0.00001843,0.00000504,0.00002315,-0.00000242,0.00000182
 ,-0.00102887,0.00112783,0.00080903,-0.00001260,-0.00014027,-0.00020012
 ,0.00016043,0.00026841,-0.00014057,0.00010561,0.00008290,-0.00017508,-
 0.00000464,0.00005282,0.00012535,-0.00002849,-0.00021754,-0.00002908,-
 0.00003942,0.00003863,-0.00000683,0.00010383,0.00007674,0.00014865,0.0
 0001140,0.00001966,-0.00000737,0.00000528,0.00000804,-0.00000552,-0.00
 000614,0.00000169,0.00001229,-0.03604567,0.00048968,0.05284802,0.03660
 594,-0.02699070,-0.03001300,0.02066174,0.03840660,-0.14043999,0.004885
 24,0.05758892,-0.04568603,0.00002209,-0.00105284,-0.00022277,-0.214260
 70,-0.19756905,0.61594446,-0.00190086,-0.00027036,-0.00162218,0.000681
 50,-0.00034683,-0.00093127,-0.00003232,0.00015507,-0.00011249,-0.00011
 582,-0.00003117,0.00007518,-0.00003814,0.00001824,0.00007435,-0.000015
 71,0.00003788,0.00000885,0.00000682,-0.00000981,-0.00000622,-0.0000278
 3,-0.00005563,-0.00003185,0.00005392,-0.00001283,-0.00002608,0.0000131
 4,-0.00000547,-0.00002265,0.00000712,-0.00000299,-0.00000679,-0.000006
 71,0.00000210,0.00000156,0.00001090,-0.00000074,0.00000058,0.00015264,
 -0.00021717,-0.00023079,0.00004994,-0.00007240,0.00016889,0.00005846,0
 .00001105,-0.00005889,-0.00001513,0.00002442,-0.00002538,-0.00002450,-
 0.00001580,-0.00002678,-0.00004964,0.00001750,-0.00003167,-0.00000593,
 0.00000102,-0.00001256,0.00000360,-0.00002160,0.00001307,-0.00001071,-
 0.00001272,0.00000196,-0.00000657,0.00000579,0.00000425,-0.00000279,-0
 .00000121,-0.00000337,0.00380177,0.00262467,-0.00018525,0.00454787,0.0
 0237814,0.00234842,-0.18367263,0.01472444,0.15479395,-0.00018881,0.000
 00828,-0.00096476,-0.00006217,0.00005642,-0.00009443,-0.00815613,-0.00
 220377,0.01861724,0.18531222,-0.00240300,0.00050497,0.00015977,0.00022
 268,-0.00065612,-0.00075049,0.00014948,0.00029270,0.00011582,-0.000115
 80,-0.00004891,0.00003532,-0.00008576,-0.00000557,0.00011468,0.0000720
 0,0.00003095,0.00001355,0.00003156,-0.00004629,-0.00001704,-0.00007763
 ,-0.00005518,0.00000674,0.00003990,-0.00000015,-0.00009124,-0.00003079
 ,-0.00006678,-0.00004235,-0.00001690,0.00000642,-0.00000418,-0.0000180
 9,-0.00000737,-0.00002785,-0.00001027,0.00000178,-0.00001647,-0.000041
 36,-0.00010403,-0.00024726,0.00004577,0.00001524,0.00006057,0.00009087
 ,0.00008541,-0.00006708,-0.00001051,-0.00000214,-0.00002662,-0.0000424
 1,-0.00001723,-0.00000888,-0.00002366,0.00002891,-0.00002165,-0.000012
 92,-0.00000410,-0.00000729,0.00001070,0.00002170,-0.00000777,0.0000050
 2,0.00000671,0.00000423,-0.00000347,0.00001746,-0.00001212,0.00000106,
 0.00000946,-0.00000678,-0.01734469,0.00542509,0.02168013,0.00252303,-0
 .00213559,0.00570769,0.01462257,-0.06760468,-0.00247565,0.00005543,-0.
 00114720,0.00008032,-0.00090760,0.00017508,0.00096077,0.02026692,0.004
 41016,-0.02378356,-0.02088526,0.06363346,-0.00148334,-0.00217720,-0.00
 075904,-0.00019320,0.00073017,0.00035573,-0.00032614,0.00038975,0.0002
 5739,-0.00039289,-0.00003444,0.00007649,0.00009593,-0.00027504,-0.0000
 4079,-0.00002198,0.00009731,0.00011685,0.00000851,0.00002933,-0.000032
 51,-0.00019518,-0.00006931,0.00000222,0.00013323,0.00009905,-0.0000573
 5,0.00003962,-0.00004572,-0.00007015,0.00000557,-0.00000464,-0.0000173
 5,0.00000959,0.00002408,-0.00000162,0.00001690,0.00001030,-0.00000021,
 0.00023656,0.00001651,0.00037361,-0.00005134,-0.00001442,0.00006735,-0
 .00010625,-0.00014320,0.00008509,-0.00003158,-0.00000689,-0.00002300,0
 .00003077,-0.00000087,-0.00003023,-0.00000125,-0.00002810,0.00005578,0
 .00002154,-0.00000805,-0.00003532,0.00000049,-0.00001144,0.00000890,-0
 .00000160,-0.00001603,-0.00000197,-0.00000070,-0.00001702,0.00000387,0
 .00000245,-0.00000646,-0.00000195,0.01802917,-0.00460759,-0.01295384,0
 .00192992,0.00598434,0.00055626,0.15395563,-0.00188024,-0.23790918,-0.
 00105392,0.00016957,0.00018092,0.00079955,-0.00020277,-0.00086293,0.00
 001594,0.00365829,0.00255419,-0.17187438,-0.00093023,0.24539826,-0.001
 67710,-0.00061555,0.00024310,-0.00006203,0.00005076,-0.00060178,0.0001
 4549,0.00110095,-0.00018397,-0.00000096,-0.00001362,-0.00023903,-0.000
 18587,0.00011811,0.00005341,-0.00010281,-0.00012374,-0.00002042,0.0000
 2622,0.00001081,-0.00000838,0.00021517,-0.00009511,-0.00008399,-0.0000
 0522,-0.00014469,-0.00005101,-0.00010753,0.00009716,0.00009375,-0.0000
 3544,-0.00001928,0.00001317,-0.00002238,0.00000024,-0.00003051,-0.0000
 0071,-0.00001020,-0.00000787,0.00000495,0.00009506,0.00031277,-0.00001
 226,-0.00015385,-0.00008068,0.00009665,0.00016331,-0.00003996,0.000046
 82,0.00009160,-0.00014157,-0.00005912,-0.00003069,0.00002933,-0.000087
 85,-0.00011246,0.00001157,-0.00001635,0.00000721,-0.00000350,0.0000985
 0,0.00005020,0.00008777,0.00000477,0.00003540,0.00000536,-0.00000494,0
 .00001686,-0.00000598,-0.00000144,0.00001027,-0.00000091,-0.01931036,-
 0.02030999,0.03349179,0.03663445,0.00188161,-0.03522581,-0.03187590,0.
 04999426,0.01037628,-0.12649653,0.04711374,0.01209561,0.00149332,0.006
 06888,0.00374849,-0.20831531,0.00782647,0.14888593,0.00264976,0.005982
 30,0.00292231,0.51185385,-0.00097819,0.00048485,0.00000188,0.00008105,
 -0.00032883,-0.00037133,-0.00031593,0.00012331,-0.00027448,0.00029304,
 0.00014698,0.00007529,0.00015211,0.00004473,-0.00012485,-0.00006915,-0
 .00010249,-0.00009847,-0.00002347,0.00000276,0.00000086,0.00019359,-0.
 00007326,-0.00003866,0.00006422,-0.00030492,-0.00014099,0.00001367,0.0
 0010558,0.00011088,0.00002666,-0.00001052,0.00001898,0.00005330,0.0000
 1916,0.00003200,0.00001869,0.00000173,-0.00000031,0.00035331,0.0001776
 5,0.00011943,0.00000729,-0.00027480,0.00005945,0.00003408,0.00006644,-
 0.00021834,0.00004179,0.00018858,-0.00014007,0.00000436,0.00001900,0.0
 0003014,-0.00012923,-0.00013017,-0.00003418,-0.00001263,0.00001397,-0.
 00002245,0.00006943,-0.00003292,0.00021118,-0.00000930,-0.00003007,-0.
 00001701,-0.00000018,-0.00002032,0.00002249,-0.00000267,-0.00002181,0.
 00000450,-0.02000190,-0.02002323,0.03559478,0.04061955,-0.05222863,0.0
 0182209,0.01145309,0.03868938,-0.03763551,-0.00262326,-0.25966054,0.15
 411245,0.00604057,-0.00100776,0.00090140,0.05702125,-0.14549273,-0.017
 75214,0.00629503,-0.00227574,0.00176428,-0.23560096,0.68002344,0.00190
 864,-0.00046763,-0.00101083,0.00019752,-0.00005534,0.00105126,-0.00001
 191,-0.00108284,0.00059764,-0.00042155,-0.00011999,0.00026093,0.000273
 44,-0.00027806,0.00016149,0.00022782,0.00028595,0.00017433,-0.00000503
 ,-0.00000440,0.00000521,-0.00048964,0.00010949,0.00006857,0.00007827,0
 .00027370,0.00005482,0.00018552,-0.00024067,-0.00024899,0.00001550,0.0
 0003349,-0.00003355,0.00001276,-0.00001182,0.00004424,-0.00000165,0.00
 000766,0.00000244,-0.00020005,-0.00031461,-0.00049729,-0.00009014,0.00
 044887,0.00002306,-0.00016570,-0.00033399,0.00031515,-0.00012471,-0.00
 031173,0.00030613,0.00004818,-0.00002406,-0.00008360,0.00024668,0.0002
 7821,0.00001779,0.00001402,-0.00001908,0.00000971,-0.00018882,-0.00003
 800,-0.00031666,0.00000717,0.00000491,0.00001383,0.00000553,-0.0000025
 9,-0.00001036,0.00000223,0.00001012,-0.00000906,0.03191009,0.03671348,
 -0.07996404,-0.06795055,0.05074995,0.05175938,0.04247595,-0.08725497,0
 .02944258,0.05506841,0.09293770,-0.23113544,0.00401169,0.00053958,0.00
 373995,0.10611104,0.04388673,-0.25436788,0.00248657,0.00233474,0.00399
 644,-0.21701327,-0.14122551,0.56695347,-0.00038330,-0.00028985,0.00069
 682,-0.00024114,0.00023825,0.00002399,0.00011822,0.00016920,0.00013524
 ,-0.00010967,-0.00005226,-0.00006163,-0.00010984,0.00004262,-0.0000323
 9,-0.00000562,0.00000339,0.00000365,0.00001573,-0.00001779,-0.00000838
 ,0.00001245,0.00001613,0.00000612,0.00002796,0.00000578,0.00006855,-0.
 00002675,-0.00000588,-0.00000777,-0.00001605,0.00000074,-0.00000190,-0
 .00002700,-0.00001709,-0.00001371,-0.00001128,-0.00000443,-0.00000039,
 -0.00007466,-0.00024596,0.00006134,0.00003647,0.00000635,-0.00000353,0
 .00006290,0.00008094,-0.00003658,-0.00000714,0.00000711,-0.00002251,-0
 .00001417,-0.00001237,-0.00002241,-0.00000666,-0.00002611,-0.00001025,
 -0.00001964,-0.00000370,0.00001121,0.00003155,0.00002864,-0.00000367,0
 .00000513,0.00000746,0.00000216,-0.00000989,0.00002290,-0.00001503,0.0
 0000106,0.00001381,-0.00000218,0.00262153,0.00602356,0.00229468,-0.008
 12686,-0.00211146,0.01866132,-0.00015853,0.00003820,-0.00103012,-0.185
 38971,0.01460218,0.15649027,-0.00168372,-0.00161193,-0.00271669,0.0050
 6238,0.00260153,0.00257786,-0.00063330,-0.00043631,-0.00039247,0.00468
 814,0.00307389,-0.00149115,0.18618411,0.00043672,0.00040135,-0.0010460
 8,0.00019674,-0.00021186,-0.00010944,-0.00001519,-0.00016748,-0.000048
 33,0.00006664,0.00000217,0.00003655,0.00001114,0.00002248,0.00003412,0
 .00001672,0.00000796,-0.00000742,-0.00001006,0.00000178,0.00000693,0.,
 0.00000371,-0.00000030,0.00000521,0.00000433,-0.00000627,0.00001503,-0
 .00000336,-0.00000164,0.00001146,0.00000025,-0.00000283,0.00000161,0.0
 0000478,0.00000279,0.00000552,0.00000008,0.00000266,0.00001823,0.00018
 539,-0.00003150,-0.00002881,-0.00004760,0.00002035,-0.00002539,0.00001
 261,0.00001705,-0.00001311,0.00002121,-0.00000546,0.00001993,0.0000029
 1,-0.00000566,-0.00002713,-0.00001699,0.00001785,0.00001434,0.00000234
 ,-0.00001219,-0.00002385,-0.00003583,0.00004191,-0.00000126,-0.0000195
 1,-0.00000916,0.00000928,-0.00001580,0.00000365,0.00000558,-0.00001327
 ,-0.00000108,0.00608012,-0.00244496,0.00206056,0.01973172,0.00445450,-
 0.02351045,0.00005267,-0.00132147,0.00020060,0.01459075,-0.06803906,-0
 .00174690,-0.00240847,-0.00003985,-0.00125017,0.00284534,-0.00185138,0
 .00573723,-0.00042313,-0.00020146,-0.00037862,-0.01893859,0.00689306,0
 .02226315,-0.01975539,0.06251197,-0.00017780,0.00033867,-0.00016692,0.
 00003445,-0.00002141,-0.00003188,-0.00000728,-0.00012543,0.00000749,0.
 00002796,0.00000903,0.00003960,0.00001267,0.00003253,0.00003294,0.0000
 1514,0.00000995,-0.00000128,-0.00000815,-0.00000170,-0.00000276,-0.000
 00924,-0.00002048,-0.00001736,-0.00000528,-0.00001224,-0.00003119,0.00
 001613,-0.00000816,-0.00000552,0.00001328,-0.00000163,-0.00000505,0.00
 000278,0.00000836,0.00000369,0.00001230,0.00000031,0.00000147,0.000099
 04,0.00001336,-0.00001150,-0.00000529,-0.00006007,0.00002366,-0.000008
 88,-0.00000536,-0.00004310,-0.00000148,0.00003997,-0.00000511,0.000019
 22,0.00001417,-0.00000443,-0.00002803,-0.00001536,-0.00000400,-0.00000
 568,0.00000767,-0.00001025,-0.00000546,-0.00002013,0.00004525,-0.00000
 551,-0.00002401,-0.00001381,0.00000258,-0.00000890,0.00000716,0.000001
 36,-0.00001619,0.00000327,0.00276085,0.00164852,0.00381589,-0.00018386
 ,0.00359807,0.00267337,-0.00101819,0.00006807,0.00025321,0.15634820,-0
 .00195208,-0.24030339,-0.00210943,-0.00197732,-0.00071474,0.00230235,0
 .00611936,0.00086432,-0.00040235,-0.00037497,-0.00045182,0.01742203,-0
 .00483180,-0.01174964,-0.17311038,-0.00108432,0.24735052,0.00021955,0.
 00056987,-0.00074974,0.00007365,-0.00006324,0.00000831,0.00005455,0.00
 009486,0.00002544,-0.00004612,-0.00000553,-0.00001783,-0.00003900,-0.0
 0002095,0.00000245,-0.00000212,-0.00000678,0.00001387,0.00000745,0.000
 00175,-0.00001141,-0.00001376,-0.00001232,0.00001223,0.00001083,0.0000
 3033,-0.00001279,-0.00002662,-0.00001536,-0.00000576,-0.00000568,0.000
 00238,-0.00000412,-0.00000998,0.00000087,-0.00001751,-0.00000320,0.000
 00465,-0.00000568,-0.00032237,0.00014533,-0.00000062,0.00003266,0.0000
 5504,0.00001440,0.00002576,0.00001808,-0.00000134,-0.00000182,-0.00004
 618,0.00001435,-0.00000158,-0.00000219,0.00000108,0.00004202,0.0000213
 1,-0.00001158,-0.00001678,0.00000617,0.00000289,-0.00001671,0.00001989
 ,-0.00004516,0.00000098,0.00000210,0.00000342,0.00000138,0.00000731,-0
 .00000792,-0.00000103,0.00000427,-0.00000045,0.00161319,0.00587735,0.0
 0404718,-0.00109724,0.00013601,0.00010926,0.00626779,0.01797733,-0.016
 43582,0.00111980,0.00331101,0.00657103,-0.00052803,-0.00040930,-0.0005
 4528,-0.06178454,0.00063620,0.01588131,-0.00173958,-0.00248403,-0.0021
 3836,0.00515166,-0.01886993,0.01672357,-0.00006047,-0.00087961,0.00072
 173,0.05270539,-0.00051908,-0.00060736,0.00099176,0.00000793,-0.000012
 61,-0.00006758,-0.00015550,-0.00011833,-0.00007598,0.00009794,0.000051
 87,0.00001704,0.00003581,0.00004349,0.00003065,0.00001555,-0.00000074,
 -0.00001751,-0.00001516,-0.00000881,0.00000702,0.00000434,-0.00001189,
 -0.00001010,-0.00001761,-0.00002679,-0.00003370,0.00002679,0.00000712,
 -0.00000139,0.00002120,-0.00001056,0.00000275,0.00000785,0.00000507,0.
 00001475,0.00001557,-0.00000108,0.00000523,0.00033906,-0.00005669,-0.0
 0017410,0.00000074,-0.00005000,0.00007193,-0.00006784,-0.00009973,0.00
 001026,0.00000124,0.00000739,0.00002662,0.00001332,0.00001360,-0.00000
 277,-0.00001140,0.00002990,-0.00000015,0.00000202,0.00000418,-0.000006
 04,-0.00002046,-0.00003287,-0.00000163,-0.00001731,-0.00001914,-0.0000
 0209,0.00000012,-0.00001313,0.00001483,-0.00000398,-0.00001389,0.00000
 415,0.00640374,-0.00076188,0.00061093,0.00026316,-0.00002385,-0.001109
 57,-0.00388339,-0.01410324,0.02197684,0.00296868,0.00311536,0.00109424
 ,-0.00045994,-0.00031791,-0.00024444,0.00072272,-0.22895085,0.15510511
 ,-0.00173160,-0.00020886,-0.00215053,0.00286507,0.00634901,-0.00433514
 ,0.00003009,0.00006499,-0.00017029,-0.00457991,0.23597083,0.00002131,-
 0.00028044,0.00008374,-0.00002194,0.00001516,-0.00003424,-0.00001249,0
 .00013535,0.00001441,-0.00001496,-0.00000932,-0.00004968,-0.00003292,-
 0.00002473,-0.00001760,-0.00001299,-0.00001579,-0.00000086,0.00000780,
 -0.00000209,-0.00000460,0.00001016,0.00000477,0.00003422,0.00003189,0.
 00003278,0.00000132,-0.00003222,0.00000112,0.00000803,-0.00000971,0.00
 000109,0.00000111,-0.00000979,-0.00000099,-0.00002329,-0.00001112,0.00
 000401,-0.00000494,-0.00007861,0.00000324,-0.00005573,0.00000068,0.000
 03963,0.00001613,-0.00000210,0.00000996,0.00003667,-0.00002003,-0.0000
 3576,0.00001470,0.00000247,-0.00001297,-0.00001583,0.00001695,0.000021
 99,0.00001056,0.00000608,-0.00000552,-0.00000097,-0.00001887,0.0000010
 8,-0.00002990,0.00000477,0.00000093,0.00000302,0.00000316,0.00000168,-
 0.00000911,0.00000388,0.00000504,-0.00000475,0.00376501,0.00083492,0.0
 0374054,0.00007140,-0.00110814,-0.00008032,0.00263023,-0.00534248,0.00
 704617,0.00681858,0.00071838,-0.00051158,-0.00050302,-0.00024636,-0.00
 041662,0.01576141,0.15530550,-0.20326244,-0.00271724,-0.00124628,-0.00
 069350,-0.00219753,0.02281388,-0.01158564,-0.00005658,0.00099987,-0.00
 085033,-0.02145889,-0.17054668,0.20721978,-0.00055311,-0.00027899,-0.0
 0043067,0.00006280,-0.00003372,-0.00013209,-0.00001385,0.00015381,0.00
 006223,-0.00005026,-0.00003082,-0.00003998,-0.00004575,-0.00000649,-0.
 00001447,-0.00001150,-0.00000732,0.00000059,0.00000832,-0.00000624,-0.
 00000336,0.00001910,0.00001580,0.00002620,0.00002931,0.00002612,0.0000
 3127,-0.00002192,0.00000178,0.00000441,-0.00001174,0.00000190,0.000000
 44,-0.00001390,-0.00000648,-0.00001761,-0.00001197,0.00000107,-0.00000
 288,-0.00006023,-0.00000147,-0.00000732,-0.00001619,0.00003366,0.00001
 154,0.00001678,0.00002226,0.00002227,-0.00001816,-0.00001290,-0.000004
 86,-0.00000089,-0.00001011,-0.00001504,0.00000511,-0.00000529,0.000006
 87,0.00000126,-0.00000600,-0.00000180,0.00000470,0.00001075,-0.0000093
 8,0.00000709,0.00000119,0.00000109,-0.00000268,0.00000735,-0.00000859,
 0.00000360,0.00000683,-0.00000403,-0.00017724,-0.00109375,0.00000964,0
 .00492932,0.00191755,0.00336918,0.00214295,0.00179676,0.00662104,0.005
 67649,-0.00358358,0.00248890,0.00000662,-0.00015732,0.00002255,-0.0078
 5538,0.01994454,-0.00118669,-0.00064437,0.00083114,0.00001088,-0.17472
 963,0.15272685,0.02614359,-0.00175223,-0.00158478,-0.00271977,-0.00161
 001,-0.00235974,-0.00194478,0.17468758,-0.00045690,-0.00014387,-0.0002
 9709,0.00008111,-0.00002369,-0.00010030,-0.00009061,0.00000581,0.00000
 699,0.00000619,0.00001089,0.00001793,0.00001304,0.00003211,0.00003955,
 0.00000659,0.00000783,0.00000713,-0.00000678,0.00000108,-0.00000125,-0
 .00000727,-0.00002365,-0.00002339,-0.00001685,-0.00002629,-0.00002775,
 0.00001477,-0.00000448,-0.00000438,0.00001097,-0.00000513,-0.00000334,
 0.00000322,0.00000746,0.00000652,0.00001386,0.00000029,0.00000159,0.00
 007507,0.00004091,-0.00003010,0.00001985,-0.00001008,0.00003350,-0.000
 01388,-0.00006711,-0.00002847,0.00001151,0.00000981,0.00001846,0.00000
 795,0.00001730,0.00000422,0.00001295,0.00002319,-0.00002490,-0.0000215
 5,0.00001223,-0.00000437,-0.00001401,-0.00000646,-0.00000173,-0.000010
 54,-0.00001596,-0.00000785,-0.00000035,-0.00000580,0.00001282,-0.00000
 470,-0.00001487,0.00000544,-0.00098535,0.00010369,0.00027983,0.0014911
 1,-0.00032484,0.00616055,0.00216041,0.00322027,0.00203630,0.01851880,-
 0.01403055,-0.00639629,0.00075110,-0.00088833,-0.00024078,-0.00185518,
 0.00379520,0.00340200,-0.00003955,-0.00007811,0.00003584,0.15258845,-0
 .25133090,-0.01475730,-0.00242228,-0.00016795,-0.00117616,-0.00152680,
 -0.00021261,-0.00207284,-0.16831436,0.26009262,-0.00047689,-0.00029979
 ,-0.00026295,0.00002345,0.00006514,-0.00003315,-0.00006832,0.00005218,
 0.00005617,-0.00003542,-0.00001367,-0.00000158,-0.00000542,-0.00002094
 ,0.00001006,-0.00000565,0.00000484,0.00001021,-0.00000052,0.00000430,-
 0.00000468,-0.00000548,0.00000219,0.00000637,0.00001921,0.00002465,-0.
 00000396,-0.00000139,-0.00000183,-0.00000592,0.00000014,-0.00000109,-0
 .00000280,-0.00000440,0.00000019,-0.00000249,0.00000140,0.00000123,0.0
 0000049,0.00002676,0.00003561,0.00001000,-0.00004857,-0.00000920,0.000
 00544,-0.00002277,-0.00000886,0.00004829,-0.00000783,0.00000146,-0.000
 00400,0.00001230,0.00000385,-0.00000394,-0.00000929,-0.00002033,0.0000
 1635,0.00000923,-0.00000420,-0.00000790,0.00000838,-0.00000472,0.00000
 526,0.00000065,-0.00000431,-0.00000036,-0.00000188,0.00000012,-0.00000
 124,0.00000127,0.00000087,0.00000007,0.00007694,0.00022164,-0.00126731
 ,0.00365665,0.00567606,-0.00036145,0.00632883,0.00251923,-0.00144017,-
 0.01652298,0.02072415,0.00788208,-0.00074974,0.00084147,0.00012161,0.0
 1783046,-0.02381958,0.00347021,0.00079254,-0.00110859,-0.00014657,0.02
 614351,-0.01476985,-0.06798544,-0.00199349,-0.00218743,-0.00069778,-0.
 00268229,-0.00103441,-0.00057847,-0.03228937,0.01312966,0.06116955||0.
 00000572,0.00000742,0.00000015,0.00000101,-0.00000158,-0.00000486,-0.0
 0001019,-0.00000095,0.00001513,0.00002423,0.00000280,-0.00000787,-0.00
 001433,-0.00000484,-0.00001811,-0.00001722,-0.00001034,-0.00001293,-0.
 00000142,-0.00000020,0.00000091,0.00002436,-0.00000444,-0.00000226,0.0
 0000097,0.00000042,0.00000197,-0.00001087,0.00001401,0.00001968,0.0000
 0279,0.00000045,0.00000133,-0.00000186,0.00000137,0.00000132,0.0000023
 0,-0.00000070,-0.00000267,-0.00000175,-0.00000094,0.00000567,0.0000026
 3,0.00000106,0.00000092,-0.00000129,-0.00000161,-0.00000056,-0.0000015
 8,0.00000068,0.00000479,0.00000011,-0.00000032,-0.00000145,-0.00000217
 ,0.00000213,-0.00000100,0.00000099,-0.00000071,-0.00000001,0.00000070,
 -0.00000083,-0.00000400,-0.00000071,-0.00000123,-0.00000118,0.00000061
 ,-0.00000058,0.00000088,-0.00000064,-0.00000156,0.00000032,-0.00001005
 ,-0.00001143,0.00002276,0.00001741,-0.00000866,-0.00001107,-0.00000694
 ,0.00002312,-0.00000583,-0.00000934,0.00001836,-0.00000950,-0.00000181
 ,0.00000103,0.00000104,0.00001292,-0.00001404,-0.00001261,0.00000116,-
 0.00000185,-0.00000063,-0.00000492,-0.00000846,0.00001980,0.,-0.000001
 84,0.00000189,-0.00000098,0.00000254,-0.00000015,0.00000012,0.00000174
 ,-0.00000185|||@


 KNOWLEDGE IS OF TWO KINDS:  WE KNOW A SUBJECT OURSELVES OR WE KNOW 
 WHERE WE CAN FIND INFORMATION UPON IT.

                                    -- SAMUEL JOHNSON
 Job cpu time:  0 days  0 hours  6 minutes 24.0 seconds.
 File lengths (MBytes):  RWF=    350 Int=      0 D2E=      0 Chk=      7 Scr=      1
 Normal termination of Gaussian 09 at Tue Sep 07 05:47:48 2021.
