 Entering Link 1 = b:\programy\g09w\l1.exe PID=      3996.
  
 Copyright (c) 1988,1990,1992,1993,1995,1998,2003,2009, Gaussian, Inc.
                  All Rights Reserved.
  
 This is part of the Gaussian(R) 09 program.  It is based on
 the Gaussian(R) 03 system (copyright 2003, Gaussian, Inc.),
 the Gaussian(R) 98 system (copyright 1998, Gaussian, Inc.),
 the Gaussian(R) 94 system (copyright 1995, Gaussian, Inc.),
 the Gaussian 92(TM) system (copyright 1992, Gaussian, Inc.),
 the Gaussian 90(TM) system (copyright 1990, Gaussian, Inc.),
 the Gaussian 88(TM) system (copyright 1988, Gaussian, Inc.),
 the Gaussian 86(TM) system (copyright 1986, Carnegie Mellon
 University), and the Gaussian 82(TM) system (copyright 1983,
 Carnegie Mellon University). Gaussian is a federally registered
 trademark of Gaussian, Inc.
  
 This software contains proprietary and confidential information,
 including trade secrets, belonging to Gaussian, Inc.
  
 This software is provided under written license and may be
 used, copied, transmitted, or stored only in accord with that
 written license.
  
 The following legend is applicable only to US Government
 contracts under FAR:
  
                    RESTRICTED RIGHTS LEGEND
  
 Use, reproduction and disclosure by the US Government is
 subject to restrictions as set forth in subparagraphs (a)
 and (c) of the Commercial Computer Software - Restricted
 Rights clause in FAR 52.227-19.
  
 Gaussian, Inc.
 340 Quinnipiac St., Bldg. 40, Wallingford CT 06492
  
  
 ---------------------------------------------------------------
 Warning -- This program may not be used in any manner that
 competes with the business of Gaussian, Inc. or will provide
 assistance to any competitor of Gaussian, Inc.  The licensee
 of this program is prohibited from giving any competitor of
 Gaussian, Inc. access to this program.  By using this program,
 the user acknowledges that Gaussian, Inc. is engaged in the
 business of creating and licensing software in the field of
 computational chemistry and represents and warrants to the
 licensee that it is not a competitor of Gaussian, Inc. and that
 it will not use this program in any manner prohibited above.
 ---------------------------------------------------------------
  

 Cite this work as:
 Gaussian 09, Revision A.02,
 M. J. Frisch, G. W. Trucks, H. B. Schlegel, G. E. Scuseria, 
 M. A. Robb, J. R. Cheeseman, G. Scalmani, V. Barone, B. Mennucci, 
 G. A. Petersson, H. Nakatsuji, M. Caricato, X. Li, H. P. Hratchian, 
 A. F. Izmaylov, J. Bloino, G. Zheng, J. L. Sonnenberg, M. Hada, 
 M. Ehara, K. Toyota, R. Fukuda, J. Hasegawa, M. Ishida, T. Nakajima, 
 Y. Honda, O. Kitao, H. Nakai, T. Vreven, J. A. Montgomery, Jr., 
 J. E. Peralta, F. Ogliaro, M. Bearpark, J. J. Heyd, E. Brothers, 
 K. N. Kudin, V. N. Staroverov, R. Kobayashi, J. Normand, 
 K. Raghavachari, A. Rendell, J. C. Burant, S. S. Iyengar, J. Tomasi, 
 M. Cossi, N. Rega, J. M. Millam, M. Klene, J. E. Knox, J. B. Cross, 
 V. Bakken, C. Adamo, J. Jaramillo, R. Gomperts, R. E. Stratmann, 
 O. Yazyev, A. J. Austin, R. Cammi, C. Pomelli, J. W. Ochterski, 
 R. L. Martin, K. Morokuma, V. G. Zakrzewski, G. A. Voth, 
 P. Salvador, J. J. Dannenberg, S. Dapprich, A. D. Daniels, 
 O. Farkas, J. B. Foresman, J. V. Ortiz, J. Cioslowski, 
 and D. J. Fox, Gaussian, Inc., Wallingford CT, 2009.
 
 ******************************************
 Gaussian 09:  IA32W-G09RevA.02 11-Jun-2009
                06-Sep-2021 
 ******************************************
 %nprocshared=12
 Will use up to   12 processors via shared memory.
 ----------------------------------------------
 # opt freq=noraman hf/6-311g geom=connectivity
 ----------------------------------------------
 1/18=20,19=15,38=1,57=2/1,3;
 2/9=110,12=2,17=6,18=5,40=1/2;
 3/5=4,6=6,11=9,16=1,25=1,30=1,71=1/1,2,3;
 4//1;
 5/5=2,38=5/2;
 6/7=2,8=2,9=2,10=2,28=1/1;
 7//1,2,3,16;
 1/18=20,19=15/3(2);
 2/9=110/2;
 99//99;
 2/9=110/2;
 3/5=4,6=6,11=9,16=1,25=1,30=1,71=1/1,2,3;
 4/5=5,16=3/1;
 5/5=2,38=5/2;
 7//1,2,3,16;
 1/18=20,19=15/3(-5);
 2/9=110/2;
 6/7=2,8=2,9=2,10=2,19=2,28=1/1;
 99/9=1/99;
 -----
 M0001
 -----
 Symbolic Z-matrix:
 Charge =  0 Multiplicity = 1
 C                    -0.0193   -0.00087  -0.7757 
 H                    -0.01111   0.03342  -1.8982 
 C                     0.17639   1.40703  -0.26638 
 C                     0.17974   2.47017  -1.17167 
 C                     0.35844   1.66858   1.09312 
 C                     0.36703   3.77277  -0.72211 
 H                     0.03351   2.28074  -2.24156 
 C                     0.54814   2.97059   1.53952 
 H                     0.33149   0.83103   1.80683 
 C                     0.5541    4.02504   0.63231 
 H                     0.36719   4.60095  -1.43821 
 H                     0.69177   3.16507   2.60729 
 H                     0.70386   5.05078   0.98404 
 C                    -1.36315  -0.53614  -0.34876 
 C                    -1.70369  -0.67712   0.99862 
 C                    -2.2951   -0.89236  -1.32617 
 C                    -2.95242  -1.16606   1.36203 
 H                    -0.97343  -0.38181   1.76866 
 C                    -3.54435  -1.38147  -0.96016 
 H                    -2.04368  -0.78677  -2.3882 
 C                    -3.87506  -1.52      0.38311 
 H                    -3.20929  -1.27052   2.42115 
 H                    -4.26868  -1.6573   -1.73348 
 H                    -4.85894  -1.90489   0.66962 
 C                     1.14558  -0.88699  -0.40901 
 C                     2.44136  -0.42985  -0.67295 
 C                     0.9753   -2.16234   0.12821 
 C                     3.54137  -1.23118  -0.39826 
 H                     2.58359   0.57222  -1.09509 
 C                     2.0789   -2.96425   0.40132 
 H                    -0.03452  -2.53739   0.3379 
 C                     3.3627   -2.50186   0.14002 
 H                     4.5506   -0.86158  -0.60665 
 H                     1.9317   -3.96378   0.82317 
 H                     4.22997  -3.13389   0.35565 
 

 GradGradGradGradGradGradGradGradGradGradGradGradGradGradGradGradGradGrad
 Berny optimization.
 Initialization pass.
                           ----------------------------
                           !    Initial Parameters    !
                           ! (Angstroms and Degrees)  !
 --------------------------                            --------------------------
 ! Name  Definition              Value          Derivative Info.                !
 --------------------------------------------------------------------------------
 ! R1    R(1,2)                  1.1231         estimate D2E/DX2                !
 ! R2    R(1,3)                  1.5099         estimate D2E/DX2                !
 ! R3    R(1,14)                 1.5082         estimate D2E/DX2                !
 ! R4    R(1,25)                 1.5088         estimate D2E/DX2                !
 ! R5    R(3,4)                  1.3964         estimate D2E/DX2                !
 ! R6    R(3,5)                  1.3963         estimate D2E/DX2                !
 ! R7    R(4,6)                  1.3907         estimate D2E/DX2                !
 ! R8    R(4,7)                  1.0963         estimate D2E/DX2                !
 ! R9    R(5,8)                  1.3894         estimate D2E/DX2                !
 ! R10   R(5,9)                  1.1007         estimate D2E/DX2                !
 ! R11   R(6,10)                 1.3904         estimate D2E/DX2                !
 ! R12   R(6,11)                 1.0948         estimate D2E/DX2                !
 ! R13   R(8,10)                 1.391          estimate D2E/DX2                !
 ! R14   R(8,12)                 1.0948         estimate D2E/DX2                !
 ! R15   R(10,13)                1.0947         estimate D2E/DX2                !
 ! R16   R(14,15)                1.3969         estimate D2E/DX2                !
 ! R17   R(14,16)                1.3967         estimate D2E/DX2                !
 ! R18   R(15,17)                1.3894         estimate D2E/DX2                !
 ! R19   R(15,18)                1.1016         estimate D2E/DX2                !
 ! R20   R(16,19)                1.3906         estimate D2E/DX2                !
 ! R21   R(16,20)                1.0965         estimate D2E/DX2                !
 ! R22   R(17,21)                1.391          estimate D2E/DX2                !
 ! R23   R(17,22)                1.0948         estimate D2E/DX2                !
 ! R24   R(19,21)                1.3903         estimate D2E/DX2                !
 ! R25   R(19,23)                1.0949         estimate D2E/DX2                !
 ! R26   R(21,24)                1.0946         estimate D2E/DX2                !
 ! R27   R(25,26)                1.3992         estimate D2E/DX2                !
 ! R28   R(25,27)                1.3943         estimate D2E/DX2                !
 ! R29   R(26,28)                1.3884         estimate D2E/DX2                !
 ! R30   R(26,29)                1.0966         estimate D2E/DX2                !
 ! R31   R(27,30)                1.3912         estimate D2E/DX2                !
 ! R32   R(27,31)                1.0974         estimate D2E/DX2                !
 ! R33   R(28,32)                1.3915         estimate D2E/DX2                !
 ! R34   R(28,33)                1.0948         estimate D2E/DX2                !
 ! R35   R(30,32)                1.3893         estimate D2E/DX2                !
 ! R36   R(30,34)                1.0948         estimate D2E/DX2                !
 ! R37   R(32,35)                1.0946         estimate D2E/DX2                !
 ! A1    A(2,1,3)              107.9227         estimate D2E/DX2                !
 ! A2    A(2,1,14)             107.4739         estimate D2E/DX2                !
 ! A3    A(2,1,25)             104.7861         estimate D2E/DX2                !
 ! A4    A(3,1,14)             110.5435         estimate D2E/DX2                !
 ! A5    A(3,1,25)             111.4422         estimate D2E/DX2                !
 ! A6    A(14,1,25)            114.2467         estimate D2E/DX2                !
 ! A7    A(1,3,4)              119.4417         estimate D2E/DX2                !
 ! A8    A(1,3,5)              121.3296         estimate D2E/DX2                !
 ! A9    A(4,3,5)              119.2284         estimate D2E/DX2                !
 ! A10   A(3,4,6)              120.2575         estimate D2E/DX2                !
 ! A11   A(3,4,7)              120.0534         estimate D2E/DX2                !
 ! A12   A(6,4,7)              119.689          estimate D2E/DX2                !
 ! A13   A(3,5,8)              120.4064         estimate D2E/DX2                !
 ! A14   A(3,5,9)              119.0506         estimate D2E/DX2                !
 ! A15   A(8,5,9)              120.5341         estimate D2E/DX2                !
 ! A16   A(4,6,10)             120.1981         estimate D2E/DX2                !
 ! A17   A(4,6,11)             119.809          estimate D2E/DX2                !
 ! A18   A(10,6,11)            119.9928         estimate D2E/DX2                !
 ! A19   A(5,8,10)             120.0922         estimate D2E/DX2                !
 ! A20   A(5,8,12)             119.8497         estimate D2E/DX2                !
 ! A21   A(10,8,12)            120.058          estimate D2E/DX2                !
 ! A22   A(6,10,8)             119.8162         estimate D2E/DX2                !
 ! A23   A(6,10,13)            120.0956         estimate D2E/DX2                !
 ! A24   A(8,10,13)            120.0881         estimate D2E/DX2                !
 ! A25   A(1,14,15)            121.741          estimate D2E/DX2                !
 ! A26   A(1,14,16)            119.1406         estimate D2E/DX2                !
 ! A27   A(15,14,16)           119.1172         estimate D2E/DX2                !
 ! A28   A(14,15,17)           120.4577         estimate D2E/DX2                !
 ! A29   A(14,15,18)           119.0516         estimate D2E/DX2                !
 ! A30   A(17,15,18)           120.4851         estimate D2E/DX2                !
 ! A31   A(14,16,19)           120.327          estimate D2E/DX2                !
 ! A32   A(14,16,20)           120.0167         estimate D2E/DX2                !
 ! A33   A(19,16,20)           119.6563         estimate D2E/DX2                !
 ! A34   A(15,17,21)           120.1071         estimate D2E/DX2                !
 ! A35   A(15,17,22)           119.8325         estimate D2E/DX2                !
 ! A36   A(21,17,22)           120.0603         estimate D2E/DX2                !
 ! A37   A(16,19,21)           120.2011         estimate D2E/DX2                !
 ! A38   A(16,19,23)           119.8024         estimate D2E/DX2                !
 ! A39   A(21,19,23)           119.9964         estimate D2E/DX2                !
 ! A40   A(17,21,19)           119.7898         estimate D2E/DX2                !
 ! A41   A(17,21,24)           120.0959         estimate D2E/DX2                !
 ! A42   A(19,21,24)           120.1142         estimate D2E/DX2                !
 ! A43   A(1,25,26)            118.5066         estimate D2E/DX2                !
 ! A44   A(1,25,27)            122.448          estimate D2E/DX2                !
 ! A45   A(26,25,27)           118.9876         estimate D2E/DX2                !
 ! A46   A(25,26,28)           120.521          estimate D2E/DX2                !
 ! A47   A(25,26,29)           119.4252         estimate D2E/DX2                !
 ! A48   A(28,26,29)           120.0529         estimate D2E/DX2                !
 ! A49   A(25,27,30)           120.3966         estimate D2E/DX2                !
 ! A50   A(25,27,31)           119.9062         estimate D2E/DX2                !
 ! A51   A(30,27,31)           119.6973         estimate D2E/DX2                !
 ! A52   A(26,28,32)           120.1227         estimate D2E/DX2                !
 ! A53   A(26,28,33)           119.8586         estimate D2E/DX2                !
 ! A54   A(32,28,33)           120.0187         estimate D2E/DX2                !
 ! A55   A(27,30,32)           120.2809         estimate D2E/DX2                !
 ! A56   A(27,30,34)           119.6833         estimate D2E/DX2                !
 ! A57   A(32,30,34)           120.0358         estimate D2E/DX2                !
 ! A58   A(28,32,30)           119.6907         estimate D2E/DX2                !
 ! A59   A(28,32,35)           120.1154         estimate D2E/DX2                !
 ! A60   A(30,32,35)           120.1939         estimate D2E/DX2                !
 ! D1    D(2,1,3,4)              6.9376         estimate D2E/DX2                !
 ! D2    D(2,1,3,5)           -172.8691         estimate D2E/DX2                !
 ! D3    D(14,1,3,4)          -110.335          estimate D2E/DX2                !
 ! D4    D(14,1,3,5)            69.8583         estimate D2E/DX2                !
 ! D5    D(25,1,3,4)           121.4694         estimate D2E/DX2                !
 ! D6    D(25,1,3,5)           -58.3373         estimate D2E/DX2                !
 ! D7    D(2,1,14,15)         -178.6969         estimate D2E/DX2                !
 ! D8    D(2,1,14,16)            0.8874         estimate D2E/DX2                !
 ! D9    D(3,1,14,15)          -61.1481         estimate D2E/DX2                !
 ! D10   D(3,1,14,16)          118.4361         estimate D2E/DX2                !
 ! D11   D(25,1,14,15)          65.5034         estimate D2E/DX2                !
 ! D12   D(25,1,14,16)        -114.9124         estimate D2E/DX2                !
 ! D13   D(2,1,25,26)           67.3593         estimate D2E/DX2                !
 ! D14   D(2,1,25,27)         -109.8452         estimate D2E/DX2                !
 ! D15   D(3,1,25,26)          -49.1028         estimate D2E/DX2                !
 ! D16   D(3,1,25,27)          133.6927         estimate D2E/DX2                !
 ! D17   D(14,1,25,26)        -175.2868         estimate D2E/DX2                !
 ! D18   D(14,1,25,27)           7.5087         estimate D2E/DX2                !
 ! D19   D(1,3,4,6)           -179.5918         estimate D2E/DX2                !
 ! D20   D(1,3,4,7)              0.465          estimate D2E/DX2                !
 ! D21   D(5,3,4,6)              0.219          estimate D2E/DX2                !
 ! D22   D(5,3,4,7)           -179.7242         estimate D2E/DX2                !
 ! D23   D(1,3,5,8)            179.4534         estimate D2E/DX2                !
 ! D24   D(1,3,5,9)             -1.6277         estimate D2E/DX2                !
 ! D25   D(4,3,5,8)             -0.3537         estimate D2E/DX2                !
 ! D26   D(4,3,5,9)            178.5651         estimate D2E/DX2                !
 ! D27   D(3,4,6,10)             0.088          estimate D2E/DX2                !
 ! D28   D(3,4,6,11)          -179.9306         estimate D2E/DX2                !
 ! D29   D(7,4,6,10)          -179.9687         estimate D2E/DX2                !
 ! D30   D(7,4,6,11)             0.0127         estimate D2E/DX2                !
 ! D31   D(3,5,8,10)             0.1815         estimate D2E/DX2                !
 ! D32   D(3,5,8,12)          -179.8917         estimate D2E/DX2                !
 ! D33   D(9,5,8,10)          -178.7212         estimate D2E/DX2                !
 ! D34   D(9,5,8,12)             1.2057         estimate D2E/DX2                !
 ! D35   D(4,6,10,8)            -0.2628         estimate D2E/DX2                !
 ! D36   D(4,6,10,13)          179.8476         estimate D2E/DX2                !
 ! D37   D(11,6,10,8)          179.7558         estimate D2E/DX2                !
 ! D38   D(11,6,10,13)          -0.1338         estimate D2E/DX2                !
 ! D39   D(5,8,10,6)             0.1285         estimate D2E/DX2                !
 ! D40   D(5,8,10,13)         -179.982          estimate D2E/DX2                !
 ! D41   D(12,8,10,6)         -179.7983         estimate D2E/DX2                !
 ! D42   D(12,8,10,13)           0.0913         estimate D2E/DX2                !
 ! D43   D(1,14,15,17)         179.6306         estimate D2E/DX2                !
 ! D44   D(1,14,15,18)           0.4837         estimate D2E/DX2                !
 ! D45   D(16,14,15,17)          0.0463         estimate D2E/DX2                !
 ! D46   D(16,14,15,18)       -179.1006         estimate D2E/DX2                !
 ! D47   D(1,14,16,19)        -179.6395         estimate D2E/DX2                !
 ! D48   D(1,14,16,20)           0.3444         estimate D2E/DX2                !
 ! D49   D(15,14,16,19)         -0.0442         estimate D2E/DX2                !
 ! D50   D(15,14,16,20)        179.9396         estimate D2E/DX2                !
 ! D51   D(14,15,17,21)          0.0138         estimate D2E/DX2                !
 ! D52   D(14,15,17,22)       -179.8797         estimate D2E/DX2                !
 ! D53   D(18,15,17,21)        179.1485         estimate D2E/DX2                !
 ! D54   D(18,15,17,22)         -0.745          estimate D2E/DX2                !
 ! D55   D(14,16,19,21)         -0.018          estimate D2E/DX2                !
 ! D56   D(14,16,19,23)        179.9477         estimate D2E/DX2                !
 ! D57   D(20,16,19,21)        179.9981         estimate D2E/DX2                !
 ! D58   D(20,16,19,23)         -0.0362         estimate D2E/DX2                !
 ! D59   D(15,17,21,19)         -0.0764         estimate D2E/DX2                !
 ! D60   D(15,17,21,24)       -179.9803         estimate D2E/DX2                !
 ! D61   D(22,17,21,19)        179.8169         estimate D2E/DX2                !
 ! D62   D(22,17,21,24)         -0.087          estimate D2E/DX2                !
 ! D63   D(16,19,21,17)          0.0786         estimate D2E/DX2                !
 ! D64   D(16,19,21,24)        179.9824         estimate D2E/DX2                !
 ! D65   D(23,19,21,17)       -179.8871         estimate D2E/DX2                !
 ! D66   D(23,19,21,24)          0.0167         estimate D2E/DX2                !
 ! D67   D(1,25,26,28)        -177.6088         estimate D2E/DX2                !
 ! D68   D(1,25,26,29)           2.7218         estimate D2E/DX2                !
 ! D69   D(27,25,26,28)         -0.3056         estimate D2E/DX2                !
 ! D70   D(27,25,26,29)       -179.975          estimate D2E/DX2                !
 ! D71   D(1,25,27,30)         177.4251         estimate D2E/DX2                !
 ! D72   D(1,25,27,31)          -2.5984         estimate D2E/DX2                !
 ! D73   D(26,25,27,30)          0.2335         estimate D2E/DX2                !
 ! D74   D(26,25,27,31)       -179.7901         estimate D2E/DX2                !
 ! D75   D(25,26,28,32)          0.1977         estimate D2E/DX2                !
 ! D76   D(25,26,28,33)       -179.841          estimate D2E/DX2                !
 ! D77   D(29,26,28,32)        179.865          estimate D2E/DX2                !
 ! D78   D(29,26,28,33)         -0.1737         estimate D2E/DX2                !
 ! D79   D(25,27,30,32)         -0.054          estimate D2E/DX2                !
 ! D80   D(25,27,30,34)        179.9958         estimate D2E/DX2                !
 ! D81   D(31,27,30,32)        179.9695         estimate D2E/DX2                !
 ! D82   D(31,27,30,34)          0.0193         estimate D2E/DX2                !
 ! D83   D(26,28,32,30)         -0.014          estimate D2E/DX2                !
 ! D84   D(26,28,32,35)        179.9413         estimate D2E/DX2                !
 ! D85   D(33,28,32,30)       -179.9752         estimate D2E/DX2                !
 ! D86   D(33,28,32,35)         -0.02           estimate D2E/DX2                !
 ! D87   D(27,30,32,28)         -0.0577         estimate D2E/DX2                !
 ! D88   D(27,30,32,35)        179.987          estimate D2E/DX2                !
 ! D89   D(34,30,32,28)        179.8923         estimate D2E/DX2                !
 ! D90   D(34,30,32,35)         -0.0629         estimate D2E/DX2                !
 --------------------------------------------------------------------------------
 Trust Radius=3.00D-01 FncErr=1.00D-07 GrdErr=1.00D-07
 Number of steps in this run= 197 maximum allowed number of steps= 210.
 GradGradGradGradGradGradGradGradGradGradGradGradGradGradGradGradGradGrad

                          Input orientation:                          
 ---------------------------------------------------------------------
 Center     Atomic      Atomic             Coordinates (Angstroms)
 Number     Number       Type             X           Y           Z
 ---------------------------------------------------------------------
      1          6           0       -0.019299   -0.000866   -0.775705
      2          1           0       -0.011108    0.033425   -1.898202
      3          6           0        0.176395    1.407032   -0.266381
      4          6           0        0.179744    2.470174   -1.171674
      5          6           0        0.358441    1.668575    1.093116
      6          6           0        0.367027    3.772773   -0.722109
      7          1           0        0.033508    2.280738   -2.241556
      8          6           0        0.548143    2.970594    1.539522
      9          1           0        0.331490    0.831032    1.806831
     10          6           0        0.554100    4.025044    0.632306
     11          1           0        0.367192    4.600948   -1.438208
     12          1           0        0.691772    3.165067    2.607285
     13          1           0        0.703856    5.050778    0.984044
     14          6           0       -1.363148   -0.536144   -0.348764
     15          6           0       -1.703692   -0.677118    0.998624
     16          6           0       -2.295103   -0.892355   -1.326175
     17          6           0       -2.952425   -1.166060    1.362027
     18          1           0       -0.973428   -0.381805    1.768662
     19          6           0       -3.544353   -1.381469   -0.960156
     20          1           0       -2.043676   -0.786772   -2.388201
     21          6           0       -3.875065   -1.520002    0.383110
     22          1           0       -3.209294   -1.270517    2.421154
     23          1           0       -4.268682   -1.657297   -1.733477
     24          1           0       -4.858935   -1.904888    0.669624
     25          6           0        1.145576   -0.886986   -0.409011
     26          6           0        2.441355   -0.429848   -0.672949
     27          6           0        0.975303   -2.162338    0.128210
     28          6           0        3.541371   -1.231181   -0.398258
     29          1           0        2.583592    0.572216   -1.095089
     30          6           0        2.078897   -2.964247    0.401317
     31          1           0       -0.034520   -2.537392    0.337897
     32          6           0        3.362700   -2.501857    0.140025
     33          1           0        4.550595   -0.861581   -0.606651
     34          1           0        1.931698   -3.963783    0.823165
     35          1           0        4.229972   -3.133888    0.355645
 ---------------------------------------------------------------------
                    Distance matrix (angstroms):
                    1          2          3          4          5
     1  C    0.000000
     2  H    1.123051   0.000000
     3  C    1.509929   2.141214   0.000000
     4  C    2.510469   2.549905   1.396366   0.000000
     5  C    2.534209   3.429033   1.396345   2.409101   0.000000
     6  C    3.793742   3.938135   2.416766   1.390664   2.778987
     7  H    2.712421   2.273829   2.164508   1.096321   3.405931
     8  C    3.809442   4.556059   2.417480   2.781496   1.389431
     9  H    2.735800   3.805368   2.157322   3.403132   1.100724
    10  C    4.303398   4.759828   2.793615   2.410831   2.409061
    11  H    4.665295   4.606188   3.407444   2.155544   3.873821
    12  H    4.687577   5.531785   3.407970   3.876284   2.154833
    13  H    5.398034   5.830296   3.888272   3.403135   3.401544
    14  C    1.508221   2.133818   2.480507   3.477880   3.147010
    15  C    2.538254   3.429477   3.078741   4.261804   3.124676
    16  C    2.505404   2.530003   3.538170   4.177959   4.410514
    17  C    3.811928   4.551835   4.366008   5.426999   4.366841
    18  H    2.743953   3.813708   2.943371   4.255487   2.536592
    19  C    3.790263   3.919907   4.701173   5.361790   5.361950
    20  H    2.704791   2.245920   3.774071   4.126892   4.890651
    21  C    4.303203   4.748440   5.040208   5.897485   5.347308
    22  H    4.691267   5.530415   5.084782   6.195705   4.809437
    23  H    4.660294   4.583951   5.594747   6.094270   6.360922
    24  H    5.397809   5.818265   6.099137   6.922415   6.337981
    25  C    1.508843   2.098276   2.494429   3.575614   3.067061
    26  C    2.499881   2.780368   2.944397   3.711300   3.443966
    27  C    2.545242   3.146542   3.678908   4.876760   3.998433
    28  C    3.786094   4.058222   4.277923   5.059520   4.556735
    29  H    2.684301   2.769071   2.679230   3.063756   3.307801
    30  C    3.816993   4.317632   4.813878   5.967748   4.990150
    31  H    2.770253   3.407313   3.996013   5.234542   4.291263
    32  C    4.304815   4.686641   5.059360   6.047550   5.227472
    33  H    4.653315   4.824756   4.939233   5.524870   5.183151
    34  H    4.697604   5.211334   5.754464   6.960211   5.854184
    35  H    5.399268   5.753126   6.118690   7.081142   6.212590
                    6          7          8          9         10
     6  C    0.000000
     7  H    2.155487   0.000000
     8  C    2.406506   3.877797   0.000000
     9  H    3.879516   4.310438   2.167053   0.000000
    10  C    1.390352   3.401868   1.391022   3.410393   0.000000
    11  H    1.094838   2.477920   3.399658   4.974316   2.157227
    12  H    3.399946   4.972586   1.094791   2.493642   2.158485
    13  H    2.158172   4.304298   2.158695   4.315308   1.094658
    14  C    4.658290   3.669895   4.417677   3.063912   5.044083
    15  C    5.200993   4.718637   4.320780   2.658887   5.228972
    16  C    5.405114   4.040899   5.587365   4.436753   6.011191
    17  C    6.305114   5.812230   5.421936   3.869150   6.306803
    18  H    5.026061   4.917815   3.688667   1.781921   4.800518
    19  C    6.474703   5.277768   6.475907   5.251051   6.968762
    20  H    5.420038   3.707535   6.021822   5.084978   6.247038
    21  C    6.872432   6.050738   6.408394   5.024883   7.101207
    22  H    6.935774   6.698361   5.734338   4.163058   6.738404
    23  H    7.210987   5.854494   7.438528   6.315627   7.819537
    24  H    7.841138   7.066146   7.332363   5.976538   8.029100
    25  C    4.734715   3.824839   4.362870   2.919638   5.055910
    26  C    4.686926   3.950384   4.476861   3.491513   5.011136
    27  C    6.026491   5.122860   5.340530   3.491781   6.222156
    28  C    5.934720   5.294943   5.510837   4.406641   6.133005
    29  H    3.910990   3.276640   4.103224   3.682403   4.361738
    30  C    7.041309   6.219185   6.233864   4.408293   7.157413
    31  H    6.411165   5.465581   5.667567   3.692968   6.595356
    32  C    7.006305   6.295130   6.310947   4.803606   7.122571
    33  H    6.244422   5.740310   5.942327   5.146910   6.433203
    34  H    8.043032   7.210387   7.107248   5.149614   8.108980
    35  H    7.986606   7.326251   7.226489   5.746713   8.052260
                   11         12         13         14         15
    11  H    0.000000
    12  H    4.305011   0.000000
    13  H    2.486563   2.488164   0.000000
    14  C    5.529075   5.163321   6.104308   0.000000
    15  C    6.171279   4.805042   6.213315   1.396888   0.000000
    16  C    6.105468   6.391886   7.046396   1.396696   2.408482
    17  C    7.219387   5.795645   7.222211   2.418553   1.389410
    18  H    6.075286   4.007055   5.739500   2.158516   1.101568
    19  C    7.163660   7.165360   7.949906   2.417857   2.778662
    20  H    5.978486   6.932143   7.279970   2.164541   3.405613
    21  C    7.666809   6.910342   8.031363   2.795235   2.409185
    22  H    7.884163   5.909939   7.572107   3.408812   2.154658
    23  H    7.793852   8.167222   8.781191   3.408305   3.873539
    24  H    8.607047   7.763332   8.912059   3.889871   3.401650
    25  C    5.637601   5.071797   6.114962   2.533854   3.184935
    26  C    5.495151   5.171498   5.983459   3.819770   4.476238
    27  C    6.968895   5.882810   7.268781   2.887969   3.184417
    28  C    6.720910   6.039910   7.030310   4.953769   5.456092
    29  H    4.610948   4.899943   5.283343   4.166800   4.932065
    30  C    7.971572   6.660248   8.152970   4.278549   4.460461
    31  H    7.366941   6.180264   7.651341   2.498349   2.585210
    32  C    7.868527   6.733147   8.051342   5.141652   5.452998
    33  H    6.930481   6.436909   7.230746   5.928303   6.459647
    34  H    8.995338   7.452584   9.099218   4.896748   4.903979
    35  H    8.829874   7.567403   8.934044   6.207050   6.454263
                   16         17         18         19         20
    16  C    0.000000
    17  C    2.780902   0.000000
    18  H    3.403748   2.167218   0.000000
    19  C    1.390622   2.406100   3.880133   0.000000
    20  H    1.096478   3.877357   4.311489   2.155228   0.000000
    21  C    2.410783   1.390978   3.410974   1.390297   3.401731
    22  H    3.875722   1.094825   2.492921   3.399681   4.972179
    23  H    2.155469   3.399410   4.974993   1.094878   2.477323
    24  H    3.403185   2.158720   4.315650   2.158304   4.304202
    25  C    3.560827   4.473038   3.080202   4.748022   3.754806
    26  C    4.803608   5.811712   4.198156   6.067683   4.815080
    27  C    3.797848   4.235791   3.107882   4.713978   4.163982
    28  C    5.919481   6.728464   5.079408   7.109557   5.945597
    29  H    5.099023   6.301310   4.665149   6.433258   4.993055
    30  C    5.138953   5.428687   4.225556   5.998311   5.433085
    31  H    3.253539   3.382834   2.752306   3.916635   3.812216
    32  C    6.062258   6.569509   5.094024   7.083294   6.209858
    33  H    6.883476   7.762970   6.032174   8.119325   6.831100
    34  H    5.649706   5.654404   4.707896   6.311554   6.017464
    35  H    7.101380   7.514784   6.053590   8.077279   7.238530
                   21         22         23         24         25
    21  C    0.000000
    22  H    2.158498   0.000000
    23  H    2.157249   4.304980   0.000000
    24  H    1.094636   2.488292   2.486884   0.000000
    25  C    5.122012   5.207862   5.626880   6.184960   0.000000
    26  C    6.496219   6.496925   6.903329   7.567858   1.399172
    27  C    4.899351   4.854255   5.587515   5.864959   1.394318
    28  C    7.463074   7.315881   7.934816   8.494668   2.420417
    29  H    6.948143   7.022618   7.234081   8.039992   2.160523
    30  C    6.126650   5.908759   6.823285   7.023371   2.417174
    31  H    3.973275   4.003014   4.795131   4.876995   2.162022
    32  C    7.308103   7.064762   7.903245   8.260274   2.797300
    33  H    8.509106   8.339707   8.926508   9.552833   3.410844
    34  H    6.315395   6.019722   7.092321   7.097558   3.406307
    35  H    8.264201   7.942365   8.875352   9.176996   3.891885
                   26         27         28         29         30
    26  C    0.000000
    27  C    2.406800   0.000000
    28  C    1.388389   2.780094   0.000000
    29  H    1.096615   3.400123   2.157580   0.000000
    30  C    2.776437   1.391246   2.404510   3.873050   0.000000
    31  H    3.404924   1.097441   3.877513   4.310176   2.157025
    32  C    2.408946   2.411447   1.391506   3.403297   1.389327
    33  H    2.153992   3.874881   1.094790   2.482629   3.398013
    34  H    3.871279   2.154729   3.398534   4.967891   1.094849
    35  H    3.401322   3.404190   2.159360   4.307018   2.158238
                   31         32         33         34         35
    31  H    0.000000
    32  C    3.403163   0.000000
    33  H    4.972302   2.158500   0.000000
    34  H    2.477113   2.156774   4.304259   0.000000
    35  H    4.306044   1.094586   2.488412   2.487843   0.000000
 Stoichiometry    C19H16
 Framework group  C1[X(C19H16)]
 Deg. of freedom    99
 Full point group                 C1      NOp   1
 Largest Abelian subgroup         C1      NOp   1
 Largest concise Abelian subgroup C1      NOp   1
                         Standard orientation:                         
 ---------------------------------------------------------------------
 Center     Atomic      Atomic             Coordinates (Angstroms)
 Number     Number       Type             X           Y           Z
 ---------------------------------------------------------------------
      1          6           0        0.011374    0.013093   -0.761386
      2          1           0       -0.017862    0.016544   -1.884051
      3          6           0       -0.747444   -1.200525   -0.280539
      4          6           0       -1.197728   -2.140937   -1.209358
      5          6           0       -1.012449   -1.400777    1.075724
      6          6           0       -1.905603   -3.260601   -0.786022
      7          1           0       -0.993274   -1.999484   -2.277117
      8          6           0       -1.722305   -2.518823    1.495959
      9          1           0       -0.635591   -0.670016    1.807544
     10          6           0       -2.171368   -3.450194    0.565459
     11          1           0       -2.254218   -3.993881   -1.520487
     12          1           0       -1.926490   -2.665879    2.561440
     13          1           0       -2.730874   -4.330867    0.896585
     14          6           0        1.459021   -0.069109   -0.346306
     15          6           0        1.836420   -0.119585    0.997688
     16          6           0        2.448163   -0.104314   -1.331759
     17          6           0        3.177874   -0.202727    1.349892
     18          1           0        1.054655   -0.106843    1.773660
     19          6           0        3.790177   -0.187586   -0.976945
     20          1           0        2.168451   -0.066540   -2.391286
     21          6           0        4.157590   -0.236092    0.363048
     22          1           0        3.462052   -0.243701    2.406399
     23          1           0        4.558436   -0.215499   -1.756533
     24          1           0        5.214372   -0.301921    0.640730
     25          6           0       -0.678297    1.291855   -0.354289
     26          6           0       -2.048689    1.420662   -0.605521
     27          6           0        0.009436    2.366322    0.208442
     28          6           0       -2.715150    2.597974   -0.293446
     29          1           0       -2.596741    0.579942   -1.047555
     30          6           0       -0.660052    3.545685    0.519010
     31          1           0        1.085233    2.282927    0.408649
     32          6           0       -2.021709    3.664676    0.270092
     33          1           0       -3.788130    2.686045   -0.492247
     34          1           0       -0.108537    4.382056    0.960608
     35          1           0       -2.547064    4.593140    0.515193
 ---------------------------------------------------------------------
 Rotational constants (GHZ):      0.4041728      0.3816602      0.2327082
 Standard basis: 6-311G (5D, 7F)
 There are   295 symmetry adapted basis functions of A   symmetry.
 Integral buffers will be    262144 words long.
 Raffenetti 1 integral format.
 Two-electron integral symmetry is turned on.
   295 basis functions,   574 primitive gaussians,   295 cartesian basis functions
    65 alpha electrons       65 beta electrons
       nuclear repulsion energy      1290.6877156110 Hartrees.
 NAtoms=   35 NActive=   35 NUniq=   35 SFac= 7.50D-01 NAtFMM=   80 NAOKFM=F Big=F
 One-electron integrals computed using PRISM.
 PrsmSu:  requested number of processors reduced to:  10 ShMem   1 Linda.
 NBasis=   295 RedAO= T  NBF=   295
 NBsUse=   295 1.00D-06 NBFU=   295
 Harris functional with IExCor=  205 diagonalized for initial guess.
 ExpMin= 1.03D-01 ExpMax= 4.56D+03 ExpMxC= 6.82D+02 IAcc=1 IRadAn=         1 AccDes= 0.00D+00
 HarFok:  IExCor=  205 AccDes= 0.00D+00 IRadAn=         1 IDoV= 1
 ScaDFX=  1.000000  1.000000  1.000000  1.000000
 FoFCou: FMM=F IPFlag=           0 FMFlag=      100000 FMFlg1=           0
         NFxFlg=           0 DoJE=T BraDBF=F KetDBF=T FulRan=T
         Omega=  0.000000  0.000000  1.000000  0.000000  0.000000 ICntrl=     500 IOpCl=  0
         NMat0=    1 NMatS0=    1 NMatT0=    0 NMatD0=    1 NMtDS0=    0 NMtDT0=    0
         I1Cent=           4 NGrid=           0.
 Petite list used in FoFCou.
 Initial guess orbital symmetries:
       Occupied  (A) (A) (A) (A) (A) (A) (A) (A) (A) (A) (A) (A)
                 (A) (A) (A) (A) (A) (A) (A) (A) (A) (A) (A) (A)
                 (A) (A) (A) (A) (A) (A) (A) (A) (A) (A) (A) (A)
                 (A) (A) (A) (A) (A) (A) (A) (A) (A) (A) (A) (A)
                 (A) (A) (A) (A) (A) (A) (A) (A) (A) (A) (A) (A)
                 (A) (A) (A) (A) (A)
       Virtual   (A) (A) (A) (A) (A) (A) (A) (A) (A) (A) (A) (A)
                 (A) (A) (A) (A) (A) (A) (A) (A) (A) (A) (A) (A)
                 (A) (A) (A) (A) (A) (A) (A) (A) (A) (A) (A) (A)
                 (A) (A) (A) (A) (A) (A) (A) (A) (A) (A) (A) (A)
                 (A) (A) (A) (A) (A) (A) (A) (A) (A) (A) (A) (A)
                 (A) (A) (A) (A) (A) (A) (A) (A) (A) (A) (A) (A)
                 (A) (A) (A) (A) (A) (A) (A) (A) (A) (A) (A) (A)
                 (A) (A) (A) (A) (A) (A) (A) (A) (A) (A) (A) (A)
                 (A) (A) (A) (A) (A) (A) (A) (A) (A) (A) (A) (A)
                 (A) (A) (A) (A) (A) (A) (A) (A) (A) (A) (A) (A)
                 (A) (A) (A) (A) (A) (A) (A) (A) (A) (A) (A) (A)
                 (A) (A) (A) (A) (A) (A) (A) (A) (A) (A) (A) (A)
                 (A) (A) (A) (A) (A) (A) (A) (A) (A) (A) (A) (A)
                 (A) (A) (A) (A) (A) (A) (A) (A) (A) (A) (A) (A)
                 (A) (A) (A) (A) (A) (A) (A) (A) (A) (A) (A) (A)
                 (A) (A) (A) (A) (A) (A) (A) (A) (A) (A) (A) (A)
                 (A) (A) (A) (A) (A) (A) (A) (A) (A) (A) (A) (A)
                 (A) (A) (A) (A) (A) (A) (A) (A) (A) (A) (A) (A)
                 (A) (A) (A) (A) (A) (A) (A) (A) (A) (A) (A) (A)
                 (A) (A)
 The electronic state of the initial guess is 1-A.
 Requested convergence on RMS density matrix=1.00D-08 within 128 cycles.
 Requested convergence on MAX density matrix=1.00D-06.
 Requested convergence on             energy=1.00D-06.
 No special actions if energy rises.
 Integral accuracy reduced to 1.0D-05 until final iterations.
 Initial convergence to 1.0D-05 achieved.  Increase integral accuracy.
 SCF Done:  E(RHF) =  -728.672405597     A.U. after   14 cycles
             Convg  =    0.8680D-08             -V/T =  2.0001

 **********************************************************************

            Population analysis using the SCF density.

 **********************************************************************

 Orbital symmetries:
       Occupied  (A) (A) (A) (A) (A) (A) (A) (A) (A) (A) (A) (A)
                 (A) (A) (A) (A) (A) (A) (A) (A) (A) (A) (A) (A)
                 (A) (A) (A) (A) (A) (A) (A) (A) (A) (A) (A) (A)
                 (A) (A) (A) (A) (A) (A) (A) (A) (A) (A) (A) (A)
                 (A) (A) (A) (A) (A) (A) (A) (A) (A) (A) (A) (A)
                 (A) (A) (A) (A) (A)
       Virtual   (A) (A) (A) (A) (A) (A) (A) (A) (A) (A) (A) (A)
                 (A) (A) (A) (A) (A) (A) (A) (A) (A) (A) (A) (A)
                 (A) (A) (A) (A) (A) (A) (A) (A) (A) (A) (A) (A)
                 (A) (A) (A) (A) (A) (A) (A) (A) (A) (A) (A) (A)
                 (A) (A) (A) (A) (A) (A) (A) (A) (A) (A) (A) (A)
                 (A) (A) (A) (A) (A) (A) (A) (A) (A) (A) (A) (A)
                 (A) (A) (A) (A) (A) (A) (A) (A) (A) (A) (A) (A)
                 (A) (A) (A) (A) (A) (A) (A) (A) (A) (A) (A) (A)
                 (A) (A) (A) (A) (A) (A) (A) (A) (A) (A) (A) (A)
                 (A) (A) (A) (A) (A) (A) (A) (A) (A) (A) (A) (A)
                 (A) (A) (A) (A) (A) (A) (A) (A) (A) (A) (A) (A)
                 (A) (A) (A) (A) (A) (A) (A) (A) (A) (A) (A) (A)
                 (A) (A) (A) (A) (A) (A) (A) (A) (A) (A) (A) (A)
                 (A) (A) (A) (A) (A) (A) (A) (A) (A) (A) (A) (A)
                 (A) (A) (A) (A) (A) (A) (A) (A) (A) (A) (A) (A)
                 (A) (A) (A) (A) (A) (A) (A) (A) (A) (A) (A) (A)
                 (A) (A) (A) (A) (A) (A) (A) (A) (A) (A) (A) (A)
                 (A) (A) (A) (A) (A) (A) (A) (A) (A) (A) (A) (A)
                 (A) (A) (A) (A) (A) (A) (A) (A) (A) (A) (A) (A)
                 (A) (A)
 The electronic state is 1-A.
 Alpha  occ. eigenvalues --  -11.25761 -11.25232 -11.25186 -11.24919 -11.24521
 Alpha  occ. eigenvalues --  -11.24434 -11.24420 -11.24372 -11.24221 -11.24167
 Alpha  occ. eigenvalues --  -11.24141 -11.24121 -11.24076 -11.24033 -11.24031
 Alpha  occ. eigenvalues --  -11.23970 -11.23731 -11.23633 -11.23500  -1.18616
 Alpha  occ. eigenvalues --   -1.15872  -1.15575  -1.09028  -1.02377  -1.02239
 Alpha  occ. eigenvalues --   -1.01876  -1.01487  -1.01092  -0.92920  -0.84286
 Alpha  occ. eigenvalues --   -0.83355  -0.82334  -0.81913  -0.81138  -0.77587
 Alpha  occ. eigenvalues --   -0.70869  -0.70367  -0.68985  -0.65687  -0.63898
 Alpha  occ. eigenvalues --   -0.63611  -0.62512  -0.61706  -0.61584  -0.59720
 Alpha  occ. eigenvalues --   -0.58849  -0.58490  -0.58317  -0.56782  -0.55062
 Alpha  occ. eigenvalues --   -0.51724  -0.50920  -0.50228  -0.49859  -0.49379
 Alpha  occ. eigenvalues --   -0.48430  -0.47948  -0.47505  -0.46319  -0.35018
 Alpha  occ. eigenvalues --   -0.34320  -0.33954  -0.33331  -0.32556  -0.31450
 Alpha virt. eigenvalues --    0.11533   0.12291   0.12755   0.13523   0.14984
 Alpha virt. eigenvalues --    0.15112   0.15634   0.16238   0.16482   0.16920
 Alpha virt. eigenvalues --    0.18905   0.19187   0.19231   0.21239   0.21296
 Alpha virt. eigenvalues --    0.21588   0.23567   0.24001   0.24955   0.25407
 Alpha virt. eigenvalues --    0.26840   0.31452   0.33173   0.34245   0.35775
 Alpha virt. eigenvalues --    0.37564   0.39808   0.40527   0.41506   0.43108
 Alpha virt. eigenvalues --    0.44093   0.44429   0.44924   0.45449   0.45618
 Alpha virt. eigenvalues --    0.45861   0.46750   0.47226   0.47978   0.50593
 Alpha virt. eigenvalues --    0.51064   0.51430   0.52168   0.54953   0.56065
 Alpha virt. eigenvalues --    0.57330   0.57837   0.58501   0.58907   0.59353
 Alpha virt. eigenvalues --    0.60205   0.60451   0.60625   0.61146   0.61465
 Alpha virt. eigenvalues --    0.62055   0.62220   0.62959   0.63433   0.63691
 Alpha virt. eigenvalues --    0.64265   0.64559   0.65218   0.65929   0.66403
 Alpha virt. eigenvalues --    0.67218   0.67817   0.68582   0.69858   0.72360
 Alpha virt. eigenvalues --    0.73122   0.73914   0.74417   0.75297   0.75745
 Alpha virt. eigenvalues --    0.76763   0.78864   0.79365   0.79914   0.81292
 Alpha virt. eigenvalues --    0.81509   0.82207   0.82497   0.82915   0.83288
 Alpha virt. eigenvalues --    0.83830   0.84363   0.84820   0.84935   0.85472
 Alpha virt. eigenvalues --    0.85951   0.86224   0.86471   0.87733   0.88152
 Alpha virt. eigenvalues --    0.90258   0.90835   0.92149   0.93463   0.95020
 Alpha virt. eigenvalues --    0.95943   0.96360   0.97041   0.98204   0.99709
 Alpha virt. eigenvalues --    1.00009   1.02333   1.03022   1.04776   1.06214
 Alpha virt. eigenvalues --    1.07121   1.08163   1.09310   1.10169   1.10830
 Alpha virt. eigenvalues --    1.11477   1.11730   1.12433   1.12748   1.13815
 Alpha virt. eigenvalues --    1.14991   1.16523   1.19689   1.20571   1.21098
 Alpha virt. eigenvalues --    1.23812   1.25752   1.27332   1.28133   1.29066
 Alpha virt. eigenvalues --    1.29443   1.32012   1.32887   1.46792   1.47722
 Alpha virt. eigenvalues --    1.52034   1.54173   1.57010   2.53536   2.55702
 Alpha virt. eigenvalues --    2.56074   2.57757   2.62078   2.62323   2.63900
 Alpha virt. eigenvalues --    2.66406   2.67118   2.68477   2.72035   2.74296
 Alpha virt. eigenvalues --    2.78329   2.83424   2.86637   2.91689   2.94356
 Alpha virt. eigenvalues --    2.94608   2.94748   2.96022   2.98094   2.98569
 Alpha virt. eigenvalues --    2.99976   3.02248   3.03914   3.04433   3.06479
 Alpha virt. eigenvalues --    3.08496   3.09241   3.09784   3.10077   3.13197
 Alpha virt. eigenvalues --    3.15148   3.16183   3.17731   3.18415   3.19397
 Alpha virt. eigenvalues --    3.21624   3.24096   3.25075   3.27672   3.28775
 Alpha virt. eigenvalues --    3.31393   3.33876   3.34323   3.35698   3.40924
 Alpha virt. eigenvalues --    3.41344   3.44167   3.45075   3.49925   3.52512
 Alpha virt. eigenvalues --    3.53508   3.55952   3.57574   3.58295   3.59585
 Alpha virt. eigenvalues --    3.62365   3.64092   3.65062   3.66251   3.66735
 Alpha virt. eigenvalues --    3.67678   3.69221   3.71266   3.72350   3.74233
 Alpha virt. eigenvalues --    3.76293   3.77499   3.78522   3.85565   3.87999
 Alpha virt. eigenvalues --    3.91109  24.26050  24.30030  24.31760  24.50526
 Alpha virt. eigenvalues --   24.50781  24.51035  24.53066  24.54606  24.56495
 Alpha virt. eigenvalues --   24.76217  24.77070  24.79107  24.80210  24.80716
 Alpha virt. eigenvalues --   24.82791  24.87403  25.04657  25.05795  25.07122
          Condensed to atoms (all electrons):
              1          2          3          4          5          6
     1  C    6.105617   0.472896   0.149579  -0.024683  -0.055735   0.006847
     2  H    0.472896   0.502833  -0.070428   0.001623   0.005491   0.001557
     3  C    0.149579  -0.070428   5.390853   0.492443   0.447410  -0.073694
     4  C   -0.024683   0.001623   0.492443   5.091780  -0.072164   0.454304
     5  C   -0.055735   0.005491   0.447410  -0.072164   5.069313  -0.026496
     6  C    0.006847   0.001557  -0.073694   0.454304  -0.026496   5.059343
     7  H   -0.000087   0.002361  -0.050702   0.400452   0.004332  -0.034836
     8  C    0.003250  -0.000263  -0.058269  -0.030629   0.478872  -0.078630
     9  H    0.000173   0.000108  -0.044575   0.004087   0.388817   0.000020
    10  C    0.001271  -0.000001  -0.018773  -0.086385  -0.091259   0.497740
    11  H   -0.000340  -0.000039   0.006926  -0.039673  -0.000685   0.396947
    12  H   -0.000349   0.000011   0.006021  -0.000477  -0.038914   0.005972
    13  H   -0.000012  -0.000001  -0.001548   0.007489   0.007891  -0.042558
    14  C    0.117999  -0.075534  -0.140873  -0.002064  -0.003448  -0.000516
    15  C   -0.071685   0.004438  -0.003210   0.000526  -0.011884   0.000129
    16  C   -0.024403   0.006452  -0.004450   0.000623   0.000740  -0.000017
    17  C    0.002580  -0.000224   0.001978   0.000043  -0.000098   0.000001
    18  H    0.000769  -0.000028  -0.003714  -0.000214   0.001990  -0.000060
    19  C    0.008233   0.001459  -0.000592  -0.000012   0.000054   0.000002
    20  H   -0.002060   0.002825   0.000157   0.000203  -0.000025  -0.000002
    21  C    0.001703   0.000005  -0.000059  -0.000013  -0.000004   0.000000
    22  H   -0.000372   0.000012   0.000027   0.000002   0.000038   0.000000
    23  H   -0.000410  -0.000034   0.000020   0.000001  -0.000001   0.000000
    24  H   -0.000026  -0.000002  -0.000002   0.000000   0.000001   0.000000
    25  C    0.034647  -0.062432  -0.095193  -0.001446  -0.007314  -0.000426
    26  C   -0.085794  -0.004796  -0.006908   0.000608  -0.008789  -0.000101
    27  C   -0.030285   0.000882   0.001021  -0.000444   0.001650   0.000020
    28  C    0.008312   0.000637  -0.001608  -0.000048  -0.000274   0.000013
    29  H   -0.002915  -0.000140   0.004055   0.001640  -0.000594   0.000117
    30  C    0.012200  -0.000122  -0.000809   0.000007   0.000052   0.000000
    31  H   -0.011300  -0.000273   0.000421  -0.000017   0.000063   0.000000
    32  C    0.000394   0.000033   0.000128  -0.000003   0.000035   0.000000
    33  H   -0.000355   0.000004   0.000015  -0.000004   0.000014  -0.000001
    34  H   -0.000362   0.000014   0.000012   0.000000   0.000000   0.000000
    35  H   -0.000014  -0.000002   0.000002   0.000000   0.000000   0.000000
              7          8          9         10         11         12
     1  C   -0.000087   0.003250   0.000173   0.001271  -0.000340  -0.000349
     2  H    0.002361  -0.000263   0.000108  -0.000001  -0.000039   0.000011
     3  C   -0.050702  -0.058269  -0.044575  -0.018773   0.006926   0.006021
     4  C    0.400452  -0.030629   0.004087  -0.086385  -0.039673  -0.000477
     5  C    0.004332   0.478872   0.388817  -0.091259  -0.000685  -0.038914
     6  C   -0.034836  -0.078630   0.000020   0.497740   0.396947   0.005972
     7  H    0.509677  -0.000281  -0.000272   0.005240  -0.004204   0.000025
     8  C   -0.000281   5.040529  -0.028473   0.491156   0.006241   0.397228
     9  H   -0.000272  -0.028473   0.496977   0.004551   0.000015  -0.003325
    10  C    0.005240   0.491156   0.004551   5.034125  -0.040684  -0.039840
    11  H   -0.004204   0.006241   0.000015  -0.040684   0.518100  -0.000206
    12  H    0.000025   0.397228  -0.003325  -0.039840  -0.000206   0.514811
    13  H   -0.000184  -0.042919  -0.000172   0.399667  -0.004587  -0.004471
    14  C    0.000357   0.001900  -0.002833  -0.000088   0.000025   0.000027
    15  C   -0.000007  -0.000421  -0.000996  -0.000025   0.000000   0.000056
    16  C    0.000272   0.000029  -0.000198  -0.000009   0.000001   0.000000
    17  C   -0.000001  -0.000101   0.000874   0.000001   0.000000   0.000002
    18  H    0.000001   0.001144   0.001611   0.000005   0.000001  -0.000059
    19  C    0.000006  -0.000001   0.000001   0.000000   0.000000   0.000000
    20  H    0.000064   0.000001  -0.000002  -0.000001   0.000000   0.000000
    21  C   -0.000002   0.000002  -0.000014   0.000000   0.000000   0.000000
    22  H    0.000000  -0.000001  -0.000033   0.000000   0.000000   0.000001
    23  H    0.000000   0.000000   0.000000   0.000000   0.000000   0.000000
    24  H    0.000000   0.000000   0.000000   0.000000   0.000000   0.000000
    25  C    0.000146  -0.000562   0.001131   0.000044   0.000011   0.000024
    26  C    0.000291  -0.000343   0.000274   0.000110  -0.000002   0.000017
    27  C   -0.000034   0.000020  -0.000128  -0.000002   0.000000   0.000000
    28  C   -0.000008  -0.000009   0.000057   0.000002   0.000000   0.000001
    29  H    0.000202  -0.000250  -0.000062  -0.000088   0.000006   0.000005
    30  C    0.000000   0.000004  -0.000100   0.000000   0.000000   0.000000
    31  H    0.000001   0.000000   0.000022   0.000000   0.000000   0.000000
    32  C    0.000001   0.000002  -0.000041   0.000000   0.000000   0.000000
    33  H    0.000000   0.000002   0.000005   0.000000   0.000000   0.000000
    34  H    0.000000   0.000000   0.000000   0.000000   0.000000   0.000000
    35  H    0.000000   0.000000   0.000001   0.000000   0.000000   0.000000
             13         14         15         16         17         18
     1  C   -0.000012   0.117999  -0.071685  -0.024403   0.002580   0.000769
     2  H   -0.000001  -0.075534   0.004438   0.006452  -0.000224  -0.000028
     3  C   -0.001548  -0.140873  -0.003210  -0.004450   0.001978  -0.003714
     4  C    0.007489  -0.002064   0.000526   0.000623   0.000043  -0.000214
     5  C    0.007891  -0.003448  -0.011884   0.000740  -0.000098   0.001990
     6  C   -0.042558  -0.000516   0.000129  -0.000017   0.000001  -0.000060
     7  H   -0.000184   0.000357  -0.000007   0.000272  -0.000001   0.000001
     8  C   -0.042919   0.001900  -0.000421   0.000029  -0.000101   0.001144
     9  H   -0.000172  -0.002833  -0.000996  -0.000198   0.000874   0.001611
    10  C    0.399667  -0.000088  -0.000025  -0.000009   0.000001   0.000005
    11  H   -0.004587   0.000025   0.000000   0.000001   0.000000   0.000001
    12  H   -0.004471   0.000027   0.000056   0.000000   0.000002  -0.000059
    13  H    0.517397  -0.000003   0.000000   0.000000   0.000000   0.000000
    14  C   -0.000003   5.394056   0.451113   0.498803  -0.063983  -0.047630
    15  C    0.000000   0.451113   5.097373  -0.063295   0.480298   0.386253
    16  C    0.000000   0.498803  -0.063295   5.048376  -0.033986   0.004607
    17  C    0.000000  -0.063983   0.480298  -0.033986   5.046474  -0.027089
    18  H    0.000000  -0.047630   0.386253   0.004607  -0.027089   0.497294
    19  C    0.000000  -0.076799  -0.029549   0.468231  -0.077328  -0.000128
    20  H    0.000000  -0.045650   0.004758   0.394531  -0.000287  -0.000270
    21  C    0.000000  -0.016101  -0.093599  -0.088959   0.490225   0.004636
    22  H    0.000000   0.005973  -0.038532  -0.000377   0.396990  -0.003390
    23  H    0.000000   0.007021  -0.000632  -0.039460   0.006271   0.000016
    24  H    0.000000  -0.001679   0.007987   0.007567  -0.042968  -0.000170
    25  C    0.000001  -0.065624   0.006710  -0.000518   0.000769   0.001397
    26  C    0.000000   0.011447   0.000827  -0.000274   0.000016   0.000017
    27  C    0.000000  -0.012573  -0.018248   0.000867  -0.001445   0.001621
    28  C    0.000000  -0.000881  -0.000022   0.000009   0.000000  -0.000051
    29  H    0.000001   0.000818  -0.000041  -0.000006   0.000000   0.000022
    30  C    0.000000  -0.001578  -0.000947  -0.000114  -0.000041   0.000110
    31  H    0.000000   0.000965  -0.001037  -0.001084   0.000312   0.000030
    32  C    0.000000   0.000122  -0.000017  -0.000004   0.000000   0.000001
    33  H    0.000000   0.000012   0.000000   0.000000   0.000000  -0.000001
    34  H    0.000000   0.000058   0.000026   0.000004  -0.000001   0.000000
    35  H    0.000000   0.000001   0.000001   0.000000   0.000000   0.000000
             19         20         21         22         23         24
     1  C    0.008233  -0.002060   0.001703  -0.000372  -0.000410  -0.000026
     2  H    0.001459   0.002825   0.000005   0.000012  -0.000034  -0.000002
     3  C   -0.000592   0.000157  -0.000059   0.000027   0.000020  -0.000002
     4  C   -0.000012   0.000203  -0.000013   0.000002   0.000001   0.000000
     5  C    0.000054  -0.000025  -0.000004   0.000038  -0.000001   0.000001
     6  C    0.000002  -0.000002   0.000000   0.000000   0.000000   0.000000
     7  H    0.000006   0.000064  -0.000002   0.000000   0.000000   0.000000
     8  C   -0.000001   0.000001   0.000002  -0.000001   0.000000   0.000000
     9  H    0.000001  -0.000002  -0.000014  -0.000033   0.000000   0.000000
    10  C    0.000000  -0.000001   0.000000   0.000000   0.000000   0.000000
    11  H    0.000000   0.000000   0.000000   0.000000   0.000000   0.000000
    12  H    0.000000   0.000000   0.000000   0.000001   0.000000   0.000000
    13  H    0.000000   0.000000   0.000000   0.000000   0.000000   0.000000
    14  C   -0.076799  -0.045650  -0.016101   0.005973   0.007021  -0.001679
    15  C   -0.029549   0.004758  -0.093599  -0.038532  -0.000632   0.007987
    16  C    0.468231   0.394531  -0.088959  -0.000377  -0.039460   0.007567
    17  C   -0.077328  -0.000287   0.490225   0.396990   0.006271  -0.042968
    18  H   -0.000128  -0.000270   0.004636  -0.003390   0.000016  -0.000170
    19  C    5.047347  -0.033771   0.499752   0.005897   0.396364  -0.042551
    20  H   -0.033771   0.506529   0.005066   0.000025  -0.004074  -0.000178
    21  C    0.499752   0.005066   5.033676  -0.039795  -0.041038   0.399451
    22  H    0.005897   0.000025  -0.039795   0.514385  -0.000206  -0.004368
    23  H    0.396364  -0.004074  -0.041038  -0.000206   0.517977  -0.004556
    24  H   -0.042551  -0.000178   0.399451  -0.004368  -0.004556   0.516931
    25  C   -0.000766   0.000498  -0.000068   0.000019   0.000024   0.000002
    26  C    0.000005   0.000012   0.000000   0.000000   0.000000   0.000000
    27  C    0.000352   0.000136   0.000137   0.000004  -0.000008  -0.000003
    28  C    0.000000   0.000000   0.000000   0.000000   0.000000   0.000000
    29  H    0.000000  -0.000001   0.000000   0.000000   0.000000   0.000000
    30  C    0.000004   0.000004   0.000004  -0.000002   0.000000   0.000000
    31  H   -0.000125   0.000088   0.000101   0.000038   0.000011   0.000009
    32  C    0.000000   0.000000   0.000000   0.000000   0.000000   0.000000
    33  H    0.000000   0.000000   0.000000   0.000000   0.000000   0.000000
    34  H    0.000000   0.000000  -0.000001   0.000000   0.000000   0.000000
    35  H    0.000000   0.000000   0.000000   0.000000   0.000000   0.000000
             25         26         27         28         29         30
     1  C    0.034647  -0.085794  -0.030285   0.008312  -0.002915   0.012200
     2  H   -0.062432  -0.004796   0.000882   0.000637  -0.000140  -0.000122
     3  C   -0.095193  -0.006908   0.001021  -0.001608   0.004055  -0.000809
     4  C   -0.001446   0.000608  -0.000444  -0.000048   0.001640   0.000007
     5  C   -0.007314  -0.008789   0.001650  -0.000274  -0.000594   0.000052
     6  C   -0.000426  -0.000101   0.000020   0.000013   0.000117   0.000000
     7  H    0.000146   0.000291  -0.000034  -0.000008   0.000202   0.000000
     8  C   -0.000562  -0.000343   0.000020  -0.000009  -0.000250   0.000004
     9  H    0.001131   0.000274  -0.000128   0.000057  -0.000062  -0.000100
    10  C    0.000044   0.000110  -0.000002   0.000002  -0.000088   0.000000
    11  H    0.000011  -0.000002   0.000000   0.000000   0.000006   0.000000
    12  H    0.000024   0.000017   0.000000   0.000001   0.000005   0.000000
    13  H    0.000001   0.000000   0.000000   0.000000   0.000001   0.000000
    14  C   -0.065624   0.011447  -0.012573  -0.000881   0.000818  -0.001578
    15  C    0.006710   0.000827  -0.018248  -0.000022  -0.000041  -0.000947
    16  C   -0.000518  -0.000274   0.000867   0.000009  -0.000006  -0.000114
    17  C    0.000769   0.000016  -0.001445   0.000000   0.000000  -0.000041
    18  H    0.001397   0.000017   0.001621  -0.000051   0.000022   0.000110
    19  C   -0.000766   0.000005   0.000352   0.000000   0.000000   0.000004
    20  H    0.000498   0.000012   0.000136   0.000000  -0.000001   0.000004
    21  C   -0.000068   0.000000   0.000137   0.000000   0.000000   0.000004
    22  H    0.000019   0.000000   0.000004   0.000000   0.000000  -0.000002
    23  H    0.000024   0.000000  -0.000008   0.000000   0.000000   0.000000
    24  H    0.000002   0.000000  -0.000003   0.000000   0.000000   0.000000
    25  C    5.352557   0.471455   0.500765  -0.056814  -0.045194  -0.069040
    26  C    0.471455   5.124082  -0.083533   0.463573   0.397565  -0.033361
    27  C    0.500765  -0.083533   5.096153  -0.030135   0.004472   0.454333
    28  C   -0.056814   0.463573  -0.030135   5.061950  -0.035170  -0.073882
    29  H   -0.045194   0.397565   0.004472  -0.035170   0.490033  -0.000469
    30  C   -0.069040  -0.033361   0.454333  -0.073882  -0.000469   5.078597
    31  H   -0.034800   0.004960   0.393940  -0.000435  -0.000196  -0.036366
    32  C   -0.020622  -0.085107  -0.090021   0.480497   0.005232   0.495823
    33  H    0.006147  -0.038351  -0.000438   0.397107  -0.003877   0.005999
    34  H    0.006485  -0.000407  -0.036837   0.006013   0.000017   0.395614
    35  H   -0.001456   0.007449   0.007669  -0.043230  -0.000173  -0.042144
             31         32         33         34         35
     1  C   -0.011300   0.000394  -0.000355  -0.000362  -0.000014
     2  H   -0.000273   0.000033   0.000004   0.000014  -0.000002
     3  C    0.000421   0.000128   0.000015   0.000012   0.000002
     4  C   -0.000017  -0.000003  -0.000004   0.000000   0.000000
     5  C    0.000063   0.000035   0.000014   0.000000   0.000000
     6  C    0.000000   0.000000  -0.000001   0.000000   0.000000
     7  H    0.000001   0.000001   0.000000   0.000000   0.000000
     8  C    0.000000   0.000002   0.000002   0.000000   0.000000
     9  H    0.000022  -0.000041   0.000005   0.000000   0.000001
    10  C    0.000000   0.000000   0.000000   0.000000   0.000000
    11  H    0.000000   0.000000   0.000000   0.000000   0.000000
    12  H    0.000000   0.000000   0.000000   0.000000   0.000000
    13  H    0.000000   0.000000   0.000000   0.000000   0.000000
    14  C    0.000965   0.000122   0.000012   0.000058   0.000001
    15  C   -0.001037  -0.000017   0.000000   0.000026   0.000001
    16  C   -0.001084  -0.000004   0.000000   0.000004   0.000000
    17  C    0.000312   0.000000   0.000000  -0.000001   0.000000
    18  H    0.000030   0.000001  -0.000001   0.000000   0.000000
    19  C   -0.000125   0.000000   0.000000   0.000000   0.000000
    20  H    0.000088   0.000000   0.000000   0.000000   0.000000
    21  C    0.000101   0.000000   0.000000  -0.000001   0.000000
    22  H    0.000038   0.000000   0.000000   0.000000   0.000000
    23  H    0.000011   0.000000   0.000000   0.000000   0.000000
    24  H    0.000009   0.000000   0.000000   0.000000   0.000000
    25  C   -0.034800  -0.020622   0.006147   0.006485  -0.001456
    26  C    0.004960  -0.085107  -0.038351  -0.000407   0.007449
    27  C    0.393940  -0.090021  -0.000438  -0.036837   0.007669
    28  C   -0.000435   0.480497   0.397107   0.006013  -0.043230
    29  H   -0.000196   0.005232  -0.003877   0.000017  -0.000173
    30  C   -0.036366   0.495823   0.005999   0.395614  -0.042144
    31  H    0.477305   0.005033   0.000018  -0.003519  -0.000170
    32  C    0.005033   5.042701  -0.040841  -0.041251   0.399494
    33  H    0.000018  -0.040841   0.517577  -0.000213  -0.004409
    34  H   -0.003519  -0.041251  -0.000213   0.517819  -0.004467
    35  H   -0.000170   0.399494  -0.004409  -0.004467   0.519383
 Mulliken atomic charges:
              1
     1  C   -0.615286
     2  H    0.210676
     3  C    0.074337
     4  C   -0.197555
     5  C   -0.089079
     6  C   -0.165676
     7  H    0.167191
     8  C   -0.179231
     9  H    0.182501
    10  C   -0.156758
    11  H    0.162148
    12  H    0.163439
    13  H    0.164011
    14  C    0.067158
    15  C   -0.106351
    16  C   -0.173959
    17  C   -0.179282
    18  H    0.181280
    19  C   -0.166085
    20  H    0.171425
    21  C   -0.155103
    22  H    0.163666
    23  H    0.162712
    24  H    0.164556
    25  C    0.079443
    26  C   -0.134941
    27  C   -0.159909
    28  C   -0.175603
    29  H    0.184990
    30  C   -0.183777
    31  H    0.206004
    32  C   -0.151589
    33  H    0.161589
    34  H    0.160993
    35  H    0.162066
 Sum of Mulliken atomic charges =   0.00000
 Mulliken charges with hydrogens summed into heavy atoms:
              1
     1  C   -0.404609
     3  C    0.074337
     4  C   -0.030364
     5  C    0.093422
     6  C   -0.003528
     8  C   -0.015792
    10  C    0.007253
    14  C    0.067158
    15  C    0.074929
    16  C   -0.002534
    17  C   -0.015617
    19  C   -0.003373
    21  C    0.009453
    25  C    0.079443
    26  C    0.050049
    27  C    0.046095
    28  C   -0.014014
    30  C   -0.022784
    32  C    0.010477
 Sum of Mulliken charges with hydrogens summed into heavy atoms =   0.00000
 Electronic spatial extent (au):  <R**2>=           4931.4226
 Charge=              0.0000 electrons
 Dipole moment (field-independent basis, Debye):
    X=              0.0940    Y=             -0.1667    Z=             -0.0183  Tot=              0.1923
 Quadrupole moment (field-independent basis, Debye-Ang):
   XX=           -107.7100   YY=           -113.2508   ZZ=           -106.8055
   XY=              2.7703   XZ=              0.9350   YZ=              2.6430
 Traceless Quadrupole moment (field-independent basis, Debye-Ang):
   XX=              1.5454   YY=             -3.9954   ZZ=              2.4499
   XY=              2.7703   XZ=              0.9350   YZ=              2.6430
 Octapole moment (field-independent basis, Debye-Ang**2):
  XXX=             27.9043  YYY=              8.9706  ZZZ=              0.7538  XYY=            -36.9251
  XXY=              1.6972  XXZ=             -2.9734  XZZ=             10.0096  YZZ=            -18.4202
  YYZ=             11.9616  XYZ=              1.4379
 Hexadecapole moment (field-independent basis, Debye-Ang**3):
 XXXX=          -3054.1082 YYYY=          -2912.2156 ZZZZ=           -667.1696 XXXY=            -62.2350
 XXXZ=             15.3436 YYYX=             65.6913 YYYZ=             74.8857 ZZZX=             -6.6883
 ZZZY=             -2.5747 XXYY=          -1018.5585 XXZZ=           -628.2809 YYZZ=           -635.2273
 XXYZ=             -9.3180 YYXZ=            -10.5359 ZZXY=             33.2724
 N-N= 1.290687715611D+03 E-N=-4.277451741760D+03  KE= 7.286023986682D+02
 PrsmSu:  requested number of processors reduced to:  10 ShMem   1 Linda.
 Calling FoFJK, ICntrl=      2127 FMM=F ISym2X=0 I1Cent= 0 IOpClX= 0 NMat=1 NMatS=1 NMatT=0.
 ***** Axes restored to original set *****
 -------------------------------------------------------------------
 Center     Atomic                   Forces (Hartrees/Bohr)
 Number     Number              X              Y              Z
 -------------------------------------------------------------------
      1        6          -0.001176262    0.000951622   -0.023121399
      2        1          -0.003497596    0.002287058    0.024989416
      3        6           0.001628770    0.013101330   -0.005657905
      4        6          -0.001159502   -0.001259223   -0.005602161
      5        6           0.000529165   -0.007117036    0.008860110
      6        6           0.000234435    0.011804219   -0.006898532
      7        1           0.002363002    0.002363795    0.017228144
      8        6           0.000979071   -0.000483175    0.012394475
      9        1           0.007956196    0.022962680   -0.013645971
     10        6           0.001641645    0.013482486    0.002274564
     11        1           0.000111781   -0.012447428    0.011004662
     12        1          -0.002210308   -0.002881318   -0.016330814
     13        1          -0.002246707   -0.015750344   -0.005430754
     14        6          -0.011173467   -0.004379517   -0.006668949
     15        6           0.005717627    0.004082065    0.010223328
     16        6           0.002065133    0.000410098   -0.005627639
     17        6          -0.000575830   -0.000335646    0.012532572
     18        1          -0.021994233   -0.012460123   -0.015530227
     19        6          -0.010600254   -0.004008075   -0.007723629
     20        1          -0.003484679   -0.001605777    0.017411526
     21        6          -0.012699253   -0.004998439    0.001287032
     22        1           0.003849522    0.001564344   -0.016205085
     23        1           0.010915189    0.004190291    0.011918016
     24        1           0.015073581    0.005933927   -0.004430549
     25        6           0.010253455   -0.010394210    0.003125055
     26        6           0.003683116    0.007062661   -0.003357609
     27        6          -0.011173983   -0.004545539    0.001719385
     28        6           0.010755342    0.005919185   -0.003497129
     29        1          -0.001388260   -0.017133741    0.007345122
     30        6           0.001699462   -0.011768492    0.004899949
     31        1           0.020777561    0.005763659   -0.004568417
     32        6           0.009381945   -0.009490802    0.003588450
     33        1          -0.015332998   -0.005636679    0.003102526
     34        1           0.002303533    0.015197994   -0.006433755
     35        1          -0.013206198    0.009618148   -0.003173808
 -------------------------------------------------------------------
 Cartesian Forces:  Max     0.024989416 RMS     0.009554965

 GradGradGradGradGradGradGradGradGradGradGradGradGradGradGradGradGradGrad
 Berny optimization.
 Internal  Forces:  Max     0.028777228 RMS     0.007790783
 Search for a local minimum.
 Step number   1 out of a maximum of  197
 All quantities printed in internal units (Hartrees-Bohrs-Radians)
 Mixed Optimization -- RFO/linear search
 Second derivative matrix not updated -- first step.
     Eigenvalues ---    0.00635   0.00649   0.00657   0.01533   0.01538
     Eigenvalues ---    0.01539   0.02138   0.02142   0.02147   0.02170
     Eigenvalues ---    0.02173   0.02173   0.02181   0.02184   0.02184
     Eigenvalues ---    0.02201   0.02201   0.02203   0.02211   0.02212
     Eigenvalues ---    0.02212   0.02214   0.02215   0.02215   0.02215
     Eigenvalues ---    0.02218   0.02219   0.02220   0.02220   0.02227
     Eigenvalues ---    0.04559   0.06395   0.06631   0.15997   0.15998
     Eigenvalues ---    0.16000   0.16000   0.16000   0.16000   0.16000
     Eigenvalues ---    0.16000   0.16000   0.16000   0.16000   0.16000
     Eigenvalues ---    0.16000   0.16000   0.16000   0.18860   0.19340
     Eigenvalues ---    0.22000   0.22000   0.22000   0.22000   0.22000
     Eigenvalues ---    0.22000   0.23466   0.23477   0.23478   0.24969
     Eigenvalues ---    0.24999   0.25000   0.31256   0.31358   0.31467
     Eigenvalues ---    0.31530   0.33509   0.33602   0.33967   0.34059
     Eigenvalues ---    0.34075   0.34092   0.34255   0.34258   0.34259
     Eigenvalues ---    0.34261   0.34265   0.34265   0.34280   0.34282
     Eigenvalues ---    0.34288   0.42392   0.42460   0.42489   0.42556
     Eigenvalues ---    0.42573   0.42627   0.46328   0.46387   0.46440
     Eigenvalues ---    0.46731   0.46756   0.46819   0.47204   0.47212
     Eigenvalues ---    0.47219   0.47336   0.47342   0.474561000.00000
     Eigenvalues --- 1000.000001000.000001000.000001000.000001000.00000
     Eigenvalues --- 1000.000001000.000001000.000001000.000001000.00000
     Eigenvalues --- 1000.000001000.000001000.000001000.000001000.00000
     Eigenvalues --- 1000.000001000.000001000.000001000.000001000.00000
     Eigenvalues --- 1000.000001000.000001000.000001000.000001000.00000
     Eigenvalues --- 1000.000001000.000001000.000001000.000001000.00000
     Eigenvalues --- 1000.000001000.000001000.000001000.000001000.00000
     Eigenvalues --- 1000.000001000.000001000.000001000.000001000.00000
     Eigenvalues --- 1000.000001000.000001000.000001000.000001000.00000
     Eigenvalues --- 1000.000001000.000001000.000001000.000001000.00000
     Eigenvalues --- 1000.000001000.000001000.000001000.000001000.00000
     Eigenvalues --- 1000.000001000.000001000.000001000.000001000.00000
     Eigenvalues --- 1000.000001000.000001000.000001000.000001000.00000
     Eigenvalues --- 1000.000001000.000001000.000001000.000001000.00000
     Eigenvalues --- 1000.000001000.000001000.000001000.000001000.00000
     Eigenvalues --- 1000.000001000.000001000.000001000.000001000.00000
     Eigenvalues --- 1000.000001000.000001000.000001000.000001000.00000
     Eigenvalues --- 1000.000001000.00000
 RFO step:  Lambda=-4.19226505D-02 EMin= 6.34606873D-03
 Linear search not attempted -- first point.
 Maximum step size (   0.300) exceeded in Quadratic search.
    -- Step size scaled by   0.591
 Iteration  1 RMS(Cart)=  0.12557440 RMS(Int)=  0.00303283
 Iteration  2 RMS(Cart)=  0.00613357 RMS(Int)=  0.00028195
 Iteration  3 RMS(Cart)=  0.00001070 RMS(Int)=  0.00028189
 Iteration  4 RMS(Cart)=  0.00000000 RMS(Int)=  0.00028189
 Variable       Old X    -DE/DX   Delta X   Delta X   Delta X     New X
                                 (Linear)    (Quad)   (Total)
    R1        2.12226  -0.02493   0.00000  -0.04158  -0.04158   2.08068
    R2        2.85335   0.02283   0.00000   0.03797   0.03797   2.89132
    R3        2.85012   0.02373   0.00000   0.03927   0.03927   2.88940
    R4        2.85130   0.02342   0.00000   0.03883   0.03883   2.89013
    R5        2.63875  -0.00425   0.00000  -0.00492  -0.00491   2.63384
    R6        2.63871  -0.00007   0.00000   0.00002   0.00004   2.63875
    R7        2.62797  -0.00233   0.00000  -0.00273  -0.00274   2.62524
    R8        2.07175  -0.01754   0.00000  -0.02708  -0.02708   2.04467
    R9        2.62564  -0.00472   0.00000  -0.00535  -0.00535   2.62030
   R10        2.08007  -0.02652   0.00000  -0.04147  -0.04147   2.03860
   R11        2.62738  -0.00873   0.00000  -0.01013  -0.01015   2.61723
   R12        2.06894  -0.01661   0.00000  -0.02554  -0.02554   2.04340
   R13        2.62865  -0.00529   0.00000  -0.00615  -0.00616   2.62249
   R14        2.06885  -0.01673   0.00000  -0.02571  -0.02571   2.04314
   R15        2.06860  -0.01681   0.00000  -0.02583  -0.02583   2.04277
   R16        2.63974   0.00071   0.00000   0.00097   0.00099   2.64073
   R17        2.63937  -0.00424   0.00000  -0.00491  -0.00490   2.63448
   R18        2.62560  -0.00443   0.00000  -0.00499  -0.00499   2.62061
   R19        2.08166  -0.02878   0.00000  -0.04512  -0.04512   2.03654
   R20        2.62789  -0.00245   0.00000  -0.00290  -0.00290   2.62500
   R21        2.07204  -0.01782   0.00000  -0.02752  -0.02752   2.04452
   R22        2.62857  -0.00559   0.00000  -0.00649  -0.00651   2.62205
   R23        2.06892  -0.01673   0.00000  -0.02572  -0.02572   2.04320
   R24        2.62728  -0.00919   0.00000  -0.01070  -0.01072   2.61656
   R25        2.06902  -0.01669   0.00000  -0.02567  -0.02567   2.04335
   R26        2.06856  -0.01679   0.00000  -0.02580  -0.02580   2.04276
   R27        2.64405  -0.00208   0.00000  -0.00241  -0.00240   2.64165
   R28        2.63488  -0.00226   0.00000  -0.00250  -0.00249   2.63239
   R29        2.62367  -0.00478   0.00000  -0.00553  -0.00553   2.61815
   R30        2.07230  -0.01866   0.00000  -0.02884  -0.02884   2.04346
   R31        2.62907  -0.00123   0.00000  -0.00134  -0.00134   2.62773
   R32        2.07386  -0.02196   0.00000  -0.03402  -0.03402   2.03984
   R33        2.62956  -0.00485   0.00000  -0.00572  -0.00573   2.62384
   R34        2.06885  -0.01663   0.00000  -0.02556  -0.02556   2.04330
   R35        2.62545  -0.00750   0.00000  -0.00864  -0.00865   2.61680
   R36        2.06897  -0.01666   0.00000  -0.02562  -0.02562   2.04335
   R37        2.06847  -0.01664   0.00000  -0.02557  -0.02557   2.04290
    A1        1.88361  -0.00860   0.00000  -0.04807  -0.04726   1.83635
    A2        1.87577  -0.01003   0.00000  -0.05150  -0.05059   1.82519
    A3        1.82886   0.00374   0.00000  -0.00017   0.00008   1.82894
    A4        1.92935   0.01535   0.00000   0.05436   0.05320   1.98255
    A5        1.94503  -0.00332   0.00000   0.01190   0.00973   1.95476
    A6        1.99398   0.00097   0.00000   0.02191   0.02001   2.01399
    A7        2.08465  -0.00783   0.00000  -0.01583  -0.01589   2.06876
    A8        2.11760   0.01853   0.00000   0.03755   0.03749   2.15509
    A9        2.08093  -0.01070   0.00000  -0.02177  -0.02176   2.05917
   A10        2.09889   0.00737   0.00000   0.01623   0.01623   2.11512
   A11        2.09533  -0.00438   0.00000  -0.01015  -0.01017   2.08516
   A12        2.08897  -0.00299   0.00000  -0.00608  -0.00609   2.08288
   A13        2.10149   0.00418   0.00000   0.00939   0.00933   2.11082
   A14        2.07782   0.00374   0.00000   0.01250   0.01239   2.09022
   A15        2.10372  -0.00787   0.00000  -0.02148  -0.02159   2.08213
   A16        2.09785  -0.00031   0.00000  -0.00140  -0.00142   2.09643
   A17        2.09106   0.00036   0.00000   0.00130   0.00131   2.09237
   A18        2.09427  -0.00005   0.00000   0.00010   0.00011   2.09438
   A19        2.09600   0.00225   0.00000   0.00463   0.00463   2.10063
   A20        2.09177  -0.00103   0.00000  -0.00205  -0.00205   2.08972
   A21        2.09541  -0.00121   0.00000  -0.00258  -0.00259   2.09282
   A22        2.09119  -0.00278   0.00000  -0.00700  -0.00704   2.08415
   A23        2.09606   0.00137   0.00000   0.00344   0.00344   2.09951
   A24        2.09593   0.00141   0.00000   0.00358   0.00359   2.09952
   A25        2.12478   0.02296   0.00000   0.04654   0.04652   2.17130
   A26        2.07940  -0.01109   0.00000  -0.02242  -0.02245   2.05695
   A27        2.07899  -0.01187   0.00000  -0.02408  -0.02405   2.05494
   A28        2.10238   0.00451   0.00000   0.01019   0.01018   2.11256
   A29        2.07784   0.00441   0.00000   0.01449   0.01446   2.09230
   A30        2.10286  -0.00891   0.00000  -0.02450  -0.02454   2.07832
   A31        2.10010   0.00818   0.00000   0.01795   0.01797   2.11808
   A32        2.09469  -0.00473   0.00000  -0.01085  -0.01087   2.08382
   A33        2.08840  -0.00345   0.00000  -0.00710  -0.00711   2.08129
   A34        2.09626   0.00241   0.00000   0.00502   0.00499   2.10126
   A35        2.09147  -0.00112   0.00000  -0.00225  -0.00224   2.08923
   A36        2.09545  -0.00129   0.00000  -0.00276  -0.00275   2.09270
   A37        2.09791  -0.00023   0.00000  -0.00143  -0.00144   2.09646
   A38        2.09095   0.00030   0.00000   0.00126   0.00126   2.09221
   A39        2.09433  -0.00007   0.00000   0.00018   0.00018   2.09451
   A40        2.09073  -0.00300   0.00000  -0.00763  -0.00767   2.08306
   A41        2.09607   0.00154   0.00000   0.00393   0.00394   2.10001
   A42        2.09639   0.00146   0.00000   0.00371   0.00373   2.10011
   A43        2.06833   0.00053   0.00000   0.00098   0.00096   2.06930
   A44        2.13712   0.00740   0.00000   0.01490   0.01489   2.15201
   A45        2.07673  -0.00795   0.00000  -0.01612  -0.01611   2.06061
   A46        2.10349   0.00472   0.00000   0.01030   0.01030   2.11379
   A47        2.08436  -0.00129   0.00000  -0.00201  -0.00202   2.08235
   A48        2.09532  -0.00343   0.00000  -0.00829  -0.00829   2.08703
   A49        2.10132   0.00352   0.00000   0.00806   0.00807   2.10939
   A50        2.09276  -0.00011   0.00000   0.00080   0.00080   2.09355
   A51        2.08911  -0.00341   0.00000  -0.00886  -0.00887   2.08024
   A52        2.09654   0.00083   0.00000   0.00118   0.00117   2.09770
   A53        2.09193  -0.00042   0.00000  -0.00060  -0.00059   2.09133
   A54        2.09472  -0.00041   0.00000  -0.00058  -0.00058   2.09415
   A55        2.09930   0.00111   0.00000   0.00226   0.00225   2.10155
   A56        2.08887  -0.00049   0.00000  -0.00094  -0.00093   2.08794
   A57        2.09502  -0.00062   0.00000  -0.00133  -0.00132   2.09370
[...]
 0.00084747,0.00005304,0.00038175,0.00022632,-0.00022544,0.00014671,-0.
 00019481,-0.00002352,-0.00000333,-0.00008561,0.00001933,-0.00001295,0.
 00004400,0.00003798,0.00000587,0.00008421,0.00005899,0.00004409,0.0000
 7237,0.00002725,-0.00005009,0.00003570,0.00000541,0.00000988,0.0000169
 6,0.00000431,0.00002247,0.00000399,0.00000666,-0.00002170,0.00000523,0
 .00087574,-0.00033707,0.00039623,0.00014760,-0.00004340,0.00017195,-0.
 00022928,-0.00014462,-0.00011808,-0.00019616,-0.00015360,0.00005036,-0
 .00004684,0.00011282,0.00001337,0.00011243,0.00006412,-0.00013636,-0.0
 0003053,0.00000109,0.00002319,-0.00005460,0.00009592,0.00012528,0.0000
 0306,-0.00000150,-0.00001697,0.00001967,0.00000173,0.00003159,0.000032
 75,0.00000833,0.00000433,-0.03170837,0.01484141,0.01149645,0.01806260,
 -0.00758474,-0.00831505,-0.03749779,0.07259721,-0.13102456,0.02103168,
 0.02846076,-0.02654906,-0.00014329,-0.00096395,-0.00000877,-0.14544333
 ,-0.29644252,0.51615838,-0.00101539,-0.00093512,-0.00118860,-0.0000948
 7,-0.00002104,-0.00000406,0.00034862,-0.00009040,0.00030631,-0.0000152
 2,-0.00012401,-0.00011130,0.00026741,-0.00018982,0.00009023,-0.0000031
 7,0.00000876,0.00001680,-0.00001075,0.00001274,-0.00001060,-0.00002841
 ,0.00004243,-0.00007457,-0.00024937,-0.00002432,0.00000300,-0.00001042
 ,-0.00000165,-0.00000260,-0.00000733,-0.00000794,-0.00000500,-0.000008
 81,-0.00002039,-0.00000583,-0.00000802,0.00001035,-0.00000255,-0.00099
 812,0.00173219,-0.00172313,-0.00082624,0.00079223,-0.00052026,0.000039
 10,0.00058577,-0.00005109,-0.00000302,0.00019580,0.00006673,0.00009461
 ,-0.00017768,-0.00000019,-0.00003625,-0.00006681,0.00001857,0.00003769
 ,-0.00005023,0.00005985,-0.00004172,-0.00019154,-0.00006006,0.00002336
 ,-0.00001480,-0.00000424,-0.00000141,0.00000742,0.00001304,0.00001682,
 -0.00000355,0.00000323,0.00185733,0.00180587,-0.00005373,0.00224313,0.
 00160703,0.00126150,-0.29132296,-0.02559993,0.13758311,0.00040328,0.00
 028614,-0.00090407,0.00000797,0.00007902,-0.00003662,-0.01631162,-0.00
 617742,0.01608824,0.30753648,-0.00137417,-0.00114132,-0.00257854,-0.00
 027385,0.00053101,-0.00020998,0.00045563,-0.00034055,0.00033241,-0.000
 01266,-0.00015246,-0.00012129,0.00024492,-0.00010737,0.00011928,0.0000
 0764,0.00001793,0.00006166,-0.00000937,0.00000248,-0.00000579,-0.00002
 291,-0.00000280,-0.00010413,-0.00031635,0.00000629,0.00002168,-0.00002
 567,0.00002029,-0.00002019,-0.00001282,-0.00000053,-0.00000777,-0.0000
 0208,-0.00000664,0.00001068,-0.00000736,0.00002198,0.00000135,0.000772
 88,-0.00058308,0.00050596,0.00022527,-0.00006784,0.00008047,0.00037877
 ,0.00020514,0.00024958,0.00042482,0.00029370,-0.00004765,0.00011786,-0
 .00032294,-0.00003776,-0.00035303,-0.00022260,0.00016557,-0.00001739,0
 .00002521,-0.00014598,-0.00002437,-0.00026622,-0.00028948,-0.00001417,
 0.00001463,0.00001633,-0.00004704,-0.00001278,-0.00004046,-0.00005124,
 -0.00000926,-0.00002656,-0.02398662,0.00340919,0.01317634,0.00198243,-
 0.00026622,0.00695466,-0.02536881,-0.06749471,0.02804999,0.00018900,-0
 .00107657,-0.00002383,-0.00114686,-0.00013715,0.00065540,0.02173332,0.
 00749597,-0.01224331,0.02269072,0.06095209,-0.00027687,-0.00242002,-0.
 00197346,-0.00023020,0.00020466,0.00004040,0.00029605,-0.00026890,0.00
 037192,-0.00003140,-0.00011160,-0.00009782,0.00008601,-0.00009315,0.00
 011338,-0.00001913,0.00000226,0.00001144,0.00001227,0.00001280,-0.0000
 3707,-0.00004754,0.00004202,-0.00002097,-0.00006722,0.00002491,-0.0000
 3710,0.00000707,-0.00001379,-0.00000254,-0.00000346,-0.00000654,-0.000
 00570,-0.00000397,-0.00001513,-0.00001210,0.00000162,0.00000703,-0.000
 00836,-0.00003129,0.00050175,0.00006373,-0.00011248,-0.00014527,0.0006
 0982,-0.00011496,-0.00060175,-0.00024298,-0.00019196,-0.00002568,0.000
 06045,0.00003885,-0.00007495,-0.00005191,-0.00012341,-0.00019601,-0.00
 011170,0.00001126,0.00010067,-0.00006629,0.00002967,0.00015397,0.00005
 326,0.00005796,-0.00002383,-0.00003686,0.00000321,0.00003470,-0.000000
 42,0.00003691,0.00000989,-0.00000849,0.02259632,0.00147530,-0.00645438
 ,0.00161590,0.00721715,0.00133911,0.13555612,0.02777997,-0.13830621,-0
 .00101889,0.00011721,-0.00062743,0.00103037,-0.00000867,-0.00062085,-0
 .00836625,0.00096425,0.00850611,-0.14933935,-0.03559108,0.13512000,0.0
 0055451,-0.00131386,0.00018393,-0.00019718,0.00009466,-0.00060304,0.00
 038758,-0.00027190,-0.00034073,0.00015200,0.00036586,0.00009429,0.0001
 2294,0.00011342,-0.00012297,-0.00012340,-0.00009767,-0.00016806,0.0000
 0372,-0.00002242,-0.00000146,-0.00008548,0.00028526,-0.00004034,-0.000
 31476,0.00006145,-0.00020929,0.00011574,-0.00003563,0.00017951,-0.0000
 2155,0.00002128,0.00002328,0.00001511,0.00004773,0.00003157,0.00000015
 ,0.00001864,0.00000119,0.00018085,0.00036403,0.00028587,0.00017785,0.0
 0009012,-0.00023732,-0.00035895,0.00001954,-0.00001370,-0.00016581,-0.
 00016921,-0.00008807,0.00002193,-0.00001246,-0.00002123,0.00027652,0.0
 0008301,-0.00013568,0.00001464,-0.00000836,0.00004863,-0.00007987,0.00
 007722,0.00026558,-0.00002408,-0.00000349,0.00001960,-0.00002647,-0.00
 000873,-0.00002617,-0.00002426,-0.00000362,0.00000113,-0.03524292,-0.0
 3016970,0.04114247,0.06138926,0.00761874,-0.03083812,-0.05951579,0.052
 90729,-0.01469780,-0.15501600,0.03599463,0.00271928,-0.00303585,0.0055
 1864,0.00083739,-0.30660846,-0.02977896,0.13640214,-0.00130268,0.00507
 283,0.00031132,0.73725678,-0.00058711,-0.00187674,0.00004491,0.0001935
 7,-0.00001340,-0.00067929,0.00122034,0.00016876,0.00001615,0.00004894,
 0.00006450,-0.00025314,0.00013800,-0.00021368,0.00004564,-0.00013792,-
 0.00012019,-0.00007759,0.00001218,0.00002730,-0.00000394,-0.00009051,0
 .00026857,-0.00008444,-0.00015576,-0.00000724,-0.00008975,0.00009684,-
 0.00013532,0.00012644,-0.00002445,-0.00003814,0.00000807,0.00000859,-0
 .00002007,-0.00003565,-0.00000908,0.00000023,-0.00001008,0.00005120,-0
 .00000999,0.00037704,0.00020222,0.00011838,-0.00001947,-0.00017597,0.0
 0000423,-0.00011953,-0.00013557,-0.00011160,-0.00002819,0.00001004,-0.
 00001712,-0.00000418,0.00015097,0.00007460,-0.00013671,-0.00003375,-0.
 00006672,0.00002477,0.00002711,0.00010437,0.00013629,0.00001776,-0.000
 00494,-0.00000198,0.00003320,0.00000369,0.00001114,0.00000910,-0.00000
 163,0.00000163,-0.03088728,-0.02610724,0.03323643,0.05620252,-0.036286
 32,0.01544752,0.00407204,0.04659788,-0.03561613,-0.02621570,-0.2329633
 3,0.14873786,0.00507390,0.00215581,0.00382363,0.03295616,-0.13381575,0
 .02858943,0.00518628,0.00078594,0.00458002,-0.17348877,0.55332947,-0.0
 0024981,0.00159788,-0.00088107,-0.00029211,0.00011645,0.00087107,-0.00
 101097,-0.00010960,0.00030988,-0.00012930,-0.00037569,0.00019052,-0.00
 027916,0.00026493,0.00011080,0.00020927,0.00018416,0.00021274,-0.00000
 340,-0.00000750,0.00000317,0.00008004,-0.00042264,0.00002757,0.0001837
 8,0.00008615,0.00006713,-0.00016256,0.00019306,-0.00023158,0.00003335,
 0.00001967,-0.00001979,-0.00001714,0.00001635,0.00004593,0.00000637,0.
 00000185,0.00000311,-0.00017026,-0.00008337,-0.00048560,-0.00034003,-0
 .00017036,0.00018201,0.00035852,-0.00008967,0.00009079,0.00022425,0.00
 020509,0.00007720,-0.00001600,0.00000916,0.00000251,-0.00030184,-0.000
 13335,0.00019035,-0.00000865,0.00004912,-0.00007160,0.00001595,-0.0001
 3589,-0.00027557,-0.00000374,0.00000547,-0.00000660,-0.00000008,0.0000
 0456,0.00001133,0.00000794,0.00000227,-0.00000641,0.04222880,0.0317684
 7,-0.05794821,-0.07657895,0.03837282,0.01115356,0.03033611,-0.05912960
 ,0.04908392,0.05941452,0.11767621,-0.22029543,0.00137509,0.00346853,0.
 00524797,0.08022002,0.05974906,-0.17676848,-0.00004630,0.00482616,0.00
 474481,-0.12013381,-0.25779508,0.46823942,-0.00072125,-0.00060790,0.00
 078974,-0.00000231,0.00001628,-0.00006003,-0.00012337,-0.00014304,-0.0
 0011857,0.00004454,0.00009685,0.00004592,0.00003955,0.00003898,0.00004
 609,0.00000552,0.00001941,-0.00001469,-0.00000936,-0.00001724,0.000004
 63,-0.00000884,0.00000410,-0.00001866,-0.00002566,-0.00002049,-0.00004
 106,0.00000683,0.00003324,0.00000173,-0.00001135,0.00002245,0.00000253
 ,0.00000105,0.00000792,0.00002084,-0.00000346,0.00001684,0.00000731,-0
 .00003342,0.00036771,-0.00013447,-0.00009736,-0.00006664,-0.00002318,-
 0.00006994,-0.00000650,0.00005401,0.00002477,-0.00001504,0.00000147,0.
 00000608,0.00000166,-0.00000455,0.00001029,0.00000299,0.00002586,0.000
 01529,0.00001252,0.00000467,-0.00003288,-0.00001646,-0.00000293,-0.000
 01631,-0.00000211,0.00001339,-0.00001773,-0.00001760,-0.00000806,-0.00
 001530,-0.00000511,0.00000156,-0.00107122,0.00550094,0.00010143,-0.016
 80698,-0.00638996,0.01697901,0.00039382,0.00036672,-0.00098551,-0.2875
 7786,-0.01965670,0.13659575,0.00048842,-0.00093994,-0.00197118,0.00255
 692,0.00144434,0.00172693,-0.00021465,-0.00032634,-0.00022591,0.002460
 05,0.00334654,-0.00153494,0.30048989,0.00072578,0.00028740,-0.00059804
 ,-0.00006687,0.00007392,0.00000555,0.00007405,0.00005289,0.00004459,-0
 .00000108,-0.00004297,-0.00001772,-0.00001820,-0.00003587,-0.00000296,
 -0.00000785,-0.00000219,0.00001243,0.00000392,0.00000767,-0.00000964,-
 0.00001394,-0.00001545,0.00000481,0.00002888,0.00000891,-0.00000649,-0
 .00001336,-0.00002268,-0.00001157,0.00000314,-0.00000429,-0.00000409,0
 .00000411,-0.00000750,-0.00001547,0.00000522,-0.00000161,-0.00000441,0
 .00014669,-0.00031204,0.00000376,0.00001709,0.00002615,0.00000105,0.00
 004681,0.00003110,0.00002564,0.00002043,0.00004121,-0.00000470,0.00000
 630,-0.00001748,0.00000260,-0.00004424,-0.00000116,0.00000418,-0.00000
 138,-0.00000204,0.00000217,0.00002785,-0.00001074,-0.00003858,0.000008
 32,0.00000174,-0.00000533,0.00000133,0.00000021,0.00000348,0.00000371,
 -0.00000139,0.00000062,0.00491050,0.00089850,0.00483889,0.02125929,0.0
 0759484,-0.01241557,0.00023502,-0.00110500,0.00005811,-0.01978395,-0.0
 6610229,0.02575033,-0.00187271,-0.00127111,-0.00261593,0.00186210,-0.0
 0016153,0.00711324,-0.00026840,-0.00042807,-0.00061158,-0.02413509,0.0
 0360792,0.01368147,0.01869902,0.05820852,-0.00037323,-0.00008095,0.000
 12943,0.00001556,-0.00000852,-0.00004481,0.00011572,-0.00003772,0.0000
 2112,0.00000981,0.00000490,-0.00004548,-0.00001445,-0.00002751,-0.0000
 1680,-0.00001508,-0.00000949,-0.00000705,-0.00000283,0.00000569,-0.000
 00428,-0.00000546,0.00000634,0.00003287,0.00002967,0.00002915,0.000002
 12,0.00000021,-0.00002918,0.00000440,-0.00000092,-0.00000591,0.0000005
 1,0.00000451,-0.00000685,-0.00002174,0.00000507,-0.00000763,-0.0000041
 5,0.00002366,-0.00003122,-0.00008928,-0.00001525,-0.00001657,0.0000339
 1,0.00002704,0.00000087,0.00003759,0.00002660,0.00001727,0.00001647,-0
 .00000364,0.00000491,-0.00000216,-0.00004073,-0.00002140,0.00001115,-0
 .00000695,0.00000638,-0.00001706,0.00000359,-0.00002068,-0.00003584,0.
 00000099,0.00000386,-0.00000629,-0.00000320,0.00000105,0.00000238,0.00
 000323,0.00000326,-0.00000299,0.00027463,0.00467041,0.00476263,-0.0081
 4305,0.00144628,0.00842055,-0.00099595,0.00004543,-0.00049027,0.136786
 75,0.02565308,-0.14031369,-0.00114259,-0.00301794,-0.00185779,0.001385
 03,0.00728138,0.00133080,-0.00022297,-0.00058020,-0.00061994,0.0234297
 7,-0.00006524,-0.00615029,-0.15028661,-0.03282758,0.13719292,0.0005146
 1,0.00056455,-0.00087235,-0.00018780,0.00019946,-0.00012234,-0.0001295
 9,-0.00001089,-0.00007995,-0.00000560,0.00005890,0.00003459,0.00000887
 ,0.00000790,0.00003088,0.00000681,0.00001415,-0.00000451,0.00000106,-0
 .00000924,0.00000701,0.00000658,0.00000128,0.00000452,0.00000658,0.000
 00572,0.00000048,-0.00000171,0.00001207,0.00000045,0.00000071,0.000009
 07,-0.00000076,0.00000284,0.00000134,0.00000304,-0.00000042,0.00000298
 ,0.00000259,0.00018615,0.00000285,0.00000721,0.00000699,-0.00002673,0.
 00002531,-0.00003679,-0.00002928,0.00000548,-0.00001610,-0.00002264,0.
 00001349,0.00000253,0.00001646,-0.00000829,0.00001357,-0.00001198,-0.0
 0000245,0.00000083,0.00001637,-0.00000258,-0.00003699,-0.00002591,0.00
 002308,-0.00001456,0.00000850,0.00000043,-0.00001303,0.00000034,-0.000
 00905,-0.00000968,0.00000531,-0.00000313,-0.00312782,0.00522362,0.0011
 3699,-0.00132150,0.00023689,-0.00007198,0.00794953,0.02173613,-0.02080
 407,-0.00411374,0.00170967,0.00487675,-0.00005273,-0.00029574,-0.00032
 105,-0.07337818,-0.01682762,0.02707019,0.00061356,-0.00180656,-0.00111
 105,0.00317932,-0.02427944,0.02302643,-0.00011135,-0.00110783,0.001046
 00,0.06953945,-0.00044638,-0.00043033,0.00059448,0.00023384,-0.0002444
 9,0.00005070,0.00014808,0.00010520,0.00017729,-0.00003686,-0.00010508,
 -0.00008441,0.00004764,-0.00010667,-0.00003702,0.00000177,-0.00000736,
 0.00000348,-0.00001593,0.00001712,-0.00000982,0.00001588,0.00001250,0.
 00001236,-0.00000774,0.00002144,0.00007349,-0.00000301,-0.00002734,-0.
 00001067,0.00000149,-0.00001703,-0.00000281,-0.00001417,-0.00002569,-0
 .00001972,-0.00000400,-0.00001229,-0.00000254,-0.00025171,-0.00008949,
 0.00000422,0.00008458,0.00006628,-0.00000956,0.00001222,0.00003719,0.0
 0000020,-0.00002204,-0.00000304,-0.00001479,-0.00000635,-0.00002006,0.
 00000919,0.00000764,-0.00000486,-0.00002140,-0.00000878,-0.00001377,-0
 .00002554,0.00003075,0.00003254,0.00000123,0.00002644,-0.00000853,-0.0
 0001153,0.00000872,0.00000528,0.00000582,0.00001545,0.00000118,0.00000
 068,0.00529853,0.00216128,0.00324787,0.00023756,0.00003972,-0.00102374
 ,-0.00583274,-0.00976918,0.01662814,0.00138172,0.00456283,0.00327297,-
 0.00031089,-0.00055667,-0.00047341,-0.01682464,-0.21558216,0.15865544,
 -0.00084130,-0.00121975,-0.00299147,0.00346597,0.00301242,0.00063608,0
 .00004286,-0.00013144,0.00002190,0.01541277,0.21959722,0.00043741,-0.0
 0009321,-0.00023279,-0.00003070,0.00005447,-0.00005258,-0.00013899,-0.
 00000013,-0.00001736,-0.00000420,0.00002623,0.00004281,0.00003221,0.00
 000089,0.00004336,0.00001150,0.00001770,0.00000162,-0.00000233,-0.0000
 0823,-0.00000343,-0.00001401,-0.00000627,-0.00002027,-0.00000533,0.000
 00093,-0.00002689,-0.00000805,0.00001675,-0.00000658,-0.00000059,0.000
 01420,-0.00000454,0.00000678,0.00000024,0.00000433,-0.00000071,0.00001
 180,0.00000299,0.00002661,0.00009397,0.00000252,0.00001315,-0.00000375
 ,-0.00004087,-0.00007122,-0.00001001,0.00001212,-0.00001946,-0.0000330
 6,-0.00000851,0.00000977,-0.00000343,-0.00001001,0.00004470,-0.0000038
 6,0.00000026,0.00001404,0.00002199,-0.00000274,-0.00003367,-0.00001205
 ,0.00004542,-0.00001078,0.00000280,0.00000456,-0.00002300,-0.00000370,
 -0.00002045,-0.00001738,0.00000224,-0.00000044,0.00072080,0.00370789,0
 .00496093,-0.00020486,-0.00101198,0.00005496,0.00411024,0.00297516,0.0
 0082130,0.00523406,0.00305843,0.00362357,-0.00031861,-0.00048046,-0.00
 067707,0.02686645,0.15850997,-0.20476692,-0.00175916,-0.00256691,-0.00
 183347,-0.00185794,0.01432277,-0.00636229,-0.00003254,0.00058336,-0.00
 060295,-0.03191144,-0.17619191,0.20690661,-0.00002304,-0.00031987,-0.0
 0027276,-0.00001855,0.00008182,-0.00008718,-0.00000487,-0.00007427,-0.
 00001377,0.00000974,0.00001217,0.00002229,0.00002743,0.00001114,0.0000
 4463,0.00000560,0.00000729,0.00000693,0.00000050,-0.00000665,-0.000000
 80,-0.00001847,-0.00000405,-0.00002943,-0.00002478,-0.00001820,-0.0000
 3449,-0.00000365,0.00001541,-0.00000253,-0.00000443,0.00001116,-0.0000
 0261,0.00000575,0.00000359,0.00000891,-0.00000054,0.00001334,0.0000027
 5,0.00003728,0.00007219,-0.00001753,-0.00005559,-0.00000585,-0.0000505
 2,-0.00001534,0.00002617,0.00003179,0.00003147,0.00001703,-0.00002043,
 0.00001366,-0.00002259,-0.00000223,0.00000542,0.00001131,0.00002165,0.
 00001495,0.00000489,0.00000882,-0.00000470,-0.00001516,-0.00000504,-0.
 00000829,-0.00000116,0.00001151,-0.00001282,-0.00000983,-0.00001138,-0
 .00001555,-0.00000543,0.00000187,-0.00000575,-0.00102304,0.00043496,0.
 00213665,0.00062563,0.00269490,-0.00264312,0.00006620,0.00566804,0.007
 42958,-0.00539503,0.00371092,0.00011362,-0.00018709,0.00006990,-0.0162
 7694,0.02193096,-0.00919579,-0.00097890,0.00090355,-0.00037555,-0.2441
 6541,0.14716381,-0.03644139,0.00042761,-0.00075466,-0.00191493,0.00051
 761,-0.00184739,-0.00106274,0.25350389,-0.00015504,-0.00046478,-0.0004
 9044,-0.00001493,0.00007226,-0.00012753,0.00013424,-0.00001259,0.00008
 381,-0.00002008,-0.00004266,-0.00004883,-0.00000048,-0.00004334,-0.000
 02005,-0.00000731,-0.00001082,-0.00000292,-0.00000608,0.00000856,-0.00
 000336,0.00000980,0.00001702,0.00002973,0.00001644,0.00002421,0.000037
 93,0.00000135,-0.00002205,0.00000319,0.00000204,-0.00001171,-0.0000000
 1,-0.00000267,-0.00001171,-0.00001940,0.00000173,-0.00001171,-0.000003
 78,-0.00000191,-0.00006137,-0.00001483,0.00001870,0.00001713,0.0000234
 0,0.00003176,-0.00001245,0.00001644,-0.00000440,0.00000544,0.00000504,
 -0.00000526,0.00000045,-0.00000208,-0.00001150,-0.00001682,-0.00000853
 ,-0.00000731,-0.00000066,-0.00001649,0.00001278,0.00000480,-0.00000703
 ,0.00000886,-0.00000167,-0.00000701,0.00000120,0.00000685,0.00000206,0
 .00000730,0.00000383,-0.00000228,-0.00110998,-0.00019695,-0.00010887,0
 .00016783,0.00088387,0.00701694,0.00058427,0.00421497,0.00400548,0.022
 17570,-0.00931825,0.00200682,0.00092383,-0.00071552,0.00014153,-0.0059
 2390,0.00703774,0.00125875,-0.00023642,0.00007704,-0.00002913,0.147299
 54,-0.17851464,0.04551780,-0.00181029,-0.00116417,-0.00240757,-0.00079
 246,-0.00129697,-0.00299282,-0.16128736,0.17955666,-0.00025844,-0.0005
 7082,-0.00047207,0.00006645,0.00005075,-0.00004775,0.00005457,-0.00009
 134,0.00006559,-0.00001271,-0.00003768,-0.00000801,-0.00001750,-0.0000
 0850,0.00001230,0.00000332,-0.00000635,0.00001175,0.00000478,-0.000000
 58,-0.00000435,-0.00000173,-0.00000536,0.00000328,0.00002179,0.0000187
 0,-0.00000036,-0.00000122,0.00000011,-0.00000661,-0.00000123,0.0000015
 3,-0.00000354,0.00000168,-0.00000467,-0.00000297,0.00000117,0.00000293
 ,0.00000105,0.00004054,0.00003494,0.00001479,-0.00002753,-0.00002746,0
 .00003641,-0.00000937,-0.00004605,0.00000693,-0.00001764,-0.00000715,0
 .00000772,-0.00000057,0.00000568,-0.00000852,0.00000241,-0.00000696,-0
 .00000093,0.00000671,0.00001385,-0.00000181,-0.00000567,0.00000545,0.0
 0000342,-0.00000040,-0.00000219,0.00000024,-0.00000674,-0.00000062,-0.
 00000326,-0.00000159,0.00000057,0.00000053,0.00036643,-0.00002261,-0.0
 0113821,0.00314082,0.00681115,0.00090504,0.00522644,0.00419447,0.00266
 884,-0.02131964,0.01583428,0.00130131,-0.00098677,0.00071434,-0.000267
 12,0.01570586,-0.01250667,0.00876488,0.00061567,-0.00058663,0.00014164
 ,-0.03644125,0.04549064,-0.07136287,-0.00095995,-0.00294661,-0.0016659
 7,-0.00198993,-0.00246520,-0.00183719,0.03680122,-0.05383595,0.0628858
 3||0.00000915,0.00001497,0.00000350,-0.00000077,-0.00000209,0.00000206
 ,-0.00000414,-0.00000304,-0.00000163,-0.00000258,0.00000456,-0.0000019
 1,0.00000007,-0.00000380,-0.00000219,0.00000050,-0.00000316,-0.0000068
 2,-0.00000063,-0.00000065,0.00000044,0.00000164,0.00000375,0.00000050,
 -0.00000200,-0.00000180,0.00000061,0.00000117,-0.00000285,0.00000545,-
 0.00000047,0.00000010,0.00000055,0.00000031,0.00000018,0.00000023,-0.0
 0000016,-0.00000033,0.00000031,-0.00000083,-0.00003712,-0.00003342,-0.
 00003293,0.00000526,0.00002064,0.00002631,0.00003595,0.00000668,0.0000
 3094,0.00001984,0.00001298,0.00000455,0.00000398,-0.00000074,-0.000027
 17,-0.00001091,0.00002449,-0.00000192,-0.00000201,-0.00000142,0.000000
 87,-0.00001581,-0.00003419,-0.00000206,-0.00000247,-0.00000053,0.00000
 185,0.00000086,-0.00000152,-0.00000085,0.00000126,0.00000203,0.0000187
 1,0.00001406,-0.00003758,-0.00005401,0.00002113,0.00001684,0.00002981,
 -0.00004264,0.00003446,0.00002533,-0.00004565,0.00003154,0.00000406,0.
 00000016,-0.00000331,-0.00005484,0.00002207,0.00001101,-0.00000118,0.0
 0000208,-0.00000291,0.00003221,0.00002388,-0.00004652,-0.00000244,0.00
 000489,-0.00000337,0.00000437,-0.00000207,-0.00000122,-0.00000286,-0.0
 0000260,0.00000496|||@


 THERE IS MUCH PLEASURE TO BE GAINED FROM USELESS KNOWLEDGE

                                       -- BERTRAND RUSSELL
 Job cpu time:  0 days  0 hours  6 minutes 39.0 seconds.
 File lengths (MBytes):  RWF=    350 Int=      0 D2E=      0 Chk=      7 Scr=      1
 Normal termination of Gaussian 09 at Mon Sep 06 22:02:41 2021.
