 Entering Link 1 = b:\programy\g09w\l1.exe PID=     18608.
  
 Copyright (c) 1988,1990,1992,1993,1995,1998,2003,2009, Gaussian, Inc.
                  All Rights Reserved.
  
 This is part of the Gaussian(R) 09 program.  It is based on
 the Gaussian(R) 03 system (copyright 2003, Gaussian, Inc.),
 the Gaussian(R) 98 system (copyright 1998, Gaussian, Inc.),
 the Gaussian(R) 94 system (copyright 1995, Gaussian, Inc.),
 the Gaussian 92(TM) system (copyright 1992, Gaussian, Inc.),
 the Gaussian 90(TM) system (copyright 1990, Gaussian, Inc.),
 the Gaussian 88(TM) system (copyright 1988, Gaussian, Inc.),
 the Gaussian 86(TM) system (copyright 1986, Carnegie Mellon
 University), and the Gaussian 82(TM) system (copyright 1983,
 Carnegie Mellon University). Gaussian is a federally registered
 trademark of Gaussian, Inc.
  
 This software contains proprietary and confidential information,
 including trade secrets, belonging to Gaussian, Inc.
  
 This software is provided under written license and may be
 used, copied, transmitted, or stored only in accord with that
 written license.
  
 The following legend is applicable only to US Government
 contracts under FAR:
  
                    RESTRICTED RIGHTS LEGEND
  
 Use, reproduction and disclosure by the US Government is
 subject to restrictions as set forth in subparagraphs (a)
 and (c) of the Commercial Computer Software - Restricted
 Rights clause in FAR 52.227-19.
  
 Gaussian, Inc.
 340 Quinnipiac St., Bldg. 40, Wallingford CT 06492
  
  
 ---------------------------------------------------------------
 Warning -- This program may not be used in any manner that
 competes with the business of Gaussian, Inc. or will provide
 assistance to any competitor of Gaussian, Inc.  The licensee
 of this program is prohibited from giving any competitor of
 Gaussian, Inc. access to this program.  By using this program,
 the user acknowledges that Gaussian, Inc. is engaged in the
 business of creating and licensing software in the field of
 computational chemistry and represents and warrants to the
 licensee that it is not a competitor of Gaussian, Inc. and that
 it will not use this program in any manner prohibited above.
 ---------------------------------------------------------------
  

 Cite this work as:
 Gaussian 09, Revision A.02,
 M. J. Frisch, G. W. Trucks, H. B. Schlegel, G. E. Scuseria, 
 M. A. Robb, J. R. Cheeseman, G. Scalmani, V. Barone, B. Mennucci, 
 G. A. Petersson, H. Nakatsuji, M. Caricato, X. Li, H. P. Hratchian, 
 A. F. Izmaylov, J. Bloino, G. Zheng, J. L. Sonnenberg, M. Hada, 
 M. Ehara, K. Toyota, R. Fukuda, J. Hasegawa, M. Ishida, T. Nakajima, 
 Y. Honda, O. Kitao, H. Nakai, T. Vreven, J. A. Montgomery, Jr., 
 J. E. Peralta, F. Ogliaro, M. Bearpark, J. J. Heyd, E. Brothers, 
 K. N. Kudin, V. N. Staroverov, R. Kobayashi, J. Normand, 
 K. Raghavachari, A. Rendell, J. C. Burant, S. S. Iyengar, J. Tomasi, 
 M. Cossi, N. Rega, J. M. Millam, M. Klene, J. E. Knox, J. B. Cross, 
 V. Bakken, C. Adamo, J. Jaramillo, R. Gomperts, R. E. Stratmann, 
 O. Yazyev, A. J. Austin, R. Cammi, C. Pomelli, J. W. Ochterski, 
 R. L. Martin, K. Morokuma, V. G. Zakrzewski, G. A. Voth, 
 P. Salvador, J. J. Dannenberg, S. Dapprich, A. D. Daniels, 
 O. Farkas, J. B. Foresman, J. V. Ortiz, J. Cioslowski, 
 and D. J. Fox, Gaussian, Inc., Wallingford CT, 2009.
 
 ******************************************
 Gaussian 09:  IA32W-G09RevA.02 11-Jun-2009
                06-Sep-2021 
 ******************************************
 %nprocshared=12
 Will use up to   12 processors via shared memory.
 ----------------------------------------------
 # opt freq=noraman hf/6-311g geom=connectivity
 ----------------------------------------------
 1/18=20,19=15,38=1,57=2/1,3;
 2/9=110,12=2,17=6,18=5,40=1/2;
 3/5=4,6=6,11=9,16=1,25=1,30=1,71=1/1,2,3;
 4//1;
 5/5=2,38=5/2;
 6/7=2,8=2,9=2,10=2,28=1/1;
 7//1,2,3,16;
 1/18=20,19=15/3(2);
 2/9=110/2;
 99//99;
 2/9=110/2;
 3/5=4,6=6,11=9,16=1,25=1,30=1,71=1/1,2,3;
 4/5=5,16=3/1;
 5/5=2,38=5/2;
 7//1,2,3,16;
 1/18=20,19=15/3(-5);
 2/9=110/2;
 6/7=2,8=2,9=2,10=2,19=2,28=1/1;
 99/9=1/99;
 -----
 M0001
 -----
 Symbolic Z-matrix:
 Charge =  0 Multiplicity = 1
 C                     0.05204   0.75588  -0.13287 
 H                     0.13762   1.84679  -0.38953 
 C                     1.43748   0.16688  -0.23853 
 C                     2.51963   1.01684  -0.47911 
 C                     1.66528  -1.20545  -0.12324 
 C                     3.80366   0.49975  -0.608 
 H                     2.35857   2.09775  -0.56823 
 C                     2.94867  -1.7214   -0.25608 
 H                     0.81548  -1.8698    0.09578 
 C                     4.02038  -0.86961  -0.50068 
 H                     4.64559   1.17394  -0.79601 
 H                     3.11417  -2.79993  -0.16686 
 H                     5.03143  -1.27553  -0.60669 
 C                    -0.51424   0.69201   1.26379 
 C                    -0.42606  -0.4495    2.06234 
 C                    -1.15576   1.82521   1.77288 
 C                    -0.96354  -0.45762   3.34438 
 H                     0.08154  -1.34645   1.67219 
 C                    -1.69507   1.81451   3.05358 
 H                    -1.23665   2.73048   1.15958 
 C                    -1.59956   0.67345   3.84287 
 H                    -0.88361  -1.35832   3.96155 
 H                    -2.19544   2.70777   3.4413 
 H                    -2.02279   0.66658   4.85234 
 C                    -0.85822   0.14229  -1.16948 
 C                    -1.68425  -0.94721  -0.89522 
 C                    -0.8613    0.68931  -2.45654 
 C                    -2.49934  -1.4807   -1.88822 
 H                    -1.69948  -1.38205   0.11229 
 C                    -1.67435   0.15345  -3.44737 
 H                    -0.21576   1.54433  -2.68876 
 C                    -2.49584  -0.93327  -3.16537 
 H                    -3.14555  -2.33444  -1.65969 
 H                    -1.66786   0.58841  -4.45208 
 H                    -3.13685  -1.35433  -3.94631 
 

 GradGradGradGradGradGradGradGradGradGradGradGradGradGradGradGradGradGrad
 Berny optimization.
 Initialization pass.
                           ----------------------------
                           !    Initial Parameters    !
                           ! (Angstroms and Degrees)  !
 --------------------------                            --------------------------
 ! Name  Definition              Value          Derivative Info.                !
 --------------------------------------------------------------------------------
 ! R1    R(1,2)                  1.124          estimate D2E/DX2                !
 ! R2    R(1,3)                  1.5091         estimate D2E/DX2                !
 ! R3    R(1,14)                 1.5084         estimate D2E/DX2                !
 ! R4    R(1,25)                 1.5099         estimate D2E/DX2                !
 ! R5    R(3,4)                  1.3969         estimate D2E/DX2                !
 ! R6    R(3,5)                  1.3959         estimate D2E/DX2                !
 ! R7    R(4,6)                  1.3902         estimate D2E/DX2                !
 ! R8    R(4,7)                  1.0965         estimate D2E/DX2                !
 ! R9    R(5,8)                  1.3896         estimate D2E/DX2                !
 ! R10   R(5,9)                  1.1007         estimate D2E/DX2                !
 ! R11   R(6,10)                 1.3905         estimate D2E/DX2                !
 ! R12   R(6,11)                 1.0949         estimate D2E/DX2                !
 ! R13   R(8,10)                 1.3907         estimate D2E/DX2                !
 ! R14   R(8,12)                 1.0948         estimate D2E/DX2                !
 ! R15   R(10,13)                1.0946         estimate D2E/DX2                !
 ! R16   R(14,15)                1.3959         estimate D2E/DX2                !
 ! R17   R(14,16)                1.3982         estimate D2E/DX2                !
 ! R18   R(15,17)                1.3902         estimate D2E/DX2                !
 ! R19   R(15,18)                1.102          estimate D2E/DX2                !
 ! R20   R(16,19)                1.3897         estimate D2E/DX2                !
 ! R21   R(16,20)                1.0964         estimate D2E/DX2                !
 ! R22   R(17,21)                1.3901         estimate D2E/DX2                !
 ! R23   R(17,22)                1.0948         estimate D2E/DX2                !
 ! R24   R(19,21)                1.3907         estimate D2E/DX2                !
 ! R25   R(19,23)                1.0948         estimate D2E/DX2                !
 ! R26   R(21,24)                1.0946         estimate D2E/DX2                !
 ! R27   R(25,26)                1.3945         estimate D2E/DX2                !
 ! R28   R(25,27)                1.3985         estimate D2E/DX2                !
 ! R29   R(26,28)                1.3911         estimate D2E/DX2                !
 ! R30   R(26,29)                1.0975         estimate D2E/DX2                !
 ! R31   R(27,30)                1.3892         estimate D2E/DX2                !
 ! R32   R(27,31)                1.0962         estimate D2E/DX2                !
 ! R33   R(28,32)                1.3895         estimate D2E/DX2                !
 ! R34   R(28,33)                1.0948         estimate D2E/DX2                !
 ! R35   R(30,32)                1.3912         estimate D2E/DX2                !
 ! R36   R(30,34)                1.0948         estimate D2E/DX2                !
 ! R37   R(32,35)                1.0946         estimate D2E/DX2                !
 ! A1    A(2,1,3)              107.0335         estimate D2E/DX2                !
 ! A2    A(2,1,14)             106.3267         estimate D2E/DX2                !
 ! A3    A(2,1,25)             106.473          estimate D2E/DX2                !
 ! A4    A(3,1,14)             113.1371         estimate D2E/DX2                !
 ! A5    A(3,1,25)             110.2906         estimate D2E/DX2                !
 ! A6    A(14,1,25)            113.0886         estimate D2E/DX2                !
 ! A7    A(1,3,4)              119.0618         estimate D2E/DX2                !
 ! A8    A(1,3,5)              121.8531         estimate D2E/DX2                !
 ! A9    A(4,3,5)              119.0776         estimate D2E/DX2                !
 ! A10   A(3,4,6)              120.3414         estimate D2E/DX2                !
 ! A11   A(3,4,7)              120.0021         estimate D2E/DX2                !
 ! A12   A(6,4,7)              119.6565         estimate D2E/DX2                !
 ! A13   A(3,5,8)              120.5218         estimate D2E/DX2                !
 ! A14   A(3,5,9)              118.9366         estimate D2E/DX2                !
 ! A15   A(8,5,9)              120.529          estimate D2E/DX2                !
 ! A16   A(4,6,10)             120.2032         estimate D2E/DX2                !
 ! A17   A(4,6,11)             119.8096         estimate D2E/DX2                !
 ! A18   A(10,6,11)            119.9872         estimate D2E/DX2                !
 ! A19   A(5,8,10)             120.0757         estimate D2E/DX2                !
 ! A20   A(5,8,12)             119.8418         estimate D2E/DX2                !
 ! A21   A(10,8,12)            120.0824         estimate D2E/DX2                !
 ! A22   A(6,10,8)             119.7781         estimate D2E/DX2                !
 ! A23   A(6,10,13)            120.1091         estimate D2E/DX2                !
 ! A24   A(8,10,13)            120.1127         estimate D2E/DX2                !
 ! A25   A(1,14,15)            122.7236         estimate D2E/DX2                !
 ! A26   A(1,14,16)            118.3634         estimate D2E/DX2                !
 ! A27   A(15,14,16)           118.9128         estimate D2E/DX2                !
 ! A28   A(14,15,17)           120.5256         estimate D2E/DX2                !
 ! A29   A(14,15,18)           119.4829         estimate D2E/DX2                !
 ! A30   A(17,15,18)           119.9897         estimate D2E/DX2                !
 ! A31   A(14,16,19)           120.4904         estimate D2E/DX2                !
 ! A32   A(14,16,20)           119.9571         estimate D2E/DX2                !
 ! A33   A(19,16,20)           119.5525         estimate D2E/DX2                !
 ! A34   A(15,17,21)           120.1891         estimate D2E/DX2                !
 ! A35   A(15,17,22)           119.7661         estimate D2E/DX2                !
 ! A36   A(21,17,22)           120.0449         estimate D2E/DX2                !
 ! A37   A(16,19,21)           120.1787         estimate D2E/DX2                !
 ! A38   A(16,19,23)           119.8327         estimate D2E/DX2                !
 ! A39   A(21,19,23)           119.9886         estimate D2E/DX2                !
 ! A40   A(17,21,19)           119.7031         estimate D2E/DX2                !
 ! A41   A(17,21,24)           120.1655         estimate D2E/DX2                !
 ! A42   A(19,21,24)           120.1314         estimate D2E/DX2                !
 ! A43   A(1,25,26)            122.6567         estimate D2E/DX2                !
 ! A44   A(1,25,27)            118.3091         estimate D2E/DX2                !
 ! A45   A(26,25,27)           119.0331         estimate D2E/DX2                !
 ! A46   A(25,26,28)           120.4197         estimate D2E/DX2                !
 ! A47   A(25,26,29)           119.8915         estimate D2E/DX2                !
 ! A48   A(28,26,29)           119.6864         estimate D2E/DX2                !
 ! A49   A(25,27,30)           120.4514         estimate D2E/DX2                !
 ! A50   A(25,27,31)           119.9174         estimate D2E/DX2                !
 ! A51   A(30,27,31)           119.6308         estimate D2E/DX2                !
 ! A52   A(26,28,32)           120.2349         estimate D2E/DX2                !
 ! A53   A(26,28,33)           119.7291         estimate D2E/DX2                !
 ! A54   A(32,28,33)           120.036          estimate D2E/DX2                !
 ! A55   A(27,30,32)           120.1547         estimate D2E/DX2                !
 ! A56   A(27,30,34)           119.8544         estimate D2E/DX2                !
 ! A57   A(32,30,34)           119.9909         estimate D2E/DX2                !
 ! A58   A(28,32,30)           119.706          estimate D2E/DX2                !
 ! A59   A(28,32,35)           120.1815         estimate D2E/DX2                !
 ! A60   A(30,32,35)           120.1125         estimate D2E/DX2                !
 ! D1    D(2,1,3,4)              6.0046         estimate D2E/DX2                !
 ! D2    D(2,1,3,5)           -172.9852         estimate D2E/DX2                !
 ! D3    D(14,1,3,4)          -110.7802         estimate D2E/DX2                !
 ! D4    D(14,1,3,5)            70.23           estimate D2E/DX2                !
 ! D5    D(25,1,3,4)           121.4383         estimate D2E/DX2                !
 ! D6    D(25,1,3,5)           -57.5515         estimate D2E/DX2                !
 ! D7    D(2,1,14,15)         -161.9393         estimate D2E/DX2                !
 ! D8    D(2,1,14,16)           18.2214         estimate D2E/DX2                !
 ! D9    D(3,1,14,15)          -44.7387         estimate D2E/DX2                !
 ! D10   D(3,1,14,16)          135.422          estimate D2E/DX2                !
 ! D11   D(25,1,14,15)          81.5681         estimate D2E/DX2                !
 ! D12   D(25,1,14,16)         -98.2712         estimate D2E/DX2                !
 ! D13   D(2,1,25,26)         -149.4556         estimate D2E/DX2                !
 ! D14   D(2,1,25,27)           30.941          estimate D2E/DX2                !
 ! D15   D(3,1,25,26)           94.7587         estimate D2E/DX2                !
 ! D16   D(3,1,25,27)          -84.8447         estimate D2E/DX2                !
 ! D17   D(14,1,25,26)         -33.0495         estimate D2E/DX2                !
 ! D18   D(14,1,25,27)         147.3471         estimate D2E/DX2                !
 ! D19   D(1,3,4,6)           -178.7066         estimate D2E/DX2                !
 ! D20   D(1,3,4,7)              1.2329         estimate D2E/DX2                !
 ! D21   D(5,3,4,6)              0.3115         estimate D2E/DX2                !
 ! D22   D(5,3,4,7)           -179.7489         estimate D2E/DX2                !
 ! D23   D(1,3,5,8)            178.4934         estimate D2E/DX2                !
 ! D24   D(1,3,5,9)             -2.7937         estimate D2E/DX2                !
 ! D25   D(4,3,5,8)             -0.4962         estimate D2E/DX2                !
 ! D26   D(4,3,5,9)            178.2167         estimate D2E/DX2                !
 ! D27   D(3,4,6,10)             0.117          estimate D2E/DX2                !
 ! D28   D(3,4,6,11)          -179.9706         estimate D2E/DX2                !
 ! D29   D(7,4,6,10)          -179.8228         estimate D2E/DX2                !
 ! D30   D(7,4,6,11)             0.0896         estimate D2E/DX2                !
 ! D31   D(3,5,8,10)             0.2523         estimate D2E/DX2                !
 ! D32   D(3,5,8,12)          -179.7995         estimate D2E/DX2                !
 ! D33   D(9,5,8,10)          -178.4401         estimate D2E/DX2                !
 ! D34   D(9,5,8,12)             1.5082         estimate D2E/DX2                !
 ! D35   D(4,6,10,8)            -0.3653         estimate D2E/DX2                !
 ! D36   D(4,6,10,13)          179.738          estimate D2E/DX2                !
 ! D37   D(11,6,10,8)          179.7225         estimate D2E/DX2                !
 ! D38   D(11,6,10,13)          -0.1743         estimate D2E/DX2                !
 ! D39   D(5,8,10,6)             0.1814         estimate D2E/DX2                !
 ! D40   D(5,8,10,13)         -179.9218         estimate D2E/DX2                !
 ! D41   D(12,8,10,6)         -179.7667         estimate D2E/DX2                !
 ! D42   D(12,8,10,13)           0.1301         estimate D2E/DX2                !
 ! D43   D(1,14,15,17)         179.9514         estimate D2E/DX2                !
 ! D44   D(1,14,15,18)           0.4352         estimate D2E/DX2                !
 ! D45   D(16,14,15,17)         -0.2101         estimate D2E/DX2                !
 ! D46   D(16,14,15,18)       -179.7264         estimate D2E/DX2                !
 ! D47   D(1,14,16,19)         179.9152         estimate D2E/DX2                !
 ! D48   D(1,14,16,20)          -0.0255         estimate D2E/DX2                !
 ! D49   D(15,14,16,19)          0.0697         estimate D2E/DX2                !
 ! D50   D(15,14,16,20)       -179.871          estimate D2E/DX2                !
 ! D51   D(14,15,17,21)          0.2043         estimate D2E/DX2                !
 ! D52   D(14,15,17,22)       -179.7425         estimate D2E/DX2                !
 ! D53   D(18,15,17,21)        179.7181         estimate D2E/DX2                !
 ! D54   D(18,15,17,22)         -0.2287         estimate D2E/DX2                !
 ! D55   D(14,16,19,21)          0.0774         estimate D2E/DX2                !
 ! D56   D(14,16,19,23)       -179.9771         estimate D2E/DX2                !
 ! D57   D(20,16,19,21)       -179.9817         estimate D2E/DX2                !
 ! D58   D(20,16,19,23)         -0.0362         estimate D2E/DX2                !
 ! D59   D(15,17,21,19)         -0.0548         estimate D2E/DX2                !
 ! D60   D(15,17,21,24)        179.9894         estimate D2E/DX2                !
 ! D61   D(22,17,21,19)        179.8919         estimate D2E/DX2                !
 ! D62   D(22,17,21,24)         -0.064          estimate D2E/DX2                !
 ! D63   D(16,19,21,17)         -0.0853         estimate D2E/DX2                !
 ! D64   D(16,19,21,24)        179.8706         estimate D2E/DX2                !
 ! D65   D(23,19,21,17)        179.9693         estimate D2E/DX2                !
 ! D66   D(23,19,21,24)         -0.0748         estimate D2E/DX2                !
 ! D67   D(1,25,26,28)        -179.6291         estimate D2E/DX2                !
 ! D68   D(1,25,26,29)           0.9309         estimate D2E/DX2                !
 ! D69   D(27,25,26,28)         -0.0284         estimate D2E/DX2                !
 ! D70   D(27,25,26,29)       -179.4684         estimate D2E/DX2                !
 ! D71   D(1,25,27,30)         179.5316         estimate D2E/DX2                !
 ! D72   D(1,25,27,31)          -0.2283         estimate D2E/DX2                !
 ! D73   D(26,25,27,30)         -0.0865         estimate D2E/DX2                !
 ! D74   D(26,25,27,31)       -179.8464         estimate D2E/DX2                !
 ! D75   D(25,26,28,32)          0.1211         estimate D2E/DX2                !
 ! D76   D(25,26,28,33)       -179.8275         estimate D2E/DX2                !
 ! D77   D(29,26,28,32)        179.5622         estimate D2E/DX2                !
 ! D78   D(29,26,28,33)         -0.3863         estimate D2E/DX2                !
 ! D79   D(25,27,30,32)          0.1096         estimate D2E/DX2                !
 ! D80   D(25,27,30,34)       -179.9037         estimate D2E/DX2                !
 ! D81   D(31,27,30,32)        179.8701         estimate D2E/DX2                !
 ! D82   D(31,27,30,34)         -0.1431         estimate D2E/DX2                !
 ! D83   D(26,28,32,30)         -0.0982         estimate D2E/DX2                !
 ! D84   D(26,28,32,35)        179.9423         estimate D2E/DX2                !
 ! D85   D(33,28,32,30)        179.8502         estimate D2E/DX2                !
 ! D86   D(33,28,32,35)         -0.1093         estimate D2E/DX2                !
 ! D87   D(27,30,32,28)         -0.0167         estimate D2E/DX2                !
 ! D88   D(27,30,32,35)        179.9429         estimate D2E/DX2                !
 ! D89   D(34,30,32,28)        179.9966         estimate D2E/DX2                !
 ! D90   D(34,30,32,35)         -0.0439         estimate D2E/DX2                !
 --------------------------------------------------------------------------------
 Trust Radius=3.00D-01 FncErr=1.00D-07 GrdErr=1.00D-07
 Number of steps in this run= 197 maximum allowed number of steps= 210.
 GradGradGradGradGradGradGradGradGradGradGradGradGradGradGradGradGradGrad

                          Input orientation:                          
 ---------------------------------------------------------------------
 Center     Atomic      Atomic             Coordinates (Angstroms)
 Number     Number       Type             X           Y           Z
 ---------------------------------------------------------------------
      1          6           0        0.052042    0.755881   -0.132867
      2          1           0        0.137617    1.846793   -0.389533
      3          6           0        1.437477    0.166876   -0.238527
      4          6           0        2.519629    1.016839   -0.479106
      5          6           0        1.665277   -1.205448   -0.123244
      6          6           0        3.803664    0.499747   -0.608004
      7          1           0        2.358573    2.097748   -0.568225
      8          6           0        2.948670   -1.721401   -0.256076
      9          1           0        0.815479   -1.869804    0.095778
     10          6           0        4.020382   -0.869611   -0.500679
     11          1           0        4.645587    1.173941   -0.796007
     12          1           0        3.114166   -2.799934   -0.166860
     13          1           0        5.031428   -1.275529   -0.606693
     14          6           0       -0.514240    0.692010    1.263793
     15          6           0       -0.426060   -0.449504    2.062343
     16          6           0       -1.155762    1.825205    1.772884
     17          6           0       -0.963537   -0.457618    3.344384
     18          1           0        0.081537   -1.346449    1.672186
     19          6           0       -1.695074    1.814510    3.053581
     20          1           0       -1.236653    2.730476    1.159578
     21          6           0       -1.599562    0.673455    3.842866
     22          1           0       -0.883610   -1.358320    3.961547
     23          1           0       -2.195441    2.707770    3.441304
     24          1           0       -2.022788    0.666583    4.852339
     25          6           0       -0.858222    0.142286   -1.169481
     26          6           0       -1.684245   -0.947212   -0.895216
     27          6           0       -0.861303    0.689313   -2.456541
     28          6           0       -2.499338   -1.480702   -1.888224
     29          1           0       -1.699483   -1.382052    0.112295
     30          6           0       -1.674347    0.153450   -3.447371
     31          1           0       -0.215763    1.544329   -2.688762
     32          6           0       -2.495839   -0.933270   -3.165374
     33          1           0       -3.145555   -2.334437   -1.659694
     34          1           0       -1.667856    0.588414   -4.452084
     35          1           0       -3.136846   -1.354335   -3.946312
 ---------------------------------------------------------------------
                    Distance matrix (angstroms):
                    1          2          3          4          5
     1  C    0.000000
     2  H    1.123961   0.000000
     3  C    1.509146   2.129451   0.000000
     4  C    2.505388   2.524051   1.396915   0.000000
     5  C    2.539573   3.423570   1.395871   2.407304   0.000000
     6  C    3.790255   3.911799   2.417883   1.390232   2.777657
     7  H    2.703743   2.242221   2.164575   1.096470   3.404375
     8  C    3.813472   4.544430   2.418595   2.780607   1.389587
     9  H    2.743964   3.808952   2.155622   3.401077   1.100680
    10  C    4.304095   4.739944   2.795430   2.410688   2.408685
    11  H    4.659955   4.575997   3.408363   2.155180   3.872512
    12  H    4.692716   5.522816   3.408575   3.875400   2.154894
    13  H    5.398651   5.809083   3.890060   3.402993   3.401413
    14  C    1.508447   2.119416   2.518319   3.513912   3.205388
    15  C    2.549603   3.406230   3.024350   4.157669   3.118001
    16  C    2.496824   2.519790   3.677053   4.385592   4.553946
    17  C    3.820373   4.523824   4.357994   5.378248   4.415241
    18  H    2.771078   3.801397   2.789183   4.019636   2.398266
    19  C    3.785044   3.900619   4.833792   5.556967   5.523071
    20  H    2.688897   2.251501   3.959509   4.442015   5.055524
    21  C    4.305931   4.723104   5.112533   5.980393   5.469870
    22  H    4.702076   5.499777   5.035304   6.078061   4.817231
    23  H    4.651424   4.567248   5.761544   6.360877   6.551673
    24  H    5.400478   5.791153   6.175763   7.012884   6.470142
    25  C    1.509850   2.122583   2.477400   3.556872   3.046152
    26  C    2.548803   3.373627   3.378991   4.658670   3.447017
    27  C    2.497617   2.571016   3.236806   3.930423   3.926576
    28  C    3.820095   4.502425   4.575426   5.780429   4.531550
    29  H    2.774654   3.748627   3.516073   4.889309   3.377614
    30  C    3.785404   3.937131   4.469934   5.210132   4.904031
    31  H    2.688117   2.345809   3.261017   3.555727   4.204934
    32  C    4.305930   4.729602   5.024712   6.014473   5.161737
    33  H    4.701690   5.465822   5.411142   6.687238   5.174881
    34  H    4.652067   4.620343   5.251176   5.788189   5.750354
    35  H    5.400406   5.798276   6.081626   7.045544   6.139903
                    6          7          8          9         10
     6  C    0.000000
     7  H    2.154873   0.000000
     8  C    2.405902   3.877054   0.000000
     9  H    3.878057   4.308539   2.167101   0.000000
    10  C    1.390549   3.401675   1.390662   3.409919   0.000000
    11  H    1.094860   2.477042   3.399126   4.972865   2.157361
    12  H    3.399692   4.971851   1.094797   2.493608   2.158427
    13  H    2.158474   4.304025   2.158614   4.315189   1.094634
    14  C    4.710084   3.685843   4.486235   3.113729   5.110266
    15  C    5.091404   4.600278   4.287376   2.725078   5.149409
    16  C    5.658743   4.231503   5.791499   4.511272   6.262874
    17  C    6.266109   5.733657   5.464963   3.963913   6.308224
    18  H    4.739402   4.697533   3.475519   1.815938   4.523628
    19  C    6.735869   5.443322   6.709758   5.350294   7.245944
    20  H    5.788376   4.038724   6.272178   5.148348   6.584337
    21  C    7.002519   6.095340   6.574426   5.132374   7.268508
    22  H    6.804686   6.555531   5.710214   4.253550   6.648265
    23  H    7.567135   6.098155   7.729817   6.419687   8.183725
    24  H    7.986909   7.115270   7.517564   6.092117   8.217943
    25  C    4.709163   3.812231   4.335904   2.907002   5.027126
    26  C    5.682722   5.071792   4.740441   2.842863   5.718780
    27  C    5.021448   3.989615   5.016920   3.984346   5.485115
    28  C    6.729709   6.176326   5.692332   3.882742   6.693688
    29  H    5.860429   5.388871   4.675060   2.561877   5.775395
    30  C    6.179849   5.322990   5.922139   4.779822   6.493041
    31  H    4.645051   3.380851   5.157189   4.524758   5.344131
    32  C    6.948196   6.284709   6.223171   4.740996   7.040297
    33  H    7.578277   7.150593   6.283752   4.357448   7.405381
    34  H    6.687476   5.794357   6.652371   5.735228   7.077816
    35  H    7.921654   7.316281   7.126436   5.676714   7.958219
                   11         12         13         14         15
    11  H    0.000000
    12  H    4.304969   0.000000
    13  H    2.486889   2.488606   0.000000
    14  C    5.576634   5.235052   6.174493   0.000000
    15  C    6.043785   4.798652   6.131088   1.395891   0.000000
    16  C    6.378009   6.586866   7.318351   1.398161   2.406357
    17  C    7.160104   5.868810   7.226313   2.419168   1.390172
    18  H    5.768439   3.832955   5.449746   2.162649   1.101993
    19  C    7.445377   7.402237   8.257831   2.420271   2.778256
    20  H    6.391232   7.160621   7.645693   2.165198   3.403574
    21  C    7.795609   7.096588   8.219924   2.798193   2.410064
    22  H    7.721314   5.924880   7.474179   3.408543   2.154594
    23  H    8.191893   8.458462   9.191333   3.410466   3.873064
    24  H    8.753768   7.974797   9.128789   3.892817   3.402832
    25  C    5.612103   5.043983   6.083987   2.518202   3.313859
    26  C    6.676519   5.194981   6.729882   2.952504   3.252368
    27  C    5.772181   5.763839   6.481267   3.736488   4.680454
    28  C    7.700001   6.017882   7.641784   4.312367   4.579174
    29  H    6.900582   5.025886   6.770041   2.651883   2.508772
    30  C    6.929119   6.512610   7.421513   4.881697   5.681436
    31  H    5.229955   6.026694   6.310279   4.054409   5.156801
    32  C    7.813719   6.629304   7.957622   5.117206   5.643318
    33  H    8.588164   6.452080   8.312229   4.962860   4.980179
    34  H    7.319105   7.260288   7.946177   5.832050   6.712457
    35  H    8.768287   7.446420   8.824963   6.181487   6.653646
                   16         17         18         19         20
    16  C    0.000000
    17  C    2.778101   0.000000
    18  H    3.405942   2.162972   0.000000
    19  C    1.389660   2.404637   3.880240   0.000000
    20  H    1.096450   3.874521   4.315287   2.153228   0.000000
    21  C    2.410044   1.390086   3.408513   1.390719   3.400452
    22  H    3.872873   1.094780   2.484518   3.398489   4.969298
    23  H    2.154874   3.398038   4.975048   1.094811   2.475089
    24  H    3.402526   2.158649   4.312059   2.158857   4.302806
    25  C    3.402684   4.554773   3.342835   4.618539   3.502350
    26  C    3.883858   4.328202   3.141486   4.818737   4.236496
    27  C    4.389190   5.914105   4.698900   5.685304   4.169358
    28  C    5.112527   5.548475   4.399484   5.993889   5.349532
    29  H    3.652354   3.441307   2.367818   4.343868   4.268946
    30  C    5.505884   6.856135   5.616288   6.709838   5.296850
    31  H    4.568236   6.400454   5.240501   5.935981   4.154381
    32  C    5.813036   6.704561   5.496869   6.845942   5.806358
    33  H    5.748434   5.772733   4.742538   6.444580   6.102913
    34  H    6.367269   7.897794   6.656632   7.605199   6.022052
    35  H    6.836912   7.660393   6.474996   7.817850   6.809297
                   21         22         23         24         25
    21  C    0.000000
    22  H    2.157494   0.000000
    23  H    2.157490   4.304026   0.000000
    24  H    1.094624   2.488266   2.487423   0.000000
    25  C    5.094639   5.346018   5.443272   6.155763   0.000000
    26  C    5.008309   4.939451   5.694350   5.979409   1.394468
    27  C    6.342539   6.736850   6.374847   7.400627   1.398489
    28  C    6.188326   6.070040   6.785243   7.090354   2.417425
    29  H    4.260546   3.934839   5.296690   5.173920   2.162007
    30  C    7.309142   7.602814   7.365456   8.322854   2.419704
    31  H    6.733164   7.286838   6.546025   7.804100   2.164878
    32  C    7.245709   7.319355   7.549544   8.189445   2.796820
    33  H    6.458767   6.137390   7.235106   7.257637   3.406810
    34  H    8.295667   8.671447   8.189969   9.311517   3.410281
    35  H    8.194295   8.222611   8.483149   9.096235   3.891374
                   26         27         28         29         30
    26  C    0.000000
    27  C    2.406903   0.000000
    28  C    1.391062   2.777608   0.000000
    29  H    1.097450   3.404705   2.156752   0.000000
    30  C    2.779397   1.389221   2.404579   3.876805   0.000000
    31  H    3.403090   1.096221   3.873808   4.314053   2.153486
    32  C    2.410911   2.409757   1.389533   3.402749   1.391162
    33  H    2.155051   3.872446   1.094845   2.477520   3.398503
    34  H    3.874238   2.154739   3.397937   4.971648   1.094844
    35  H    3.403672   3.402060   2.158265   4.305702   2.158995
                   31         32         33         34         35
    31  H    0.000000
    32  C    3.400648   0.000000
    33  H    4.968651   2.156958   0.000000
    34  H    2.476217   2.157940   4.303962   0.000000
    35  H    4.303070   1.094554   2.487830   2.487571   0.000000
 Stoichiometry    C19H16
 Framework group  C1[X(C19H16)]
 Deg. of freedom    99
 Full point group                 C1      NOp   1
 Largest Abelian subgroup         C1      NOp   1
 Largest concise Abelian subgroup C1      NOp   1
                         Standard orientation:                         
 ---------------------------------------------------------------------
 Center     Atomic      Atomic             Coordinates (Angstroms)
 Number     Number       Type             X           Y           Z
 ---------------------------------------------------------------------
      1          6           0        0.023540   -0.012247   -0.754791
      2          1           0        0.001125   -0.006548   -1.878514
      3          6           0       -0.905583   -1.110931   -0.299660
      4          6           0       -1.480690   -1.952374   -1.254960
      5          6           0       -1.222603   -1.296872    1.046957
      6          6           0       -2.361297   -2.956025   -0.867715
      7          1           0       -1.239071   -1.822473   -2.316559
      8          6           0       -2.105897   -2.297994    1.432314
      9          1           0       -0.745356   -0.651857    1.800407
     10          6           0       -2.678560   -3.128527    0.475123
     11          1           0       -2.806645   -3.610886   -1.623717
     12          1           0       -2.349214   -2.431852    2.491304
     13          1           0       -3.375429   -3.916519    0.777884
     14          6           0        1.460072   -0.249593   -0.360513
     15          6           0        1.831266   -0.682000    0.913752
     16          6           0        2.456865   -0.022201   -1.314217
     17          6           0        3.169885   -0.887300    1.227643
     18          1           0        1.052989   -0.868467    1.671316
     19          6           0        3.794762   -0.225109   -0.997960
     20          1           0        2.184713    0.319718   -2.319814
     21          6           0        4.154590   -0.658995    0.273404
     22          1           0        3.446715   -1.230622    2.229660
     23          1           0        4.566498   -0.043370   -1.752947
     24          1           0        5.208517   -0.820606    0.521033
     25          6           0       -0.498237    1.332731   -0.309333
     26          6           0       -0.078862    1.949972    0.868665
     27          6           0       -1.446222    1.975296   -1.111958
     28          6           0       -0.596365    3.187111    1.238437
     29          1           0        0.670904    1.462370    1.504663
     30          6           0       -1.963486    3.209675   -0.739560
     31          1           0       -1.788025    1.502012   -2.039791
     32          6           0       -1.539441    3.818900    0.437030
     33          1           0       -0.256998    3.662821    2.164296
     34          1           0       -2.706392    3.703287   -1.374478
     35          1           0       -1.946755    4.791896    0.729302
 ---------------------------------------------------------------------
 Rotational constants (GHZ):      0.4003063      0.3720452      0.2369188
 Standard basis: 6-311G (5D, 7F)
 There are   295 symmetry adapted basis functions of A   symmetry.
 Integral buffers will be    262144 words long.
 Raffenetti 1 integral format.
 Two-electron integral symmetry is turned on.
   295 basis functions,   574 primitive gaussians,   295 cartesian basis functions
    65 alpha electrons       65 beta electrons
       nuclear repulsion energy      1288.4693587243 Hartrees.
 NAtoms=   35 NActive=   35 NUniq=   35 SFac= 7.50D-01 NAtFMM=   80 NAOKFM=F Big=F
 One-electron integrals computed using PRISM.
 PrsmSu:  requested number of processors reduced to:  10 ShMem   1 Linda.
 NBasis=   295 RedAO= T  NBF=   295
 NBsUse=   295 1.00D-06 NBFU=   295
 Harris functional with IExCor=  205 diagonalized for initial guess.
 ExpMin= 1.03D-01 ExpMax= 4.56D+03 ExpMxC= 6.82D+02 IAcc=1 IRadAn=         1 AccDes= 0.00D+00
 HarFok:  IExCor=  205 AccDes= 0.00D+00 IRadAn=         1 IDoV= 1
 ScaDFX=  1.000000  1.000000  1.000000  1.000000
 FoFCou: FMM=F IPFlag=           0 FMFlag=      100000 FMFlg1=           0
         NFxFlg=           0 DoJE=T BraDBF=F KetDBF=T FulRan=T
         Omega=  0.000000  0.000000  1.000000  0.000000  0.000000 ICntrl=     500 IOpCl=  0
         NMat0=    1 NMatS0=    1 NMatT0=    0 NMatD0=    1 NMtDS0=    0 NMtDT0=    0
         I1Cent=           4 NGrid=           0.
 Petite list used in FoFCou.
 Initial guess orbital symmetries:
       Occupied  (A) (A) (A) (A) (A) (A) (A) (A) (A) (A) (A) (A)
                 (A) (A) (A) (A) (A) (A) (A) (A) (A) (A) (A) (A)
                 (A) (A) (A) (A) (A) (A) (A) (A) (A) (A) (A) (A)
                 (A) (A) (A) (A) (A) (A) (A) (A) (A) (A) (A) (A)
                 (A) (A) (A) (A) (A) (A) (A) (A) (A) (A) (A) (A)
                 (A) (A) (A) (A) (A)
       Virtual   (A) (A) (A) (A) (A) (A) (A) (A) (A) (A) (A) (A)
                 (A) (A) (A) (A) (A) (A) (A) (A) (A) (A) (A) (A)
                 (A) (A) (A) (A) (A) (A) (A) (A) (A) (A) (A) (A)
                 (A) (A) (A) (A) (A) (A) (A) (A) (A) (A) (A) (A)
                 (A) (A) (A) (A) (A) (A) (A) (A) (A) (A) (A) (A)
                 (A) (A) (A) (A) (A) (A) (A) (A) (A) (A) (A) (A)
                 (A) (A) (A) (A) (A) (A) (A) (A) (A) (A) (A) (A)
                 (A) (A) (A) (A) (A) (A) (A) (A) (A) (A) (A) (A)
                 (A) (A) (A) (A) (A) (A) (A) (A) (A) (A) (A) (A)
                 (A) (A) (A) (A) (A) (A) (A) (A) (A) (A) (A) (A)
                 (A) (A) (A) (A) (A) (A) (A) (A) (A) (A) (A) (A)
                 (A) (A) (A) (A) (A) (A) (A) (A) (A) (A) (A) (A)
                 (A) (A) (A) (A) (A) (A) (A) (A) (A) (A) (A) (A)
                 (A) (A) (A) (A) (A) (A) (A) (A) (A) (A) (A) (A)
                 (A) (A) (A) (A) (A) (A) (A) (A) (A) (A) (A) (A)
                 (A) (A) (A) (A) (A) (A) (A) (A) (A) (A) (A) (A)
                 (A) (A) (A) (A) (A) (A) (A) (A) (A) (A) (A) (A)
                 (A) (A) (A) (A) (A) (A) (A) (A) (A) (A) (A) (A)
                 (A) (A) (A) (A) (A) (A) (A) (A) (A) (A) (A) (A)
                 (A) (A)
 The electronic state of the initial guess is 1-A.
 Requested convergence on RMS density matrix=1.00D-08 within 128 cycles.
 Requested convergence on MAX density matrix=1.00D-06.
 Requested convergence on             energy=1.00D-06.
 No special actions if energy rises.
 Integral accuracy reduced to 1.0D-05 until final iterations.
 Initial convergence to 1.0D-05 achieved.  Increase integral accuracy.
 SCF Done:  E(RHF) =  -728.671758378     A.U. after   14 cycles
             Convg  =    0.6149D-08             -V/T =  2.0001

 **********************************************************************

            Population analysis using the SCF density.

 **********************************************************************

 Orbital symmetries:
       Occupied  (A) (A) (A) (A) (A) (A) (A) (A) (A) (A) (A) (A)
                 (A) (A) (A) (A) (A) (A) (A) (A) (A) (A) (A) (A)
                 (A) (A) (A) (A) (A) (A) (A) (A) (A) (A) (A) (A)
                 (A) (A) (A) (A) (A) (A) (A) (A) (A) (A) (A) (A)
                 (A) (A) (A) (A) (A) (A) (A) (A) (A) (A) (A) (A)
                 (A) (A) (A) (A) (A)
       Virtual   (A) (A) (A) (A) (A) (A) (A) (A) (A) (A) (A) (A)
                 (A) (A) (A) (A) (A) (A) (A) (A) (A) (A) (A) (A)
                 (A) (A) (A) (A) (A) (A) (A) (A) (A) (A) (A) (A)
                 (A) (A) (A) (A) (A) (A) (A) (A) (A) (A) (A) (A)
                 (A) (A) (A) (A) (A) (A) (A) (A) (A) (A) (A) (A)
                 (A) (A) (A) (A) (A) (A) (A) (A) (A) (A) (A) (A)
                 (A) (A) (A) (A) (A) (A) (A) (A) (A) (A) (A) (A)
                 (A) (A) (A) (A) (A) (A) (A) (A) (A) (A) (A) (A)
                 (A) (A) (A) (A) (A) (A) (A) (A) (A) (A) (A) (A)
                 (A) (A) (A) (A) (A) (A) (A) (A) (A) (A) (A) (A)
                 (A) (A) (A) (A) (A) (A) (A) (A) (A) (A) (A) (A)
                 (A) (A) (A) (A) (A) (A) (A) (A) (A) (A) (A) (A)
                 (A) (A) (A) (A) (A) (A) (A) (A) (A) (A) (A) (A)
                 (A) (A) (A) (A) (A) (A) (A) (A) (A) (A) (A) (A)
                 (A) (A) (A) (A) (A) (A) (A) (A) (A) (A) (A) (A)
                 (A) (A) (A) (A) (A) (A) (A) (A) (A) (A) (A) (A)
                 (A) (A) (A) (A) (A) (A) (A) (A) (A) (A) (A) (A)
                 (A) (A) (A) (A) (A) (A) (A) (A) (A) (A) (A) (A)
                 (A) (A) (A) (A) (A) (A) (A) (A) (A) (A) (A) (A)
                 (A) (A)
 The electronic state is 1-A.
 Alpha  occ. eigenvalues --  -11.25828 -11.25270 -11.25259 -11.25126 -11.24447
 Alpha  occ. eigenvalues --  -11.24432 -11.24355 -11.24348 -11.24208 -11.24188
 Alpha  occ. eigenvalues --  -11.24125 -11.24115 -11.24108 -11.24054 -11.24026
 Alpha  occ. eigenvalues --  -11.24017 -11.23909 -11.23831 -11.23733  -1.18594
 Alpha  occ. eigenvalues --   -1.15828  -1.15682  -1.09039  -1.02412  -1.02117
 Alpha  occ. eigenvalues --   -1.01892  -1.01497  -1.01386  -0.92962  -0.84535
 Alpha  occ. eigenvalues --   -0.82947  -0.82543  -0.81706  -0.81561  -0.77732
 Alpha  occ. eigenvalues --   -0.70733  -0.70449  -0.69106  -0.65996  -0.63619
 Alpha  occ. eigenvalues --   -0.63505  -0.62368  -0.62030  -0.61900  -0.59570
 Alpha  occ. eigenvalues --   -0.58771  -0.58520  -0.58430  -0.57615  -0.53924
 Alpha  occ. eigenvalues --   -0.51739  -0.51082  -0.50847  -0.49676  -0.49169
 Alpha  occ. eigenvalues --   -0.48682  -0.47788  -0.47475  -0.46761  -0.34696
 Alpha  occ. eigenvalues --   -0.34244  -0.33700  -0.33584  -0.33278  -0.31180
 Alpha virt. eigenvalues --    0.11652   0.12017   0.13577   0.13750   0.14062
 Alpha virt. eigenvalues --    0.14929   0.15135   0.16274   0.16375   0.16884
 Alpha virt. eigenvalues --    0.18811   0.19132   0.19284   0.21285   0.21421
 Alpha virt. eigenvalues --    0.21510   0.23638   0.24248   0.24977   0.27136
 Alpha virt. eigenvalues --    0.28521   0.29474   0.34030   0.34195   0.35869
 Alpha virt. eigenvalues --    0.37479   0.38509   0.39677   0.40965   0.43680
 Alpha virt. eigenvalues --    0.44101   0.44377   0.45024   0.45394   0.45579
 Alpha virt. eigenvalues --    0.45867   0.46404   0.48415   0.49880   0.50380
 Alpha virt. eigenvalues --    0.50806   0.51026   0.51443   0.54973   0.55782
 Alpha virt. eigenvalues --    0.56801   0.57912   0.58955   0.59049   0.59615
 Alpha virt. eigenvalues --    0.59689   0.60670   0.61081   0.61494   0.61701
 Alpha virt. eigenvalues --    0.61851   0.62384   0.62463   0.63290   0.63470
 Alpha virt. eigenvalues --    0.64140   0.64999   0.65173   0.65419   0.66908
 Alpha virt. eigenvalues --    0.67408   0.68234   0.68438   0.70116   0.71420
 Alpha virt. eigenvalues --    0.72347   0.73798   0.74462   0.75063   0.76228
 Alpha virt. eigenvalues --    0.77300   0.78326   0.78589   0.80474   0.81169
 Alpha virt. eigenvalues --    0.81857   0.82198   0.82341   0.82823   0.82913
 Alpha virt. eigenvalues --    0.83514   0.83933   0.84061   0.84790   0.85607
 Alpha virt. eigenvalues --    0.86038   0.86381   0.86903   0.87454   0.88066
 Alpha virt. eigenvalues --    0.89692   0.90545   0.91276   0.92978   0.94393
 Alpha virt. eigenvalues --    0.96099   0.96851   0.97687   0.98162   0.98963
 Alpha virt. eigenvalues --    0.99327   1.00311   1.02810   1.05734   1.06229
 Alpha virt. eigenvalues --    1.06801   1.07146   1.08027   1.08377   1.10530
 Alpha virt. eigenvalues --    1.11100   1.12220   1.12491   1.13017   1.14269
 Alpha virt. eigenvalues --    1.14639   1.15397   1.18604   1.19472   1.21712
 Alpha virt. eigenvalues --    1.25349   1.26762   1.27710   1.28215   1.28823
 Alpha virt. eigenvalues --    1.30336   1.35136   1.39470   1.45227   1.46644
 Alpha virt. eigenvalues --    1.51691   1.52271   1.56521   2.54628   2.55624
 Alpha virt. eigenvalues --    2.56182   2.59197   2.61976   2.62495   2.64471
 Alpha virt. eigenvalues --    2.66990   2.67740   2.68461   2.72310   2.76736
 Alpha virt. eigenvalues --    2.77768   2.83508   2.87911   2.88622   2.94135
 Alpha virt. eigenvalues --    2.94282   2.94428   2.97085   2.97457   2.98027
 Alpha virt. eigenvalues --    3.00385   3.00788   3.04044   3.05747   3.07149
 Alpha virt. eigenvalues --    3.08135   3.08414   3.08953   3.09975   3.14332
 Alpha virt. eigenvalues --    3.14800   3.16345   3.16843   3.17567   3.18847
 Alpha virt. eigenvalues --    3.22652   3.25638   3.25816   3.28301   3.28879
 Alpha virt. eigenvalues --    3.30917   3.33377   3.34272   3.35166   3.42620
 Alpha virt. eigenvalues --    3.43066   3.44404   3.46925   3.49491   3.52263
 Alpha virt. eigenvalues --    3.53432   3.54468   3.59219   3.60654   3.60698
 Alpha virt. eigenvalues --    3.63123   3.63545   3.63782   3.65967   3.66668
 Alpha virt. eigenvalues --    3.68375   3.70274   3.70497   3.71425   3.73481
 Alpha virt. eigenvalues --    3.74204   3.75549   3.80877   3.85859   3.86669
 Alpha virt. eigenvalues --    3.93012  24.24852  24.30697  24.31560  24.50537
 Alpha virt. eigenvalues --   24.50844  24.51121  24.54006  24.54670  24.56115
 Alpha virt. eigenvalues --   24.77298  24.78594  24.79156  24.79622  24.80653
 Alpha virt. eigenvalues --   24.81840  24.83261  25.05557  25.05826  25.06129
          Condensed to atoms (all electrons):
              1          2          3          4          5          6
     1  C    5.830955   0.464037   0.185177  -0.026230  -0.054355   0.007674
     2  H    0.464037   0.512456  -0.074290   0.002023   0.005556   0.001757
     3  C    0.185177  -0.074290   5.374672   0.503466   0.439116  -0.072690
     4  C   -0.026230   0.002023   0.503466   5.070314  -0.065501   0.459583
     5  C   -0.054355   0.005556   0.439116  -0.065501   5.095554  -0.029619
     6  C    0.007674   0.001757  -0.072690   0.459583  -0.029619   5.055098
     7  H   -0.000481   0.002406  -0.046688   0.395800   0.004626  -0.035057
     8  C    0.001404  -0.000281  -0.061722  -0.033402   0.479281  -0.076799
     9  H    0.003083   0.000066  -0.048385   0.004044   0.388568  -0.000169
    10  C    0.001273  -0.000013  -0.017870  -0.086343  -0.092104   0.496970
    11  H   -0.000368  -0.000037   0.007065  -0.039723  -0.000618   0.396795
    12  H   -0.000319   0.000012   0.006071  -0.000449  -0.039065   0.005997
    13  H   -0.000013  -0.000001  -0.001594   0.007538   0.008018  -0.042762
    14  C    0.170532  -0.073888  -0.112452  -0.000327  -0.006347  -0.000600
    15  C   -0.045984   0.005104  -0.004683   0.001494  -0.017185   0.000126
    16  C   -0.045195   0.002849   0.001925   0.000201   0.000224  -0.000009
    17  C    0.003559  -0.000275   0.001545   0.000042  -0.000015   0.000000
    18  H   -0.000279  -0.000140  -0.003028  -0.000256   0.002890  -0.000139
    19  C    0.008276   0.001517  -0.000681  -0.000004   0.000029   0.000001
    20  H   -0.000736   0.002687   0.000359  -0.000021  -0.000025   0.000001
    21  C    0.001144  -0.000016   0.000021  -0.000011  -0.000004   0.000000
    22  H   -0.000295   0.000014   0.000011   0.000002   0.000031   0.000000
    23  H   -0.000389  -0.000029   0.000014   0.000001   0.000000   0.000000
    24  H   -0.000019  -0.000001  -0.000002   0.000000   0.000001   0.000000
    25  C    0.157113  -0.059874  -0.154007  -0.005630  -0.007808  -0.000464
    26  C   -0.039850   0.004903  -0.014036  -0.000322  -0.000059   0.000048
    27  C   -0.050483  -0.003304   0.000692   0.002051   0.000779  -0.000100
    28  C    0.004874  -0.000248   0.000622   0.000027  -0.000659  -0.000001
    29  H   -0.001714  -0.000070  -0.001004  -0.000081   0.000488   0.000002
    30  C    0.006262   0.001544  -0.000429  -0.000036   0.000195   0.000007
    31  H    0.001786   0.001051   0.000569   0.001440  -0.000049   0.000030
    32  C    0.000987   0.000009   0.000076  -0.000003   0.000030   0.000000
    33  H   -0.000325   0.000013   0.000005   0.000000   0.000014   0.000000
    34  H   -0.000351  -0.000026   0.000013  -0.000001   0.000003   0.000000
    35  H   -0.000012  -0.000002  -0.000001   0.000000  -0.000001   0.000000
              7          8          9         10         11         12
     1  C   -0.000481   0.001404   0.003083   0.001273  -0.000368  -0.000319
     2  H    0.002406  -0.000281   0.000066  -0.000013  -0.000037   0.000012
     3  C   -0.046688  -0.061722  -0.048385  -0.017870   0.007065   0.006071
     4  C    0.395800  -0.033402   0.004044  -0.086343  -0.039723  -0.000449
     5  C    0.004626   0.479281   0.388568  -0.092104  -0.000618  -0.039065
     6  C   -0.035057  -0.076799  -0.000169   0.496970   0.396795   0.005997
     7  H    0.510834  -0.000240  -0.000260   0.005164  -0.004178   0.000024
     8  C   -0.000240   5.035779  -0.027225   0.494338   0.006221   0.396678
     9  H   -0.000260  -0.027225   0.494975   0.004554   0.000021  -0.003429
    10  C    0.005164   0.494338   0.004554   5.031035  -0.040771  -0.039551
    11  H   -0.004178   0.006221   0.000021  -0.040771   0.518293  -0.000211
    12  H    0.000024   0.396678  -0.003429  -0.039551  -0.000211   0.515354
    13  H   -0.000186  -0.042928  -0.000169   0.399635  -0.004583  -0.004455
    14  C    0.000560   0.001776  -0.003179  -0.000035   0.000020   0.000009
    15  C    0.000003  -0.001736   0.000310   0.000045  -0.000001   0.000016
    16  C    0.000137   0.000028  -0.000195  -0.000001   0.000000   0.000000
    17  C    0.000003  -0.000089   0.000855   0.000003   0.000000   0.000001
    18  H   -0.000005   0.001154   0.003457   0.000079   0.000000  -0.000106
    19  C    0.000003  -0.000001   0.000016   0.000000   0.000000   0.000000
    20  H   -0.000025   0.000002  -0.000007   0.000000   0.000000   0.000000
    21  C   -0.000001   0.000001  -0.000011   0.000000   0.000000   0.000000
    22  H    0.000000   0.000000  -0.000053  -0.000001   0.000000   0.000001
    23  H    0.000000   0.000000   0.000000   0.000000   0.000000   0.000000
    24  H    0.000000   0.000000   0.000000   0.000000   0.000000   0.000000
    25  C    0.000155   0.000725  -0.001858   0.000097   0.000011   0.000018
    26  C   -0.000048  -0.000029   0.004701  -0.000004   0.000000  -0.000002
    27  C    0.000252  -0.000069  -0.000270  -0.000013   0.000003   0.000006
    28  C    0.000000  -0.000016   0.000445   0.000000   0.000000  -0.000001
    29  H    0.000000   0.000060   0.000996   0.000002   0.000000  -0.000009
    30  C   -0.000006   0.000002  -0.000100   0.000000   0.000000   0.000001
    31  H    0.000253  -0.000018  -0.000038  -0.000012  -0.000003   0.000000
    32  C    0.000000   0.000003  -0.000012   0.000000   0.000000   0.000000
    33  H    0.000000   0.000000   0.000000   0.000000   0.000000   0.000000
    34  H   -0.000001   0.000000   0.000001   0.000000   0.000000   0.000000
    35  H    0.000000   0.000000  -0.000001   0.000000   0.000000   0.000000
             13         14         15         16         17         18
     1  C   -0.000013   0.170532  -0.045984  -0.045195   0.003559  -0.000279
     2  H   -0.000001  -0.073888   0.005104   0.002849  -0.000275  -0.000140
     3  C   -0.001594  -0.112452  -0.004683   0.001925   0.001545  -0.003028
     4  C    0.007538  -0.000327   0.001494   0.000201   0.000042  -0.000256
     5  C    0.008018  -0.006347  -0.017185   0.000224  -0.000015   0.002890
     6  C   -0.042762  -0.000600   0.000126  -0.000009   0.000000  -0.000139
     7  H   -0.000186   0.000560   0.000003   0.000137   0.000003  -0.000005
     8  C   -0.042928   0.001776  -0.001736   0.000028  -0.000089   0.001154
     9  H   -0.000169  -0.003179   0.000310  -0.000195   0.000855   0.003457
    10  C    0.399635  -0.000035   0.000045  -0.000001   0.000003   0.000079
    11  H   -0.004583   0.000020  -0.000001   0.000000   0.000000   0.000000
    12  H   -0.004455   0.000009   0.000016   0.000000   0.000001  -0.000106
    13  H    0.517504  -0.000001   0.000001   0.000000   0.000000   0.000000
    14  C   -0.000001   5.366836   0.450230   0.495364  -0.064532  -0.053030
    15  C    0.000001   0.450230   5.121915  -0.061434   0.473326   0.386655
    16  C    0.000000   0.495364  -0.061434   5.040727  -0.036124   0.004504
    17  C    0.000000  -0.064532   0.473326  -0.036124   5.056497  -0.025333
    18  H    0.000000  -0.053030   0.386655   0.004504  -0.025333   0.498253
    19  C    0.000000  -0.071613  -0.031258   0.471661  -0.075073  -0.000213
    20  H    0.000000  -0.045659   0.004757   0.394467  -0.000403  -0.000243
    21  C    0.000000  -0.017719  -0.094857  -0.086783   0.495799   0.004792
    22  H    0.000000   0.006029  -0.036766  -0.000391   0.395581  -0.003440
    23  H    0.000000   0.007151  -0.000598  -0.039679   0.006227   0.000020
    24  H    0.000000  -0.001595   0.008124   0.007494  -0.042552  -0.000183
    25  C   -0.000002  -0.103536  -0.005713  -0.001494   0.000885  -0.000498
    26  C    0.000000  -0.014414  -0.007415   0.001911  -0.001488   0.000356
    27  C    0.000000   0.006444  -0.000172   0.000439   0.000023  -0.000027
    28  C    0.000000   0.000510   0.000013  -0.000089  -0.000031   0.000051
    29  H    0.000000  -0.003190   0.001023  -0.000896   0.000967   0.000138
    30  C    0.000000  -0.000760   0.000025  -0.000016   0.000000   0.000006
    31  H    0.000000   0.000696  -0.000038   0.000013   0.000000   0.000007
    32  C    0.000000   0.000046  -0.000019  -0.000013   0.000000   0.000001
    33  H    0.000000   0.000037   0.000029   0.000007  -0.000001  -0.000017
    34  H    0.000000   0.000011   0.000000   0.000001   0.000000   0.000000
    35  H    0.000000  -0.000001   0.000001   0.000000   0.000000   0.000000
             19         20         21         22         23         24
     1  C    0.008276  -0.000736   0.001144  -0.000295  -0.000389  -0.000019
     2  H    0.001517   0.002687  -0.000016   0.000014  -0.000029  -0.000001
     3  C   -0.000681   0.000359   0.000021   0.000011   0.000014  -0.000002
     4  C   -0.000004  -0.000021  -0.000011   0.000002   0.000001   0.000000
     5  C    0.000029  -0.000025  -0.000004   0.000031   0.000000   0.000001
     6  C    0.000001   0.000001   0.000000   0.000000   0.000000   0.000000
     7  H    0.000003  -0.000025  -0.000001   0.000000   0.000000   0.000000
     8  C   -0.000001   0.000002   0.000001   0.000000   0.000000   0.000000
     9  H    0.000016  -0.000007  -0.000011  -0.000053   0.000000   0.000000
    10  C    0.000000   0.000000   0.000000  -0.000001   0.000000   0.000000
    11  H    0.000000   0.000000   0.000000   0.000000   0.000000   0.000000
    12  H    0.000000   0.000000   0.000000   0.000001   0.000000   0.000000
    13  H    0.000000   0.000000   0.000000   0.000000   0.000000   0.000000
    14  C   -0.071613  -0.045659  -0.017719   0.006029   0.007151  -0.001595
    15  C   -0.031258   0.004757  -0.094857  -0.036766  -0.000598   0.008124
    16  C    0.471661   0.394467  -0.086783  -0.000391  -0.039679   0.007494
    17  C   -0.075073  -0.000403   0.495799   0.395581   0.006227  -0.042552
    18  H   -0.000213  -0.000243   0.004792  -0.003440   0.000020  -0.000183
    19  C    5.044550  -0.034681   0.494716   0.005896   0.396664  -0.042967
    20  H   -0.034681   0.507653   0.005349   0.000022  -0.004217  -0.000183
    21  C    0.494716   0.005349   5.030354  -0.039658  -0.041055   0.399184
    22  H    0.005896   0.000022  -0.039658   0.515454  -0.000212  -0.004355
    23  H    0.396664  -0.004217  -0.041055  -0.000212   0.517937  -0.004550
    24  H   -0.042967  -0.000183   0.399184  -0.004355  -0.004550   0.517667
    25  C   -0.000716   0.000480   0.000023  -0.000007   0.000022   0.000001
    26  C    0.000227   0.000188   0.000080   0.000014  -0.000001  -0.000001
    27  C    0.000003   0.000113  -0.000001  -0.000001   0.000000   0.000000
    28  C   -0.000004   0.000009   0.000004   0.000001   0.000000   0.000000
    29  H   -0.000135  -0.000036   0.000047  -0.000002   0.000001   0.000001
    30  C    0.000001  -0.000008   0.000000   0.000000   0.000000   0.000000
    31  H    0.000001   0.000003   0.000000   0.000000   0.000000   0.000000
    32  C    0.000000  -0.000004   0.000000   0.000000   0.000000   0.000000
    33  H    0.000001   0.000000  -0.000001   0.000000   0.000000   0.000000
    34  H    0.000000   0.000000   0.000000   0.000000   0.000000   0.000000
    35  H    0.000000   0.000000   0.000000   0.000000   0.000000   0.000000
             25         26         27         28         29         30
     1  C    0.157113  -0.039850  -0.050483   0.004874  -0.001714   0.006262
     2  H   -0.059874   0.004903  -0.003304  -0.000248  -0.000070   0.001544
     3  C   -0.154007  -0.014036   0.000692   0.000622  -0.001004  -0.000429
     4  C   -0.005630  -0.000322   0.002051   0.000027  -0.000081  -0.000036
     5  C   -0.007808  -0.000059   0.000779  -0.000659   0.000488   0.000195
     6  C   -0.000464   0.000048  -0.000100  -0.000001   0.000002   0.000007
     7  H    0.000155  -0.000048   0.000252   0.000000   0.000000  -0.000006
     8  C    0.000725  -0.000029  -0.000069  -0.000016   0.000060   0.000002
     9  H   -0.001858   0.004701  -0.000270   0.000445   0.000996  -0.000100
    10  C    0.000097  -0.000004  -0.000013   0.000000   0.000002   0.000000
    11  H    0.000011   0.000000   0.000003   0.000000   0.000000   0.000000
    12  H    0.000018  -0.000002   0.000006  -0.000001  -0.000009   0.000001
    13  H   -0.000002   0.000000   0.000000   0.000000   0.000000   0.000000
    14  C   -0.103536  -0.014414   0.006444   0.000510  -0.003190  -0.000760
    15  C   -0.005713  -0.007415  -0.000172   0.000013   0.001023   0.000025
    16  C   -0.001494   0.001911   0.000439  -0.000089  -0.000896  -0.000016
    17  C    0.000885  -0.001488   0.000023  -0.000031   0.000967   0.000000
    18  H   -0.000498   0.000356  -0.000027   0.000051   0.000138   0.000006
    19  C   -0.000716   0.000227   0.000003  -0.000004  -0.000135   0.000001
    20  H    0.000480   0.000188   0.000113   0.000009  -0.000036  -0.000008
    21  C    0.000023   0.000080  -0.000001   0.000004   0.000047   0.000000
    22  H   -0.000007   0.000014  -0.000001   0.000001  -0.000002   0.000000
    23  H    0.000022  -0.000001   0.000000   0.000000   0.000001   0.000000
    24  H    0.000001  -0.000001   0.000000   0.000000   0.000001   0.000000
    25  C    5.366040   0.486303   0.472931  -0.064623  -0.042582  -0.065218
    26  C    0.486303   5.087886  -0.072044   0.471420   0.390225  -0.027916
    27  C    0.472931  -0.072044   5.071752  -0.031596   0.004194   0.466368
    28  C   -0.064623   0.471420  -0.031596   5.050651  -0.029983  -0.076893
    29  H   -0.042582   0.390225   0.004194  -0.029983   0.481314  -0.000182
    30  C   -0.065218  -0.027916   0.466368  -0.076893  -0.000182   5.050212
    31  H   -0.050646   0.004146   0.399600  -0.000336  -0.000249  -0.035583
    32  C   -0.018516  -0.093495  -0.086075   0.499264   0.004712   0.488851
    33  H    0.006179  -0.037561  -0.000423   0.395897  -0.003329   0.005999
    34  H    0.006705  -0.000523  -0.039650   0.006128   0.000020   0.397099
    35  H   -0.001480   0.007825   0.007373  -0.042207  -0.000182  -0.042956
             31         32         33         34         35
     1  C    0.001786   0.000987  -0.000325  -0.000351  -0.000012
     2  H    0.001051   0.000009   0.000013  -0.000026  -0.000002
     3  C    0.000569   0.000076   0.000005   0.000013  -0.000001
     4  C    0.001440  -0.000003   0.000000  -0.000001   0.000000
     5  C   -0.000049   0.000030   0.000014   0.000003  -0.000001
     6  C    0.000030   0.000000   0.000000   0.000000   0.000000
     7  H    0.000253   0.000000   0.000000  -0.000001   0.000000
     8  C   -0.000018   0.000003   0.000000   0.000000   0.000000
     9  H   -0.000038  -0.000012   0.000000   0.000001  -0.000001
    10  C   -0.000012   0.000000   0.000000   0.000000   0.000000
    11  H   -0.000003   0.000000   0.000000   0.000000   0.000000
    12  H    0.000000   0.000000   0.000000   0.000000   0.000000
    13  H    0.000000   0.000000   0.000000   0.000000   0.000000
    14  C    0.000696   0.000046   0.000037   0.000011  -0.000001
    15  C   -0.000038  -0.000019   0.000029   0.000000   0.000001
    16  C    0.000013  -0.000013   0.000007   0.000001   0.000000
    17  C    0.000000   0.000000  -0.000001   0.000000   0.000000
    18  H    0.000007   0.000001  -0.000017   0.000000   0.000000
    19  C    0.000001   0.000000   0.000001   0.000000   0.000000
    20  H    0.000003  -0.000004   0.000000   0.000000   0.000000
    21  C    0.000000   0.000000  -0.000001   0.000000   0.000000
    22  H    0.000000   0.000000   0.000000   0.000000   0.000000
    23  H    0.000000   0.000000   0.000000   0.000000   0.000000
    24  H    0.000000   0.000000   0.000000   0.000000   0.000000
    25  C   -0.050646  -0.018516   0.006179   0.006705  -0.001480
    26  C    0.004146  -0.093495  -0.037561  -0.000523   0.007825
    27  C    0.399600  -0.086075  -0.000423  -0.039650   0.007373
    28  C   -0.000336   0.499264   0.395897   0.006128  -0.042207
    29  H   -0.000249   0.004712  -0.003329   0.000020  -0.000182
    30  C   -0.035583   0.488851   0.005999   0.397099  -0.042956
    31  H    0.509875   0.005341   0.000024  -0.004288  -0.000185
    32  C    0.005341   5.033446  -0.040265  -0.040737   0.399206
    33  H    0.000024  -0.040265   0.516802  -0.000213  -0.004446
    34  H   -0.004288  -0.040737  -0.000213   0.518611  -0.004488
    35  H   -0.000185   0.399206  -0.004446  -0.004488   0.518522
 Mulliken atomic charges:
              1
     1  C   -0.580736
     2  H    0.204492
     3  C    0.092143
     4  C   -0.189686
     5  C   -0.111988
     6  C   -0.165679
     7  H    0.166954
     8  C   -0.172897
     9  H    0.179267
    10  C   -0.156476
    11  H    0.162064
    12  H    0.163409
    13  H    0.163998
    14  C    0.066629
    15  C   -0.145337
    16  C   -0.149632
    17  C   -0.189396
    18  H    0.184573
    19  C   -0.166216
    20  H    0.170156
    21  C   -0.151397
    22  H    0.162124
    23  H    0.162696
    24  H    0.163937
    25  C    0.086986
    26  C   -0.151024
    27  C   -0.148793
    28  C   -0.183229
    29  H    0.199453
    30  C   -0.166469
    31  H    0.166610
    32  C   -0.152832
    33  H    0.161575
    34  H    0.161687
    35  H    0.163035
 Sum of Mulliken atomic charges =   0.00000
 Mulliken charges with hydrogens summed into heavy atoms:
              1
     1  C   -0.376244
     3  C    0.092143
     4  C   -0.022733
     5  C    0.067279
     6  C   -0.003616
     8  C   -0.009489
    10  C    0.007522
    14  C    0.066629
    15  C    0.039236
    16  C    0.020524
    17  C   -0.027272
    19  C   -0.003521
    21  C    0.012541
    25  C    0.086986
    26  C    0.048430
    27  C    0.017817
    28  C   -0.021654
    30  C   -0.004782
    32  C    0.010203
 Sum of Mulliken charges with hydrogens summed into heavy atoms =   0.00000
 Electronic spatial extent (au):  <R**2>=           4938.8066
 Charge=              0.0000 electrons
 Dipole moment (field-independent basis, Debye):
    X=             -0.0122    Y=             -0.0681    Z=             -0.0423  Tot=              0.0811
 Quadrupole moment (field-independent basis, Debye-Ang):
   XX=           -110.5905   YY=           -114.0642   ZZ=           -102.8760
   XY=              0.8152   XZ=              2.2670   YZ=             -0.0961
 Traceless Quadrupole moment (field-independent basis, Debye-Ang):
   XX=             -1.4136   YY=             -4.8873   ZZ=              6.3009
   XY=              0.8152   XZ=              2.2670   YZ=             -0.0961
 Octapole moment (field-independent basis, Debye-Ang**2):
  XXX=             40.1394  YYY=             17.1878  ZZZ=             -0.1896  XYY=            -44.9424
  XXY=            -13.2071  XXZ=             -6.4618  XZZ=              0.8088  YZZ=             -4.8943
  YYZ=             10.4017  XYZ=              0.0398
 Hexadecapole moment (field-independent basis, Debye-Ang**3):
 XXXX=          -3092.1089 YYYY=          -2906.6490 ZZZZ=           -786.2210 XXXY=             -7.3124
 XXXZ=              2.0387 YYYX=              4.0085 YYYZ=             59.7714 ZZZX=              6.1403
 ZZZY=             -3.8848 XXYY=           -972.8948 XXZZ=           -631.4262 YYZZ=           -601.0832
 XXYZ=            -50.2190 YYXZ=             21.1208 ZZXY=             15.7796
 N-N= 1.288469358724D+03 E-N=-4.272951153233D+03  KE= 7.285939108232D+02
 PrsmSu:  requested number of processors reduced to:  10 ShMem   1 Linda.
 Calling FoFJK, ICntrl=      2127 FMM=F ISym2X=0 I1Cent= 0 IOpClX= 0 NMat=1 NMatS=1 NMatT=0.
 ***** Axes restored to original set *****
 -------------------------------------------------------------------
 Center     Atomic                   Forces (Hartrees/Bohr)
 Number     Number              X              Y              Z
 -------------------------------------------------------------------
      1        6           0.002380091    0.023419822   -0.004256996
      2        1          -0.001239186   -0.026750472    0.006136718
      3        6           0.013351379    0.003913201   -0.002400706
      4        6          -0.000736280    0.006047060   -0.000514142
      5        6          -0.007721926   -0.008643665    0.001576690
      6        6           0.011483593    0.006516929   -0.002220287
      7        1           0.002060154   -0.017554894    0.001550524
      8        6          -0.000312395   -0.012297779    0.001916912
      9        1           0.021976730    0.009936591   -0.012421643
     10        6           0.013145898   -0.003255711   -0.001551484
     11        1          -0.012719372   -0.010398551    0.002771256
     12        1          -0.002428150    0.016504289   -0.001321146
     13        1          -0.015548824    0.006230000    0.001572205
     14        6          -0.003860749    0.007175300    0.010531256
     15        6           0.006766950   -0.011450501   -0.002157999
     16        6          -0.001122257    0.005452882   -0.002976993
     17        6           0.000556445   -0.010303939    0.006376527
     18        1          -0.013575034    0.021846048    0.016428235
     19        6          -0.006493538    0.010008597    0.005375883
     20        1           0.001734257   -0.014882981    0.009430482
     21        6          -0.005492477    0.000657396    0.012337452
     22        1          -0.001249625    0.013735782   -0.009362220
     23        1           0.007734739   -0.013582404   -0.005781291
     24        1           0.006617145    0.000138781   -0.015434630
     25        6          -0.010041272    0.000155691   -0.010551468
     26        6          -0.001094416   -0.004852371    0.010012964
     27        6           0.003038296    0.004755942   -0.003193686
     28        6          -0.006669579   -0.010026567    0.001409156
     29        1          -0.002299593    0.008264787   -0.020218375
     30        6           0.000822560    0.005193191   -0.011696642
     31        1          -0.010123594   -0.013423561    0.004261030
     32        6          -0.008114772   -0.005570995   -0.009400903
     33        1           0.009800354    0.013050029   -0.003520159
     34        1          -0.000259921   -0.006546657    0.015305151
     35        1           0.009634367    0.006538731    0.011988328
 -------------------------------------------------------------------
 Cartesian Forces:  Max     0.026750472 RMS     0.009556352

 GradGradGradGradGradGradGradGradGradGradGradGradGradGradGradGradGradGrad
 Berny optimization.
 Internal  Forces:  Max     0.029850422 RMS     0.007832700
 Search for a local minimum.
 Step number   1 out of a maximum of  197
 All quantities printed in internal units (Hartrees-Bohrs-Radians)
 Mixed Optimization -- RFO/linear search
 Second derivative matrix not updated -- first step.
     Eigenvalues ---    0.00636   0.00645   0.00654   0.01531   0.01533
     Eigenvalues ---    0.01536   0.02138   0.02141   0.02146   0.02168
     Eigenvalues ---    0.02171   0.02173   0.02181   0.02184   0.02186
     Eigenvalues ---    0.02202   0.02202   0.02203   0.02213   0.02213
     Eigenvalues ---    0.02215   0.02216   0.02216   0.02217   0.02217
     Eigenvalues ---    0.02218   0.02219   0.02220   0.02220   0.02222
     Eigenvalues ---    0.04522   0.06372   0.06675   0.15996   0.15999
     Eigenvalues ---    0.15999   0.16000   0.16000   0.16000   0.16000
     Eigenvalues ---    0.16000   0.16000   0.16000   0.16000   0.16000
     Eigenvalues ---    0.16000   0.16000   0.16000   0.18935   0.19362
     Eigenvalues ---    0.22000   0.22000   0.22000   0.22000   0.22000
     Eigenvalues ---    0.22000   0.23476   0.23476   0.23477   0.24996
     Eigenvalues ---    0.24999   0.25000   0.31165   0.31366   0.31436
     Eigenvalues ---    0.31507   0.33463   0.33607   0.33966   0.34076
     Eigenvalues ---    0.34078   0.34103   0.34257   0.34259   0.34259
     Eigenvalues ---    0.34263   0.34264   0.34266   0.34283   0.34284
     Eigenvalues ---    0.34292   0.42431   0.42433   0.42489   0.42575
     Eigenvalues ---    0.42585   0.42614   0.46348   0.46372   0.46436
     Eigenvalues ---    0.46763   0.46772   0.46835   0.47222   0.47232
     Eigenvalues ---    0.47263   0.47340   0.47342   0.473681000.00000
     Eigenvalues --- 1000.000001000.000001000.000001000.000001000.00000
     Eigenvalues --- 1000.000001000.000001000.000001000.000001000.00000
     Eigenvalues --- 1000.000001000.000001000.000001000.000001000.00000
     Eigenvalues --- 1000.000001000.000001000.000001000.000001000.00000
     Eigenvalues --- 1000.000001000.000001000.000001000.000001000.00000
     Eigenvalues --- 1000.000001000.000001000.000001000.000001000.00000
     Eigenvalues --- 1000.000001000.000001000.000001000.000001000.00000
     Eigenvalues --- 1000.000001000.000001000.000001000.000001000.00000
     Eigenvalues --- 1000.000001000.000001000.000001000.000001000.00000
     Eigenvalues --- 1000.000001000.000001000.000001000.000001000.00000
     Eigenvalues --- 1000.000001000.000001000.000001000.000001000.00000
     Eigenvalues --- 1000.000001000.000001000.000001000.000001000.00000
     Eigenvalues --- 1000.000001000.000001000.000001000.000001000.00000
     Eigenvalues --- 1000.000001000.000001000.000001000.000001000.00000
     Eigenvalues --- 1000.000001000.000001000.000001000.000001000.00000
     Eigenvalues --- 1000.000001000.000001000.000001000.000001000.00000
     Eigenvalues --- 1000.000001000.000001000.000001000.000001000.00000
     Eigenvalues --- 1000.000001000.00000
 RFO step:  Lambda=-4.28640051D-02 EMin= 6.35646527D-03
 Linear search not attempted -- first point.
 Maximum step size (   0.300) exceeded in Quadratic search.
    -- Step size scaled by   0.575
 Iteration  1 RMS(Cart)=  0.12587651 RMS(Int)=  0.00283943
 Iteration  2 RMS(Cart)=  0.00584515 RMS(Int)=  0.00028930
 Iteration  3 RMS(Cart)=  0.00000905 RMS(Int)=  0.00028925
 Iteration  4 RMS(Cart)=  0.00000000 RMS(Int)=  0.00028925
 Variable       Old X    -DE/DX   Delta X   Delta X   Delta X     New X
                                 (Linear)    (Quad)   (Total)
    R1        2.12398  -0.02746   0.00000  -0.04455  -0.04455   2.07943
    R2        2.85187   0.02265   0.00000   0.03646   0.03646   2.88834
    R3        2.85055   0.02571   0.00000   0.04131   0.04131   2.89186
    R4        2.85320   0.02094   0.00000   0.03379   0.03379   2.88699
    R5        2.63979  -0.00417   0.00000  -0.00467  -0.00466   2.63512
    R6        2.63781   0.00068   0.00000   0.00092   0.00094   2.63875
    R7        2.62716  -0.00270   0.00000  -0.00307  -0.00308   2.62408
    R8        2.07203  -0.01773   0.00000  -0.02659  -0.02659   2.04544
    R9        2.62594  -0.00453   0.00000  -0.00498  -0.00497   2.62097
   R10        2.07998  -0.02544   0.00000  -0.03861  -0.03861   2.04137
   R11        2.62776  -0.00839   0.00000  -0.00951  -0.00953   2.61823
   R12        2.06898  -0.01666   0.00000  -0.02486  -0.02486   2.04412
   R13        2.62797  -0.00547   0.00000  -0.00619  -0.00620   2.62177
   R14        2.06887  -0.01673   0.00000  -0.02497  -0.02497   2.04390
   R15        2.06856  -0.01682   0.00000  -0.02509  -0.02509   2.04347
   R16        2.63785   0.00073   0.00000   0.00102   0.00103   2.63888
   R17        2.64214  -0.00348   0.00000  -0.00393  -0.00391   2.63824
   R18        2.62704  -0.00314   0.00000  -0.00339  -0.00339   2.62365
   R19        2.08246  -0.02985   0.00000  -0.04548  -0.04548   2.03698
   R20        2.62608  -0.00350   0.00000  -0.00401  -0.00400   2.62208
   R21        2.07199  -0.01769   0.00000  -0.02652  -0.02652   2.04547
   R22        2.62688  -0.00672   0.00000  -0.00756  -0.00758   2.61930
   R23        2.06883  -0.01667   0.00000  -0.02487  -0.02487   2.04396
   R24        2.62808  -0.00842   0.00000  -0.00959  -0.00960   2.61847
   R25        2.06889  -0.01666   0.00000  -0.02486  -0.02486   2.04403
   R26        2.06854  -0.01679   0.00000  -0.02504  -0.02504   2.04350
   R27        2.63516  -0.00248   0.00000  -0.00274  -0.00274   2.63243
   R28        2.64276  -0.00408   0.00000  -0.00470  -0.00469   2.63807
   R29        2.62873  -0.00279   0.00000  -0.00304  -0.00304   2.62568
   R30        2.07388  -0.02180   0.00000  -0.03279  -0.03279   2.04109
   R31        2.62525  -0.00420   0.00000  -0.00474  -0.00474   2.62051
   R32        2.07156  -0.01733   0.00000  -0.02597  -0.02597   2.04559
   R33        2.62584  -0.00614   0.00000  -0.00682  -0.00683   2.61901
   R34        2.06896  -0.01670   0.00000  -0.02491  -0.02491   2.04404
   R35        2.62892  -0.00598   0.00000  -0.00675  -0.00675   2.62217
   R36        2.06896  -0.01665   0.00000  -0.02484  -0.02484   2.04411
   R37        2.06841  -0.01671   0.00000  -0.02492  -0.02492   2.04349
    A1        1.86809  -0.00594   0.00000  -0.03552  -0.03477   1.83332
    A2        1.85575  -0.00921   0.00000  -0.04549  -0.04455   1.81120
    A3        1.85830  -0.00028   0.00000  -0.01898  -0.01881   1.83950
    A4        1.97461   0.01472   0.00000   0.05375   0.05257   2.02719
    A5        1.92493  -0.00401   0.00000   0.00969   0.00735   1.93228
    A6        1.97377   0.00300   0.00000   0.02543   0.02352   1.99729
    A7        2.07802  -0.00625   0.00000  -0.01239  -0.01246   2.06556
    A8        2.12674   0.01646   0.00000   0.03223   0.03215   2.15889
    A9        2.07830  -0.01024   0.00000  -0.02013  -0.02014   2.05816
   A10        2.10035   0.00696   0.00000   0.01489   0.01489   2.11524
   A11        2.09443  -0.00406   0.00000  -0.00909  -0.00910   2.08533
   A12        2.08840  -0.00290   0.00000  -0.00580  -0.00581   2.08259
   A13        2.10350   0.00380   0.00000   0.00845   0.00838   2.11188
   A14        2.07584   0.00411   0.00000   0.01299   0.01287   2.08870
   A15        2.10363  -0.00785   0.00000  -0.02092  -0.02104   2.08259
   A16        2.09794  -0.00011   0.00000  -0.00102  -0.00104   2.09690
   A17        2.09107   0.00023   0.00000   0.00100   0.00101   2.09208
   A18        2.09417  -0.00012   0.00000   0.00002   0.00003   2.09420
   A19        2.09572   0.00215   0.00000   0.00432   0.00431   2.10003
   A20        2.09163  -0.00098   0.00000  -0.00188  -0.00189   2.08974
   A21        2.09583  -0.00117   0.00000  -0.00243  -0.00244   2.09339
   A22        2.09052  -0.00255   0.00000  -0.00639  -0.00642   2.08410
   A23        2.09630   0.00128   0.00000   0.00321   0.00321   2.09951
   A24        2.09636   0.00127   0.00000   0.00319   0.00319   2.09955
   A25        2.14193   0.02504   0.00000   0.04916   0.04915   2.19108
   A26        2.06583  -0.01289   0.00000  -0.02534  -0.02536   2.04048
   A27        2.07542  -0.01215   0.00000  -0.02382  -0.02379   2.05163
   A28        2.10357   0.00443   0.00000   0.00983   0.00983   2.11340
   A29        2.08537   0.00421   0.00000   0.01329   0.01328   2.09865
   A30        2.09422  -0.00864   0.00000  -0.02315  -0.02315   2.07107
   A31        2.10295   0.00830   0.00000   0.01762   0.01764   2.12060
   A32        2.09365  -0.00486   0.00000  -0.01081  -0.01082   2.08282
   A33        2.08658  -0.00345   0.00000  -0.00681  -0.00682   2.07976
   A34        2.09769   0.00246   0.00000   0.00503   0.00500   2.10269
   A35        2.09031  -0.00117   0.00000  -0.00236  -0.00235   2.08796
   A36        2.09518  -0.00128   0.00000  -0.00267  -0.00265   2.09252
   A37        2.09751   0.00004   0.00000  -0.00097  -0.00098   2.09654
   A38        2.09147   0.00006   0.00000   0.00070   0.00071   2.09218
   A39        2.09420  -0.00010   0.00000   0.00026   0.00027   2.09446
   A40        2.08921  -0.00307   0.00000  -0.00767  -0.00771   2.08150
   A41        2.09728   0.00152   0.00000   0.00380   0.00382   2.10110
   A42        2.09669   0.00155   0.00000   0.00387   0.00389   2.10058
   A43        2.14076   0.00960   0.00000   0.01894   0.01893   2.15970
   A44        2.06488  -0.00205   0.00000  -0.00393  -0.00394   2.06095
   A45        2.07752  -0.00755   0.00000  -0.01501  -0.01500   2.06252
   A46        2.10172   0.00312   0.00000   0.00680   0.00680   2.10852
   A47        2.09250   0.00059   0.00000   0.00269   0.00269   2.09519
   A48        2.08892  -0.00371   0.00000  -0.00952  -0.00952   2.07940
   A49        2.10227   0.00531   0.00000   0.01115   0.01116   2.11343
   A50        2.09295  -0.00326   0.00000  -0.00729  -0.00729   2.08566
   A51        2.08795  -0.00205   0.00000  -0.00387  -0.00387   2.08408
   A52        2.09849   0.00134   0.00000   0.00282   0.00281   2.10130
   A53        2.08967  -0.00061   0.00000  -0.00126  -0.00126   2.08841
   A54        2.09502  -0.00072   0.00000  -0.00156  -0.00156   2.09346
   A55        2.09710   0.00007   0.00000  -0.00040  -0.00040   2.09669
   A56        2.09185   0.00002   0.00000   0.00036   0.00036   2.09222
   A57        2.09424  -0.00009   0.00000   0.00004   0.00004   2.09427
[...]
 0.00009417,-0.00000174,0.00003237,-0.00001980,-0.00028016,0.00000205,0
 .00003142,0.00010892,0.00011271,-0.00034872,0.00011319,0.00019838,0.00
 005816,0.00002917,0.00002162,-0.00002023,-0.00000189,-0.00002057,-0.00
 000131,0.00002844,-0.00000337,-0.00000955,-0.00103147,-0.00028445,-0.0
 0038047,0.00001813,-0.00010803,-0.00002184,-0.00015824,0.00004661,-0.0
 0017401,0.00007089,0.00001364,0.00004623,0.00000885,0.00000731,-0.0000
 0200,0.00000813,0.00000095,0.00011527,0.00002397,-0.00008842,-0.000039
 49,-0.00000960,0.00002947,-0.00002839,0.00000652,0.00000676,-0.0000128
 1,0.00001391,-0.00000431,-0.00000777,-0.00000228,-0.00000941,-0.000004
 78,-0.01506799,0.00476409,-0.05463267,-0.01854523,-0.01630827,-0.00905
 352,-0.13252871,-0.07228241,-0.25699133,0.03578817,0.03223867,0.010358
 65,-0.00010348,-0.00069926,0.00078095,0.07009988,-0.11064968,0.8098645
 9,-0.00175406,0.00159670,-0.00050717,0.00072828,0.00098168,-0.00004056
 ,-0.00001532,0.00005707,-0.00017578,-0.00010161,-0.00004926,0.00005513
 ,-0.00004476,-0.00007892,0.00000383,-0.00001558,-0.00001687,-0.0000291
 3,0.00000652,0.00000850,0.00000781,-0.00001762,0.00005143,0.00003433,0
 .00004906,0.00002603,0.00000642,0.00001253,0.00001858,-0.00000500,0.00
 000725,0.00000638,0.00000018,-0.00000706,-0.00000183,-0.00000040,0.000
 01023,-0.00000056,0.00000147,0.00015451,0.00030589,0.00009885,0.000064
 52,0.00004715,-0.00003955,0.00004546,-0.00012334,0.00013423,-0.0000480
 6,0.00002508,-0.00003134,-0.00000627,0.00000979,-0.00000588,-0.0000129
 0,0.00001249,-0.00003261,-0.00002435,0.00003064,0.00000350,0.00000309,
 -0.00000295,0.00002463,-0.00000673,-0.00000615,-0.00000416,-0.00001067
 ,0.00000356,0.00001173,-0.00000275,0.00000349,-0.00000046,0.00313715,-
 0.00146043,-0.00240961,0.00433551,-0.00314171,-0.00096316,-0.19664128,
 -0.14839766,0.05165021,-0.00010580,0.00088711,-0.00040970,-0.00008676,
 0.00003667,-0.00008567,-0.00902247,-0.01566876,0.00974832,0.19980632,0
 .00237351,-0.00146009,-0.00131717,0.00005873,0.00013543,0.00035667,0.0
 0025130,0.00044096,0.00032764,0.00041251,0.00004100,-0.00007921,-0.000
 05149,-0.00009007,-0.00023542,-0.00000341,0.00014477,0.00004723,-0.000
 02246,-0.00002966,0.00002162,0.00020974,-0.00004152,-0.00007917,-0.000
 14279,-0.00003988,0.00011730,-0.00002764,-0.00010216,-0.00002952,0.000
 00086,-0.00001694,0.00000580,-0.00000145,-0.00000385,0.00002257,-0.000
 01179,-0.00000170,0.00001192,-0.00019532,0.00020242,-0.00013006,0.0000
 5842,0.00000187,-0.00010551,0.00002956,0.00007968,-0.00004685,0.000014
 37,0.00003114,-0.00002841,-0.00001554,-0.00003557,0.00000636,0.0000322
 9,-0.00003384,0.00000828,-0.00001096,-0.00003251,0.00000543,-0.0000047
 6,0.00000413,-0.00000443,0.00000224,-0.00000460,-0.00000682,-0.0000002
 5,-0.00000505,-0.00001127,-0.00000276,-0.00000502,0.00000005,-0.009556
 68,-0.00301347,-0.00061360,-0.00282292,0.00472233,0.00300656,-0.147599
 29,-0.19886678,0.05904497,0.00094834,-0.00002357,-0.00034327,-0.000368
 95,-0.00039034,0.00005776,-0.00826210,-0.00370806,0.00728012,0.1665753
 3,0.20059469,0.00158666,0.00093083,0.00105965,-0.00031475,-0.00110395,
 -0.00048121,-0.00026977,0.00005469,0.00009230,-0.00005728,-0.00001006,
 -0.00002805,0.00012286,0.00014921,0.00005001,-0.00007632,-0.00003456,0
 .00000278,-0.00002562,-0.00002320,-0.00004877,-0.00000966,-0.00000329,
 -0.00002174,0.00001630,-0.00007153,-0.00001248,0.00004374,-0.00002778,
 -0.00003385,0.00001795,0.00000558,0.00000590,0.00001920,-0.00003019,-0
 .00000475,0.00001577,-0.00001532,0.00000394,0.00012029,-0.00038923,0.0
 0006606,-0.00012882,-0.00002562,0.00016241,-0.00006103,0.00003438,0.00
 000747,0.00001901,-0.00002376,0.00005201,0.00002084,0.00000628,-0.0000
 0347,-0.00000416,-0.00001287,0.00000651,0.00005113,-0.00000407,-0.0000
 1515,-0.00000981,0.00000066,0.00002691,0.00000242,-0.00000226,0.000026
 08,-0.00000508,0.00000974,0.00000973,-0.00000014,-0.00000021,0.0000124
 9,0.02432041,0.02471331,-0.00385517,-0.00127830,0.00273890,-0.00609306
 ,0.05137459,0.05844961,-0.09367299,-0.00049262,-0.00043093,-0.00102573
 ,0.00120663,0.00117464,-0.00027300,-0.01946660,-0.01909378,0.01154211,
 -0.05327939,-0.06482746,0.09393836,-0.00175434,0.00005888,0.00064347,-
 0.00004421,0.00056461,-0.00031479,0.00014913,-0.00028884,-0.00112586,0
 .00002493,0.00023099,-0.00009391,-0.00020034,-0.00008871,-0.00010035,-
 0.00010957,0.00008453,0.00011042,0.00002682,0.00000223,-0.00001326,0.0
 0023797,0.00011015,0.00005744,-0.00000540,0.00011167,0.00011869,-0.000
 11996,-0.00013305,-0.00005572,-0.00003665,-0.00000318,0.00002427,-0.00
 002186,0.00003027,-0.00001417,-0.00000035,0.00001161,0.00000630,-0.000
 00329,-0.00034705,0.00003980,0.00010408,-0.00002985,-0.00018091,-0.000
 00416,0.00014514,0.00012168,-0.00009677,0.00004446,0.00011558,-0.00001
 667,0.00000081,-0.00000892,0.00005729,0.00009494,-0.00015658,-0.000062
 21,-0.00001484,0.00003990,0.00010130,-0.00011614,-0.00000518,-0.000005
 03,-0.00000165,-0.00001796,0.00000411,-0.00001921,-0.00003016,-0.00000
 155,-0.00000354,-0.00000935,-0.02182661,-0.02351899,0.03454942,0.04064
 097,0.03237251,-0.01503941,-0.03436540,-0.02913257,-0.04507977,-0.1296
 5344,-0.03208959,-0.03386276,0.00109924,-0.00580403,-0.00402246,-0.219
 18931,-0.13931289,0.05680981,0.00235366,-0.00502515,-0.00421708,0.5326
 1112,-0.00130674,-0.00087960,0.00013168,-0.00017926,0.00064328,-0.0004
 9023,0.00014712,0.00001349,-0.00098531,0.00027337,0.00020477,-0.000148
 56,-0.00030082,0.00000621,-0.00025312,-0.00016840,0.00020169,0.0001439
 9,0.00001337,0.00000281,-0.00000405,0.00035944,0.00005198,0.00004637,-
 0.00009679,0.00004366,0.00011065,-0.00017844,-0.00022520,-0.00008550,-
 0.00002440,-0.00000880,0.00003200,-0.00003046,0.00004766,-0.00002445,-
 0.00000601,0.00000488,0.00000582,0.00001929,-0.00044412,-0.00002922,0.
 00013928,0.00006161,-0.00032527,0.00008299,0.00015449,0.00024759,-0.00
 016652,0.00008954,0.00017504,-0.00000699,-0.00000491,-0.00001017,0.000
 10205,0.00010900,-0.00027239,-0.00004590,-0.00006148,0.00001135,0.0001
 3094,-0.00020487,0.00004109,-0.00000485,-0.00000434,-0.00000903,-0.000
 00269,0.00000274,-0.00000832,-0.00000113,-0.00000555,0.00000323,-0.022
 21732,-0.04090613,0.04536506,0.04572256,0.05075686,0.00397153,-0.04198
 091,-0.01293334,-0.06137072,-0.05011961,-0.14005491,0.04132901,-0.0060
 2748,0.00395424,-0.00139327,-0.12124680,-0.21562424,0.07669181,-0.0047
 6359,0.00487051,-0.00059460,0.29306372,0.45648396,0.00167875,0.0005743
 6,0.00043131,-0.00002665,-0.00081023,0.00006125,0.00026691,-0.00023684
 ,0.00070429,-0.00044022,0.00006066,0.00017692,-0.00003526,-0.00009969,
 0.00021402,0.00014721,-0.00023929,-0.00012287,0.00001956,-0.00000023,0
 .00000458,-0.00037826,-0.00008738,-0.00007965,-0.00003544,-0.00029647,
 -0.00029276,0.00007212,0.00026150,0.00009426,-0.00001717,0.00001939,-0
 .00003403,-0.00004293,0.00002128,0.00001515,-0.00001778,-0.00000099,-0
 .00000102,-0.00038986,0.00041823,0.00013190,-0.00011042,-0.00021442,0.
 00031292,-0.00004460,-0.00013527,-0.00041465,0.00021528,-0.00013943,-0
 .00019304,0.00001617,-0.00001441,0.00002889,-0.00009739,-0.00010285,0.
 00037560,0.00001789,0.00006677,-0.00000013,-0.00012674,0.00029260,-0.0
 0014780,0.00000333,0.00001526,-0.00002627,0.00001042,-0.00003211,-0.00
 001830,0.00000352,-0.00000294,-0.00002519,0.03357690,0.04427158,-0.056
 56312,-0.06573661,-0.04311036,-0.05523325,0.00521191,-0.01358800,0.083
 55394,0.03156071,0.10012525,-0.34774265,-0.00387450,-0.00103350,-0.000
 83239,-0.00805734,0.01740697,-0.17319808,-0.00470366,-0.00114971,-0.00
 284963,0.12061161,-0.05265351,0.76972322,-0.00040544,-0.00050510,0.000
 56671,-0.00024606,-0.00011275,-0.00021100,0.00011169,-0.00019992,-0.00
 010276,-0.00010805,0.00008391,0.00002056,-0.00010920,0.00001839,-0.000
 05266,-0.00000652,-0.00000434,-0.00000119,0.00001657,0.00001421,0.0000
 1290,0.00001244,-0.00001371,-0.00001248,0.00002519,-0.00006730,0.00002
 334,-0.00002712,0.00001024,0.00000161,-0.00001658,0.00000187,-0.000001
 61,-0.00002640,0.00002092,0.00000988,-0.00001175,0.00000272,0.00000372
 ,-0.00007976,0.00004862,0.00025017,0.00006424,-0.00000409,-0.00008743,
 0.00003695,-0.00000105,-0.00000977,-0.00000474,0.00001993,0.00001883,-
 0.00001992,-0.00000821,0.00000825,-0.00000612,0.00001832,-0.00001409,-
 0.00001407,0.00002614,0.00000250,0.00003192,-0.00000821,-0.00002906,-0
 .00000955,0.00000474,-0.00002769,0.00000518,-0.00000627,-0.00000659,0.
 00000098,-0.00000393,-0.00001419,0.00233818,-0.00448476,-0.00453802,-0
 .00898824,-0.01574313,0.00967778,-0.00007349,0.00093470,-0.00046832,-0
 .19851806,-0.14989325,0.05250260,-0.00145756,0.00312885,0.00027416,0.0
 0482345,-0.00345031,-0.00106583,-0.00059502,0.00053500,0.00022263,0.00
 411236,-0.00044587,-0.00336853,0.20076116,-0.00002238,-0.00031476,0.00
 064899,-0.00010616,-0.00010241,-0.00005964,0.00000677,-0.00007987,-0.0
 0015740,-0.00004636,0.00004911,-0.00001415,-0.00000967,0.00005613,0.00
 001923,-0.00002051,0.00000226,0.00001280,0.00001091,-0.00000107,-0.000
 00126,0.00000715,-0.00002139,-0.00000847,0.00000029,-0.00002953,0.0000
 0333,-0.00002009,-0.00000840,-0.00000600,-0.00001640,-0.00000522,0.000
 00099,-0.00000189,0.00000735,0.00000645,-0.00001291,0.00000279,-0.0000
 0102,-0.00009499,0.00001711,0.00007916,0.00001463,-0.00002988,0.000017
 24,0.00001597,-0.00000401,-0.00007951,0.00003692,-0.00000755,-0.000021
 00,-0.00000047,-0.00000945,0.00001282,0.00000698,0.00001133,0.00004465
 ,-0.00002534,0.00000001,0.00001510,0.00001572,0.00003939,-0.00005296,-
 0.00000554,0.00000135,-0.00001559,0.00000448,-0.00002721,-0.00002022,-
 0.00000359,-0.00000572,-0.00001895,-0.00492966,0.00452581,-0.00120059,
 -0.00785089,-0.00353606,0.00716502,0.00091844,0.00001306,-0.00054068,-
 0.14975917,-0.20051907,0.05955951,0.00291090,-0.00205284,-0.00115698,-
 0.00330263,0.00512413,0.00310333,0.00053859,-0.00073528,-0.00015673,-0
 .00832722,-0.00171524,-0.00074559,0.16725357,0.20183762,-0.00051044,-0
 .00069907,0.00057117,-0.00017253,-0.00014935,-0.00013657,0.00000955,-0
 .00008709,-0.00007357,-0.00004967,0.00001767,-0.00000891,-0.00000537,0
 .00001929,-0.00000142,-0.00000930,-0.00000406,0.00000533,0.00000631,0.
 00000767,-0.00000075,-0.00000331,0.00001113,0.00000775,-0.00000628,0.0
 0000972,0.00000547,-0.00000731,0.00000123,-0.00000011,-0.00000517,0.00
 000014,0.00000095,-0.00000057,0.00000155,0.00000052,-0.00000002,0.0000
 0166,-0.00000076,0.00002332,0.00004501,0.00016190,0.00002163,0.0000351
 3,-0.00000202,0.00002470,-0.00000063,-0.00002042,0.00001378,0.00001223
 ,-0.00001534,-0.00001590,-0.00000617,0.00000181,0.00001117,-0.00000168
 ,0.00000374,-0.00001055,-0.00000364,-0.00000162,0.00002048,0.00000689,
 -0.00003034,-0.00000754,-0.00000372,-0.00001032,-0.00000122,-0.0000057
 0,-0.00000618,-0.00000463,-0.00000422,-0.00000420,-0.00438013,-0.00079
 089,-0.00287526,-0.01905164,-0.01890035,0.01152273,-0.00047226,-0.0004
 0617,-0.00116628,0.05246041,0.05976558,-0.09469103,0.00127855,-0.00046
 742,0.00107452,-0.00141627,0.00273316,-0.00586815,0.00020641,-0.000159
 59,0.00004373,0.02554516,0.02529808,-0.00256212,-0.05487976,-0.0660351
 5,0.09344271,0.00024903,0.00044148,-0.00084262,0.00007432,0.00001400,0
 .00006309,0.00005431,-0.00006243,-0.00007102,-0.00004537,0.00001859,-0
 .00000207,-0.00003776,0.00000717,0.00001919,-0.00000222,-0.00001018,0.
 00001132,0.00000766,0.00000917,-0.00000628,-0.00001456,-0.00000422,0.0
 0001564,0.00000992,-0.00000089,-0.00003162,-0.00002505,0.00001292,0.00
 001128,-0.00000525,0.00000303,-0.00000397,-0.00000892,0.00001516,-0.00
 000775,-0.00000264,0.00000327,-0.00000639,-0.00032175,-0.00004947,-0.0
 0013506,0.00002625,-0.00000593,-0.00001760,0.00003167,-0.00003552,-0.0
 0004305,0.00004168,0.00000096,-0.00002286,-0.00001717,-0.00000464,-0.0
 0000477,-0.00000130,0.00000611,0.00004630,-0.00000182,-0.00000079,0.00
 000228,-0.00001408,0.00003232,-0.00003651,0.00000152,0.00000388,-0.000
 00979,0.00000075,-0.00000394,-0.00000061,-0.00000118,-0.00000141,-0.00
 000391,0.00121819,-0.00600084,-0.00371035,-0.00110533,-0.00013884,-0.0
 0012826,0.00675016,0.00757912,-0.02351830,0.00052606,-0.00736349,-0.00
 025451,-0.00047927,0.00066257,0.00013953,-0.06325461,-0.01688403,0.012
 75716,-0.00151319,0.00297209,0.00133546,0.00463194,-0.00772339,0.02521
 344,-0.00008366,-0.00030823,0.00114951,0.05470487,0.00020091,0.0002076
 6,-0.00062444,0.00001140,-0.00005146,0.00002986,0.00007284,0.00001370,
 0.00007930,-0.00002632,-0.00002921,0.00002727,0.00001656,-0.00000597,-
 0.00000345,0.00000510,-0.00001314,-0.00001050,-0.00000127,-0.00000380,
 -0.00000426,-0.00000932,0.00002501,-0.00001239,-0.00002260,-0.00000285
 ,0.00002342,0.00001964,0.00000651,0.00000057,0.00000040,0.00000044,-0.
 00000378,0.00000542,-0.00001416,0.00000771,0.00000376,-0.00000110,0.00
 000420,-0.00006012,-0.00011509,0.00003656,0.00003013,0.00002016,-0.000
 04364,-0.00000030,0.00004824,-0.00000233,-0.00001185,0.00002244,0.0000
 2636,-0.00000583,-0.00000400,-0.00000152,0.00001861,0.00000904,-0.0000
 3865,-0.00000834,-0.00001640,0.00000056,0.00002496,-0.00003293,0.00000
 184,-0.00000310,-0.00000364,-0.00000227,0.00000278,-0.00000112,-0.0000
 0713,-0.00000197,-0.00000272,0.00000020,-0.00596131,0.00400702,-0.0010
 1742,-0.00015797,-0.00089052,-0.00070985,-0.00050249,0.00942642,-0.015
 16151,-0.00744411,0.00137425,0.00170067,0.00064475,-0.00063662,-0.0001
 2472,-0.01681355,-0.08991001,0.09252892,0.00318028,-0.00213377,-0.0005
 0853,0.00028073,-0.00133451,0.02542859,0.00001366,-0.00037296,0.001158
 07,0.02375231,0.08232928,0.00051718,0.00059693,-0.00076078,-0.00001747
 ,-0.00004972,0.00000395,0.00013282,-0.00014206,-0.00011740,-0.00009400
 ,0.00005791,0.00003067,-0.00004478,0.00005449,0.00003060,-0.00002014,-
 0.00001113,0.00001164,0.00001740,0.00000400,-0.00000982,-0.00000097,-0
 .00002654,-0.00000191,0.00002772,-0.00004526,-0.00002169,-0.00003807,-
 0.00000001,0.00000706,-0.00002334,-0.00000131,-0.00001033,-0.00001027,
 0.00002365,-0.00000511,-0.00001852,0.00000590,-0.00000548,-0.00035061,
 -0.00013205,0.00000220,0.00006041,-0.00004687,-0.00008374,0.00000199,0
 .00002775,-0.00008109,0.00001775,0.00000274,0.00001838,0.00000029,-0.0
 0000224,0.00000759,-0.00000854,0.00002584,0.00001245,-0.00001086,0.000
 01140,0.00001442,0.00001097,-0.00000274,-0.00003244,0.00000184,0.00001
 050,-0.00001874,0.00001750,-0.00001096,-0.00001475,0.00000535,-0.00000
 107,-0.00001578,-0.00431560,-0.00121654,-0.00062976,-0.00026005,-0.000
 70502,0.00079445,0.00532949,0.01111083,-0.01696197,0.00017435,0.002060
 32,0.00181906,0.00020324,-0.00012524,-0.00014662,0.01261942,0.09233518
 ,-0.34082731,0.00037542,-0.00137753,0.00100261,-0.00345049,-0.00068269
 ,-0.00338633,-0.00004581,0.00003108,-0.00038924,-0.01211162,-0.1013896
 1,0.35885649,-0.00051087,0.00051080,0.00006437,0.00006680,0.00013077,-
 0.00001981,-0.00001389,-0.00011642,-0.00011366,-0.00004690,0.00005087,
 0.00001059,-0.00004488,0.00001802,-0.00000140,-0.00001126,0.00000346,0
 .00000683,0.00000854,0.00000518,0.00000464,0.00001817,-0.00003103,-0.0
 0000348,0.00002711,-0.00004029,-0.00000970,-0.00002213,-0.00000415,-0.
 00000005,-0.00001184,-0.00000086,-0.00000169,-0.00001294,0.00001922,-0
 .00000143,-0.00001198,0.00000272,-0.00000226,-0.00006135,0.00001061,-0
 .00000087,0.00001676,-0.00002881,-0.00001234,-0.00001494,-0.00002359,-
 0.00002665,0.00000519,-0.00000411,0.00000685,0.00000110,0.00000370,0.0
 0000478,-0.00001761,0.00001045,0.00000969,-0.00000076,0.00001790,0.000
 00330,0.00000475,0.00000403,-0.00001390,-0.00000229,0.00000491,-0.0000
 1029,0.00000706,-0.00000194,-0.00000078,0.00000370,0.00000073,-0.00000
 791,-0.00016919,0.00040608,0.00102752,0.00461349,-0.00392887,-0.000107
 53,0.00157933,-0.00682739,0.00123758,0.00616681,-0.00046886,0.00493587
 ,0.00003311,0.00005791,0.00017791,-0.00864146,-0.00701777,-0.01968329,
 -0.00068183,-0.00034859,-0.00079946,-0.17863779,-0.08300977,-0.1311223
 8,-0.00153299,0.00312279,0.00023888,-0.00139321,0.00274620,0.00130800,
 0.17928819,0.00062617,-0.00051233,-0.00014994,-0.00005998,-0.00004765,
 0.00007491,0.00010268,0.00007051,0.00002912,0.00003180,-0.00000117,-0.
 00000981,0.00000242,0.00002003,-0.00001579,0.00000347,0.00001404,0.000
 00165,0.00000275,-0.00000290,0.00000580,0.00000701,-0.00000572,-0.0000
 0524,-0.00001222,-0.00000681,0.00001708,-0.00000422,-0.00000762,-0.000
 00029,-0.00000434,-0.00000464,-0.00000120,0.00000325,0.00000082,0.0000
 0288,-0.00000644,0.00000168,0.00000069,-0.00005262,0.00001924,0.000045
 65,0.00002693,0.00001484,-0.00004509,0.00003738,0.00001140,-0.00001761
 ,0.00000305,0.00000059,-0.00001035,0.00000005,-0.00000787,0.00000462,0
 .00000331,0.00000531,0.00000287,-0.00001447,0.00000256,0.00001016,-0.0
 0000193,0.00000074,-0.00000747,0.00000210,0.00000257,-0.00000335,0.000
 00325,-0.00000764,-0.00000803,0.00000069,-0.00000016,-0.00000548,0.000
 30069,-0.00087675,0.00061423,-0.00400898,0.00440277,0.00364992,-0.0067
 1569,0.00159706,0.00337475,0.00746474,0.00927161,0.00997496,0.00037611
 ,0.00015873,0.00035842,-0.01508242,-0.00323704,-0.01964065,-0.00069039
 ,-0.00049519,-0.00087790,-0.08295075,-0.10329614,-0.07426918,0.0028163
 9,-0.00210955,-0.00139930,0.00306410,-0.00191418,-0.00038994,0.0947261
 1,0.09693884,0.00020742,-0.00015429,0.00006302,-0.00006699,-0.00008669
 ,-0.00001307,0.00005344,-0.00002543,-0.00000850,-0.00001992,0.00002327
 ,0.00000708,-0.00001304,0.00004544,0.00002124,-0.00000833,0.00000458,0
 .00000371,0.00000608,0.00000021,-0.00000092,0.00000343,-0.00003158,-0.
 00001060,0.00002235,-0.00003700,-0.00002121,-0.00001436,-0.00000227,-0
 .00000255,-0.00001017,-0.00000307,-0.00000320,-0.00000455,0.00000952,0
 .00000318,-0.00001213,0.00000155,-0.00000090,-0.00005923,-0.00001696,0
 .00003295,0.00000124,-0.00006586,-0.00003362,-0.00003708,0.00002477,-0
 .00001731,-0.00001656,-0.00001405,0.00003888,0.00002346,0.00000374,0.0
 0001235,-0.00001310,0.00002092,-0.00000003,-0.00000189,0.00001112,0.00
 001069,0.00001607,-0.00000562,-0.00000204,-0.00000001,0.00000897,-0.00
 001001,0.00000958,-0.00001206,-0.00000865,0.00000496,-0.00000143,-0.00
 001474,0.00095879,0.00067582,-0.00029481,0.00041885,0.00411453,-0.0047
 6935,0.00076734,0.00290843,0.00074267,-0.02410119,-0.01608953,-0.01590
 685,-0.00101055,-0.00068049,-0.00095188,0.00908185,0.00653966,0.011284
 38,0.00036078,0.00022473,0.00030799,-0.13099446,-0.07426391,-0.2121049
 8,0.00134113,-0.00042782,0.00102226,0.00020471,-0.00138811,0.00090870,
 0.14290207,0.07868890,0.21971611||-0.00001572,0.00000115,0.00001292,0.
 00000388,-0.00000226,-0.00000572,0.00000405,-0.00000529,0.00000547,0.0
 0000211,0.00000105,-0.00000367,-0.00001280,0.00001694,0.00000057,-0.00
 000476,0.00000081,0.00000413,-0.00000096,0.00000097,0.00000096,0.00001
 643,0.00000293,-0.00000161,-0.00000097,-0.00000411,-0.00000095,-0.0000
 0156,-0.00001177,0.00000064,0.00000062,0.00000127,-0.00000165,-0.00000
 223,-0.00000249,0.00000182,0.00000162,0.00000107,-0.00000071,0.0000242
 9,-0.00004106,-0.00000366,-0.00000034,0.00002572,-0.00005649,-0.000025
 47,0.00001968,0.00003010,-0.00003121,0.00002453,0.00003948,0.00000652,
 -0.00000488,0.00000090,0.00000708,0.00001662,-0.00004057,0.00000238,-0
 .00000139,-0.00000472,0.00002210,-0.00004271,0.00001396,0.00000257,-0.
 00000319,-0.00000246,-0.00000066,-0.00000117,0.00000285,-0.00000218,0.
 00000305,0.00000078,-0.00000800,-0.00002653,0.00002023,0.00003756,0.00
 002957,0.00001179,-0.00001247,0.00000484,-0.00002989,-0.00002010,0.000
 00178,-0.00004071,-0.00000341,0.00000009,0.00000587,0.00002343,0.00002
 897,0.00001201,0.00000170,0.00000080,0.00000403,-0.00001192,-0.0000326
 4,0.00002719,0.00000105,-0.00000092,0.00000323,-0.00000344,-0.00000331
 ,-0.00000156,0.00000082,0.00000190,-0.00000455|||@


 HE THAT WALD REACHE THE SWEITE ROSE
 SULD NOW AND THEN BE SCRATCHED WT THE SCHARPE BREERES.
 -- PROVERBS AND REASONS OF THE YEAR 1585
           AS REPRINTED IN PAISLEY MAGAZINE 1828.
 Job cpu time:  0 days  0 hours  6 minutes 25.0 seconds.
 File lengths (MBytes):  RWF=    350 Int=      0 D2E=      0 Chk=      7 Scr=      1
 Normal termination of Gaussian 09 at Mon Sep 06 17:29:11 2021.
