 Entering Link 1 = b:\programy\g09w\l1.exe PID=     20476.
  
 Copyright (c) 1988,1990,1992,1993,1995,1998,2003,2009, Gaussian, Inc.
                  All Rights Reserved.
  
 This is part of the Gaussian(R) 09 program.  It is based on
 the Gaussian(R) 03 system (copyright 2003, Gaussian, Inc.),
 the Gaussian(R) 98 system (copyright 1998, Gaussian, Inc.),
 the Gaussian(R) 94 system (copyright 1995, Gaussian, Inc.),
 the Gaussian 92(TM) system (copyright 1992, Gaussian, Inc.),
 the Gaussian 90(TM) system (copyright 1990, Gaussian, Inc.),
 the Gaussian 88(TM) system (copyright 1988, Gaussian, Inc.),
 the Gaussian 86(TM) system (copyright 1986, Carnegie Mellon
 University), and the Gaussian 82(TM) system (copyright 1983,
 Carnegie Mellon University). Gaussian is a federally registered
 trademark of Gaussian, Inc.
  
 This software contains proprietary and confidential information,
 including trade secrets, belonging to Gaussian, Inc.
  
 This software is provided under written license and may be
 used, copied, transmitted, or stored only in accord with that
 written license.
  
 The following legend is applicable only to US Government
 contracts under FAR:
  
                    RESTRICTED RIGHTS LEGEND
  
 Use, reproduction and disclosure by the US Government is
 subject to restrictions as set forth in subparagraphs (a)
 and (c) of the Commercial Computer Software - Restricted
 Rights clause in FAR 52.227-19.
  
 Gaussian, Inc.
 340 Quinnipiac St., Bldg. 40, Wallingford CT 06492
  
  
 ---------------------------------------------------------------
 Warning -- This program may not be used in any manner that
 competes with the business of Gaussian, Inc. or will provide
 assistance to any competitor of Gaussian, Inc.  The licensee
 of this program is prohibited from giving any competitor of
 Gaussian, Inc. access to this program.  By using this program,
 the user acknowledges that Gaussian, Inc. is engaged in the
 business of creating and licensing software in the field of
 computational chemistry and represents and warrants to the
 licensee that it is not a competitor of Gaussian, Inc. and that
 it will not use this program in any manner prohibited above.
 ---------------------------------------------------------------
  

 Cite this work as:
 Gaussian 09, Revision A.02,
 M. J. Frisch, G. W. Trucks, H. B. Schlegel, G. E. Scuseria, 
 M. A. Robb, J. R. Cheeseman, G. Scalmani, V. Barone, B. Mennucci, 
 G. A. Petersson, H. Nakatsuji, M. Caricato, X. Li, H. P. Hratchian, 
 A. F. Izmaylov, J. Bloino, G. Zheng, J. L. Sonnenberg, M. Hada, 
 M. Ehara, K. Toyota, R. Fukuda, J. Hasegawa, M. Ishida, T. Nakajima, 
 Y. Honda, O. Kitao, H. Nakai, T. Vreven, J. A. Montgomery, Jr., 
 J. E. Peralta, F. Ogliaro, M. Bearpark, J. J. Heyd, E. Brothers, 
 K. N. Kudin, V. N. Staroverov, R. Kobayashi, J. Normand, 
 K. Raghavachari, A. Rendell, J. C. Burant, S. S. Iyengar, J. Tomasi, 
 M. Cossi, N. Rega, J. M. Millam, M. Klene, J. E. Knox, J. B. Cross, 
 V. Bakken, C. Adamo, J. Jaramillo, R. Gomperts, R. E. Stratmann, 
 O. Yazyev, A. J. Austin, R. Cammi, C. Pomelli, J. W. Ochterski, 
 R. L. Martin, K. Morokuma, V. G. Zakrzewski, G. A. Voth, 
 P. Salvador, J. J. Dannenberg, S. Dapprich, A. D. Daniels, 
 O. Farkas, J. B. Foresman, J. V. Ortiz, J. Cioslowski, 
 and D. J. Fox, Gaussian, Inc., Wallingford CT, 2009.
 
 ******************************************
 Gaussian 09:  IA32W-G09RevA.02 11-Jun-2009
                06-Sep-2021 
 ******************************************
 %nprocshared=12
 Will use up to   12 processors via shared memory.
 ----------------------------------------------
 # opt freq=noraman hf/6-311g geom=connectivity
 ----------------------------------------------
 1/18=20,19=15,38=1,57=2/1,3;
 2/9=110,12=2,17=6,18=5,40=1/2;
 3/5=4,6=6,11=9,16=1,25=1,30=1,71=1/1,2,3;
 4//1;
 5/5=2,38=5/2;
 6/7=2,8=2,9=2,10=2,28=1/1;
 7//1,2,3,16;
 1/18=20,19=15/3(2);
 2/9=110/2;
 99//99;
 2/9=110/2;
 3/5=4,6=6,11=9,16=1,25=1,30=1,71=1/1,2,3;
 4/5=5,16=3/1;
 5/5=2,38=5/2;
 7//1,2,3,16;
 1/18=20,19=15/3(-5);
 2/9=110/2;
 6/7=2,8=2,9=2,10=2,19=2,28=1/1;
 99/9=1/99;
 -----
 M0001
 -----
 Symbolic Z-matrix:
 Charge =  0 Multiplicity = 1
 C                     0.        0.        0.79554 
 H                     0.        0.        1.91824 
 C                    -1.33509   0.54713   0.35532 
 C                    -1.49899   1.20088  -0.86677 
 C                    -2.43918   0.39061   1.19786 
 C                    -2.74555   1.69113  -1.2399 
 H                    -0.63361   1.33513  -1.5291 
 C                    -3.68444   0.87948   0.8211 
 H                    -2.32589  -0.12216   2.16009 
 C                    -3.84023   1.53083  -0.39799 
 H                    -2.86253   2.20555  -2.19926 
 H                    -4.5441    0.75141   1.4869 
 H                    -4.82124   1.91671  -0.69283 
 C                     1.14137   0.88265   0.35532 
 C                     1.78949   0.69772  -0.86677 
 C                     1.55787   1.91708   1.19786 
 C                     2.83733   1.53215  -1.2399 
 H                     1.47306  -0.11884  -1.5291 
 C                     2.60387   2.75108   0.8211 
 H                     1.05715   2.07536   2.16009 
 C                     3.24585   2.56032  -0.39799 
 H                     3.34133   1.37624  -2.19926 
 H                     2.92279   3.5596    1.4869 
 H                     4.07053   3.21696  -0.69283 
 C                     0.19371  -1.42978   0.35532 
 C                     0.88131  -2.3077    1.19786 
 C                    -0.2905   -1.89861  -0.86677 
 C                     1.08057  -3.63055   0.8211 
 H                     1.26874  -1.9532    2.16009 
 C                    -0.09179  -3.22328  -1.2399 
 H                    -0.83945  -1.21629  -1.5291 
 C                     0.59438  -4.09115  -0.39799 
 H                     1.62131  -4.31102   1.4869 
 H                    -0.4788   -3.5818   -2.19926 
 H                     0.7507   -5.13367  -0.69283 
 

 GradGradGradGradGradGradGradGradGradGradGradGradGradGradGradGradGradGrad
 Berny optimization.
 Initialization pass.
                           ----------------------------
                           !    Initial Parameters    !
                           ! (Angstroms and Degrees)  !
 --------------------------                            --------------------------
 ! Name  Definition              Value          Derivative Info.                !
 --------------------------------------------------------------------------------
 ! R1    R(1,2)                  1.1227         estimate D2E/DX2                !
 ! R2    R(1,3)                  1.5085         estimate D2E/DX2                !
 ! R3    R(1,14)                 1.5085         estimate D2E/DX2                !
 ! R4    R(1,25)                 1.5085         estimate D2E/DX2                !
 ! R5    R(3,4)                  1.3956         estimate D2E/DX2                !
 ! R6    R(3,5)                  1.3976         estimate D2E/DX2                !
 ! R7    R(4,6)                  1.3905         estimate D2E/DX2                !
 ! R8    R(4,7)                  1.098          estimate D2E/DX2                !
 ! R9    R(5,8)                  1.3898         estimate D2E/DX2                !
 ! R10   R(5,9)                  1.0962         estimate D2E/DX2                !
 ! R11   R(6,10)                 1.3903         estimate D2E/DX2                !
 ! R12   R(6,11)                 1.0948         estimate D2E/DX2                !
 ! R13   R(8,10)                 1.3909         estimate D2E/DX2                !
 ! R14   R(8,12)                 1.0949         estimate D2E/DX2                !
 ! R15   R(10,13)                1.0946         estimate D2E/DX2                !
 ! R16   R(14,15)                1.3956         estimate D2E/DX2                !
 ! R17   R(14,16)                1.3976         estimate D2E/DX2                !
 ! R18   R(15,17)                1.3905         estimate D2E/DX2                !
 ! R19   R(15,18)                1.098          estimate D2E/DX2                !
 ! R20   R(16,19)                1.3898         estimate D2E/DX2                !
 ! R21   R(16,20)                1.0962         estimate D2E/DX2                !
 ! R22   R(17,21)                1.3903         estimate D2E/DX2                !
 ! R23   R(17,22)                1.0948         estimate D2E/DX2                !
 ! R24   R(19,21)                1.3909         estimate D2E/DX2                !
 ! R25   R(19,23)                1.0949         estimate D2E/DX2                !
 ! R26   R(21,24)                1.0946         estimate D2E/DX2                !
 ! R27   R(25,26)                1.3976         estimate D2E/DX2                !
 ! R28   R(25,27)                1.3956         estimate D2E/DX2                !
 ! R29   R(26,28)                1.3898         estimate D2E/DX2                !
 ! R30   R(26,29)                1.0962         estimate D2E/DX2                !
 ! R31   R(27,30)                1.3905         estimate D2E/DX2                !
 ! R32   R(27,31)                1.098          estimate D2E/DX2                !
 ! R33   R(28,32)                1.3909         estimate D2E/DX2                !
 ! R34   R(28,33)                1.0949         estimate D2E/DX2                !
 ! R35   R(30,32)                1.3903         estimate D2E/DX2                !
 ! R36   R(30,34)                1.0948         estimate D2E/DX2                !
 ! R37   R(32,35)                1.0946         estimate D2E/DX2                !
 ! A1    A(2,1,3)              106.9675         estimate D2E/DX2                !
 ! A2    A(2,1,14)             106.9675         estimate D2E/DX2                !
 ! A3    A(2,1,25)             106.9675         estimate D2E/DX2                !
 ! A4    A(3,1,14)             111.8547         estimate D2E/DX2                !
 ! A5    A(3,1,25)             111.8547         estimate D2E/DX2                !
 ! A6    A(14,1,25)            111.8547         estimate D2E/DX2                !
 ! A7    A(1,3,4)              121.9638         estimate D2E/DX2                !
 ! A8    A(1,3,5)              118.8561         estimate D2E/DX2                !
 ! A9    A(4,3,5)              119.18           estimate D2E/DX2                !
 ! A10   A(3,4,6)              120.3594         estimate D2E/DX2                !
 ! A11   A(3,4,7)              119.5328         estimate D2E/DX2                !
 ! A12   A(6,4,7)              120.105          estimate D2E/DX2                !
 ! A13   A(3,5,8)              120.3308         estimate D2E/DX2                !
 ! A14   A(3,5,9)              119.9934         estimate D2E/DX2                !
 ! A15   A(8,5,9)              119.6757         estimate D2E/DX2                !
 ! A16   A(4,6,10)             120.1808         estimate D2E/DX2                !
 ! A17   A(4,6,11)             119.7743         estimate D2E/DX2                !
 ! A18   A(10,6,11)            120.0449         estimate D2E/DX2                !
 ! A19   A(5,8,10)             120.1766         estimate D2E/DX2                !
 ! A20   A(5,8,12)             119.836          estimate D2E/DX2                !
 ! A21   A(10,8,12)            119.9874         estimate D2E/DX2                !
 ! A22   A(6,10,8)             119.7723         estimate D2E/DX2                !
 ! A23   A(6,10,13)            120.1262         estimate D2E/DX2                !
 ! A24   A(8,10,13)            120.1015         estimate D2E/DX2                !
 ! A25   A(1,14,15)            121.9638         estimate D2E/DX2                !
 ! A26   A(1,14,16)            118.8561         estimate D2E/DX2                !
 ! A27   A(15,14,16)           119.18           estimate D2E/DX2                !
 ! A28   A(14,15,17)           120.3594         estimate D2E/DX2                !
 ! A29   A(14,15,18)           119.5328         estimate D2E/DX2                !
 ! A30   A(17,15,18)           120.105          estimate D2E/DX2                !
 ! A31   A(14,16,19)           120.3308         estimate D2E/DX2                !
 ! A32   A(14,16,20)           119.9934         estimate D2E/DX2                !
 ! A33   A(19,16,20)           119.6757         estimate D2E/DX2                !
 ! A34   A(15,17,21)           120.1808         estimate D2E/DX2                !
 ! A35   A(15,17,22)           119.7743         estimate D2E/DX2                !
 ! A36   A(21,17,22)           120.0449         estimate D2E/DX2                !
 ! A37   A(16,19,21)           120.1766         estimate D2E/DX2                !
 ! A38   A(16,19,23)           119.836          estimate D2E/DX2                !
 ! A39   A(21,19,23)           119.9874         estimate D2E/DX2                !
 ! A40   A(17,21,19)           119.7723         estimate D2E/DX2                !
 ! A41   A(17,21,24)           120.1262         estimate D2E/DX2                !
 ! A42   A(19,21,24)           120.1015         estimate D2E/DX2                !
 ! A43   A(1,25,26)            118.8561         estimate D2E/DX2                !
 ! A44   A(1,25,27)            121.9638         estimate D2E/DX2                !
 ! A45   A(26,25,27)           119.18           estimate D2E/DX2                !
 ! A46   A(25,26,28)           120.3308         estimate D2E/DX2                !
 ! A47   A(25,26,29)           119.9934         estimate D2E/DX2                !
 ! A48   A(28,26,29)           119.6757         estimate D2E/DX2                !
 ! A49   A(25,27,30)           120.3594         estimate D2E/DX2                !
 ! A50   A(25,27,31)           119.5328         estimate D2E/DX2                !
 ! A51   A(30,27,31)           120.105          estimate D2E/DX2                !
 ! A52   A(26,28,32)           120.1766         estimate D2E/DX2                !
 ! A53   A(26,28,33)           119.836          estimate D2E/DX2                !
 ! A54   A(32,28,33)           119.9874         estimate D2E/DX2                !
 ! A55   A(27,30,32)           120.1808         estimate D2E/DX2                !
 ! A56   A(27,30,34)           119.7743         estimate D2E/DX2                !
 ! A57   A(32,30,34)           120.0449         estimate D2E/DX2                !
 ! A58   A(28,32,30)           119.7723         estimate D2E/DX2                !
 ! A59   A(28,32,35)           120.1015         estimate D2E/DX2                !
 ! A60   A(30,32,35)           120.1262         estimate D2E/DX2                !
 ! D1    D(2,1,3,4)            152.7151         estimate D2E/DX2                !
 ! D2    D(2,1,3,5)            -27.409          estimate D2E/DX2                !
 ! D3    D(14,1,3,4)            35.9002         estimate D2E/DX2                !
 ! D4    D(14,1,3,5)          -144.2239         estimate D2E/DX2                !
 ! D5    D(25,1,3,4)           -90.47           estimate D2E/DX2                !
 ! D6    D(25,1,3,5)            89.4059         estimate D2E/DX2                !
 ! D7    D(2,1,14,15)          152.7151         estimate D2E/DX2                !
 ! D8    D(2,1,14,16)          -27.409          estimate D2E/DX2                !
 ! D9    D(3,1,14,15)          -90.47           estimate D2E/DX2                !
 ! D10   D(3,1,14,16)           89.4059         estimate D2E/DX2                !
 ! D11   D(25,1,14,15)          35.9002         estimate D2E/DX2                !
 ! D12   D(25,1,14,16)        -144.2239         estimate D2E/DX2                !
 ! D13   D(2,1,25,26)          -27.409          estimate D2E/DX2                !
 ! D14   D(2,1,25,27)          152.7151         estimate D2E/DX2                !
 ! D15   D(3,1,25,26)         -144.2239         estimate D2E/DX2                !
 ! D16   D(3,1,25,27)           35.9002         estimate D2E/DX2                !
 ! D17   D(14,1,25,26)          89.4059         estimate D2E/DX2                !
 ! D18   D(14,1,25,27)         -90.47           estimate D2E/DX2                !
 ! D19   D(1,3,4,6)            179.9347         estimate D2E/DX2                !
 ! D20   D(1,3,4,7)             -0.6791         estimate D2E/DX2                !
 ! D21   D(5,3,4,6)              0.0591         estimate D2E/DX2                !
 ! D22   D(5,3,4,7)            179.4453         estimate D2E/DX2                !
 ! D23   D(1,3,5,8)           -179.8178         estimate D2E/DX2                !
 ! D24   D(1,3,5,9)              0.0235         estimate D2E/DX2                !
 ! D25   D(4,3,5,8)              0.0616         estimate D2E/DX2                !
 ! D26   D(4,3,5,9)            179.903          estimate D2E/DX2                !
 ! D27   D(3,4,6,10)            -0.1356         estimate D2E/DX2                !
 ! D28   D(3,4,6,11)           179.7864         estimate D2E/DX2                !
 ! D29   D(7,4,6,10)          -179.5183         estimate D2E/DX2                !
 ! D30   D(7,4,6,11)             0.4037         estimate D2E/DX2                !
 ! D31   D(3,5,8,10)            -0.1064         estimate D2E/DX2                !
 ! D32   D(3,5,8,12)           179.9318         estimate D2E/DX2                !
 ! D33   D(9,5,8,10)          -179.9483         estimate D2E/DX2                !
 ! D34   D(9,5,8,12)             0.0899         estimate D2E/DX2                !
 ! D35   D(4,6,10,8)             0.0907         estimate D2E/DX2                !
 ! D36   D(4,6,10,13)         -179.9716         estimate D2E/DX2                !
 ! D37   D(11,6,10,8)         -179.8311         estimate D2E/DX2                !
 ! D38   D(11,6,10,13)           0.1067         estimate D2E/DX2                !
 ! D39   D(5,8,10,6)             0.03           estimate D2E/DX2                !
 ! D40   D(5,8,10,13)         -179.9078         estimate D2E/DX2                !
 ! D41   D(12,8,10,6)          179.9917         estimate D2E/DX2                !
 ! D42   D(12,8,10,13)           0.054          estimate D2E/DX2                !
 ! D43   D(1,14,15,17)         179.9346         estimate D2E/DX2                !
 ! D44   D(1,14,15,18)          -0.6791         estimate D2E/DX2                !
 ! D45   D(16,14,15,17)          0.0591         estimate D2E/DX2                !
 ! D46   D(16,14,15,18)        179.4453         estimate D2E/DX2                !
 ! D47   D(1,14,16,19)        -179.8178         estimate D2E/DX2                !
 ! D48   D(1,14,16,20)           0.0235         estimate D2E/DX2                !
 ! D49   D(15,14,16,19)          0.0616         estimate D2E/DX2                !
 ! D50   D(15,14,16,20)        179.903          estimate D2E/DX2                !
 ! D51   D(14,15,17,21)         -0.1356         estimate D2E/DX2                !
 ! D52   D(14,15,17,22)        179.7864         estimate D2E/DX2                !
 ! D53   D(18,15,17,21)       -179.5183         estimate D2E/DX2                !
 ! D54   D(18,15,17,22)          0.4037         estimate D2E/DX2                !
 ! D55   D(14,16,19,21)         -0.1064         estimate D2E/DX2                !
 ! D56   D(14,16,19,23)        179.9318         estimate D2E/DX2                !
 ! D57   D(20,16,19,21)       -179.9483         estimate D2E/DX2                !
 ! D58   D(20,16,19,23)          0.0899         estimate D2E/DX2                !
 ! D59   D(15,17,21,19)          0.0907         estimate D2E/DX2                !
 ! D60   D(15,17,21,24)       -179.9716         estimate D2E/DX2                !
 ! D61   D(22,17,21,19)       -179.8311         estimate D2E/DX2                !
 ! D62   D(22,17,21,24)          0.1067         estimate D2E/DX2                !
 ! D63   D(16,19,21,17)          0.03           estimate D2E/DX2                !
 ! D64   D(16,19,21,24)       -179.9078         estimate D2E/DX2                !
 ! D65   D(23,19,21,17)        179.9917         estimate D2E/DX2                !
 ! D66   D(23,19,21,24)          0.054          estimate D2E/DX2                !
 ! D67   D(1,25,26,28)        -179.8179         estimate D2E/DX2                !
 ! D68   D(1,25,26,29)           0.0235         estimate D2E/DX2                !
 ! D69   D(27,25,26,28)          0.0616         estimate D2E/DX2                !
 ! D70   D(27,25,26,29)        179.903          estimate D2E/DX2                !
 ! D71   D(1,25,27,30)         179.9347         estimate D2E/DX2                !
 ! D72   D(1,25,27,31)          -0.6791         estimate D2E/DX2                !
 ! D73   D(26,25,27,30)          0.0591         estimate D2E/DX2                !
 ! D74   D(26,25,27,31)        179.4453         estimate D2E/DX2                !
 ! D75   D(25,26,28,32)         -0.1064         estimate D2E/DX2                !
 ! D76   D(25,26,28,33)        179.9318         estimate D2E/DX2                !
 ! D77   D(29,26,28,32)       -179.9483         estimate D2E/DX2                !
 ! D78   D(29,26,28,33)          0.0899         estimate D2E/DX2                !
 ! D79   D(25,27,30,32)         -0.1356         estimate D2E/DX2                !
 ! D80   D(25,27,30,34)        179.7864         estimate D2E/DX2                !
 ! D81   D(31,27,30,32)       -179.5183         estimate D2E/DX2                !
 ! D82   D(31,27,30,34)          0.4037         estimate D2E/DX2                !
 ! D83   D(26,28,32,30)          0.03           estimate D2E/DX2                !
 ! D84   D(26,28,32,35)       -179.9078         estimate D2E/DX2                !
 ! D85   D(33,28,32,30)        179.9917         estimate D2E/DX2                !
 ! D86   D(33,28,32,35)          0.054          estimate D2E/DX2                !
 ! D87   D(27,30,32,28)          0.0907         estimate D2E/DX2                !
 ! D88   D(27,30,32,35)       -179.9716         estimate D2E/DX2                !
 ! D89   D(34,30,32,28)       -179.8311         estimate D2E/DX2                !
 ! D90   D(34,30,32,35)          0.1067         estimate D2E/DX2                !
 --------------------------------------------------------------------------------
 Trust Radius=3.00D-01 FncErr=1.00D-07 GrdErr=1.00D-07
 Number of steps in this run= 197 maximum allowed number of steps= 210.
 GradGradGradGradGradGradGradGradGradGradGradGradGradGradGradGradGradGrad

                          Input orientation:                          
 ---------------------------------------------------------------------
 Center     Atomic      Atomic             Coordinates (Angstroms)
 Number     Number       Type             X           Y           Z
 ---------------------------------------------------------------------
      1          6           0        0.000000    0.000000    0.795543
      2          1           0        0.000000    0.000000    1.918238
      3          6           0       -1.335086    0.547131    0.355315
      4          6           0       -1.498993    1.200883   -0.866768
      5          6           0       -2.439180    0.390615    1.197856
      6          6           0       -2.745545    1.691130   -1.239900
      7          1           0       -0.633608    1.335129   -1.529098
      8          6           0       -3.684436    0.879478    0.821096
      9          1           0       -2.325890   -0.122160    2.160087
     10          6           0       -3.840232    1.530830   -0.397992
     11          1           0       -2.862526    2.205555   -2.199256
     12          1           0       -4.544104    0.751413    1.486895
     13          1           0       -4.821236    1.916706   -0.692829
     14          6           0        1.141372    0.882653    0.355315
     15          6           0        1.789491    0.697724   -0.866768
     16          6           0        1.557872    1.917084    1.197856
     17          6           0        2.837334    1.532147   -1.239900
     18          1           0        1.473060   -0.118844   -1.529098
     19          6           0        2.603868    2.751076    0.821096
     20          1           0        1.057152    2.075360    2.160087
     21          6           0        3.245854    2.560323   -0.397992
     22          1           0        3.341330    1.376243   -2.199256
     23          1           0        2.922795    3.559603    1.486895
     24          1           0        4.070534    3.216960   -0.692829
     25          6           0        0.193714   -1.429784    0.355315
     26          6           0        0.881307   -2.307699    1.197856
     27          6           0       -0.290499   -1.898607   -0.866768
     28          6           0        1.080568   -3.630554    0.821096
     29          1           0        1.268739   -1.953200    2.160087
     30          6           0       -0.091789   -3.223277   -1.239900
     31          1           0       -0.839452   -1.216285   -1.529098
     32          6           0        0.594378   -4.091153   -0.397992
     33          1           0        1.621309   -4.311016    1.486895
     34          1           0       -0.478803   -3.581798   -2.199256
     35          1           0        0.750702   -5.133665   -0.692829
 ---------------------------------------------------------------------
                    Distance matrix (angstroms):
                    1          2          3          4          5
     1  C    0.000000
     2  H    1.122695   0.000000
     3  C    1.508512   2.127096   0.000000
     4  C    2.540153   3.383099   1.395616   0.000000
     5  C    2.502805   2.573155   1.397639   2.408974   0.000000
     6  C    3.813262   4.513511   2.417197   1.390491   2.779902
     7  H    2.754629   3.750754   2.159635   1.097995   3.404185
     8  C    3.788034   3.943637   2.418026   2.779990   1.389820
     9  H    2.699384   2.341619   2.164912   3.405298   1.096203
    10  C    4.302946   4.738749   2.794797   2.410398   2.410346
    11  H    4.693330   5.478347   3.407239   2.155021   3.874739
    12  H    4.657410   4.625966   3.408812   3.874849   2.155093
    13  H    5.397529   5.808248   3.889419   3.402933   3.402622
    14  C    1.508512   2.127096   2.499084   2.926821   3.711109
    15  C    2.540152   3.383099   3.358445   3.326754   4.715787
    16  C    2.502805   2.573155   3.309963   3.757664   4.278613
    17  C    3.813262   4.513511   4.574283   4.364939   5.923458
    18  H    2.754629   3.750754   3.446769   3.318653   4.795982
    19  C    3.788034   3.943637   4.537586   4.699516   5.580865
    20  H    2.699384   2.341619   3.363851   4.057146   3.998573
    21  C    4.302946   4.738749   5.060180   4.957963   6.290784
    22  H    4.693330   5.478347   5.392785   5.023445   6.776882
    23  H    4.657410   4.625966   5.337136   5.536741   6.235126
    24  H    5.397529   5.808248   6.119422   5.925744   7.344337
    25  C    1.508512   2.127096   2.499085   3.358445   3.309963
    26  C    2.502805   2.573155   3.711109   4.715787   4.278613
    27  C    2.540152   3.383099   2.926821   3.326754   3.757664
    28  C    3.788034   3.943637   4.848235   5.731125   5.357273
    29  H    2.699384   2.341619   4.035934   5.174015   4.490882
    30  C    3.813262   4.513511   4.278607   4.657536   4.951072
    31  H    2.754629   3.750754   2.627984   2.591597   3.546482
    32  C    4.302946   4.738749   5.079762   5.710306   5.642291
    33  H    4.657410   4.625966   5.798477   6.757000   6.219039
    34  H    4.693330   5.478347   4.930224   5.068565   5.582429
    35  H    5.397529   5.808248   6.141707   6.724424   6.653398
                    6          7          8          9         10
     6  C    0.000000
     7  H    2.161169   0.000000
     8  C    2.405826   3.877961   0.000000
     9  H    3.876086   4.312493   2.154489   0.000000
    10  C    1.390268   3.405897   1.390937   3.401378   0.000000
    11  H    1.094843   2.484920   3.399491   4.970927   2.157711
    12  H    3.399014   4.972818   1.094860   2.477254   2.157713
    13  H    2.158393   4.309733   2.158732   4.303818   1.094622
    14  C    4.278607   2.627984   4.848235   4.035934   5.079762
    15  C    4.657536   2.591597   5.731125   5.174015   5.710306
    16  C    4.951072   3.546482   5.357273   4.490882   5.642291
    17  C    5.585143   3.488537   6.870747   6.399651   6.730431
    18  H    4.599594   2.559704   5.754982   5.295481   5.677314
    19  C    5.829873   4.243768   6.560918   5.860964   6.670952
    20  H    5.115472   4.125130   5.070078   4.034113   5.551995
    21  C    6.112378   4.222644   7.234661   6.692071   7.160479
    22  H    6.170054   4.031245   7.663595   7.305236   7.405624
    23  H    6.561759   5.166479   7.161135   6.446492   7.308026
    24  H    7.006167   5.135132   8.239863   7.759065   8.093835
    25  C    4.574283   3.446769   4.537586   3.363851   5.060180
    26  C    5.923458   4.795982   5.580865   3.998573   6.290784
    27  C    4.364939   3.318653   4.699516   4.057146   4.957963
    28  C    6.870747   5.754982   6.560918   5.070078   7.234661
    29  H    6.399651   5.295481   5.860964   4.034113   6.692071
    30  C    5.585143   4.599594   5.829873   5.115472   6.112378
    31  H    3.488537   2.559704   4.243768   4.125130   4.222644
    32  C    6.730431   5.677314   6.670952   5.551995   7.160479
    33  H    7.907629   6.786739   7.452211   5.794833   8.216349
    34  H    5.819128   4.964801   6.269098   5.863847   6.378301
    35  H    7.687709   6.667905   7.623668   6.536034   8.098092
                   11         12         13         14         15
    11  H    0.000000
    12  H    4.304642   0.000000
    13  H    2.487830   2.487149   0.000000
    14  C    4.930224   5.798477   6.141707   0.000000
    15  C    5.068564   6.757000   6.724424   1.395616   0.000000
    16  C    5.582429   6.219039   6.653398   1.397639   2.408974
    17  C    5.819128   7.907629   7.687709   2.417197   1.390491
    18  H    4.964801   6.786739   6.667905   2.159635   1.097995
    19  C    6.269098   7.452211   7.623668   2.418026   2.779990
    20  H    5.863847   5.794833   6.536034   2.164912   3.405298
    21  C    6.378301   8.216349   8.098092   2.794797   2.410398
    22  H    6.259040   8.726866   8.317986   3.407239   2.155021
    23  H    6.992217   7.977500   8.210988   3.408812   3.874849
    24  H    7.166560   9.221827   8.986335   3.889419   3.402933
    25  C    5.392785   5.337136   6.119422   2.499084   2.926821
    26  C    6.776881   6.235126   7.344337   3.309963   3.757664
    27  C    5.023445   5.536741   5.925744   3.358445   3.326754
    28  C    7.663595   7.161135   8.239863   4.537586   4.699516
    29  H    7.305236   6.446492   7.759065   3.363851   4.057146
    30  C    6.170054   6.561759   7.006167   4.574283   4.364939
    31  H    4.031245   5.166479   5.135132   3.446769   3.318653
    32  C    7.405624   7.308026   8.093835   5.060180   4.957963
    33  H    8.726866   7.977500   9.221827   5.337136   5.536741
    34  H    6.259040   6.992217   7.166560   5.392785   5.023445
    35  H    8.317986   8.210988   8.986335   6.119422   5.925744
                   16         17         18         19         20
    16  C    0.000000
    17  C    2.779902   0.000000
    18  H    3.404185   2.161169   0.000000
    19  C    1.389820   2.405826   3.877961   0.000000
    20  H    1.096203   3.876086   4.312493   2.154489   0.000000
    21  C    2.410346   1.390268   3.405897   1.390937   3.401378
    22  H    3.874739   1.094843   2.484920   3.399491   4.970927
    23  H    2.155093   3.399014   4.972818   1.094860   2.477254
    24  H    3.402622   2.158393   4.309733   2.158732   4.303818
    25  C    3.711109   4.278607   2.627984   4.848235   4.035934
    26  C    4.278613   4.951072   3.546482   5.357273   4.490882
    27  C    4.715787   4.657536   2.591597   5.731125   5.174015
    28  C    5.580865   5.829873   4.243768   6.560918   5.860964
    29  H    3.998573   5.115472   4.125130   5.070078   4.034113
    30  C    5.923458   5.585143   3.488537   6.870747   6.399651
    31  H    4.795982   4.599594   2.559704   5.754982   5.295481
    32  C    6.290784   6.112378   4.222644   7.234661   6.692071
    33  H    6.235126   6.561759   5.166479   7.161135   6.446492
    34  H    6.776882   6.170054   4.031245   7.663595   7.305236
    35  H    7.344337   7.006167   5.135132   8.239863   7.759065
                   21         22         23         24         25
    21  C    0.000000
    22  H    2.157711   0.000000
    23  H    2.157713   4.304642   0.000000
    24  H    1.094622   2.487830   2.487149   0.000000
    25  C    5.079762   4.930224   5.798477   6.141707   0.000000
    26  C    5.642291   5.582429   6.219039   6.653398   1.397639
    27  C    5.710306   5.068564   6.757000   6.724424   1.395616
    28  C    6.670952   6.269098   7.452211   7.623668   2.418026
    29  H    5.551995   5.863847   5.794833   6.536034   2.164912
    30  C    6.730431   5.819128   7.907629   7.687708   2.417197
    31  H    5.677314   4.964801   6.786739   6.667905   2.159636
    32  C    7.160479   6.378301   8.216349   8.098092   2.794797
    33  H    7.308026   6.992217   7.977500   8.210988   3.408812
    34  H    7.405624   6.259040   8.726866   8.317986   3.407239
    35  H    8.093835   7.166560   9.221827   8.986335   3.889419
                   26         27         28         29         30
    26  C    0.000000
    27  C    2.408974   0.000000
    28  C    1.389820   2.779990   0.000000
    29  H    1.096203   3.405298   2.154489   0.000000
    30  C    2.779902   1.390490   2.405826   3.876086   0.000000
    31  H    3.404185   1.097995   3.877961   4.312493   2.161169
    32  C    2.410346   2.410397   1.390937   3.401378   1.390268
    33  H    2.155093   3.874849   1.094860   2.477254   3.399014
    34  H    3.874739   2.155021   3.399491   4.970927   1.094843
    35  H    3.402622   3.402933   2.158732   4.303818   2.158393
                   31         32         33         34         35
    31  H    0.000000
    32  C    3.405897   0.000000
    33  H    4.972818   2.157713   0.000000
    34  H    2.484920   2.157711   4.304643   0.000000
    35  H    4.309733   1.094622   2.487149   2.487830   0.000000
 Stoichiometry    C19H16
 Framework group  C3[C3(CH),X(C18H15)]
 Deg. of freedom    33
 Full point group                 C3      NOp   3
 Largest Abelian subgroup         C1      NOp   1
 Largest concise Abelian subgroup C1      NOp   1
                         Standard orientation:                         
 ---------------------------------------------------------------------
 Center     Atomic      Atomic             Coordinates (Angstroms)
 Number     Number       Type             X           Y           Z
 ---------------------------------------------------------------------
      1          6           0        0.000000    0.000000    0.779990
      2          1           0        0.000000    0.000000    1.902686
      3          6           0        0.000000    1.442847    0.339763
      4          6           0        0.542772    1.842416   -0.882320
      5          6           0       -0.563501    2.405129    1.182304
      6          6           0        0.523709    3.181771   -1.255453
      7          1           0        0.995148    1.092570   -1.544650
      8          6           0       -0.583353    3.742759    0.805543
      9          1           0       -0.995019    2.105855    2.144535
     10          6           0       -0.039726    4.133914   -0.413544
     11          1           0        0.955354    3.485086   -2.214809
     12          1           0       -1.027841    4.489660    1.471343
     13          1           0       -0.054669    5.187975   -0.708382
     14          6           0        1.249542   -0.721424    0.339763
     15          6           0        1.324193   -1.391263   -0.882320
     16          6           0        2.364653   -0.714558    1.182304
     17          6           0        2.493640   -2.044431   -1.255453
     18          1           0        0.448620   -1.408108   -1.544650
     19          6           0        3.533001   -1.366181    0.805543
     20          1           0        2.321234   -0.191216    2.144535
     21          6           0        3.599937   -2.032553   -0.413544
     22          1           0        2.540496   -2.569904   -2.214809
     23          1           0        4.402080   -1.354693    1.471343
     24          1           0        4.520252   -2.546643   -0.708382
     25          6           0       -1.249542   -0.721424    0.339763
     26          6           0       -1.801152   -1.690570    1.182304
     27          6           0       -1.866965   -0.451153   -0.882320
     28          6           0       -2.949648   -2.376578    0.805543
     29          1           0       -1.326215   -1.914639    2.144535
     30          6           0       -3.017349   -1.137340   -1.255453
     31          1           0       -1.443767    0.315538   -1.544650
     32          6           0       -3.560211   -2.101360   -0.413544
     33          1           0       -3.374239   -3.134967    1.471343
     34          1           0       -3.495850   -0.915182   -2.214809
     35          1           0       -4.465584   -2.641332   -0.708382
 ---------------------------------------------------------------------
 Rotational constants (GHZ):      0.3904001      0.3904001      0.2359836
 Standard basis: 6-311G (5D, 7F)
 There are   295 symmetry adapted basis functions of A   symmetry.
 Integral buffers will be    262144 words long.
 Raffenetti 1 integral format.
 Two-electron integral symmetry is turned on.
   295 basis functions,   574 primitive gaussians,   295 cartesian basis functions
    65 alpha electrons       65 beta electrons
       nuclear repulsion energy      1290.4899506090 Hartrees.
 NAtoms=   35 NActive=   35 NUniq=   13 SFac= 3.00D+00 NAtFMM=   80 NAOKFM=F Big=F
 One-electron integrals computed using PRISM.
 PrsmSu:  requested number of processors reduced to:  10 ShMem   1 Linda.
 NBasis=   295 RedAO= T  NBF=   295
 NBsUse=   295 1.00D-06 NBFU=   295
 Harris functional with IExCor=  205 diagonalized for initial guess.
 ExpMin= 1.03D-01 ExpMax= 4.56D+03 ExpMxC= 6.82D+02 IAcc=1 IRadAn=         1 AccDes= 0.00D+00
 HarFok:  IExCor=  205 AccDes= 0.00D+00 IRadAn=         1 IDoV= 1
 ScaDFX=  1.000000  1.000000  1.000000  1.000000
 FoFCou: FMM=F IPFlag=           0 FMFlag=      100000 FMFlg1=           0
         NFxFlg=           0 DoJE=T BraDBF=F KetDBF=T FulRan=T
         Omega=  0.000000  0.000000  1.000000  0.000000  0.000000 ICntrl=     500 IOpCl=  0
         NMat0=    1 NMatS0=    1 NMatT0=    0 NMatD0=    1 NMtDS0=    0 NMtDT0=    0
         I1Cent=           4 NGrid=           0.
 Petite list used in FoFCou.
 Initial guess orbital symmetries:
       Occupied  (E) (E) (A) (A) (E) (E) (A) (E) (E) (E) (E) (A)
                 (E) (E) (A) (E) (E) (A) (A) (A) (E) (E) (A) (A)
                 (E) (E) (E) (E) (A) (A) (E) (E) (E) (E) (A) (E)
                 (E) (A) (A) (E) (E) (E) (E) (A) (E) (E) (A) (E)
                 (E) (A) (E) (E) (A) (A) (E) (E) (E) (E) (A) (E)
                 (E) (A) (E) (E) (A)
       Virtual   (E) (E) (A) (E) (E) (A) (A) (A) (E) (E) (E) (E)
                 (A) (A) (E) (E) (E) (E) (A) (A) (E) (E) (E) (E)
                 (A) (A) (E) (E) (A) (E) (E) (A) (E) (E) (E) (E)
                 (A) (E) (E) (A) (E) (E) (A) (E) (E) (A) (A) (E)
                 (E) (E) (E) (A) (A) (E) (E) (A) (E) (E) (E) (E)
                 (A) (E) (E) (A) (E) (E) (A) (A) (E) (E) (E) (E)
                 (A) (A) (E) (E) (A) (A) (E) (E) (A) (E) (E) (A)
                 (E) (E) (A) (A) (E) (E) (E) (E) (A) (E) (E) (A)
                 (E) (E) (A) (E) (E) (A) (E) (E) (E) (E) (A) (E)
                 (E) (A) (E) (E) (E) (E) (A) (A) (E) (E) (A) (E)
                 (E) (A) (A) (E) (E) (E) (E) (A) (E) (E) (A) (A)
                 (E) (E) (A) (E) (E) (A) (E) (E) (A) (A) (E) (E)
                 (E) (E) (A) (A) (E) (E) (A) (E) (E) (A) (E) (E)
                 (A) (E) (E) (E) (E) (A) (A) (A) (E) (E) (A) (E)
                 (E) (A) (E) (E) (A) (E) (E) (A) (E) (E) (E) (E)
                 (A) (A) (E) (E) (E) (E) (A) (E) (E) (E) (E) (A)
                 (E) (E) (A) (A) (E) (E) (E) (E) (E) (E) (A) (A)
                 (E) (E) (A) (A) (E) (E) (A) (A) (E) (E) (E) (E)
                 (A) (A) (E) (E) (A) (E) (E) (A) (E) (E) (A) (A)
                 (E) (E)
 The electronic state of the initial guess is 1-A.
 Requested convergence on RMS density matrix=1.00D-08 within 128 cycles.
 Requested convergence on MAX density matrix=1.00D-06.
 Requested convergence on             energy=1.00D-06.
 No special actions if energy rises.
 Integral accuracy reduced to 1.0D-05 until final iterations.
 Initial convergence to 1.0D-05 achieved.  Increase integral accuracy.
 SCF Done:  E(RHF) =  -728.678007371     A.U. after   14 cycles
             Convg  =    0.6802D-08             -V/T =  2.0001

 **********************************************************************

            Population analysis using the SCF density.

 **********************************************************************

 Orbital symmetries:
       Occupied  (A) (E) (E) (A) (E) (E) (A) (A) (E) (E) (E) (E)
                 (A) (E) (E) (A) (E) (E) (A) (A) (E) (E) (A) (A)
                 (E) (E) (E) (E) (A) (A) (E) (E) (E) (E) (A) (E)
                 (E) (A) (A) (E) (E) (E) (E) (A) (A) (E) (E) (E)
                 (E) (A) (A) (E) (E) (A) (E) (E) (A) (E) (E) (E)
                 (E) (A) (E) (E) (A)
       Virtual   (E) (E) (A) (A) (E) (E) (A) (E) (E) (A) (A) (E)
                 (E) (E) (E) (A) (E) (E) (A) (E) (E) (A) (E) (E)
                 (A) (E) (E) (A) (A) (A) (E) (E) (E) (E) (E) (E)
                 (A) (A) (E) (E) (A) (E) (E) (E) (E) (A) (E) (E)
                 (A) (A) (E) (E) (A) (E) (E) (A) (E) (E) (A) (E)
                 (E) (E) (E) (A) (A) (E) (E) (A) (E) (E) (A) (E)
                 (E) (A) (E) (E) (A) (E) (E) (A) (A) (E) (E) (E)
                 (E) (A) (E) (E) (A) (E) (E) (A) (A) (E) (E) (A)
                 (E) (E) (A) (E) (E) (E) (E) (A) (E) (E) (A) (E)
                 (E) (A) (E) (E) (E) (E) (A) (A) (A) (E) (E) (A)
                 (E) (E) (A) (E) (E) (A) (E) (E) (A) (E) (E) (A)
                 (E) (E) (A) (E) (E) (A) (E) (E) (A) (E) (E) (A)
                 (E) (E) (A) (E) (E) (A) (A) (E) (E) (A) (A) (E)
                 (E) (E) (E) (A) (E) (E) (A) (A) (E) (E) (E) (E)
                 (A) (E) (E) (A) (A) (E) (E) (A) (E) (E) (E) (E)
                 (A) (A) (E) (E) (E) (E) (A) (E) (E) (A) (E) (E)
                 (A) (E) (E) (A) (E) (E) (E) (E) (E) (E) (A) (A)
                 (A) (E) (E) (A) (E) (E) (A) (A) (E) (E) (E) (E)
                 (A) (A) (E) (E) (A) (E) (E) (A) (E) (E) (A) (A)
                 (E) (E)
 The electronic state is 1-A.
 Alpha  occ. eigenvalues --  -11.25719 -11.25094 -11.25094 -11.25088 -11.24308
 Alpha  occ. eigenvalues --  -11.24308 -11.24308 -11.24285 -11.24285 -11.24285
 Alpha  occ. eigenvalues --  -11.24022 -11.24022 -11.24021 -11.23962 -11.23962
 Alpha  occ. eigenvalues --  -11.23962 -11.23817 -11.23817 -11.23817  -1.18581
 Alpha  occ. eigenvalues --   -1.15711  -1.15711  -1.09023  -1.02189  -1.02041
 Alpha  occ. eigenvalues --   -1.02041  -1.01366  -1.01366  -0.92882  -0.84084
 Alpha  occ. eigenvalues --   -0.82990  -0.82990  -0.81453  -0.81453  -0.77511
 Alpha  occ. eigenvalues --   -0.70623  -0.70623  -0.68788  -0.65640  -0.63790
 Alpha  occ. eigenvalues --   -0.63790  -0.61930  -0.61930  -0.61742  -0.59101
 Alpha  occ. eigenvalues --   -0.58735  -0.58735  -0.58059  -0.58059  -0.54336
 Alpha  occ. eigenvalues --   -0.51186  -0.50834  -0.50834  -0.49661  -0.49106
 Alpha  occ. eigenvalues --   -0.49106  -0.47443  -0.47177  -0.47177  -0.34452
 Alpha  occ. eigenvalues --   -0.34452  -0.34002  -0.33231  -0.33231  -0.31218
 Alpha virt. eigenvalues --    0.12199   0.12199   0.12409   0.14449   0.14459
 Alpha virt. eigenvalues --    0.14459   0.15131   0.16316   0.16316   0.17109
 Alpha virt. eigenvalues --    0.19070   0.19126   0.19126   0.21253   0.21253
 Alpha virt. eigenvalues --    0.21552   0.23846   0.23846   0.24470   0.26753
 Alpha virt. eigenvalues --    0.26753   0.28540   0.34017   0.34017   0.35100
 Alpha virt. eigenvalues --    0.39173   0.39173   0.39338   0.41079   0.43772
 Alpha virt. eigenvalues --    0.43878   0.43878   0.44970   0.44970   0.45562
 Alpha virt. eigenvalues --    0.45562   0.45805   0.48356   0.49766   0.49766
 Alpha virt. eigenvalues --    0.50697   0.50881   0.50881   0.55385   0.55385
 Alpha virt. eigenvalues --    0.57220   0.58705   0.58705   0.58766   0.59459
 Alpha virt. eigenvalues --    0.60069   0.60069   0.61457   0.61554   0.61554
 Alpha virt. eigenvalues --    0.61702   0.62244   0.62244   0.63518   0.63794
 Alpha virt. eigenvalues --    0.63794   0.65423   0.65423   0.66725   0.67125
 Alpha virt. eigenvalues --    0.67866   0.67866   0.69142   0.70655   0.70655
 Alpha virt. eigenvalues --    0.73048   0.74592   0.74592   0.74989   0.75570
 Alpha virt. eigenvalues --    0.75570   0.78157   0.80255   0.80255   0.80276
 Alpha virt. eigenvalues --    0.81938   0.82009   0.82009   0.82964   0.82964
 Alpha virt. eigenvalues --    0.83740   0.84371   0.84371   0.85146   0.86018
 Alpha virt. eigenvalues --    0.86018   0.86226   0.87297   0.87740   0.87740
 Alpha virt. eigenvalues --    0.88558   0.90867   0.90867   0.92787   0.94596
 Alpha virt. eigenvalues --    0.94596   0.97230   0.97230   0.97798   1.00020
 Alpha virt. eigenvalues --    1.00020   1.00724   1.04033   1.04033   1.06244
 Alpha virt. eigenvalues --    1.07013   1.07013   1.08763   1.08763   1.09860
 Alpha virt. eigenvalues --    1.11118   1.12257   1.12929   1.12929   1.14209
 Alpha virt. eigenvalues --    1.14661   1.14661   1.17903   1.20745   1.20745
 Alpha virt. eigenvalues --    1.26746   1.27484   1.27484   1.28635   1.30052
 Alpha virt. eigenvalues --    1.30052   1.39631   1.40628   1.40628   1.49085
 Alpha virt. eigenvalues --    1.52298   1.52298   1.54949   2.55826   2.55826
 Alpha virt. eigenvalues --    2.56441   2.61667   2.61667   2.61683   2.66497
 Alpha virt. eigenvalues --    2.66497   2.67959   2.70424   2.70424   2.70914
 Alpha virt. eigenvalues --    2.78503   2.84841   2.84841   2.88596   2.94545
 Alpha virt. eigenvalues --    2.94637   2.94637   2.97627   2.97627   2.97664
 Alpha virt. eigenvalues --    3.01453   3.01453   3.04372   3.06195   3.07556
 Alpha virt. eigenvalues --    3.07556   3.08640   3.08640   3.09337   3.15404
 Alpha virt. eigenvalues --    3.15404   3.15667   3.17440   3.18980   3.18980
 Alpha virt. eigenvalues --    3.23301   3.25377   3.25377   3.28854   3.28854
 Alpha virt. eigenvalues --    3.29671   3.33102   3.34955   3.34955   3.42288
 Alpha virt. eigenvalues --    3.42288   3.43281   3.48635   3.48635   3.53956
 Alpha virt. eigenvalues --    3.54095   3.54095   3.59981   3.60370   3.60370
 Alpha virt. eigenvalues --    3.63116   3.63599   3.63599   3.65835   3.65835
 Alpha virt. eigenvalues --    3.69780   3.69780   3.70515   3.70709   3.75210
 Alpha virt. eigenvalues --    3.75888   3.75888   3.84500   3.87405   3.87405
 Alpha virt. eigenvalues --    3.91516  24.25945  24.31581  24.31581  24.50734
 Alpha virt. eigenvalues --   24.50734  24.51245  24.54559  24.55841  24.55841
 Alpha virt. eigenvalues --   24.77623  24.79320  24.79320  24.79930  24.80807
 Alpha virt. eigenvalues --   24.80807  24.83368  25.05338  25.06148  25.06148
          Condensed to atoms (all electrons):
              1          2          3          4          5          6
     1  C    5.860054   0.483497   0.145348  -0.041045  -0.054750   0.004230
     2  H    0.483497   0.515250  -0.072048   0.005310  -0.001098  -0.000241
     3  C    0.145348  -0.072048   5.358095   0.479711   0.484055  -0.067596
     4  C   -0.041045   0.005310   0.479711   5.114319  -0.068550   0.469009
     5  C   -0.054750  -0.001098   0.484055  -0.068550   5.058658  -0.031787
     6  C    0.004230  -0.000241  -0.067596   0.469009  -0.031787   5.051871
     7  H   -0.000822  -0.000120  -0.042558   0.392271   0.004178  -0.029816
     8  C    0.007237   0.001485  -0.065761  -0.029440   0.463591  -0.075859
     9  H    0.000500   0.001471  -0.048781   0.004432   0.399237  -0.000423
    10  C    0.001167  -0.000011  -0.016408  -0.093820  -0.087607   0.496693
    11  H   -0.000337   0.000014   0.006123  -0.037811  -0.000379   0.396176
    12  H   -0.000372  -0.000026   0.006680  -0.000533  -0.039633   0.006116
    13  H   -0.000017  -0.000001  -0.001541   0.007823   0.007433  -0.042466
    14  C    0.145348  -0.072048  -0.097313  -0.018590   0.005708   0.000102
    15  C   -0.041045   0.005310  -0.008198  -0.005096  -0.000166  -0.000019
    16  C   -0.054750  -0.001098  -0.001114   0.000251   0.000841  -0.000166
    17  C    0.004230  -0.000241   0.000683  -0.001070   0.000022  -0.000022
    18  H   -0.000822  -0.000120  -0.000796   0.000740  -0.000018   0.000043
    19  C    0.007237   0.001485  -0.000633   0.000382   0.000003  -0.000009
    20  H    0.000500   0.001471   0.000948   0.000221   0.000233   0.000007
    21  C    0.001167  -0.000011   0.000039   0.000068  -0.000001   0.000005
    22  H   -0.000337   0.000014  -0.000003   0.000016   0.000000   0.000001
    23  H   -0.000372  -0.000026   0.000024   0.000003   0.000000   0.000000
    24  H   -0.000017  -0.000001   0.000000  -0.000001   0.000000   0.000000
    25  C    0.145348  -0.072048  -0.097313  -0.008198  -0.001114   0.000683
    26  C   -0.054750  -0.001098   0.005708  -0.000166   0.000841   0.000022
    27  C   -0.041045   0.005310  -0.018590  -0.005096   0.000251  -0.001070
    28  C    0.007237   0.001485  -0.000776   0.000027  -0.000034   0.000000
    29  H    0.000500   0.001471   0.000485  -0.000031   0.000044   0.000000
    30  C    0.004230  -0.000241   0.000102  -0.000019  -0.000166  -0.000022
    31  H   -0.000822  -0.000120  -0.001965   0.001451  -0.000872   0.000921
    32  C    0.001167  -0.000011   0.000097  -0.000017  -0.000009   0.000000
    33  H   -0.000372  -0.000026   0.000011   0.000000   0.000001   0.000000
    34  H   -0.000337   0.000014   0.000029   0.000018   0.000007   0.000000
    35  H   -0.000017  -0.000001  -0.000001   0.000000   0.000000   0.000000
              7          8          9         10         11         12
     1  C   -0.000822   0.007237   0.000500   0.001167  -0.000337  -0.000372
     2  H   -0.000120   0.001485   0.001471  -0.000011   0.000014  -0.000026
     3  C   -0.042558  -0.065761  -0.048781  -0.016408   0.006123   0.006680
     4  C    0.392271  -0.029440   0.004432  -0.093820  -0.037811  -0.000533
     5  C    0.004178   0.463591   0.399237  -0.087607  -0.000379  -0.039633
     6  C   -0.029816  -0.075859  -0.000423   0.496693   0.396176   0.006116
     7  H    0.474227  -0.000227  -0.000239   0.004623  -0.003310   0.000018
     8  C   -0.000227   5.055107  -0.036074   0.490312   0.005932   0.397067
     9  H   -0.000239  -0.036074   0.507677   0.005357   0.000022  -0.004229
    10  C    0.004623   0.490312   0.005357   5.033052  -0.040228  -0.040639
    11  H   -0.003310   0.005932   0.000022  -0.040228   0.515678  -0.000211
    12  H    0.000018   0.397067  -0.004229  -0.040639  -0.000211   0.517970
    13  H   -0.000174  -0.042930  -0.000179   0.399527  -0.004402  -0.004493
    14  C   -0.001965  -0.000776   0.000485   0.000097   0.000029   0.000011
    15  C    0.001451   0.000027  -0.000031  -0.000017   0.000018   0.000000
    16  C   -0.000872  -0.000034   0.000044  -0.000009   0.000007   0.000001
    17  C    0.000921   0.000000   0.000000   0.000000   0.000000   0.000000
    18  H    0.000218   0.000003   0.000000   0.000000  -0.000007   0.000000
    19  C   -0.000190   0.000002   0.000001   0.000000   0.000001   0.000000
    20  H   -0.000038  -0.000005  -0.000001  -0.000009   0.000000   0.000000
    21  C    0.000002   0.000000   0.000000   0.000000  -0.000001   0.000000
    22  H    0.000007   0.000000   0.000000   0.000000   0.000000   0.000000
    23  H    0.000003   0.000000   0.000000   0.000000   0.000000   0.000000
    24  H    0.000000   0.000000   0.000000   0.000000   0.000000   0.000000
    25  C   -0.000796  -0.000633   0.000948   0.000039  -0.000003   0.000024
    26  C   -0.000018   0.000003   0.000233  -0.000001   0.000000   0.000000
    27  C    0.000740   0.000382   0.000221   0.000068   0.000016   0.000003
    28  C    0.000003   0.000002  -0.000005   0.000000   0.000000   0.000000
    29  H    0.000000   0.000001  -0.000001   0.000000   0.000000   0.000000
    30  C    0.000043  -0.000009   0.000007   0.000005   0.000001   0.000000
    31  H    0.000218  -0.000190  -0.000038   0.000002   0.000007   0.000003
    32  C    0.000000   0.000000  -0.000009   0.000000   0.000000   0.000000
    33  H    0.000000   0.000000   0.000000   0.000000   0.000000   0.000000
    34  H   -0.000007   0.000001   0.000000  -0.000001   0.000000   0.000000
    35  H    0.000000   0.000000   0.000000   0.000000   0.000000   0.000000
             13         14         15         16         17         18
     1  C   -0.000017   0.145348  -0.041045  -0.054750   0.004230  -0.000822
     2  H   -0.000001  -0.072048   0.005310  -0.001098  -0.000241  -0.000120
     3  C   -0.001541  -0.097313  -0.008198  -0.001114   0.000683  -0.000796
     4  C    0.007823  -0.018590  -0.005096   0.000251  -0.001070   0.000740
     5  C    0.007433   0.005708  -0.000166   0.000841   0.000022  -0.000018
     6  C   -0.042466   0.000102  -0.000019  -0.000166  -0.000022   0.000043
     7  H   -0.000174  -0.001965   0.001451  -0.000872   0.000921   0.000218
     8  C   -0.042930  -0.000776   0.000027  -0.000034   0.000000   0.000003
     9  H   -0.000179   0.000485  -0.000031   0.000044   0.000000   0.000000
    10  C    0.399527   0.000097  -0.000017  -0.000009   0.000000   0.000000
    11  H   -0.004402   0.000029   0.000018   0.000007   0.000000  -0.000007
    12  H   -0.004493   0.000011   0.000000   0.000001   0.000000   0.000000
    13  H    0.517933  -0.000001   0.000000   0.000000   0.000000   0.000000
    14  C   -0.000001   5.358095   0.479711   0.484055  -0.067596  -0.042558
    15  C    0.000000   0.479711   5.114319  -0.068550   0.469009   0.392271
    16  C    0.000000   0.484055  -0.068550   5.058658  -0.031787   0.004178
    17  C    0.000000  -0.067596   0.469009  -0.031787   5.051871  -0.029816
    18  H    0.000000  -0.042558   0.392271   0.004178  -0.029816   0.474227
    19  C    0.000000  -0.065761  -0.029440   0.463591  -0.075859  -0.000227
    20  H    0.000000  -0.048781   0.004432   0.399237  -0.000423  -0.000239
    21  C    0.000000  -0.016408  -0.093820  -0.087607   0.496693   0.004623
    22  H    0.000000   0.006123  -0.037811  -0.000379   0.396176  -0.003310
    23  H    0.000000   0.006680  -0.000533  -0.039633   0.006116   0.000018
    24  H    0.000000  -0.001541   0.007823   0.007433  -0.042466  -0.000174
    25  C    0.000000  -0.097313  -0.018590   0.005708   0.000102  -0.001965
    26  C    0.000000  -0.001114   0.000251   0.000841  -0.000166  -0.000872
    27  C   -0.000001  -0.008198  -0.005096  -0.000166  -0.000019   0.001451
    28  C    0.000000  -0.000633   0.000382   0.000003  -0.000009  -0.000190
    29  H    0.000000   0.000948   0.000221   0.000233   0.000007  -0.000038
    30  C    0.000000   0.000683  -0.001070   0.000022  -0.000022   0.000921
    31  H    0.000000  -0.000796   0.000740  -0.000018   0.000043   0.000218
    32  C    0.000000   0.000039   0.000068  -0.000001   0.000005   0.000002
    33  H    0.000000   0.000024   0.000003   0.000000   0.000000   0.000003
    34  H    0.000000  -0.000003   0.000016   0.000000   0.000001   0.000007
    35  H    0.000000   0.000000  -0.000001   0.000000   0.000000   0.000000
             19         20         21         22         23         24
     1  C    0.007237   0.000500   0.001167  -0.000337  -0.000372  -0.000017
     2  H    0.001485   0.001471  -0.000011   0.000014  -0.000026  -0.000001
     3  C   -0.000633   0.000948   0.000039  -0.000003   0.000024   0.000000
     4  C    0.000382   0.000221   0.000068   0.000016   0.000003  -0.000001
     5  C    0.000003   0.000233  -0.000001   0.000000   0.000000   0.000000
     6  C   -0.000009   0.000007   0.000005   0.000001   0.000000   0.000000
     7  H   -0.000190  -0.000038   0.000002   0.000007   0.000003   0.000000
     8  C    0.000002  -0.000005   0.000000   0.000000   0.000000   0.000000
     9  H    0.000001  -0.000001   0.000000   0.000000   0.000000   0.000000
    10  C    0.000000  -0.000009   0.000000   0.000000   0.000000   0.000000
    11  H    0.000001   0.000000  -0.000001   0.000000   0.000000   0.000000
    12  H    0.000000   0.000000   0.000000   0.000000   0.000000   0.000000
    13  H    0.000000   0.000000   0.000000   0.000000   0.000000   0.000000
    14  C   -0.065761  -0.048781  -0.016408   0.006123   0.006680  -0.001541
    15  C   -0.029440   0.004432  -0.093820  -0.037811  -0.000533   0.007823
    16  C    0.463591   0.399237  -0.087607  -0.000379  -0.039633   0.007433
    17  C   -0.075859  -0.000423   0.496693   0.396176   0.006116  -0.042466
    18  H   -0.000227  -0.000239   0.004623  -0.003310   0.000018  -0.000174
    19  C    5.055107  -0.036074   0.490312   0.005932   0.397067  -0.042930
    20  H   -0.036074   0.507677   0.005357   0.000022  -0.004229  -0.000179
    21  C    0.490312   0.005357   5.033052  -0.040228  -0.040639   0.399527
    22  H    0.005932   0.000022  -0.040228   0.515678  -0.000211  -0.004402
    23  H    0.397067  -0.004229  -0.040639  -0.000211   0.517970  -0.004493
    24  H   -0.042930  -0.000179   0.399527  -0.004402  -0.004493   0.517933
    25  C   -0.000776   0.000485   0.000097   0.000029   0.000011  -0.000001
    26  C   -0.000034   0.000044  -0.000009   0.000007   0.000001   0.000000
    27  C    0.000027  -0.000031  -0.000017   0.000018   0.000000   0.000000
    28  C    0.000002   0.000001   0.000000   0.000001   0.000000   0.000000
    29  H   -0.000005  -0.000001  -0.000009   0.000000   0.000000   0.000000
    30  C    0.000000   0.000000   0.000000   0.000000   0.000000   0.000000
    31  H    0.000003   0.000000   0.000000  -0.000007   0.000000   0.000000
    32  C    0.000000   0.000000   0.000000  -0.000001   0.000000   0.000000
    33  H    0.000000   0.000000   0.000000   0.000000   0.000000   0.000000
    34  H    0.000000   0.000000   0.000000   0.000000   0.000000   0.000000
    35  H    0.000000   0.000000   0.000000   0.000000   0.000000   0.000000
             25         26         27         28         29         30
     1  C    0.145348  -0.054750  -0.041045   0.007237   0.000500   0.004230
     2  H   -0.072048  -0.001098   0.005310   0.001485   0.001471  -0.000241
     3  C   -0.097313   0.005708  -0.018590  -0.000776   0.000485   0.000102
     4  C   -0.008198  -0.000166  -0.005096   0.000027  -0.000031  -0.000019
     5  C   -0.001114   0.000841   0.000251  -0.000034   0.000044  -0.000166
     6  C    0.000683   0.000022  -0.001070   0.000000   0.000000  -0.000022
     7  H   -0.000796  -0.000018   0.000740   0.000003   0.000000   0.000043
     8  C   -0.000633   0.000003   0.000382   0.000002   0.000001  -0.000009
     9  H    0.000948   0.000233   0.000221  -0.000005  -0.000001   0.000007
    10  C    0.000039  -0.000001   0.000068   0.000000   0.000000   0.000005
    11  H   -0.000003   0.000000   0.000016   0.000000   0.000000   0.000001
    12  H    0.000024   0.000000   0.000003   0.000000   0.000000   0.000000
    13  H    0.000000   0.000000  -0.000001   0.000000   0.000000   0.000000
    14  C   -0.097313  -0.001114  -0.008198  -0.000633   0.000948   0.000683
    15  C   -0.018590   0.000251  -0.005096   0.000382   0.000221  -0.001070
    16  C    0.005708   0.000841  -0.000166   0.000003   0.000233   0.000022
    17  C    0.000102  -0.000166  -0.000019  -0.000009   0.000007  -0.000022
    18  H   -0.001965  -0.000872   0.001451  -0.000190  -0.000038   0.000921
    19  C   -0.000776  -0.000034   0.000027   0.000002  -0.000005   0.000000
    20  H    0.000485   0.000044  -0.000031   0.000001  -0.000001   0.000000
    21  C    0.000097  -0.000009  -0.000017   0.000000  -0.000009   0.000000
    22  H    0.000029   0.000007   0.000018   0.000001   0.000000   0.000000
    23  H    0.000011   0.000001   0.000000   0.000000   0.000000   0.000000
    24  H   -0.000001   0.000000   0.000000   0.000000   0.000000   0.000000
    25  C    5.358095   0.484055   0.479711  -0.065761  -0.048781  -0.067596
    26  C    0.484055   5.058658  -0.068550   0.463591   0.399237  -0.031787
    27  C    0.479711  -0.068550   5.114319  -0.029440   0.004432   0.469009
    28  C   -0.065761   0.463591  -0.029440   5.055107  -0.036074  -0.075859
    29  H   -0.048781   0.399237   0.004432  -0.036074   0.507677  -0.000423
    30  C   -0.067596  -0.031787   0.469009  -0.075859  -0.000423   5.051871
    31  H   -0.042558   0.004178   0.392271  -0.000227  -0.000239  -0.029816
    32  C   -0.016408  -0.087607  -0.093820   0.490312   0.005357   0.496693
    33  H    0.006680  -0.039633  -0.000533   0.397067  -0.004229   0.006116
    34  H    0.006123  -0.000379  -0.037811   0.005932   0.000022   0.396176
    35  H   -0.001541   0.007433   0.007823  -0.042930  -0.000179  -0.042466
             31         32         33         34         35
     1  C   -0.000822   0.001167  -0.000372  -0.000337  -0.000017
     2  H   -0.000120  -0.000011  -0.000026   0.000014  -0.000001
     3  C   -0.001965   0.000097   0.000011   0.000029  -0.000001
     4  C    0.001451  -0.000017   0.000000   0.000018   0.000000
     5  C   -0.000872  -0.000009   0.000001   0.000007   0.000000
     6  C    0.000921   0.000000   0.000000   0.000000   0.000000
     7  H    0.000218   0.000000   0.000000  -0.000007   0.000000
     8  C   -0.000190   0.000000   0.000000   0.000001   0.000000
     9  H   -0.000038  -0.000009   0.000000   0.000000   0.000000
    10  C    0.000002   0.000000   0.000000  -0.000001   0.000000
    11  H    0.000007   0.000000   0.000000   0.000000   0.000000
    12  H    0.000003   0.000000   0.000000   0.000000   0.000000
    13  H    0.000000   0.000000   0.000000   0.000000   0.000000
    14  C   -0.000796   0.000039   0.000024  -0.000003   0.000000
    15  C    0.000740   0.000068   0.000003   0.000016  -0.000001
    16  C   -0.000018  -0.000001   0.000000   0.000000   0.000000
    17  C    0.000043   0.000005   0.000000   0.000001   0.000000
    18  H    0.000218   0.000002   0.000003   0.000007   0.000000
    19  C    0.000003   0.000000   0.000000   0.000000   0.000000
    20  H    0.000000   0.000000   0.000000   0.000000   0.000000
    21  C    0.000000   0.000000   0.000000   0.000000   0.000000
    22  H   -0.000007  -0.000001   0.000000   0.000000   0.000000
    23  H    0.000000   0.000000   0.000000   0.000000   0.000000
    24  H    0.000000   0.000000   0.000000   0.000000   0.000000
    25  C   -0.042558  -0.016408   0.006680   0.006123  -0.001541
    26  C    0.004178  -0.087607  -0.039633  -0.000379   0.007433
    27  C    0.392271  -0.093820  -0.000533  -0.037811   0.007823
    28  C   -0.000227   0.490312   0.397067   0.005932  -0.042930
    29  H   -0.000239   0.005357  -0.004229   0.000022  -0.000179
    30  C   -0.029816   0.496693   0.006116   0.396176  -0.042466
    31  H    0.474227   0.004623   0.000018  -0.003310  -0.000174
    32  C    0.004623   5.033052  -0.040639  -0.040228   0.399527
    33  H    0.000018  -0.040639   0.517970  -0.000211  -0.004493
    34  H   -0.003310  -0.040228  -0.000211   0.515678  -0.004402
    35  H   -0.000174   0.399527  -0.004493  -0.004402   0.517933
 Mulliken atomic charges:
              1
     1  C   -0.526975
     2  H    0.197050
     3  C    0.053258
     4  C   -0.166569
     5  C   -0.138918
     6  C   -0.176385
     7  H    0.202227
     8  C   -0.169215
     9  H    0.169374
    10  C   -0.152194
    11  H    0.162665
    12  H    0.162243
    13  H    0.163489
    14  C    0.053258
    15  C   -0.166569
    16  C   -0.138918
    17  C   -0.176385
    18  H    0.202227
    19  C   -0.169215
    20  H    0.169374
    21  C   -0.152194
    22  H    0.162665
    23  H    0.162243
    24  H    0.163489
    25  C    0.053258
    26  C   -0.138918
    27  C   -0.166569
    28  C   -0.169215
    29  H    0.169374
    30  C   -0.176385
    31  H    0.202227
    32  C   -0.152194
    33  H    0.162243
    34  H    0.162665
    35  H    0.163489
 Sum of Mulliken atomic charges =   0.00000
 Mulliken charges with hydrogens summed into heavy atoms:
              1
     1  C   -0.329925
     3  C    0.053258
     4  C    0.035658
     5  C    0.030456
     6  C   -0.013721
     8  C   -0.006971
    10  C    0.011295
    14  C    0.053258
    15  C    0.035658
    16  C    0.030456
    17  C   -0.013721
    19  C   -0.006971
    21  C    0.011295
    25  C    0.053258
    26  C    0.030456
    27  C    0.035658
    28  C   -0.006971
    30  C   -0.013721
    32  C    0.011295
 Sum of Mulliken charges with hydrogens summed into heavy atoms =   0.00000
 Electronic spatial extent (au):  <R**2>=           4916.3637
 Charge=              0.0000 electrons
 Dipole moment (field-independent basis, Debye):
    X=              0.0000    Y=              0.0000    Z=              0.0248  Tot=              0.0248
 Quadrupole moment (field-independent basis, Debye-Ang):
   XX=           -111.4813   YY=           -111.4813   ZZ=           -104.6913
   XY=              0.0000   XZ=              0.0000   YZ=              0.0000
 Traceless Quadrupole moment (field-independent basis, Debye-Ang):
   XX=             -2.2633   YY=             -2.2633   ZZ=              4.5266
   XY=              0.0000   XZ=              0.0000   YZ=              0.0000
 Octapole moment (field-independent basis, Debye-Ang**2):
  XXX=             13.7740  YYY=             39.5240  ZZZ=              0.7910  XYY=            -13.7740
  XXY=            -39.5240  XXZ=             -3.6054  XZZ=              0.0000  YZZ=              0.0000
  YYZ=             -3.6054  XYZ=              0.0000
 Hexadecapole moment (field-independent basis, Debye-Ang**3):
 XXXX=          -2984.8249 YYYY=          -2984.8249 ZZZZ=           -746.6166 XXXY=              0.0000
 XXXZ=             76.0061 YYYX=              0.0000 YYYZ=            -17.5128 ZZZX=              0.0000
 ZZZY=              0.0000 XXYY=           -994.9416 XXZZ=           -612.5687 YYZZ=           -612.5687
 XXYZ=             17.5128 YYXZ=            -76.0061 ZZXY=              0.0000
 N-N= 1.290489950609D+03 E-N=-4.277080525782D+03  KE= 7.285958275961D+02
 PrsmSu:  requested number of processors reduced to:  10 ShMem   1 Linda.
 Calling FoFJK, ICntrl=      2127 FMM=F ISym2X=1 I1Cent= 0 IOpClX= 0 NMat=1 NMatS=1 NMatT=0.
 ***** Axes restored to original set *****
 -------------------------------------------------------------------
 Center     Atomic                   Forces (Hartrees/Bohr)
 Number     Number              X              Y              Z
 -------------------------------------------------------------------
      1        6           0.000000000    0.000000000    0.022604402
      2        1           0.000000000    0.000000000   -0.025906320
      3        6          -0.011723022    0.006756149    0.003161648
      4        6           0.007816059    0.002938674   -0.006164478
      5        6          -0.000757718   -0.002829120    0.005389975
      6        6          -0.001815912    0.004961826   -0.011150065
      7        1          -0.017954441   -0.000354534    0.012008680
      8        6          -0.010350462   -0.001922419    0.007720193
      9        1          -0.001057468    0.008097580   -0.015301120
     10        6          -0.012171958    0.004705435   -0.003716438
     11        1           0.001699317   -0.007803230    0.014661369
     12        1           0.013049199    0.002149063   -0.010129822
     13        1           0.015044707   -0.005722292    0.004620697
     14        6           0.011712508    0.006774360    0.003161648
     15        6          -0.001363063   -0.008238242   -0.006164478
     16        6          -0.002071231    0.002070763    0.005389975
     17        6           0.005205023   -0.000908287   -0.011150065
     18        1           0.008670185    0.015726269    0.012008680
     19        6           0.003510367    0.009924973    0.007720193
     20        1           0.007541444   -0.003132996   -0.015301120
     21        6           0.010161005    0.008188507   -0.003716438
     22        1          -0.007607454    0.002429963    0.014661369
     23        1          -0.004663456   -0.012375470   -0.010129822
     24        1          -0.012478004   -0.010167953    0.004620697
     25        6           0.000010514   -0.013530510    0.003161648
     26        6           0.002828949    0.000758357    0.005389975
     27        6          -0.006452996    0.005299568   -0.006164478
     28        6           0.006840095   -0.008002554    0.007720193
     29        1          -0.006483976   -0.004964584   -0.015301120
     30        6          -0.003389111   -0.004053539   -0.011150065
     31        1           0.009284256   -0.015371735    0.012008680
     32        6           0.002010952   -0.012893942   -0.003716438
     33        1          -0.008385743    0.010226406   -0.010129822
     34        1           0.005908137    0.005373267    0.014661369
     35        1          -0.002566703    0.015890245    0.004620697
 -------------------------------------------------------------------
 Cartesian Forces:  Max     0.025906320 RMS     0.009013380

 GradGradGradGradGradGradGradGradGradGradGradGradGradGradGradGradGradGrad
 Berny optimization.
 Internal  Forces:  Max     0.025906320 RMS     0.006585539
 Search for a local minimum.
 Step number   1 out of a maximum of  197
 All quantities printed in internal units (Hartrees-Bohrs-Radians)
 Mixed Optimization -- RFO/linear search
 Second derivative matrix not updated -- first step.
     Eigenvalues ---    0.00653   0.00653   0.00653   0.01538   0.01538
     Eigenvalues ---    0.01538   0.02142   0.02142   0.02142   0.02171
     Eigenvalues ---    0.02171   0.02171   0.02181   0.02181   0.02181
     Eigenvalues ---    0.02201   0.02201   0.02201   0.02212   0.02212
     Eigenvalues ---    0.02212   0.02215   0.02215   0.02215   0.02216
     Eigenvalues ---    0.02216   0.02216   0.02217   0.02217   0.02217
     Eigenvalues ---    0.04659   0.06499   0.06499   0.15999   0.15999
     Eigenvalues ---    0.15999   0.16000   0.16000   0.16000   0.16000
     Eigenvalues ---    0.16000   0.16000   0.16000   0.16000   0.16000
     Eigenvalues ---    0.16000   0.16000   0.16000   0.19007   0.19007
     Eigenvalues ---    0.22000   0.22000   0.22000   0.22000   0.22000
     Eigenvalues ---    0.22000   0.23478   0.23478   0.23478   0.25000
     Eigenvalues ---    0.25000   0.25000   0.31292   0.31500   0.31500
     Eigenvalues ---    0.31500   0.33905   0.33905   0.33905   0.34106
     Eigenvalues ---    0.34106   0.34106   0.34257   0.34257   0.34257
     Eigenvalues ---    0.34259   0.34259   0.34259   0.34284   0.34284
     Eigenvalues ---    0.34284   0.42452   0.42452   0.42452   0.42573
     Eigenvalues ---    0.42573   0.42573   0.46389   0.46389   0.46389
     Eigenvalues ---    0.46766   0.46766   0.46766   0.47224   0.47224
     Eigenvalues ---    0.47224   0.47303   0.47303   0.473031000.00000
     Eigenvalues --- 1000.000001000.000001000.000001000.000001000.00000
     Eigenvalues --- 1000.000001000.000001000.000001000.000001000.00000
     Eigenvalues --- 1000.000001000.000001000.000001000.000001000.00000
     Eigenvalues --- 1000.000001000.000001000.000001000.000001000.00000
     Eigenvalues --- 1000.000001000.000001000.000001000.000001000.00000
     Eigenvalues --- 1000.000001000.000001000.000001000.000001000.00000
     Eigenvalues --- 1000.000001000.000001000.000001000.000001000.00000
     Eigenvalues --- 1000.000001000.000001000.000001000.000001000.00000
     Eigenvalues --- 1000.000001000.000001000.000001000.000001000.00000
     Eigenvalues --- 1000.000001000.000001000.000001000.000001000.00000
     Eigenvalues --- 1000.000001000.000001000.000001000.000001000.00000
     Eigenvalues --- 1000.000001000.000001000.000001000.000001000.00000
     Eigenvalues --- 1000.000001000.000001000.000001000.000001000.00000
     Eigenvalues --- 1000.000001000.000001000.000001000.000001000.00000
     Eigenvalues --- 1000.000001000.000001000.000001000.000001000.00000
     Eigenvalues --- 1000.000001000.000001000.000001000.000001000.00000
     Eigenvalues --- 1000.000001000.000001000.000001000.000001000.00000
     Eigenvalues --- 1000.000001000.00000
 RFO step:  Lambda=-2.72578463D-02 EMin= 6.53351051D-03
 Linear search not attempted -- first point.
 Maximum step size (   0.300) exceeded in Quadratic search.
    -- Step size scaled by   0.782
 Iteration  1 RMS(Cart)=  0.10460082 RMS(Int)=  0.00168981
 Iteration  2 RMS(Cart)=  0.00453026 RMS(Int)=  0.00032113
 Iteration  3 RMS(Cart)=  0.00000482 RMS(Int)=  0.00032112
 Iteration  4 RMS(Cart)=  0.00000000 RMS(Int)=  0.00032112
 ClnCor:  largest displacement from symmetrization is 1.21D-10 for atom    24.
 Variable       Old X    -DE/DX   Delta X   Delta X   Delta X     New X
                                 (Linear)    (Quad)   (Total)
    R1        2.12159  -0.02591   0.00000  -0.05952  -0.05952   2.06206
    R2        2.85067   0.01979   0.00000   0.04519   0.04519   2.89586
    R3        2.85067   0.01979   0.00000   0.04519   0.04519   2.89586
    R4        2.85067   0.01979   0.00000   0.04519   0.04519   2.89586
    R5        2.63733  -0.00242   0.00000  -0.00379  -0.00378   2.63355
    R6        2.64115  -0.00449   0.00000  -0.00725  -0.00723   2.63392
    R7        2.62765  -0.00300   0.00000  -0.00459  -0.00459   2.62305
    R8        2.07491  -0.02144   0.00000  -0.04574  -0.04574   2.02917
    R9        2.62638  -0.00372   0.00000  -0.00590  -0.00590   2.62048
   R10        2.07152  -0.01733   0.00000  -0.03677  -0.03677   2.03475
   R11        2.62723  -0.00587   0.00000  -0.00913  -0.00915   2.61808
   R12        2.06895  -0.01670   0.00000  -0.03528  -0.03528   2.03367
   R13        2.62849  -0.00630   0.00000  -0.00994  -0.00995   2.61854
   R14        2.06899  -0.01666   0.00000  -0.03521  -0.03521   2.03378
   R15        2.06854  -0.01674   0.00000  -0.03536  -0.03536   2.03317
   R16        2.63733  -0.00242   0.00000  -0.00379  -0.00378   2.63355
   R17        2.64115  -0.00449   0.00000  -0.00725  -0.00723   2.63392
   R18        2.62765  -0.00300   0.00000  -0.00459  -0.00459   2.62305
   R19        2.07491  -0.02144   0.00000  -0.04574  -0.04574   2.02917
   R20        2.62638  -0.00372   0.00000  -0.00590  -0.00590   2.62048
   R21        2.07152  -0.01733   0.00000  -0.03677  -0.03677   2.03475
   R22        2.62723  -0.00587   0.00000  -0.00913  -0.00915   2.61808
   R23        2.06895  -0.01670   0.00000  -0.03528  -0.03528   2.03367
   R24        2.62849  -0.00630   0.00000  -0.00994  -0.00995   2.61854
   R25        2.06899  -0.01666   0.00000  -0.03521  -0.03521   2.03378
   R26        2.06854  -0.01674   0.00000  -0.03536  -0.03536   2.03317
   R27        2.64115  -0.00449   0.00000  -0.00725  -0.00723   2.63392
   R28        2.63733  -0.00242   0.00000  -0.00379  -0.00378   2.63355
   R29        2.62638  -0.00372   0.00000  -0.00590  -0.00590   2.62048
   R30        2.07152  -0.01733   0.00000  -0.03677  -0.03677   2.03475
   R31        2.62765  -0.00300   0.00000  -0.00459  -0.00459   2.62305
   R32        2.07491  -0.02144   0.00000  -0.04574  -0.04574   2.02917
   R33        2.62849  -0.00630   0.00000  -0.00994  -0.00995   2.61854
   R34        2.06899  -0.01666   0.00000  -0.03521  -0.03521   2.03378
   R35        2.62723  -0.00587   0.00000  -0.00913  -0.00915   2.61808
   R36        2.06895  -0.01670   0.00000  -0.03528  -0.03528   2.03367
   R37        2.06854  -0.01674   0.00000  -0.03536  -0.03536   2.03317
    A1        1.86693  -0.00349   0.00000  -0.03699  -0.03627   1.83067
    A2        1.86693  -0.00349   0.00000  -0.03699  -0.03627   1.83067
    A3        1.86693  -0.00349   0.00000  -0.03699  -0.03627   1.83067
    A4        1.95223   0.00315   0.00000   0.03337   0.03113   1.98336
    A5        1.95223   0.00315   0.00000   0.03337   0.03113   1.98336
    A6        1.95223   0.00315   0.00000   0.03337   0.03113   1.98336
    A7        2.12867   0.01004   0.00000   0.02849   0.02848   2.15715
    A8        2.07443  -0.00230   0.00000  -0.00631  -0.00632   2.06811
    A9        2.08008  -0.00774   0.00000  -0.02218  -0.02216   2.05792
   A10        2.10067   0.00330   0.00000   0.01033   0.01032   2.11099
   A11        2.08624   0.00073   0.00000   0.00477   0.00477   2.09101
   A12        2.09623  -0.00404   0.00000  -0.01513  -0.01513   2.08110
   A13        2.10017   0.00549   0.00000   0.01660   0.01662   2.11679
   A14        2.09428  -0.00350   0.00000  -0.01146  -0.01147   2.08281
   A15        2.08873  -0.00199   0.00000  -0.00515  -0.00516   2.08358
   A16        2.09755   0.00127   0.00000   0.00387   0.00384   2.10139
   A17        2.09046  -0.00054   0.00000  -0.00153  -0.00152   2.08893
   A18        2.09518  -0.00073   0.00000  -0.00234  -0.00234   2.09284
   A19        2.09748  -0.00004   0.00000  -0.00092  -0.00092   2.09656
   A20        2.09153   0.00014   0.00000   0.00094   0.00095   2.09248
   A21        2.09418  -0.00010   0.00000  -0.00003  -0.00003   2.09415
   A22        2.09042  -0.00228   0.00000  -0.00770  -0.00773   2.08269
   A23        2.09660   0.00116   0.00000   0.00393   0.00394   2.10054
   A24        2.09617   0.00112   0.00000   0.00377   0.00378   2.09994
   A25        2.12867   0.01004   0.00000   0.02849   0.02848   2.15715
   A26        2.07443  -0.00230   0.00000  -0.00631  -0.00632   2.06811
   A27        2.08008  -0.00774   0.00000  -0.02218  -0.02216   2.05792
   A28        2.10067   0.00330   0.00000   0.01033   0.01032   2.11099
   A29        2.08624   0.00073   0.00000   0.00477   0.00477   2.09101
   A30        2.09623  -0.00404   0.00000  -0.01513  -0.01513   2.08110
   A31        2.10017   0.00549   0.00000   0.01660   0.01662   2.11679
   A32        2.09428  -0.00350   0.00000  -0.01146  -0.01147   2.08281
   A33        2.08873  -0.00199   0.00000  -0.00515  -0.00516   2.08358
   A34        2.09755   0.00127   0.00000   0.00387   0.00384   2.10139
   A35        2.09046  -0.00054   0.00000  -0.00153  -0.00152   2.08893
   A36        2.09518  -0.00073   0.00000  -0.00234  -0.00234   2.09284
   A37        2.09748  -0.00004   0.00000  -0.00092  -0.00092   2.09656
   A38        2.09153   0.00014   0.00000   0.00094   0.00095   2.09248
   A39        2.09418  -0.00010   0.00000  -0.00003  -0.00003   2.09415
   A40        2.09042  -0.00228   0.00000  -0.00770  -0.00773   2.08269
   A41        2.09660   0.00116   0.00000   0.00393   0.00394   2.10054
   A42        2.09617   0.00112   0.00000   0.00377   0.00378   2.09994
   A43        2.07443  -0.00230   0.00000  -0.00631  -0.00632   2.06811
   A44        2.12867   0.01004   0.00000   0.02849   0.02848   2.15715
   A45        2.08008  -0.00774   0.00000  -0.02218  -0.02216   2.05792
   A46        2.10017   0.00549   0.00000   0.01660   0.01662   2.11679
   A47        2.09428  -0.00350   0.00000  -0.01146  -0.01147   2.08281
   A48        2.08873  -0.00199   0.00000  -0.00515  -0.00516   2.08358
   A49        2.10067   0.00330   0.00000   0.01033   0.01032   2.11099
   A50        2.08624   0.00073   0.00000   0.00477   0.00477   2.09101
   A51        2.09623  -0.00404   0.00000  -0.01513  -0.01513   2.08110
   A52        2.09748  -0.00004   0.00000  -0.00092  -0.00092   2.09656
   A53        2.09153   0.00014   0.00000   0.00094   0.00095   2.09248
   A54        2.09418  -0.00010   0.00000  -0.00003  -0.00003   2.09415
   A55        2.09755   0.00127   0.00000   0.00387   0.00384   2.10139
   A56        2.09046  -0.00054   0.00000  -0.00153  -0.00152   2.08893
[...]
 00043403,-0.00008089,0.00012921,0.00023252,0.00031254,0.00000388,-0.00
 007523,0.00025424,-0.00004396,0.00008995,-0.00004850,-0.00012182,-0.00
 000667,-0.00009022,0.00004702,-0.00014622,0.00001292,-0.00003628,0.000
 00475,-0.00004432,-0.00012224,0.00010790,0.00000133,0.00000744,-0.0000
 1995,-0.00002021,0.00000712,0.00003089,-0.00003391,0.00001831,0.000001
 13,0.00014979,-0.00063839,-0.00081199,0.00008385,-0.00024137,-0.000199
 45,-0.00028874,-0.00024421,0.00013871,-0.00004782,0.00003102,0.0000899
 5,-0.00010186,-0.00001482,0.00008478,0.00003110,0.00000169,-0.00006550
 ,-0.00001702,0.00002785,0.00004893,0.00001305,0.00005240,0.00003973,-0
 .00001746,-0.00001334,-0.00000134,-0.00001007,-0.00000084,0.00001417,0
 .00001137,0.00002141,0.00000949,0.01089930,-0.03781761,0.00682636,-0.0
 0669069,0.01721912,-0.00732580,-0.01614469,-0.09338928,-0.14795880,-0.
 03295962,0.00040784,-0.03408949,0.00073816,0.00057355,0.00029801,0.292
 16916,0.11274725,0.61510424,-0.00281662,-0.00029967,0.00251708,0.00003
 636,0.00045662,0.00018646,0.00037325,0.00069658,0.00099081,-0.00000802
 ,0.00064974,0.00029004,0.00053826,0.00015718,-0.00002024,0.00042421,0.
 00005702,0.00003809,-0.00014146,-0.00036495,-0.00001541,-0.00034448,0.
 00004782,-0.00015565,-0.00000061,-0.00002058,0.00006549,-0.00026718,-0
 .00020197,0.00018570,0.00000834,-0.00001245,-0.00000331,-0.00002520,0.
 00002227,0.00001728,-0.00002059,0.00000605,0.00001504,0.00026468,-0.00
 061747,-0.00051814,0.00013331,-0.00040368,-0.00017938,-0.00018321,-0.0
 0014552,0.00014149,-0.00002366,0.00004343,0.00012975,-0.00029413,0.000
 27680,-0.00002830,0.00002067,0.00001772,-0.00005234,-0.00000248,0.0000
 1627,0.00001770,-0.00001182,0.00002336,0.00001659,-0.00002019,-0.00000
 911,-0.00000506,-0.00001637,0.00000447,0.00000798,0.00000833,0.0000238
 9,0.00000512,-0.00499033,0.01191601,-0.00795780,0.00435887,-0.00038469
 ,-0.00538240,-0.17693015,0.10986057,-0.11499523,-0.00025462,-0.0006286
 4,0.00066742,-0.00044357,0.00045290,-0.00036894,0.00273018,-0.00058240
 ,-0.00391433,0.17549318,-0.00060181,-0.00014382,0.00108139,0.00015722,
 0.00038092,0.00019717,0.00000485,-0.00186471,-0.00174066,0.00015993,-0
 .00090662,-0.00052982,-0.00002469,-0.00036820,-0.00022863,0.00024322,-
 0.00015826,0.00009562,-0.00006582,-0.00009631,0.00001456,-0.00024280,0
 .00008192,-0.00012190,-0.00000466,0.00005750,0.00015670,-0.00004002,-0
 .00005317,0.00015129,-0.00000101,0.00002947,-0.00000936,-0.00003576,0.
 00001126,0.00003448,-0.00003732,0.00002744,0.00001936,-0.00005712,-0.0
 0021061,-0.00007771,0.00003326,0.00004161,-0.00002325,-0.00002375,-0.0
 0002241,0.00001140,-0.00002270,-0.00002175,0.00001891,-0.00002232,0.00
 005636,-0.00000866,0.00001333,0.00000327,-0.00003129,-0.00000283,-0.00
 000563,-0.00000113,0.00000087,0.00001643,0.00001434,0.00001024,0.00000
 372,-0.00000913,-0.00000017,0.00000608,0.00000300,0.00000679,0.0000061
 5,-0.00000067,-0.00971642,0.01316128,-0.00918677,0.00002908,-0.0001539
 9,-0.00422356,0.10979206,-0.16451555,0.08975142,-0.00074732,-0.0004703
 0,-0.00070985,-0.00057247,0.00044163,-0.00048558,0.02281535,-0.0129653
 5,0.02146659,-0.12193294,0.17247002,0.00172224,0.00165382,-0.00116847,
 0.00003634,-0.00022070,0.00005924,-0.00028487,-0.00044868,-0.00002263,
 0.00011280,-0.00001360,0.00063096,0.00060469,0.00036176,-0.00016869,0.
 00022589,-0.00012786,0.00008478,0.00000665,0.00002884,-0.00004281,0.00
 017382,0.00007608,-0.00010846,-0.00006987,-0.00005688,-0.00006016,-0.0
 0017479,-0.00012552,0.00006637,-0.00001936,0.00006192,-0.00003664,-0.0
 0003275,-0.00001870,-0.00000064,-0.00003825,0.00002278,-0.00000777,-0.
 00004573,0.00027218,0.00032588,0.00000830,0.00006789,0.00009838,0.0000
 8692,0.00004469,-0.00005980,0.00000281,-0.00005822,-0.00000667,-0.0000
 0491,-0.00002063,-0.00004281,0.00001463,-0.00001347,0.00000220,-0.0000
 1341,0.00000428,-0.00003722,0.00000333,0.00001966,0.00000274,0.0000131
 7,0.00000815,-0.00001107,0.00000562,0.00000382,-0.00000326,-0.00000328
 ,0.00000049,-0.00000887,-0.01795553,0.01814979,-0.00936016,-0.00578719
 ,-0.00421736,-0.00088942,-0.11334715,0.08852080,-0.15563856,0.00064268
 ,-0.00087686,-0.00057563,-0.00076191,0.00088404,-0.00074807,0.00648138
 ,-0.00846541,0.00992489,0.12797638,-0.09336143,0.15560334,-0.00141161,
 -0.00139988,-0.00035022,-0.00008555,0.00002085,0.00078275,0.00032021,0
 .00010564,-0.00035291,0.00022193,-0.00008011,0.00018361,-0.00024258,0.
 00022795,0.00006753,-0.00025681,0.00000031,0.00003885,-0.00000112,-0.0
 0002953,0.00001536,0.00022881,-0.00013044,0.00018748,-0.00003566,-0.00
 001903,-0.00004904,0.00008154,0.00012294,-0.00022904,-0.00000590,0.000
 00113,-0.00001259,-0.00000057,-0.00000574,0.00000907,-0.00000933,0.000
 00467,-0.00000194,0.00061310,-0.00076834,0.00021192,0.00007682,-0.0001
 2744,0.00004172,0.00025442,0.00008764,0.00012367,0.00013732,0.00030826
 ,0.00012802,-0.00021146,0.00023414,0.00019610,-0.00021806,0.00000595,0
 .00011843,0.00000836,-0.00000640,0.00000399,0.00005145,-0.00014031,-0.
 00019147,0.00002622,0.00000616,-0.00000012,-0.00002304,0.00001502,-0.0
 0002160,0.00000494,0.00001296,0.00000750,-0.04754185,0.00713205,-0.050
 88895,0.04038575,-0.06170454,0.01033174,0.01345307,0.06665360,0.036161
 08,-0.15822753,0.00610629,-0.09676310,0.00563626,0.00343990,-0.0029321
 7,-0.19257089,0.06256012,-0.11538219,0.00570707,0.00188992,-0.00313012
 ,0.40573587,-0.00080557,0.00036222,0.00009354,0.00013535,-0.00022188,-
 0.00001095,-0.00025529,-0.00011575,-0.00007214,0.00002078,0.00002464,-
 0.00016423,0.00008968,-0.00012700,0.00007020,0.00007189,0.00001696,-0.
 00003751,-0.00000704,0.00000574,-0.00001272,-0.00008831,0.00006729,-0.
 00001973,-0.00005365,-0.00000404,0.00001506,0.00004608,-0.00005617,0.0
 0011433,0.00001832,-0.00002211,0.00001645,0.00003986,-0.00002076,-0.00
 002388,0.00001824,-0.00001575,0.00000128,0.00060930,-0.00012261,-0.000
 20716,-0.00013480,-0.00013092,-0.00015784,-0.00025445,-0.00013226,0.00
 018814,-0.00003218,-0.00003448,0.00002274,0.00007219,-0.00010890,-0.00
 008862,0.00001292,0.00000131,-0.00007891,0.00002765,0.00002027,0.00000
 689,-0.00006346,-0.00002608,0.00004462,-0.00004178,-0.00003235,0.00003
 594,-0.00002907,-0.00002995,0.00000595,-0.00001408,-0.00000545,0.00000
 551,0.00664228,-0.00145874,0.01079365,-0.02145269,-0.01063309,-0.03759
 736,0.02606711,-0.03998279,0.01132282,-0.04565309,-0.18772502,-0.10837
 213,0.00309477,-0.00532872,-0.00261436,0.11491398,-0.22746172,0.087199
 84,0.00193902,-0.00477585,-0.00359657,-0.13158085,0.79892684,-0.001069
 74,-0.00140957,-0.00115342,0.00001321,-0.00037765,0.00096817,0.0002672
 4,-0.00001530,-0.00051962,0.00037146,-0.00014189,0.00023180,-0.0002334
 8,0.00033078,0.00010568,-0.00034344,0.00000636,0.00003973,0.00000413,-
 0.00002154,0.00000274,0.00030889,-0.00014549,0.00024532,-0.00002768,-0
 .00003837,-0.00008394,0.00013438,0.00014351,-0.00027670,0.00000050,-0.
 00000769,-0.00000760,-0.00000141,-0.00000676,0.00000988,-0.00000621,0.
 00000385,-0.00000719,0.00089822,-0.00077523,0.00037603,0.00000128,-0.0
 0042459,0.00007312,0.00034247,0.00016354,0.00028443,0.00024835,0.00039
 667,0.00010790,-0.00022387,0.00008518,0.00006637,-0.00033579,-0.000000
 75,0.00018608,0.00001066,0.00000354,0.00000558,0.00001551,-0.00025552,
 -0.00027670,-0.00000508,-0.00002952,0.00004701,-0.00004059,0.00001062,
 -0.00002640,-0.00000676,0.00000419,0.00000410,-0.05069054,0.01268173,-
 0.07029836,0.03072591,-0.09183906,0.00650342,0.01665787,0.06552922,0.0
 6269507,-0.12035368,-0.03899067,-0.26232596,-0.00310062,-0.00193184,0.
 00405979,-0.09218207,0.01803397,-0.19712878,-0.00303965,-0.00403401,0.
 00329743,0.24711709,0.10988385,0.55410888,-0.00019357,-0.00011625,-0.0
 0020671,0.00000375,0.00007174,0.00005191,0.00007346,-0.00003368,0.0001
 1332,-0.00006595,0.00001828,0.00000425,0.00000950,0.00002687,-0.000058
 41,0.00003879,-0.00001050,0.00000431,-0.00000139,-0.00001311,0.0000005
 0,-0.00001831,0.00002069,-0.00002377,0.00001256,-0.00000018,-0.0000009
 5,-0.00002214,-0.00001554,0.00002949,-0.00000333,0.00000460,-0.0000051
 9,-0.00001753,-0.00000045,0.00000072,-0.00000838,0.00000268,-0.0000020
 6,-0.00007091,-0.00003904,0.00003906,0.00001331,-0.00000760,-0.0000278
 0,0.00005264,0.00000713,-0.00000717,-0.00001735,0.00000627,0.00000394,
 -0.00000370,-0.00000986,0.00003257,0.00000481,0.00001004,0.00000436,-0
 .00000794,-0.00000172,0.00000274,-0.00000094,0.00000553,0.00000656,0.0
 0000287,-0.00000310,-0.00000125,0.00000401,0.00001288,0.00000256,0.000
 00831,0.00000591,-0.00000006,0.00597278,0.00213748,-0.00310387,0.00231
 817,-0.00009932,-0.00444135,-0.00021278,-0.00062751,0.00065641,-0.1691
 4666,0.10848426,-0.11149776,-0.00257008,-0.00089793,0.00307617,0.00447
 115,-0.00045201,-0.00581946,-0.00076515,-0.00022592,0.00055103,-0.0040
 5584,0.01228925,-0.00712513,0.16707599,0.00100688,-0.00032882,0.001085
 55,0.00000153,0.00006339,-0.00003734,-0.00022696,-0.00042489,-0.000155
 80,0.00010288,-0.00000833,-0.00000696,0.00007641,-0.00004140,0.0000234
 5,0.00002747,0.00002945,0.00000914,-0.00000848,-0.00000890,-0.00000677
 ,-0.00003499,0.00002485,0.00001179,-0.00001582,0.00000143,0.00000118,0
 .00002855,-0.00003085,0.00002984,0.00001270,-0.00001114,0.00001460,0.0
 0001907,0.00000044,-0.00000583,0.00001155,-0.00000756,0.00000182,0.000
 21375,0.00000120,-0.00008912,-0.00007223,-0.00001274,0.00002542,-0.000
 09595,-0.00005171,0.00003195,-0.00000963,-0.00000500,-0.00002106,0.000
 04817,-0.00001024,-0.00001901,-0.00001610,-0.00000229,-0.00002112,0.00
 001748,0.00000553,0.00001335,-0.00004007,-0.00002039,0.00000216,-0.000
 00963,-0.00001212,0.00002537,-0.00000663,-0.00002109,0.00000205,-0.000
 00578,-0.00001489,0.00000669,0.00158725,-0.00468162,-0.00397244,0.0229
 1354,-0.01286217,0.02224816,-0.00075808,-0.00054759,-0.00084552,0.1083
 9209,-0.16798540,0.09039548,-0.00167970,0.00083427,0.00048195,-0.00009
 710,0.00019204,-0.00399604,-0.00016948,-0.00007290,0.00030203,-0.01058
 799,0.01284501,-0.01076506,-0.11940262,0.17204358,0.00036593,-0.000259
 38,0.00021795,0.00000129,0.00003568,-0.00004029,0.00000759,0.00000700,
 -0.00008307,0.00001771,0.00000009,0.00003697,-0.00001754,0.00001558,0.
 00003059,-0.00002595,0.00000607,0.00001417,-0.00000140,-0.00000841,-0.
 00000326,0.00003749,-0.00000955,0.00001371,0.00000322,-0.00000799,-0.0
 0001780,0.00001596,0.00001573,-0.00002640,-0.00000196,-0.00000185,-0.0
 0000640,0.00000050,-0.00000325,0.00000195,-0.00000438,-0.00000007,-0.0
 0000373,-0.00005203,0.00010214,0.00002033,0.00002760,0.00000880,-0.000
 01370,-0.00000531,0.00000388,-0.00004488,-0.00000794,-0.00001071,0.000
 03089,-0.00003850,-0.00000227,-0.00000064,0.00001774,-0.00000214,-0.00
 000618,-0.00000096,-0.00000551,-0.00000358,0.00001615,0.00001979,0.000
 00988,0.00000399,0.00000849,-0.00001894,0.00000469,0.00000354,0.000001
 95,0.00000284,0.00000898,-0.00000264,-0.00315865,-0.00365533,0.0032978
 9,0.00595091,-0.00857508,0.00975192,0.00066238,-0.00082575,-0.00044109
 ,-0.11157451,0.09061440,-0.15684365,0.00269314,0.00146178,-0.00090419,
 -0.00566037,-0.00440647,-0.00093628,0.00053180,0.00027406,-0.00042460,
 -0.01747294,0.01984426,-0.00887151,0.12555447,-0.09588182,0.15675397,0
 .00011677,-0.00003527,0.00025989,-0.00000445,-0.00003407,0.00005673,-0
 .00005771,-0.00000699,-0.00001674,0.00006501,-0.00002639,0.00000031,-0
 .00001633,0.00002188,-0.00000610,-0.00003658,0.00000425,-0.00000282,-0
 .00000275,-0.00000096,0.00000048,0.00000415,-0.00002470,0.00001513,-0.
 00000166,0.00000453,0.00002017,-0.00000228,0.00001030,-0.00002302,0.00
 000402,-0.00000463,0.00000726,-0.00000286,0.00000641,0.00000536,0.0000
 0415,0.00000232,0.00000259,0.00004635,0.00005710,-0.00005249,-0.000015
 36,-0.00007816,-0.00001089,-0.00004343,-0.00000040,0.00002231,0.000017
 01,-0.00000270,-0.00000711,0.00001836,0.00001824,-0.00004395,0.0000104
 0,-0.00000013,0.00000201,-0.00000497,0.00001008,0.00000240,-0.00000964
 ,-0.00000329,0.00000641,-0.00001778,-0.00000796,0.00000793,-0.00000170
 ,-0.00000366,0.00000258,-0.00000547,-0.00000114,-0.00000132,0.00548855
 ,0.00329572,-0.00274183,-0.00063054,0.00054697,0.00071865,0.00745401,0
 .00471154,0.00472150,0.00317219,0.00479286,-0.00546599,-0.00074673,-0.
 00031390,0.00052642,-0.12564403,-0.04847071,-0.12347186,-0.00237155,-0
 .00174245,0.00267039,-0.00393528,-0.01126511,-0.01767982,-0.00050192,-
 0.00047721,-0.00079655,0.12011280,-0.00081095,0.00002846,-0.00113191,0
 .00001356,-0.00041596,-0.00015129,-0.00025898,0.00017326,-0.00001827,0
 .00008151,0.00000491,0.00003939,0.00005181,0.00001247,0.00001064,0.000
 00062,0.00001028,0.00002179,-0.00002032,-0.00001372,-0.00001548,0.0000
 0107,0.00000247,0.00001396,-0.00001959,-0.00001119,0.00001323,0.000058
 24,-0.00000385,0.00001915,0.00001087,-0.00002865,0.00000730,0.00001295
 ,-0.00000639,-0.00000770,0.00001014,-0.00001311,-0.00000239,0.00021203
 ,-0.00005577,-0.00015884,-0.00004011,-0.00008244,0.00003266,-0.0001049
 3,-0.00007151,0.00006170,0.00000960,0.00000177,-0.00000257,0.00000679,
 0.00001945,-0.00004772,-0.00001048,-0.00000741,-0.00000783,0.00000201,
 0.00002031,0.00001426,-0.00002048,-0.00001837,0.00000427,-0.00002346,-
 0.00000686,0.00001227,-0.00001176,-0.00001277,-0.00000077,-0.00000908,
 -0.00000545,0.00000176,0.00328922,-0.00533722,-0.00193873,0.00052820,-
 0.00096428,0.00067121,-0.01826565,-0.00684054,-0.02975107,0.00453029,-
 0.00143457,0.00128947,-0.00032813,-0.00002831,0.00012249,-0.04849019,-
 0.11394347,-0.09382124,-0.00090219,0.00083031,0.00146205,0.01188654,0.
 01302694,0.01903309,0.00047616,0.00038141,0.00086968,0.04987724,0.1140
 3290,-0.00027127,0.00039361,-0.00029391,-0.00000815,-0.00009538,-0.000
 06466,-0.00011399,-0.00003560,-0.00001649,0.00001398,0.00001222,-0.000
 03752,0.00005888,-0.00004024,0.00001639,0.00003336,0.00001210,-0.00000
 134,-0.00000538,0.00000895,-0.00001107,-0.00002896,0.00003128,0.000002
 37,-0.00002693,-0.00000596,-0.00000283,0.00003119,-0.00001786,0.000047
 01,0.00000666,-0.00001301,0.00000611,0.00002259,-0.00001160,-0.0000189
 4,0.00001244,-0.00001465,0.00000003,0.00012650,-0.00009377,-0.00003217
 ,-0.00003497,0.00000132,0.00004327,-0.00003541,-0.00003134,0.00004700,
 0.00002023,-0.00000397,-0.00001995,0.00000976,0.00000181,-0.00003664,-
 0.00002031,-0.00000531,-0.00000190,0.00000737,0.00000757,-0.00000059,-
 0.00000796,-0.00001913,-0.00000760,-0.00000995,0.00000264,0.00000611,-
 0.00001005,-0.00001179,-0.00000640,-0.00000958,-0.00000983,0.00000119,
 -0.00276127,-0.00256391,0.00384414,0.00080435,0.00057202,0.00036806,-0
 .00566231,0.00076760,-0.00161180,-0.00559766,0.00173095,0.00233446,0.0
 0052840,0.00013130,-0.00051142,-0.12322277,-0.09385632,-0.25411809,0.0
 0291248,0.00058616,-0.00089868,-0.00732837,-0.01151394,-0.00926300,-0.
 00033005,-0.00042486,-0.00072526,0.13827229,0.10301186,0.26187628,-0.0
 0061947,-0.00038115,0.00048737,0.00004787,0.00007902,0.00017113,0.0000
 2875,-0.00001323,0.00002367,-0.00002095,0.00002287,0.00001442,0.000014
 20,-0.00000105,-0.00003353,0.00002112,-0.00000217,0.00001285,-0.000006
 59,-0.00001528,0.00000206,-0.00000445,0.00000022,-0.00001011,0.0000073
 0,-0.00000155,0.00000620,-0.00000237,-0.00000874,0.00000701,-0.0000010
 2,-0.00000142,-0.00000372,-0.00000915,0.00000417,0.00000635,-0.0000053
 1,0.00000356,-0.00000025,0.00002537,-0.00011495,-0.00006325,-0.0000011
 5,-0.00002656,-0.00002227,-0.00002619,-0.00001376,0.00001434,0.0000008
 1,0.00001044,0.00000110,0.00000189,0.00000693,-0.00000060,-0.00000197,
 -0.00000139,-0.00000491,-0.00000200,0.00000271,0.00000346,-0.00000423,
 -0.00000172,-0.00000023,-0.00000340,-0.00000668,0.00000647,-0.00000160
 ,0.00000123,0.00000225,0.00000189,0.00000060,0.00000081,-0.00110041,-0
 .00010610,-0.00024283,0.00371649,0.00050845,-0.00641613,0.00278468,0.0
 0362467,-0.00656856,0.00759581,-0.01787293,-0.00471009,0.00006776,-0.0
 0077855,-0.00016867,0.00264687,0.02253255,0.00680704,-0.00016533,0.000
 96417,0.00033004,-0.06411001,0.04562273,-0.00065160,-0.00237823,-0.000
 74488,0.00290362,-0.00246077,-0.00174257,0.00262488,0.05396376,-0.0002
 1293,-0.00004394,0.00016606,-0.00000009,-0.00000946,0.00003307,-0.0000
 7961,-0.00004761,-0.00001750,0.00005251,-0.00002051,-0.00005028,0.0000
 0062,-0.00004547,0.00000644,-0.00002249,0.00001396,-0.00002055,0.00000
 182,0.00002107,0.00000260,-0.00002521,-0.00000802,0.00001753,-0.000015
 05,0.00000713,0.00001683,0.00001830,0.00000185,0.00000376,0.00000652,-
 0.00000989,0.00001321,0.00001586,0.00000256,-0.00000695,0.00001551,-0.
 00000672,0.00000442,0.00010795,-0.00004081,-0.00006433,-0.00004781,-0.
 00001683,0.00003722,-0.00005128,-0.00001846,0.00004316,0.00002956,-0.0
 0000010,-0.00003852,0.00005030,0.00000496,-0.00004451,-0.00001622,-0.0
 0000373,0.00000357,0.00000400,0.00001040,0.00000361,-0.00001529,-0.000
 02085,-0.00000730,-0.00001450,-0.00000556,0.00001810,-0.00000763,-0.00
 001434,-0.00000375,-0.00001135,-0.00001391,0.00000191,-0.00020605,0.00
 089657,0.00052628,0.00013129,0.00156992,-0.00306153,0.00406166,0.00037
 900,0.00148934,0.00507822,-0.00735021,0.00115068,0.00013853,-0.0005709
 3,-0.00005883,-0.00072100,-0.01333213,-0.00933402,0.00000804,-0.000819
 92,-0.00032317,0.04575856,-0.34672483,-0.07509960,-0.00162344,0.000739
 42,0.00035565,-0.00085963,0.00075690,0.00149706,-0.05154967,0.36472048
 ,0.00054700,0.00021175,-0.00029645,-0.00007059,0.00002437,-0.00003242,
 -0.00005836,-0.00000337,0.00000976,0.00003567,-0.00000137,0.00003937,0
 .00003993,0.00002198,0.00001032,0.00001771,-0.00000712,0.00000949,-0.0
 0000314,-0.00000410,-0.00000887,0.00000051,0.00000618,0.00000010,-0.00
 001452,-0.00000467,-0.00000195,0.00000102,-0.00000925,0.00000410,0.000
 00219,0.00000026,0.00000119,0.00000582,-0.00000329,-0.00000264,0.00000
 125,-0.00000166,0.00000083,0.00002770,0.00008014,0.00006362,0.00001281
 ,-0.00001224,0.00001432,0.00002874,0.00001537,0.00000368,0.00000707,0.
 00000371,0.00000113,-0.00002428,0.00000335,-0.00000777,-0.00000112,0.0
 0000546,0.00001222,-0.00000241,0.00000539,-0.00000368,-0.00000014,-0.0
 0000232,-0.00000719,0.00000077,0.00000344,0.00000003,-0.00000055,-0.00
 000269,-0.00000373,-0.00000371,-0.00000242,0.00000083,-0.00026027,0.00
 042903,-0.00113697,-0.00662668,-0.00254740,-0.00136027,-0.00634572,0.0
 0098104,0.00107617,0.00563058,-0.02957552,-0.00083331,0.00027153,-0.00
 134094,-0.00036583,-0.00351113,0.02129632,0.01020948,-0.00007651,0.000
 90696,0.00022490,-0.00061912,-0.07509708,-0.08317933,0.00251663,0.0015
 3678,-0.00076406,0.00299968,0.00034359,-0.00091215,0.00547168,0.082740
 35,0.07723511||0.,0.,-0.00004337,0.,0.,-0.00001816,-0.00002813,-0.0000
 0813,0.00007166,-0.00005864,0.00003071,-0.00004764,0.00005734,0.000003
 84,-0.00001433,0.00006997,-0.00001986,-0.00000553,0.00001278,0.0000018
 4,-0.00000578,-0.00003559,0.00002885,-0.00004036,-0.00000511,-0.000010
 22,0.00001141,-0.00001629,-0.00002783,0.00005514,-0.00000433,0.0000096
 9,-0.00000428,-0.00000274,-0.00000702,0.00000784,-0.00000782,0.0000094
 0,-0.00000764,0.00000703,0.00002843,0.00007166,0.00005592,0.00003543,-
 0.00004764,-0.00002535,-0.00005158,-0.00001433,-0.00005219,-0.00005067
 ,-0.00000553,-0.00000480,-0.00001199,-0.00000578,0.00004278,0.00001640
 ,-0.00004036,-0.00000630,0.00000953,0.00001141,-0.00001595,0.00002802,
 0.00005514,0.00001056,-0.00000110,-0.00000428,-0.00000471,0.00000588,0
 .00000784,0.00001205,0.00000207,-0.00000764,0.00002111,-0.00002030,0.0
 0007166,-0.00003199,0.00004774,-0.00001433,0.00000272,-0.00006614,-0.0
 0004764,-0.00000719,-0.00004525,-0.00004036,0.00001140,0.00000069,0.00
 001141,-0.00001778,0.00007053,-0.00000553,-0.00000798,0.00001015,-0.00
 000578,0.00003225,-0.00000020,0.00005514,0.00000745,0.00000114,0.00000
 784,-0.00000623,-0.00000860,-0.00000428,-0.00000423,-0.00001147,-0.000
 00764|||@


 CHEMISTRY BEGAN BY SAYING IT WOULD CHANGE THE BASER
 METALS INTO GOLD.  BY NOT DOING THAT IT HAS DONE MUCH
 GREATER THINGS.  --  RALPH WALDO EMERSON
 Job cpu time:  0 days  0 hours  3 minutes 31.0 seconds.
 File lengths (MBytes):  RWF=    178 Int=      0 D2E=      0 Chk=      7 Scr=      1
 Normal termination of Gaussian 09 at Mon Sep 06 12:38:38 2021.
