 Entering Link 1 = b:\programy\g09w\l1.exe PID=      6376.
  
 Copyright (c) 1988,1990,1992,1993,1995,1998,2003,2009, Gaussian, Inc.
                  All Rights Reserved.
  
 This is part of the Gaussian(R) 09 program.  It is based on
 the Gaussian(R) 03 system (copyright 2003, Gaussian, Inc.),
 the Gaussian(R) 98 system (copyright 1998, Gaussian, Inc.),
 the Gaussian(R) 94 system (copyright 1995, Gaussian, Inc.),
 the Gaussian 92(TM) system (copyright 1992, Gaussian, Inc.),
 the Gaussian 90(TM) system (copyright 1990, Gaussian, Inc.),
 the Gaussian 88(TM) system (copyright 1988, Gaussian, Inc.),
 the Gaussian 86(TM) system (copyright 1986, Carnegie Mellon
 University), and the Gaussian 82(TM) system (copyright 1983,
 Carnegie Mellon University). Gaussian is a federally registered
 trademark of Gaussian, Inc.
  
 This software contains proprietary and confidential information,
 including trade secrets, belonging to Gaussian, Inc.
  
 This software is provided under written license and may be
 used, copied, transmitted, or stored only in accord with that
 written license.
  
 The following legend is applicable only to US Government
 contracts under FAR:
  
                    RESTRICTED RIGHTS LEGEND
  
 Use, reproduction and disclosure by the US Government is
 subject to restrictions as set forth in subparagraphs (a)
 and (c) of the Commercial Computer Software - Restricted
 Rights clause in FAR 52.227-19.
  
 Gaussian, Inc.
 340 Quinnipiac St., Bldg. 40, Wallingford CT 06492
  
  
 ---------------------------------------------------------------
 Warning -- This program may not be used in any manner that
 competes with the business of Gaussian, Inc. or will provide
 assistance to any competitor of Gaussian, Inc.  The licensee
 of this program is prohibited from giving any competitor of
 Gaussian, Inc. access to this program.  By using this program,
 the user acknowledges that Gaussian, Inc. is engaged in the
 business of creating and licensing software in the field of
 computational chemistry and represents and warrants to the
 licensee that it is not a competitor of Gaussian, Inc. and that
 it will not use this program in any manner prohibited above.
 ---------------------------------------------------------------
  

 Cite this work as:
 Gaussian 09, Revision A.02,
 M. J. Frisch, G. W. Trucks, H. B. Schlegel, G. E. Scuseria, 
 M. A. Robb, J. R. Cheeseman, G. Scalmani, V. Barone, B. Mennucci, 
 G. A. Petersson, H. Nakatsuji, M. Caricato, X. Li, H. P. Hratchian, 
 A. F. Izmaylov, J. Bloino, G. Zheng, J. L. Sonnenberg, M. Hada, 
 M. Ehara, K. Toyota, R. Fukuda, J. Hasegawa, M. Ishida, T. Nakajima, 
 Y. Honda, O. Kitao, H. Nakai, T. Vreven, J. A. Montgomery, Jr., 
 J. E. Peralta, F. Ogliaro, M. Bearpark, J. J. Heyd, E. Brothers, 
 K. N. Kudin, V. N. Staroverov, R. Kobayashi, J. Normand, 
 K. Raghavachari, A. Rendell, J. C. Burant, S. S. Iyengar, J. Tomasi, 
 M. Cossi, N. Rega, J. M. Millam, M. Klene, J. E. Knox, J. B. Cross, 
 V. Bakken, C. Adamo, J. Jaramillo, R. Gomperts, R. E. Stratmann, 
 O. Yazyev, A. J. Austin, R. Cammi, C. Pomelli, J. W. Ochterski, 
 R. L. Martin, K. Morokuma, V. G. Zakrzewski, G. A. Voth, 
 P. Salvador, J. J. Dannenberg, S. Dapprich, A. D. Daniels, 
 O. Farkas, J. B. Foresman, J. V. Ortiz, J. Cioslowski, 
 and D. J. Fox, Gaussian, Inc., Wallingford CT, 2009.
 
 ******************************************
 Gaussian 09:  IA32W-G09RevA.02 11-Jun-2009
                06-Sep-2021 
 ******************************************
 %nprocshared=12
 Will use up to   12 processors via shared memory.
 ----------------------------------------------
 # opt freq=noraman hf/6-311g geom=connectivity
 ----------------------------------------------
 1/18=20,19=15,38=1,57=2/1,3;
 2/9=110,12=2,17=6,18=5,40=1/2;
 3/5=4,6=6,11=9,16=1,25=1,30=1,71=1/1,2,3;
 4//1;
 5/5=2,38=5/2;
 6/7=2,8=2,9=2,10=2,28=1/1;
 7//1,2,3,16;
 1/18=20,19=15/3(2);
 2/9=110/2;
 99//99;
 2/9=110/2;
 3/5=4,6=6,11=9,16=1,25=1,30=1,71=1/1,2,3;
 4/5=5,16=3/1;
 5/5=2,38=5/2;
 7//1,2,3,16;
 1/18=20,19=15/3(-5);
 2/9=110/2;
 6/7=2,8=2,9=2,10=2,19=2,28=1/1;
 99/9=1/99;
 -----
 M0001
 -----
 Symbolic Z-matrix:
 Charge =  0 Multiplicity = 1
 C                    -0.26521  -0.72259  -0.09994 
 H                    -0.69056  -1.74897  -0.26373 
 C                     1.23714  -0.85324  -0.07482 
 C                     2.06806   0.25621   0.09808 
 C                     1.81328  -2.11507  -0.23758 
 C                     3.44933   0.1067    0.10935 
 H                     1.61286   1.25289   0.21095 
 C                     3.196    -2.26237  -0.22611 
 H                     1.17493  -2.9958   -0.3757 
 C                     4.01606  -1.1533   -0.05197 
 H                     4.09096   0.98355   0.24387 
 H                     3.63856  -3.25546  -0.35523 
 H                     5.10436  -1.27083  -0.0434 
 C                    -0.70077   0.15036  -1.25233 
 C                    -1.37747  -0.42344  -2.33056 
 C                    -0.44397   1.52281  -1.26092 
 C                    -1.7931    0.36595  -3.39727 
 H                    -1.58267  -1.50032  -2.33947 
 C                    -0.86219   2.30975  -2.32682 
 H                     0.1095    1.96838  -0.42015 
 C                    -1.53876   1.73276  -3.39651 
 H                    -2.32244  -0.09166  -4.2392 
 H                    -0.6569    3.38507  -2.32369 
 H                    -1.86837   2.35296  -4.23615 
 C                    -0.86873  -0.25955   1.20307 
 C                    -2.24155   0.00657   1.24729 
 C                    -0.12023  -0.14466   2.37386 
 C                    -2.84825   0.38622   2.43712 
 H                    -2.83738  -0.08171   0.33082 
 C                    -0.73031   0.23468   3.56527 
 H                     0.95693  -0.35381   2.3571 
 C                    -2.09326   0.50157   3.60034 
 H                    -3.92286   0.59434   2.4587 
 H                    -0.1312    0.32157   4.47746 
 H                    -2.5718    0.80041   4.53825 
 

 GradGradGradGradGradGradGradGradGradGradGradGradGradGradGradGradGradGrad
 Berny optimization.
 Initialization pass.
                           ----------------------------
                           !    Initial Parameters    !
                           ! (Angstroms and Degrees)  !
 --------------------------                            --------------------------
 ! Name  Definition              Value          Derivative Info.                !
 --------------------------------------------------------------------------------
 ! R1    R(1,2)                  1.123          estimate D2E/DX2                !
 ! R2    R(1,3)                  1.5082         estimate D2E/DX2                !
 ! R3    R(1,14)                 1.5099         estimate D2E/DX2                !
 ! R4    R(1,25)                 1.5088         estimate D2E/DX2                !
 ! R5    R(3,4)                  1.3969         estimate D2E/DX2                !
 ! R6    R(3,5)                  1.3967         estimate D2E/DX2                !
 ! R7    R(4,6)                  1.3894         estimate D2E/DX2                !
 ! R8    R(4,7)                  1.1015         estimate D2E/DX2                !
 ! R9    R(5,8)                  1.3906         estimate D2E/DX2                !
 ! R10   R(5,9)                  1.0965         estimate D2E/DX2                !
 ! R11   R(6,10)                 1.391          estimate D2E/DX2                !
 ! R12   R(6,11)                 1.0948         estimate D2E/DX2                !
 ! R13   R(8,10)                 1.3903         estimate D2E/DX2                !
 ! R14   R(8,12)                 1.0949         estimate D2E/DX2                !
 ! R15   R(10,13)                1.0947         estimate D2E/DX2                !
 ! R16   R(14,15)                1.3963         estimate D2E/DX2                !
 ! R17   R(14,16)                1.3963         estimate D2E/DX2                !
 ! R18   R(15,17)                1.3906         estimate D2E/DX2                !
 ! R19   R(15,18)                1.0963         estimate D2E/DX2                !
 ! R20   R(16,19)                1.3894         estimate D2E/DX2                !
 ! R21   R(16,20)                1.1008         estimate D2E/DX2                !
 ! R22   R(17,21)                1.3903         estimate D2E/DX2                !
 ! R23   R(17,22)                1.0947         estimate D2E/DX2                !
 ! R24   R(19,21)                1.391          estimate D2E/DX2                !
 ! R25   R(19,23)                1.0948         estimate D2E/DX2                !
 ! R26   R(21,24)                1.0947         estimate D2E/DX2                !
 ! R27   R(25,26)                1.3991         estimate D2E/DX2                !
 ! R28   R(25,27)                1.3943         estimate D2E/DX2                !
 ! R29   R(26,28)                1.3885         estimate D2E/DX2                !
 ! R30   R(26,29)                1.0967         estimate D2E/DX2                !
 ! R31   R(27,30)                1.3912         estimate D2E/DX2                !
 ! R32   R(27,31)                1.0974         estimate D2E/DX2                !
 ! R33   R(28,32)                1.3915         estimate D2E/DX2                !
 ! R34   R(28,33)                1.0948         estimate D2E/DX2                !
 ! R35   R(30,32)                1.3893         estimate D2E/DX2                !
 ! R36   R(30,34)                1.0948         estimate D2E/DX2                !
 ! R37   R(32,35)                1.0945         estimate D2E/DX2                !
 ! A1    A(2,1,3)              107.4899         estimate D2E/DX2                !
 ! A2    A(2,1,14)             107.9278         estimate D2E/DX2                !
 ! A3    A(2,1,25)             104.7696         estimate D2E/DX2                !
 ! A4    A(3,1,14)             110.4961         estimate D2E/DX2                !
 ! A5    A(3,1,25)             114.2452         estimate D2E/DX2                !
 ! A6    A(14,1,25)            111.4882         estimate D2E/DX2                !
 ! A7    A(1,3,4)              121.7216         estimate D2E/DX2                !
 ! A8    A(1,3,5)              119.1588         estimate D2E/DX2                !
 ! A9    A(4,3,5)              119.1182         estimate D2E/DX2                !
 ! A10   A(3,4,6)              120.4584         estimate D2E/DX2                !
 ! A11   A(3,4,7)              119.0468         estimate D2E/DX2                !
 ! A12   A(6,4,7)              120.4891         estimate D2E/DX2                !
 ! A13   A(3,5,8)              120.3263         estimate D2E/DX2                !
 ! A14   A(3,5,9)              120.0143         estimate D2E/DX2                !
 ! A15   A(8,5,9)              119.6594         estimate D2E/DX2                !
 ! A16   A(4,6,10)             120.1053         estimate D2E/DX2                !
 ! A17   A(4,6,11)             119.8312         estimate D2E/DX2                !
 ! A18   A(10,6,11)            120.0635         estimate D2E/DX2                !
 ! A19   A(5,8,10)             120.202          estimate D2E/DX2                !
 ! A20   A(5,8,12)             119.8033         estimate D2E/DX2                !
 ! A21   A(10,8,12)            119.9947         estimate D2E/DX2                !
 ! A22   A(6,10,8)             119.7897         estimate D2E/DX2                !
 ! A23   A(6,10,13)            120.0934         estimate D2E/DX2                !
 ! A24   A(8,10,13)            120.1168         estimate D2E/DX2                !
 ! A25   A(1,14,15)            119.4441         estimate D2E/DX2                !
 ! A26   A(1,14,16)            121.3272         estimate D2E/DX2                !
 ! A27   A(15,14,16)           119.2284         estimate D2E/DX2                !
 ! A28   A(14,15,17)           120.2594         estimate D2E/DX2                !
 ! A29   A(14,15,18)           120.0427         estimate D2E/DX2                !
 ! A30   A(17,15,18)           119.6979         estimate D2E/DX2                !
 ! A31   A(14,16,19)           120.4037         estimate D2E/DX2                !
 ! A32   A(14,16,20)           119.0534         estimate D2E/DX2                !
 ! A33   A(19,16,20)           120.5343         estimate D2E/DX2                !
 ! A34   A(15,17,21)           120.1977         estimate D2E/DX2                !
 ! A35   A(15,17,22)           119.8136         estimate D2E/DX2                !
 ! A36   A(21,17,22)           119.9887         estimate D2E/DX2                !
 ! A37   A(16,19,21)           120.0952         estimate D2E/DX2                !
 ! A38   A(16,19,23)           119.8486         estimate D2E/DX2                !
 ! A39   A(21,19,23)           120.0561         estimate D2E/DX2                !
 ! A40   A(17,21,19)           119.8148         estimate D2E/DX2                !
 ! A41   A(17,21,24)           120.0998         estimate D2E/DX2                !
 ! A42   A(19,21,24)           120.0853         estimate D2E/DX2                !
 ! A43   A(1,25,26)            118.5656         estimate D2E/DX2                !
 ! A44   A(1,25,27)            122.3916         estimate D2E/DX2                !
 ! A45   A(26,25,27)           118.9816         estimate D2E/DX2                !
 ! A46   A(25,26,28)           120.5203         estimate D2E/DX2                !
 ! A47   A(25,26,29)           119.4312         estimate D2E/DX2                !
 ! A48   A(28,26,29)           120.0477         estimate D2E/DX2                !
 ! A49   A(25,27,30)           120.406          estimate D2E/DX2                !
 ! A50   A(25,27,31)           119.893          estimate D2E/DX2                !
 ! A51   A(30,27,31)           119.701          estimate D2E/DX2                !
 ! A52   A(26,28,32)           120.1261         estimate D2E/DX2                !
 ! A53   A(26,28,33)           119.8522         estimate D2E/DX2                !
 ! A54   A(32,28,33)           120.0217         estimate D2E/DX2                !
 ! A55   A(27,30,32)           120.2786         estimate D2E/DX2                !
 ! A56   A(27,30,34)           119.6829         estimate D2E/DX2                !
 ! A57   A(32,30,34)           120.0385         estimate D2E/DX2                !
 ! A58   A(28,32,30)           119.6866         estimate D2E/DX2                !
 ! A59   A(28,32,35)           120.1141         estimate D2E/DX2                !
 ! A60   A(30,32,35)           120.1993         estimate D2E/DX2                !
 ! D1    D(2,1,3,4)            179.2793         estimate D2E/DX2                !
 ! D2    D(2,1,3,5)             -0.2853         estimate D2E/DX2                !
 ! D3    D(14,1,3,4)            61.7412         estimate D2E/DX2                !
 ! D4    D(14,1,3,5)          -117.8235         estimate D2E/DX2                !
 ! D5    D(25,1,3,4)           -64.9317         estimate D2E/DX2                !
 ! D6    D(25,1,3,5)           115.5037         estimate D2E/DX2                !
 ! D7    D(2,1,14,15)           -6.6025         estimate D2E/DX2                !
 ! D8    D(2,1,14,16)          173.2153         estimate D2E/DX2                !
 ! D9    D(3,1,14,15)          110.6659         estimate D2E/DX2                !
 ! D10   D(3,1,14,16)          -69.5163         estimate D2E/DX2                !
 ! D11   D(25,1,14,15)        -121.1421         estimate D2E/DX2                !
 ! D12   D(25,1,14,16)          58.6757         estimate D2E/DX2                !
 ! D13   D(2,1,25,26)          -68.2212         estimate D2E/DX2                !
 ! D14   D(2,1,25,27)          108.9033         estimate D2E/DX2                !
 ! D15   D(3,1,25,26)          174.4168         estimate D2E/DX2                !
 ! D16   D(3,1,25,27)           -8.4586         estimate D2E/DX2                !
 ! D17   D(14,1,25,26)          48.26           estimate D2E/DX2                !
 ! D18   D(14,1,25,27)        -134.6154         estimate D2E/DX2                !
 ! D19   D(1,3,4,6)           -179.6269         estimate D2E/DX2                !
 ! D20   D(1,3,4,7)             -0.4896         estimate D2E/DX2                !
 ! D21   D(5,3,4,6)             -0.0621         estimate D2E/DX2                !
 ! D22   D(5,3,4,7)            179.0752         estimate D2E/DX2                !
 ! D23   D(1,3,5,8)            179.6315         estimate D2E/DX2                !
 ! D24   D(1,3,5,9)             -0.344          estimate D2E/DX2                !
 ! D25   D(4,3,5,8)              0.0554         estimate D2E/DX2                !
 ! D26   D(4,3,5,9)           -179.9201         estimate D2E/DX2                !
 ! D27   D(3,4,6,10)            -0.0036         estimate D2E/DX2                !
 ! D28   D(3,4,6,11)           179.8933         estimate D2E/DX2                !
 ! D29   D(7,4,6,10)          -179.1283         estimate D2E/DX2                !
 ! D30   D(7,4,6,11)             0.7685         estimate D2E/DX2                !
 ! D31   D(3,5,8,10)             0.0168         estimate D2E/DX2                !
 ! D32   D(3,5,8,12)          -179.9541         estimate D2E/DX2                !
 ! D33   D(9,5,8,10)           179.9924         estimate D2E/DX2                !
 ! D34   D(9,5,8,12)             0.0215         estimate D2E/DX2                !
 ! D35   D(4,6,10,8)             0.0763         estimate D2E/DX2                !
 ! D36   D(4,6,10,13)          179.9793         estimate D2E/DX2                !
 ! D37   D(11,6,10,8)         -179.8203         estimate D2E/DX2                !
 ! D38   D(11,6,10,13)           0.0827         estimate D2E/DX2                !
 ! D39   D(5,8,10,6)            -0.083          estimate D2E/DX2                !
 ! D40   D(5,8,10,13)         -179.9859         estimate D2E/DX2                !
 ! D41   D(12,8,10,6)          179.8879         estimate D2E/DX2                !
 ! D42   D(12,8,10,13)          -0.015          estimate D2E/DX2                !
 ! D43   D(1,14,15,17)         179.6317         estimate D2E/DX2                !
 ! D44   D(1,14,15,18)          -0.4173         estimate D2E/DX2                !
 ! D45   D(16,14,15,17)         -0.19           estimate D2E/DX2                !
 ! D46   D(16,14,15,18)        179.761          estimate D2E/DX2                !
 ! D47   D(1,14,16,19)        -179.5217         estimate D2E/DX2                !
 ! D48   D(1,14,16,20)           1.541          estimate D2E/DX2                !
 ! D49   D(15,14,16,19)          0.2964         estimate D2E/DX2                !
 ! D50   D(15,14,16,20)       -178.6408         estimate D2E/DX2                !
 ! D51   D(14,15,17,21)         -0.0713         estimate D2E/DX2                !
 ! D52   D(14,15,17,22)        179.9555         estimate D2E/DX2                !
 ! D53   D(18,15,17,21)        179.9775         estimate D2E/DX2                !
 ! D54   D(18,15,17,22)          0.0043         estimate D2E/DX2                !
 ! D55   D(14,16,19,21)         -0.1416         estimate D2E/DX2                !
 ! D56   D(14,16,19,23)        179.9384         estimate D2E/DX2                !
 ! D57   D(20,16,19,21)        178.7797         estimate D2E/DX2                !
 ! D58   D(20,16,19,23)         -1.1402         estimate D2E/DX2                !
 ! D59   D(15,17,21,19)          0.2284         estimate D2E/DX2                !
 ! D60   D(15,17,21,24)       -179.882          estimate D2E/DX2                !
 ! D61   D(22,17,21,19)       -179.7985         estimate D2E/DX2                !
 ! D62   D(22,17,21,24)          0.0911         estimate D2E/DX2                !
 ! D63   D(16,19,21,17)         -0.1221         estimate D2E/DX2                !
 ! D64   D(16,19,21,24)        179.9882         estimate D2E/DX2                !
 ! D65   D(23,19,21,17)        179.7976         estimate D2E/DX2                !
 ! D66   D(23,19,21,24)         -0.092          estimate D2E/DX2                !
 ! D67   D(1,25,26,28)         177.5651         estimate D2E/DX2                !
 ! D68   D(1,25,26,29)          -2.7643         estimate D2E/DX2                !
 ! D69   D(27,25,26,28)          0.3407         estimate D2E/DX2                !
 ! D70   D(27,25,26,29)       -179.9888         estimate D2E/DX2                !
 ! D71   D(1,25,27,30)        -177.3938         estimate D2E/DX2                !
 ! D72   D(1,25,27,31)           2.6414         estimate D2E/DX2                !
 ! D73   D(26,25,27,30)         -0.2807         estimate D2E/DX2                !
 ! D74   D(26,25,27,31)        179.7545         estimate D2E/DX2                !
 ! D75   D(25,26,28,32)         -0.1915         estimate D2E/DX2                !
 ! D76   D(25,26,28,33)        179.8425         estimate D2E/DX2                !
 ! D77   D(29,26,28,32)       -179.86           estimate D2E/DX2                !
 ! D78   D(29,26,28,33)          0.1741         estimate D2E/DX2                !
 ! D79   D(25,27,30,32)          0.0723         estimate D2E/DX2                !
 ! D80   D(25,27,30,34)       -179.9755         estimate D2E/DX2                !
 ! D81   D(31,27,30,32)       -179.9628         estimate D2E/DX2                !
 ! D82   D(31,27,30,34)         -0.0106         estimate D2E/DX2                !
 ! D83   D(26,28,32,30)         -0.0216         estimate D2E/DX2                !
 ! D84   D(26,28,32,35)       -179.9718         estimate D2E/DX2                !
 ! D85   D(33,28,32,30)        179.9443         estimate D2E/DX2                !
 ! D86   D(33,28,32,35)         -0.0059         estimate D2E/DX2                !
 ! D87   D(27,30,32,28)          0.0811         estimate D2E/DX2                !
 ! D88   D(27,30,32,35)       -179.9687         estimate D2E/DX2                !
 ! D89   D(34,30,32,28)       -179.8709         estimate D2E/DX2                !
 ! D90   D(34,30,32,35)          0.0792         estimate D2E/DX2                !
 --------------------------------------------------------------------------------
 Trust Radius=3.00D-01 FncErr=1.00D-07 GrdErr=1.00D-07
 Number of steps in this run= 197 maximum allowed number of steps= 210.
 GradGradGradGradGradGradGradGradGradGradGradGradGradGradGradGradGradGrad

                          Input orientation:                          
 ---------------------------------------------------------------------
 Center     Atomic      Atomic             Coordinates (Angstroms)
 Number     Number       Type             X           Y           Z
 ---------------------------------------------------------------------
      1          6           0       -0.265210   -0.722590   -0.099938
      2          1           0       -0.690564   -1.748967   -0.263733
      3          6           0        1.237137   -0.853240   -0.074816
      4          6           0        2.068060    0.256213    0.098085
      5          6           0        1.813284   -2.115067   -0.237582
      6          6           0        3.449332    0.106702    0.109354
      7          1           0        1.612863    1.252891    0.210950
      8          6           0        3.196002   -2.262368   -0.226111
      9          1           0        1.174933   -2.995799   -0.375702
     10          6           0        4.016064   -1.153303   -0.051967
     11          1           0        4.090962    0.983550    0.243869
     12          1           0        3.638557   -3.255456   -0.355232
     13          1           0        5.104357   -1.270828   -0.043396
     14          6           0       -0.700772    0.150361   -1.252327
     15          6           0       -1.377467   -0.423435   -2.330556
     16          6           0       -0.443969    1.522811   -1.260920
     17          6           0       -1.793103    0.365954   -3.397267
     18          1           0       -1.582669   -1.500319   -2.339472
     19          6           0       -0.862187    2.309748   -2.326822
     20          1           0        0.109501    1.968376   -0.420148
     21          6           0       -1.538764    1.732759   -3.396511
     22          1           0       -2.322443   -0.091658   -4.239202
     23          1           0       -0.656896    3.385073   -2.323691
     24          1           0       -1.868369    2.352960   -4.236147
     25          6           0       -0.868733   -0.259553    1.203074
     26          6           0       -2.241551    0.006573    1.247293
     27          6           0       -0.120227   -0.144660    2.373864
     28          6           0       -2.848255    0.386221    2.437122
     29          1           0       -2.837379   -0.081706    0.330820
     30          6           0       -0.730309    0.234680    3.565267
     31          1           0        0.956926   -0.353809    2.357103
     32          6           0       -2.093255    0.501570    3.600336
     33          1           0       -3.922856    0.594336    2.458699
     34          1           0       -0.131202    0.321574    4.477460
     35          1           0       -2.571796    0.800406    4.538247
 ---------------------------------------------------------------------
                    Distance matrix (angstroms):
                    1          2          3          4          5
     1  C    0.000000
     2  H    1.123033   0.000000
     3  C    1.508227   2.134022   0.000000
     4  C    2.537995   3.429529   1.396859   0.000000
     5  C    2.505609   2.530606   1.396654   2.408434   0.000000
     6  C    3.811739   4.552081   2.418515   1.389386   2.780877
     7  H    2.743417   3.813430   2.158384   1.101503   3.403599
     8  C    3.790360   3.920509   2.417785   2.778599   1.390590
     9  H    2.705095   2.246599   2.164477   3.405545   1.096476
    10  C    4.303153   4.748895   2.795173   2.409143   2.410743
    11  H    4.690987   5.530579   3.408764   2.154624   3.875699
    12  H    4.660470   4.584667   3.408238   3.873471   2.155447
    13  H    5.397779   5.818786   3.889827   3.401613   3.403177
    14  C    1.509887   2.141231   2.479766   3.082409   3.533036
    15  C    2.510431   2.549633   3.479835   4.269880   4.174092
    16  C    2.534100   3.429246   3.143021   3.124333   4.401882
    17  C    3.793648   3.937958   4.659127   5.209424   5.398619
    18  H    2.712208   2.272965   3.674056   4.728098   4.040835
    19  C    3.809261   4.556200   4.413977   4.322445   5.576922
    20  H    2.735735   3.805682   3.058159   2.652550   4.428399
    21  C    4.303263   4.759849   5.042487   5.234650   6.001735
    22  H    4.665168   4.605872   5.531070   6.181391   6.100113
    23  H    4.687366   5.531992   5.158304   4.804180   6.380061
    24  H    5.397903   5.830360   6.102505   6.219114   7.036075
    25  C    1.508802   2.098005   2.533804   3.179901   3.565339
    26  C    2.500526   2.787594   3.819493   4.467186   4.811226
    27  C    2.544547   3.139427   2.888003   3.182526   3.800082
    28  C    3.786589   4.063161   4.953436   5.445929   5.927936
    29  H    2.685579   2.782457   4.166712   4.922569   5.107475
    30  C    3.816597   4.312503   4.278390   4.455635   5.143232
    31  H    2.768875   3.395507   2.498436   2.590349   3.250811
    32  C    4.304921   4.686522   5.141378   5.444493   6.069386
    33  H    4.653955   4.832228   5.927876   6.448093   6.893047
    34  H    4.696893   5.203742   4.896505   4.901015   5.652421
    35  H    5.399316   5.753029   6.206679   6.445110   7.108969
                    6          7          8          9         10
     6  C    0.000000
     7  H    2.167184   0.000000
     8  C    2.406077   3.880000   0.000000
     9  H    3.877330   4.311301   2.155231   0.000000
    10  C    1.390979   3.410904   1.390270   3.401708   0.000000
    11  H    1.094827   2.492910   3.399679   4.972154   2.158534
    12  H    3.399376   4.974856   1.094875   2.477354   2.157204
    13  H    2.158710   4.315597   2.158322   4.304222   1.094654
    14  C    4.368002   2.951213   4.696726   3.766307   5.038744
    15  C    5.434353   4.267481   5.359756   4.117433   5.900411
    16  C    4.363578   2.543584   5.352365   4.880809   5.339948
    17  C    6.312426   5.040485   6.469581   5.407446   6.873543
    18  H    5.822397   4.929122   5.280409   3.700976   6.057962
    19  C    5.420107   3.699069   6.464220   6.008791   6.400392
    20  H    3.860139   1.780535   5.240548   5.077417   5.014148
    21  C    6.310012   4.814229   6.959202   6.232873   7.097284
    22  H    7.229293   6.090837   7.160316   5.965929   7.670508
    23  H    5.790383   4.015273   7.151102   6.918511   6.898851
    24  H    7.225441   5.753764   7.939112   7.264568   8.026692
    25  C    4.469458   3.070850   4.751412   3.762466   5.122027
    26  C    5.804402   4.181366   6.073385   4.829153   6.495470
    27  C    4.234731   3.104021   4.716136   4.167319   4.900094
    28  C    6.719839   5.060487   7.116240   5.961215   7.462209
    29  H    6.293432   4.647598   6.439499   5.008968   6.947267
    30  C    5.424861   4.216474   6.002143   5.440329   6.126903
    31  H    3.387704   2.760020   3.915234   3.807343   3.975064
    32  C    6.562252   5.078163   7.089238   6.222662   7.307647
    33  H    7.752830   6.010845   8.126938   6.849114   8.507887
    34  H    5.652145   4.702363   6.314318   6.021971   6.315915
    35  H    7.506683   6.036688   8.083760   7.252313   8.263591
                   11         12         13         14         15
    11  H    0.000000
    12  H    4.304970   0.000000
    13  H    2.488315   2.486878   0.000000
    14  C    5.088568   5.588751   6.097607   0.000000
    15  C    6.205722   6.089560   6.925548   1.396329   0.000000
    16  C    4.808409   6.349735   6.330143   1.396296   2.409028
    17  C    6.947051   7.202188   7.842350   2.416699   1.390597
    18  H    6.710689   5.854820   7.073963   2.164341   1.096296
    19  C    5.735935   7.423972   7.323539   2.417343   2.781334
    20  H    4.154857   6.304513   5.965147   2.157370   3.403159
    21  C    6.745925   7.806172   8.024710   2.793517   2.410695
    22  H    7.898466   7.786422   8.611190   3.407318   2.155455
    23  H    5.907778   8.149993   7.750432   3.407801   3.876081
    24  H    7.580201   8.765961   8.906734   3.888175   3.403033
    25  C    5.202303   5.632000   6.184996   2.495043   3.573823
    26  C    6.485528   6.912640   7.567034   2.939860   3.705746
    27  C    4.852201   5.590481   5.865806   3.684201   4.877493
    28  C    7.302047   7.945928   8.493693   4.275435   5.054653
    29  H    7.010295   7.244384   8.038981   2.669326   3.054676
    30  C    5.902300   6.829228   7.023698   4.818423   5.967634
    31  H    4.009547   4.792438   4.878986   4.003765   5.237211
    32  C    7.052852   7.912991   8.259770   5.060702   6.045120
    33  H    8.323355   8.939468   9.551435   4.934639   5.518318
    34  H    6.015660   7.096558   7.098236   5.760571   6.961127
    35  H    7.928906   8.886205   9.176316   6.119970   7.078465
                   16         17         18         19         20
    16  C    0.000000
    17  C    2.778931   0.000000
    18  H    3.405764   2.155501   0.000000
    19  C    1.389361   2.406406   3.877611   0.000000
    20  H    1.100797   3.879548   4.310347   2.167053   0.000000
    21  C    2.409025   1.390268   3.401772   1.391009   3.410429
    22  H    3.873673   1.094744   2.478017   3.399455   4.974260
    23  H    2.154725   3.399796   4.972360   1.094750   2.493566
    24  H    3.401475   2.158143   4.304272   2.158654   4.315289
    25  C    3.070589   4.733800   3.820842   4.365950   2.924972
    26  C    3.438228   4.679978   3.945849   4.470074   3.486614
    27  C    4.012098   6.030356   5.117820   5.354538   3.510584
    28  C    4.554991   5.929068   5.289290   5.508138   4.406305
    29  H    3.291887   3.897376   3.273716   4.084543   3.667545
    30  C    5.003334   7.044405   6.213105   6.248201   4.426570
    31  H    4.309791   6.418215   5.460938   5.687079   3.718037
    32  C    5.234013   7.005350   6.288845   6.317930   4.813310
    33  H    5.176900   6.235411   5.734675   5.933932   5.141561
    34  H    5.871099   8.048304   7.203930   7.126390   5.172665
    35  H    6.219313   7.985455   7.319475   7.233951   5.756664
                   21         22         23         24         25
    21  C    0.000000
    22  H    2.157031   0.000000
    23  H    2.158419   4.304752   0.000000
    24  H    1.094658   2.486433   2.488053   0.000000
    25  C    5.057117   5.635587   5.076047   6.116341   0.000000
    26  C    5.003853   5.487971   5.165010   5.976028   1.399074
    27  C    6.231707   6.970309   5.900344   7.279172   1.394349
    28  C    6.128556   6.714026   6.038254   7.025721   2.420414
    29  H    4.344154   4.598952   4.880522   5.265336   2.160561
    30  C    7.166882   7.971896   6.679087   8.163599   2.417309
    31  H    6.609562   7.371175   6.204313   7.666801   2.161874
    32  C    7.125949   7.865292   6.743280   8.055351   2.797432
    33  H    6.423659   6.920535   6.428528   7.220432   3.410775
    34  H    8.122320   8.997361   7.477770   9.114341   3.406356
    35  H    8.055856   8.826187   7.578492   8.938412   3.891954
                   26         27         28         29         30
    26  C    0.000000
    27  C    2.406668   0.000000
    28  C    1.388494   2.779923   0.000000
    29  H    1.096689   3.400134   2.157680   0.000000
    30  C    2.776489   1.391237   2.404448   3.873176   0.000000
    31  H    3.404674   1.097398   3.877299   4.310059   2.157021
    32  C    2.409113   2.411366   1.391545   3.403479   1.389274
    33  H    2.154010   3.874700   1.094781   2.482573   3.397970
    34  H    3.871276   2.154671   3.398461   4.967963   1.094795
    35  H    3.401413   3.404099   2.159330   4.307099   2.158195
                   31         32         33         34         35
    31  H    0.000000
    32  C    3.403073   0.000000
    33  H    4.972080   2.158560   0.000000
    34  H    2.477110   2.156710   4.304235   0.000000
    35  H    4.305981   1.094523   2.488443   2.487865   0.000000
 Stoichiometry    C19H16
 Framework group  C1[X(C19H16)]
 Deg. of freedom    99
 Full point group                 C1      NOp   1
 Largest Abelian subgroup         C1      NOp   1
 Largest concise Abelian subgroup C1      NOp   1
                         Standard orientation:                         
 ---------------------------------------------------------------------
 Center     Atomic      Atomic             Coordinates (Angstroms)
 Number     Number       Type             X           Y           Z
 ---------------------------------------------------------------------
      1          6           0       -0.010658    0.013475   -0.761612
      2          1           0        0.018363    0.016889   -1.884265
      3          6           0       -1.458125   -0.068558   -0.345846
      4          6           0       -1.835053   -0.106851    0.998651
      5          6           0       -2.447334   -0.116522   -1.330635
      6          6           0       -3.176160   -0.190232    1.352024
      7          1           0       -1.053115   -0.084474    1.774138
      8          6           0       -3.788993   -0.200102   -0.974679
      9          1           0       -2.167898   -0.088724   -2.390541
     10          6           0       -4.155985   -0.236225    0.365793
     11          1           0       -3.459948   -0.221368    2.408972
     12          1           0       -4.557354   -0.237965   -1.753742
     13          1           0       -5.212524   -0.302259    0.644419
     14          6           0        0.747136   -1.200738   -0.280786
     15          6           0        1.202583   -2.138064   -1.210152
     16          6           0        1.005923   -1.404661    1.076080
     17          6           0        1.908874   -3.258608   -0.786719
     18          1           0        1.003461   -1.993230   -2.278440
     19          6           0        1.713705   -2.523882    1.496454
     20          1           0        0.626070   -0.675645    1.808201
     21          6           0        2.167621   -3.452371    0.565447
     22          1           0        2.261920   -3.989228   -1.521578
     23          1           0        1.912358   -2.674244    2.562478
     24          1           0        2.725423   -4.334033    0.896815
     25          6           0        0.679214    1.292273   -0.355117
     26          6           0        2.053025    1.414995   -0.589611
     27          6           0       -0.012393    2.373482    0.189747
     28          6           0        2.719109    2.592765   -0.277994
     29          1           0        2.604235    0.569247   -1.018104
     30          6           0        0.656678    3.553125    0.500114
     31          1           0       -1.091001    2.294961    0.376081
     32          6           0        2.021854    3.665895    0.268470
     33          1           0        3.794818    2.675969   -0.463666
     34          1           0        0.102043    4.394548    0.927857
     35          1           0        2.547026    4.594379    0.513608
 ---------------------------------------------------------------------
 Rotational constants (GHZ):      0.4040561      0.3820135      0.2326463
 Standard basis: 6-311G (5D, 7F)
 There are   295 symmetry adapted basis functions of A   symmetry.
 Integral buffers will be    262144 words long.
 Raffenetti 1 integral format.
 Two-electron integral symmetry is turned on.
   295 basis functions,   574 primitive gaussians,   295 cartesian basis functions
    65 alpha electrons       65 beta electrons
       nuclear repulsion energy      1290.7514108465 Hartrees.
 NAtoms=   35 NActive=   35 NUniq=   35 SFac= 7.50D-01 NAtFMM=   80 NAOKFM=F Big=F
 One-electron integrals computed using PRISM.
 PrsmSu:  requested number of processors reduced to:  10 ShMem   1 Linda.
 NBasis=   295 RedAO= T  NBF=   295
 NBsUse=   295 1.00D-06 NBFU=   295
 Harris functional with IExCor=  205 diagonalized for initial guess.
 ExpMin= 1.03D-01 ExpMax= 4.56D+03 ExpMxC= 6.82D+02 IAcc=1 IRadAn=         1 AccDes= 0.00D+00
 HarFok:  IExCor=  205 AccDes= 0.00D+00 IRadAn=         1 IDoV= 1
 ScaDFX=  1.000000  1.000000  1.000000  1.000000
 FoFCou: FMM=F IPFlag=           0 FMFlag=      100000 FMFlg1=           0
         NFxFlg=           0 DoJE=T BraDBF=F KetDBF=T FulRan=T
         Omega=  0.000000  0.000000  1.000000  0.000000  0.000000 ICntrl=     500 IOpCl=  0
         NMat0=    1 NMatS0=    1 NMatT0=    0 NMatD0=    1 NMtDS0=    0 NMtDT0=    0
         I1Cent=           4 NGrid=           0.
 Petite list used in FoFCou.
 Initial guess orbital symmetries:
       Occupied  (A) (A) (A) (A) (A) (A) (A) (A) (A) (A) (A) (A)
                 (A) (A) (A) (A) (A) (A) (A) (A) (A) (A) (A) (A)
                 (A) (A) (A) (A) (A) (A) (A) (A) (A) (A) (A) (A)
                 (A) (A) (A) (A) (A) (A) (A) (A) (A) (A) (A) (A)
                 (A) (A) (A) (A) (A) (A) (A) (A) (A) (A) (A) (A)
                 (A) (A) (A) (A) (A)
       Virtual   (A) (A) (A) (A) (A) (A) (A) (A) (A) (A) (A) (A)
                 (A) (A) (A) (A) (A) (A) (A) (A) (A) (A) (A) (A)
                 (A) (A) (A) (A) (A) (A) (A) (A) (A) (A) (A) (A)
                 (A) (A) (A) (A) (A) (A) (A) (A) (A) (A) (A) (A)
                 (A) (A) (A) (A) (A) (A) (A) (A) (A) (A) (A) (A)
                 (A) (A) (A) (A) (A) (A) (A) (A) (A) (A) (A) (A)
                 (A) (A) (A) (A) (A) (A) (A) (A) (A) (A) (A) (A)
                 (A) (A) (A) (A) (A) (A) (A) (A) (A) (A) (A) (A)
                 (A) (A) (A) (A) (A) (A) (A) (A) (A) (A) (A) (A)
                 (A) (A) (A) (A) (A) (A) (A) (A) (A) (A) (A) (A)
                 (A) (A) (A) (A) (A) (A) (A) (A) (A) (A) (A) (A)
                 (A) (A) (A) (A) (A) (A) (A) (A) (A) (A) (A) (A)
                 (A) (A) (A) (A) (A) (A) (A) (A) (A) (A) (A) (A)
                 (A) (A) (A) (A) (A) (A) (A) (A) (A) (A) (A) (A)
                 (A) (A) (A) (A) (A) (A) (A) (A) (A) (A) (A) (A)
                 (A) (A) (A) (A) (A) (A) (A) (A) (A) (A) (A) (A)
                 (A) (A) (A) (A) (A) (A) (A) (A) (A) (A) (A) (A)
                 (A) (A) (A) (A) (A) (A) (A) (A) (A) (A) (A) (A)
                 (A) (A) (A) (A) (A) (A) (A) (A) (A) (A) (A) (A)
                 (A) (A)
 The electronic state of the initial guess is 1-A.
 Requested convergence on RMS density matrix=1.00D-08 within 128 cycles.
 Requested convergence on MAX density matrix=1.00D-06.
 Requested convergence on             energy=1.00D-06.
 No special actions if energy rises.
 Integral accuracy reduced to 1.0D-05 until final iterations.
 Initial convergence to 1.0D-05 achieved.  Increase integral accuracy.
 SCF Done:  E(RHF) =  -728.672393982     A.U. after   14 cycles
             Convg  =    0.8731D-08             -V/T =  2.0001

 **********************************************************************

            Population analysis using the SCF density.

 **********************************************************************

 Orbital symmetries:
       Occupied  (A) (A) (A) (A) (A) (A) (A) (A) (A) (A) (A) (A)
                 (A) (A) (A) (A) (A) (A) (A) (A) (A) (A) (A) (A)
                 (A) (A) (A) (A) (A) (A) (A) (A) (A) (A) (A) (A)
                 (A) (A) (A) (A) (A) (A) (A) (A) (A) (A) (A) (A)
                 (A) (A) (A) (A) (A) (A) (A) (A) (A) (A) (A) (A)
                 (A) (A) (A) (A) (A)
       Virtual   (A) (A) (A) (A) (A) (A) (A) (A) (A) (A) (A) (A)
                 (A) (A) (A) (A) (A) (A) (A) (A) (A) (A) (A) (A)
                 (A) (A) (A) (A) (A) (A) (A) (A) (A) (A) (A) (A)
                 (A) (A) (A) (A) (A) (A) (A) (A) (A) (A) (A) (A)
                 (A) (A) (A) (A) (A) (A) (A) (A) (A) (A) (A) (A)
                 (A) (A) (A) (A) (A) (A) (A) (A) (A) (A) (A) (A)
                 (A) (A) (A) (A) (A) (A) (A) (A) (A) (A) (A) (A)
                 (A) (A) (A) (A) (A) (A) (A) (A) (A) (A) (A) (A)
                 (A) (A) (A) (A) (A) (A) (A) (A) (A) (A) (A) (A)
                 (A) (A) (A) (A) (A) (A) (A) (A) (A) (A) (A) (A)
                 (A) (A) (A) (A) (A) (A) (A) (A) (A) (A) (A) (A)
                 (A) (A) (A) (A) (A) (A) (A) (A) (A) (A) (A) (A)
                 (A) (A) (A) (A) (A) (A) (A) (A) (A) (A) (A) (A)
                 (A) (A) (A) (A) (A) (A) (A) (A) (A) (A) (A) (A)
                 (A) (A) (A) (A) (A) (A) (A) (A) (A) (A) (A) (A)
                 (A) (A) (A) (A) (A) (A) (A) (A) (A) (A) (A) (A)
                 (A) (A) (A) (A) (A) (A) (A) (A) (A) (A) (A) (A)
                 (A) (A) (A) (A) (A) (A) (A) (A) (A) (A) (A) (A)
                 (A) (A) (A) (A) (A) (A) (A) (A) (A) (A) (A) (A)
                 (A) (A)
 The electronic state is 1-A.
 Alpha  occ. eigenvalues --  -11.25760 -11.25231 -11.25183 -11.24916 -11.24521
 Alpha  occ. eigenvalues --  -11.24434 -11.24418 -11.24370 -11.24221 -11.24167
 Alpha  occ. eigenvalues --  -11.24142 -11.24120 -11.24073 -11.24032 -11.24029
 Alpha  occ. eigenvalues --  -11.23967 -11.23729 -11.23629 -11.23500  -1.18619
 Alpha  occ. eigenvalues --   -1.15875  -1.15574  -1.09029  -1.02379  -1.02240
 Alpha  occ. eigenvalues --   -1.01877  -1.01490  -1.01087  -0.92921  -0.84286
 Alpha  occ. eigenvalues --   -0.83360  -0.82324  -0.81925  -0.81132  -0.77587
 Alpha  occ. eigenvalues --   -0.70871  -0.70366  -0.68987  -0.65684  -0.63900
 Alpha  occ. eigenvalues --   -0.63611  -0.62517  -0.61704  -0.61580  -0.59725
 Alpha  occ. eigenvalues --   -0.58850  -0.58493  -0.58316  -0.56758  -0.55087
 Alpha  occ. eigenvalues --   -0.51727  -0.50919  -0.50222  -0.49863  -0.49379
 Alpha  occ. eigenvalues --   -0.48419  -0.47961  -0.47501  -0.46315  -0.35025
 Alpha  occ. eigenvalues --   -0.34322  -0.33960  -0.33329  -0.32530  -0.31465
 Alpha virt. eigenvalues --    0.11536   0.12292   0.12752   0.13499   0.14996
 Alpha virt. eigenvalues --    0.15132   0.15646   0.16238   0.16486   0.16912
 Alpha virt. eigenvalues --    0.18903   0.19188   0.19233   0.21238   0.21294
 Alpha virt. eigenvalues --    0.21593   0.23562   0.24012   0.24941   0.25416
 Alpha virt. eigenvalues --    0.26794   0.31548   0.33136   0.34239   0.35784
 Alpha virt. eigenvalues --    0.37588   0.39786   0.40555   0.41495   0.43097
 Alpha virt. eigenvalues --    0.44094   0.44430   0.44941   0.45448   0.45602
 Alpha virt. eigenvalues --    0.45870   0.46748   0.47243   0.47946   0.50598
 Alpha virt. eigenvalues --    0.51072   0.51425   0.52212   0.54967   0.56083
 Alpha virt. eigenvalues --    0.57312   0.57838   0.58515   0.58892   0.59347
 Alpha virt. eigenvalues --    0.60233   0.60460   0.60626   0.61124   0.61477
 Alpha virt. eigenvalues --    0.62056   0.62213   0.62960   0.63369   0.63681
 Alpha virt. eigenvalues --    0.64257   0.64588   0.65229   0.65953   0.66404
 Alpha virt. eigenvalues --    0.67241   0.67824   0.68585   0.69830   0.72353
 Alpha virt. eigenvalues --    0.73101   0.73926   0.74514   0.75328   0.75733
 Alpha virt. eigenvalues --    0.76786   0.78859   0.79389   0.79946   0.81235
 Alpha virt. eigenvalues --    0.81508   0.82223   0.82492   0.82890   0.83304
 Alpha virt. eigenvalues --    0.83836   0.84373   0.84851   0.84959   0.85474
 Alpha virt. eigenvalues --    0.85926   0.86194   0.86503   0.87750   0.88148
 Alpha virt. eigenvalues --    0.90199   0.90872   0.92138   0.93492   0.95076
 Alpha virt. eigenvalues --    0.95929   0.96341   0.97027   0.98239   0.99748
 Alpha virt. eigenvalues --    1.00051   1.02340   1.03082   1.04834   1.06219
 Alpha virt. eigenvalues --    1.07140   1.08131   1.09351   1.10111   1.10921
 Alpha virt. eigenvalues --    1.11563   1.11725   1.12407   1.12792   1.13803
 Alpha virt. eigenvalues --    1.15019   1.16517   1.19787   1.20549   1.21156
 Alpha virt. eigenvalues --    1.23705   1.25693   1.27330   1.28048   1.29093
 Alpha virt. eigenvalues --    1.29459   1.31931   1.32864   1.46911   1.47749
 Alpha virt. eigenvalues --    1.51994   1.54234   1.56933   2.53505   2.55704
 Alpha virt. eigenvalues --    2.56042   2.57747   2.62089   2.62342   2.63881
 Alpha virt. eigenvalues --    2.66435   2.67091   2.68464   2.72081   2.74276
 Alpha virt. eigenvalues --    2.78363   2.83384   2.86678   2.91805   2.94354
 Alpha virt. eigenvalues --    2.94616   2.94740   2.96022   2.98127   2.98592
 Alpha virt. eigenvalues --    2.99932   3.02252   3.03927   3.04391   3.06518
 Alpha virt. eigenvalues --    3.08490   3.09281   3.09854   3.10074   3.13199
 Alpha virt. eigenvalues --    3.15134   3.16157   3.17724   3.18397   3.19430
 Alpha virt. eigenvalues --    3.21630   3.24091   3.25032   3.27689   3.28784
 Alpha virt. eigenvalues --    3.31474   3.33874   3.34334   3.35715   3.40868
 Alpha virt. eigenvalues --    3.41289   3.44144   3.45050   3.49942   3.52572
 Alpha virt. eigenvalues --    3.53536   3.55978   3.57610   3.58329   3.59558
 Alpha virt. eigenvalues --    3.62423   3.64055   3.65082   3.66263   3.66827
 Alpha virt. eigenvalues --    3.67702   3.69215   3.71267   3.72282   3.74323
 Alpha virt. eigenvalues --    3.76393   3.77584   3.78471   3.85610   3.88067
 Alpha virt. eigenvalues --    3.91076  24.26072  24.30019  24.31738  24.50540
 Alpha virt. eigenvalues --   24.50782  24.51041  24.53023  24.54610  24.56491
 Alpha virt. eigenvalues --   24.76185  24.77061  24.79115  24.80218  24.80740
 Alpha virt. eigenvalues --   24.82831  24.87463  25.04645  25.05804  25.07133
          Condensed to atoms (all electrons):
              1          2          3          4          5          6
     1  C    6.109761   0.472537   0.117890  -0.072152  -0.024054   0.002650
     2  H    0.472537   0.502478  -0.075160   0.004450   0.006384  -0.000225
     3  C    0.117890  -0.075160   5.394091   0.450981   0.498350  -0.063708
     4  C   -0.072152   0.004450   0.450981   5.097619  -0.063551   0.480191
     5  C   -0.024054   0.006384   0.498350  -0.063551   5.049282  -0.033883
     6  C    0.002650  -0.000225  -0.063708   0.480191  -0.033883   5.046291
     7  H    0.000735  -0.000020  -0.047406   0.386394   0.004590  -0.027152
     8  C    0.008199   0.001454  -0.076734  -0.029516   0.468029  -0.077405
     9  H   -0.002043   0.002830  -0.045769   0.004760   0.394628  -0.000285
    10  C    0.001699   0.000006  -0.016120  -0.093530  -0.088980   0.490252
    11  H   -0.000372   0.000011   0.005971  -0.038575  -0.000379   0.397012
    12  H   -0.000409  -0.000034   0.007014  -0.000634  -0.039448   0.006272
    13  H   -0.000026  -0.000002  -0.001682   0.007991   0.007571  -0.042987
    14  C    0.148682  -0.070467  -0.141931  -0.003231  -0.004563   0.001979
    15  C   -0.024511   0.001771  -0.002185   0.000512   0.000624   0.000042
    16  C   -0.056239   0.005435  -0.003239  -0.011726   0.000760  -0.000104
    17  C    0.006849   0.001557  -0.000518   0.000126  -0.000017   0.000001
    18  H   -0.000116   0.002385   0.000349  -0.000008   0.000271  -0.000001
    19  C    0.003307  -0.000260   0.001906  -0.000376   0.000029  -0.000101
    20  H    0.000144   0.000104  -0.002885  -0.000912  -0.000201   0.000892
    21  C    0.001273  -0.000001  -0.000088  -0.000025  -0.000009   0.000001
    22  H   -0.000340  -0.000039   0.000025   0.000000   0.000001   0.000000
    23  H   -0.000350   0.000011   0.000028   0.000056   0.000001   0.000002
    24  H   -0.000012  -0.000001  -0.000003   0.000000   0.000000   0.000000
    25  C    0.033455  -0.062300  -0.065230   0.006667  -0.000385   0.000736
    26  C   -0.085514  -0.004747   0.011439   0.000863  -0.000285   0.000015
    27  C   -0.031056   0.000764  -0.012513  -0.018539   0.000905  -0.001445
    28  C    0.008416   0.000606  -0.000880  -0.000023   0.000009   0.000000
    29  H   -0.003190  -0.000140   0.000811  -0.000041  -0.000006   0.000000
    30  C    0.012245  -0.000115  -0.001600  -0.000968  -0.000111  -0.000041
    31  H   -0.011338  -0.000273   0.001059  -0.001013  -0.001044   0.000266
    32  C    0.000380   0.000034   0.000122  -0.000016  -0.000004   0.000000
    33  H   -0.000355   0.000005   0.000012   0.000000   0.000000   0.000000
    34  H   -0.000363   0.000014   0.000059   0.000026   0.000004  -0.000001
    35  H   -0.000014  -0.000002   0.000001   0.000001   0.000000   0.000000
              7          8          9         10         11         12
     1  C    0.000735   0.008199  -0.002043   0.001699  -0.000372  -0.000409
     2  H   -0.000020   0.001454   0.002830   0.000006   0.000011  -0.000034
     3  C   -0.047406  -0.076734  -0.045769  -0.016120   0.005971   0.007014
     4  C    0.386394  -0.029516   0.004760  -0.093530  -0.038575  -0.000634
     5  C    0.004590   0.468029   0.394628  -0.088980  -0.000379  -0.039448
     6  C   -0.027152  -0.077405  -0.000285   0.490252   0.397012   0.006272
     7  H    0.497158  -0.000121  -0.000271   0.004623  -0.003383   0.000016
     8  C   -0.000121   5.047456  -0.033761   0.499834   0.005898   0.396364
     9  H   -0.000271  -0.033761   0.506598   0.005066   0.000025  -0.004076
    10  C    0.004623   0.499834   0.005066   5.033571  -0.039780  -0.041031
    11  H   -0.003383   0.005898   0.000025  -0.039780   0.514370  -0.000206
    12  H    0.000016   0.396364  -0.004076  -0.041031  -0.000206   0.517970
    13  H   -0.000170  -0.042546  -0.000178   0.399457  -0.004371  -0.004556
    14  C   -0.003754  -0.000585   0.000154  -0.000063   0.000028   0.000021
    15  C   -0.000213  -0.000012   0.000217  -0.000013   0.000002   0.000001
    16  C    0.001810   0.000056  -0.000025  -0.000006   0.000039  -0.000001
    17  C   -0.000056   0.000002  -0.000002   0.000000   0.000000   0.000000
    18  H    0.000001   0.000006   0.000067  -0.000002   0.000000   0.000000
    19  C    0.001133  -0.000001   0.000001   0.000002   0.000000   0.000000
    20  H    0.001490  -0.000001  -0.000002  -0.000015  -0.000033   0.000000
    21  C    0.000002   0.000000  -0.000001   0.000000   0.000000   0.000000
    22  H    0.000001   0.000000   0.000000   0.000000   0.000000   0.000000
    23  H   -0.000057   0.000000   0.000000   0.000000   0.000001   0.000000
    24  H    0.000000   0.000000   0.000000   0.000000   0.000000   0.000000
    25  C    0.001442  -0.000763   0.000495  -0.000067   0.000019   0.000024
    26  C    0.000005   0.000005   0.000013   0.000000   0.000000   0.000000
    27  C    0.001703   0.000345   0.000129   0.000140   0.000003  -0.000008
    28  C   -0.000057   0.000000   0.000000   0.000000   0.000000   0.000000
    29  H    0.000022   0.000000  -0.000001   0.000000   0.000000   0.000000
    30  C    0.000124   0.000004   0.000004   0.000004  -0.000002   0.000000
    31  H    0.000036  -0.000125   0.000090   0.000104   0.000037   0.000011
    32  C    0.000000   0.000000   0.000000   0.000000   0.000000   0.000000
    33  H   -0.000001   0.000000   0.000000   0.000000   0.000000   0.000000
    34  H    0.000001   0.000000   0.000000  -0.000001   0.000000   0.000000
    35  H    0.000000   0.000000   0.000000   0.000000   0.000000   0.000000
             13         14         15         16         17         18
     1  C   -0.000026   0.148682  -0.024511  -0.056239   0.006849  -0.000116
     2  H   -0.000002  -0.070467   0.001771   0.005435   0.001557   0.002385
     3  C   -0.001682  -0.141931  -0.002185  -0.003239  -0.000518   0.000349
     4  C    0.007991  -0.003231   0.000512  -0.011726   0.000126  -0.000008
     5  C    0.007571  -0.004563   0.000624   0.000760  -0.000017   0.000271
     6  C   -0.042987   0.001979   0.000042  -0.000104   0.000001  -0.000001
     7  H   -0.000170  -0.003754  -0.000213   0.001810  -0.000056   0.000001
     8  C   -0.042546  -0.000585  -0.000012   0.000056   0.000002   0.000006
     9  H   -0.000178   0.000154   0.000217  -0.000025  -0.000002   0.000067
    10  C    0.399457  -0.000063  -0.000013  -0.000006   0.000000  -0.000002
    11  H   -0.004371   0.000028   0.000002   0.000039   0.000000   0.000000
    12  H   -0.004556   0.000021   0.000001  -0.000001   0.000000   0.000000
    13  H    0.516931  -0.000002   0.000000   0.000001   0.000000   0.000000
    14  C   -0.000002   5.392623   0.492647   0.447876  -0.073944  -0.050654
    15  C    0.000000   0.492647   5.091653  -0.072110   0.454426   0.400406
    16  C    0.000001   0.447876  -0.072110   5.067621  -0.026428   0.004339
    17  C    0.000000  -0.073944   0.454426  -0.026428   5.059107  -0.034802
    18  H    0.000000  -0.050654   0.400406   0.004339  -0.034802   0.509624
    19  C    0.000000  -0.058105  -0.030727   0.478947  -0.078677  -0.000281
    20  H    0.000000  -0.044533   0.004104   0.388589   0.000026  -0.000273
    21  C    0.000000  -0.018810  -0.086421  -0.091342   0.497929   0.005235
    22  H    0.000000   0.006929  -0.039677  -0.000687   0.396949  -0.004203
    23  H    0.000000   0.006023  -0.000475  -0.038885   0.005969   0.000025
    24  H    0.000000  -0.001550   0.007493   0.007894  -0.042563  -0.000184
    25  C    0.000002  -0.094385  -0.001520  -0.006787  -0.000422   0.000146
    26  C    0.000000  -0.007231   0.000551  -0.008994  -0.000099   0.000291
    27  C   -0.000003   0.001399  -0.000446   0.001645   0.000020  -0.000034
    28  C    0.000000  -0.001635  -0.000049  -0.000299   0.000014  -0.000008
    29  H    0.000000   0.004092   0.001580  -0.000614   0.000119   0.000203
    30  C    0.000000  -0.000816   0.000007   0.000050   0.000000   0.000000
    31  H    0.000009   0.000432  -0.000017   0.000057   0.000000   0.000001
    32  C    0.000000   0.000129  -0.000003   0.000033   0.000000   0.000001
    33  H    0.000000   0.000016  -0.000004   0.000014  -0.000001   0.000000
    34  H    0.000000   0.000012   0.000000   0.000000   0.000000   0.000000
    35  H    0.000000   0.000002   0.000000   0.000000   0.000000   0.000000
             19         20         21         22         23         24
     1  C    0.003307   0.000144   0.001273  -0.000340  -0.000350  -0.000012
     2  H   -0.000260   0.000104  -0.000001  -0.000039   0.000011  -0.000001
     3  C    0.001906  -0.002885  -0.000088   0.000025   0.000028  -0.000003
     4  C   -0.000376  -0.000912  -0.000025   0.000000   0.000056   0.000000
     5  C    0.000029  -0.000201  -0.000009   0.000001   0.000001   0.000000
     6  C   -0.000101   0.000892   0.000001   0.000000   0.000002   0.000000
     7  H    0.001133   0.001490   0.000002   0.000001  -0.000057   0.000000
     8  C   -0.000001  -0.000001   0.000000   0.000000   0.000000   0.000000
     9  H    0.000001  -0.000002  -0.000001   0.000000   0.000000   0.000000
    10  C    0.000002  -0.000015   0.000000   0.000000   0.000000   0.000000
    11  H    0.000000  -0.000033   0.000000   0.000000   0.000001   0.000000
    12  H    0.000000   0.000000   0.000000   0.000000   0.000000   0.000000
    13  H    0.000000   0.000000   0.000000   0.000000   0.000000   0.000000
    14  C   -0.058105  -0.044533  -0.018810   0.006929   0.006023  -0.001550
    15  C   -0.030727   0.004104  -0.086421  -0.039677  -0.000475   0.007493
    16  C    0.478947   0.388589  -0.091342  -0.000687  -0.038885   0.007894
    17  C   -0.078677   0.000026   0.497929   0.396949   0.005969  -0.042563
    18  H   -0.000281  -0.000273   0.005235  -0.004203   0.000025  -0.000184
    19  C    5.040767  -0.028516   0.491101   0.006248   0.397236  -0.042917
    20  H   -0.028516   0.497373   0.004556   0.000014  -0.003324  -0.000173
    21  C    0.491101   0.004556   5.034116  -0.040697  -0.039845   0.399661
    22  H    0.006248   0.000014  -0.040697   0.518110  -0.000206  -0.004591
    23  H    0.397236  -0.003324  -0.039845  -0.000206   0.514807  -0.004469
    24  H   -0.042917  -0.000173   0.399661  -0.004591  -0.004469   0.517402
    25  C   -0.000543   0.001140   0.000040   0.000011   0.000025   0.000001
    26  C   -0.000344   0.000338   0.000114  -0.000002   0.000016   0.000000
    27  C    0.000019  -0.000181  -0.000002   0.000000   0.000000   0.000000
    28  C   -0.000010   0.000073   0.000002   0.000000   0.000001   0.000000
    29  H   -0.000258  -0.000058  -0.000086   0.000006   0.000005   0.000001
    30  C    0.000004  -0.000110   0.000000   0.000000   0.000000   0.000000
    31  H    0.000000   0.000025   0.000000   0.000000   0.000000   0.000000
    32  C    0.000002  -0.000039   0.000000   0.000000   0.000000   0.000000
    33  H    0.000002   0.000005   0.000000   0.000000   0.000000   0.000000
    34  H    0.000000   0.000000   0.000000   0.000000   0.000000   0.000000
    35  H    0.000000   0.000001   0.000000   0.000000   0.000000   0.000000
             25         26         27         28         29         30
     1  C    0.033455  -0.085514  -0.031056   0.008416  -0.003190   0.012245
     2  H   -0.062300  -0.004747   0.000764   0.000606  -0.000140  -0.000115
     3  C   -0.065230   0.011439  -0.012513  -0.000880   0.000811  -0.001600
     4  C    0.006667   0.000863  -0.018539  -0.000023  -0.000041  -0.000968
     5  C   -0.000385  -0.000285   0.000905   0.000009  -0.000006  -0.000111
     6  C    0.000736   0.000015  -0.001445   0.000000   0.000000  -0.000041
     7  H    0.001442   0.000005   0.001703  -0.000057   0.000022   0.000124
     8  C   -0.000763   0.000005   0.000345   0.000000   0.000000   0.000004
     9  H    0.000495   0.000013   0.000129   0.000000  -0.000001   0.000004
    10  C   -0.000067   0.000000   0.000140   0.000000   0.000000   0.000004
    11  H    0.000019   0.000000   0.000003   0.000000   0.000000  -0.000002
    12  H    0.000024   0.000000  -0.000008   0.000000   0.000000   0.000000
    13  H    0.000002   0.000000  -0.000003   0.000000   0.000000   0.000000
    14  C   -0.094385  -0.007231   0.001399  -0.001635   0.004092  -0.000816
    15  C   -0.001520   0.000551  -0.000446  -0.000049   0.001580   0.000007
    16  C   -0.006787  -0.008994   0.001645  -0.000299  -0.000614   0.000050
    17  C   -0.000422  -0.000099   0.000020   0.000014   0.000119   0.000000
    18  H    0.000146   0.000291  -0.000034  -0.000008   0.000203   0.000000
    19  C   -0.000543  -0.000344   0.000019  -0.000010  -0.000258   0.000004
    20  H    0.001140   0.000338  -0.000181   0.000073  -0.000058  -0.000110
    21  C    0.000040   0.000114  -0.000002   0.000002  -0.000086   0.000000
    22  H    0.000011  -0.000002   0.000000   0.000000   0.000006   0.000000
    23  H    0.000025   0.000016   0.000000   0.000001   0.000005   0.000000
    24  H    0.000001   0.000000   0.000000   0.000000   0.000001   0.000000
    25  C    5.351908   0.471654   0.500137  -0.056871  -0.044901  -0.068772
    26  C    0.471654   5.124969  -0.083975   0.463483   0.397425  -0.033299
    27  C    0.500137  -0.083975   5.097609  -0.030193   0.004490   0.454368
    28  C   -0.056871   0.463483  -0.030193   5.062264  -0.035148  -0.073865
    29  H   -0.044901   0.397425   0.004490  -0.035148   0.489504  -0.000470
    30  C   -0.068772  -0.033299   0.454368  -0.073865  -0.000470   5.078494
    31  H   -0.034868   0.004970   0.394059  -0.000439  -0.000195  -0.036384
    32  C   -0.020687  -0.085142  -0.089872   0.480640   0.005228   0.495472
    33  H    0.006148  -0.038295  -0.000435   0.397074  -0.003861   0.005996
    34  H    0.006484  -0.000406  -0.036858   0.006013   0.000017   0.395645
    35  H   -0.001454   0.007448   0.007661  -0.043203  -0.000173  -0.042157
             31         32         33         34         35
     1  C   -0.011338   0.000380  -0.000355  -0.000363  -0.000014
     2  H   -0.000273   0.000034   0.000005   0.000014  -0.000002
     3  C    0.001059   0.000122   0.000012   0.000059   0.000001
     4  C   -0.001013  -0.000016   0.000000   0.000026   0.000001
     5  C   -0.001044  -0.000004   0.000000   0.000004   0.000000
     6  C    0.000266   0.000000   0.000000  -0.000001   0.000000
     7  H    0.000036   0.000000  -0.000001   0.000001   0.000000
     8  C   -0.000125   0.000000   0.000000   0.000000   0.000000
     9  H    0.000090   0.000000   0.000000   0.000000   0.000000
    10  C    0.000104   0.000000   0.000000  -0.000001   0.000000
    11  H    0.000037   0.000000   0.000000   0.000000   0.000000
    12  H    0.000011   0.000000   0.000000   0.000000   0.000000
    13  H    0.000009   0.000000   0.000000   0.000000   0.000000
    14  C    0.000432   0.000129   0.000016   0.000012   0.000002
    15  C   -0.000017  -0.000003  -0.000004   0.000000   0.000000
    16  C    0.000057   0.000033   0.000014   0.000000   0.000000
    17  C    0.000000   0.000000  -0.000001   0.000000   0.000000
    18  H    0.000001   0.000001   0.000000   0.000000   0.000000
    19  C    0.000000   0.000002   0.000002   0.000000   0.000000
    20  H    0.000025  -0.000039   0.000005   0.000000   0.000001
    21  C    0.000000   0.000000   0.000000   0.000000   0.000000
    22  H    0.000000   0.000000   0.000000   0.000000   0.000000
    23  H    0.000000   0.000000   0.000000   0.000000   0.000000
    24  H    0.000000   0.000000   0.000000   0.000000   0.000000
    25  C   -0.034868  -0.020687   0.006148   0.006484  -0.001454
    26  C    0.004970  -0.085142  -0.038295  -0.000406   0.007448
    27  C    0.394059  -0.089872  -0.000435  -0.036858   0.007661
    28  C   -0.000439   0.480640   0.397074   0.006013  -0.043203
    29  H   -0.000195   0.005228  -0.003861   0.000017  -0.000173
    30  C   -0.036384   0.495472   0.005996   0.395645  -0.042157
    31  H    0.477439   0.005041   0.000017  -0.003529  -0.000170
    32  C    0.005041   5.042772  -0.040847  -0.041258   0.399494
    33  H    0.000017  -0.040847   0.517567  -0.000213  -0.004406
    34  H   -0.003529  -0.041258  -0.000213   0.517823  -0.004467
    35  H   -0.000170   0.399494  -0.004406  -0.004467   0.519373
 Mulliken atomic charges:
              1
     1  C   -0.615768
     2  H    0.210949
     3  C    0.067546
     4  C   -0.105801
     5  C   -0.174517
     6  C   -0.179266
     7  H    0.181375
     8  C   -0.166085
     9  H    0.171337
    10  C   -0.155149
    11  H    0.163685
    12  H    0.162711
    13  H    0.164563
    14  C    0.073215
    15  C   -0.197651
    16  C   -0.087679
    17  C   -0.165563
    18  H    0.167215
    19  C   -0.179587
    20  H    0.182381
    21  C   -0.156703
    22  H    0.162146
    23  H    0.163406
    24  H    0.164012
    25  C    0.079422
    26  C   -0.135265
    27  C   -0.159835
    28  C   -0.175913
    29  H    0.185639
    30  C   -0.183709
    31  H    0.205742
    32  C   -0.151480
    33  H    0.161562
    34  H    0.160998
    35  H    0.162066
 Sum of Mulliken atomic charges =   0.00000
 Mulliken charges with hydrogens summed into heavy atoms:
              1
     1  C   -0.404819
     3  C    0.067546
     4  C    0.075574
     5  C   -0.003179
     6  C   -0.015580
     8  C   -0.003374
    10  C    0.009414
    14  C    0.073215
    15  C   -0.030436
    16  C    0.094703
    17  C   -0.003417
    19  C   -0.016181
    21  C    0.007309
    25  C    0.079422
    26  C    0.050375
    27  C    0.045907
    28  C   -0.014352
    30  C   -0.022711
    32  C    0.010585
 Sum of Mulliken charges with hydrogens summed into heavy atoms =   0.00000
 Electronic spatial extent (au):  <R**2>=           4931.1398
 Charge=              0.0000 electrons
 Dipole moment (field-independent basis, Debye):
    X=             -0.0954    Y=             -0.1675    Z=             -0.0178  Tot=              0.1936
 Quadrupole moment (field-independent basis, Debye-Ang):
   XX=           -107.6758   YY=           -113.2208   ZZ=           -106.8724
   XY=             -2.8011   XZ=             -0.8911   YZ=              2.6647
 Traceless Quadrupole moment (field-independent basis, Debye-Ang):
   XX=              1.5805   YY=             -3.9645   ZZ=              2.3839
   XY=             -2.8011   XZ=             -0.8911   YZ=              2.6647
 Octapole moment (field-independent basis, Debye-Ang**2):
  XXX=            -27.6869  YYY=              9.2941  ZZZ=              0.8043  XYY=             36.7155
  XXY=              1.5393  XXZ=             -2.8201  XZZ=            -10.1289  YZZ=            -18.6668
  YYZ=             11.8798  XYZ=             -1.4196
 Hexadecapole moment (field-independent basis, Debye-Ang**3):
 XXXX=          -3052.1382 YYYY=          -2913.5564 ZZZZ=           -664.7883 XXXY=             62.8959
 XXXZ=            -14.8992 YYYX=            -66.6425 YYYZ=             73.4465 ZZZX=              6.4588
 ZZZY=             -2.3288 XXYY=          -1019.0061 XXZZ=           -628.2766 YYZZ=           -636.1155
 XXYZ=             -7.4332 YYXZ=             11.0626 ZZXY=            -33.3785
 N-N= 1.290751410847D+03 E-N=-4.277581362550D+03  KE= 7.286043713889D+02
 PrsmSu:  requested number of processors reduced to:  10 ShMem   1 Linda.
 Calling FoFJK, ICntrl=      2127 FMM=F ISym2X=0 I1Cent= 0 IOpClX= 0 NMat=1 NMatS=1 NMatT=0.
 ***** Axes restored to original set *****
 -------------------------------------------------------------------
 Center     Atomic                   Forces (Hartrees/Bohr)
 Number     Number              X              Y              Z
 -------------------------------------------------------------------
      1        6          -0.007686902   -0.021521185   -0.004110620
      2        1           0.011410772    0.022567885   -0.000461941
      3        6           0.008742238   -0.010507158   -0.001066307
      4        6          -0.002561475    0.012096722   -0.000169600
      5        6          -0.004040919   -0.004499531   -0.000322964
      6        6           0.005128026    0.011347774    0.001707135
      7        1           0.017562012   -0.023792986    0.001046148
      8        6           0.007815291   -0.011225509   -0.001462830
      9        1           0.009869853    0.014647910    0.002412656
     10        6           0.013209828   -0.003746808   -0.000172902
     11        1          -0.009730423   -0.013451700   -0.002065712
     12        1          -0.006585358    0.015214842    0.001947539
     13        1          -0.016712785    0.001766991   -0.000163698
     14        6          -0.007684545   -0.001565322   -0.012053357
     15        6          -0.000610469   -0.005877565    0.000111786
     16        6           0.005136143    0.006631906    0.007844395
     17        6          -0.006563917   -0.003386148   -0.011550399
     18        1           0.003512064    0.017159909    0.000748372
     19        6           0.003842057    0.011642024    0.002275821
     20        1          -0.019266576   -0.004648616   -0.019776431
     21        6          -0.004902510    0.005939121   -0.011452782
     22        1           0.007939032    0.007095055    0.012672491
     23        1          -0.003171361   -0.016397796   -0.000129119
     24        1           0.004994167   -0.009539207    0.012910509
     25        6          -0.004527981    0.003396556    0.013805531
     26        6          -0.006801157   -0.000144152   -0.005540189
     27        6           0.011801235   -0.002960497    0.000192040
     28        6          -0.012485156    0.001550045   -0.001682042
     29        1           0.009361421    0.001965561    0.016191098
     30        6           0.004144213    0.001931078    0.011967784
     31        1          -0.021583936    0.003595319    0.002095398
     32        6          -0.004021281    0.003689137    0.012608181
     33        1           0.016307619   -0.003211442   -0.000313016
     34        1          -0.009154096   -0.001314572   -0.013818936
     35        1           0.007314876   -0.004447642   -0.014224039
 -------------------------------------------------------------------
 Cartesian Forces:  Max     0.023792986 RMS     0.009555824

 GradGradGradGradGradGradGradGradGradGradGradGradGradGradGradGradGradGrad
 Berny optimization.
 Internal  Forces:  Max     0.028679026 RMS     0.007792640
 Search for a local minimum.
 Step number   1 out of a maximum of  197
 All quantities printed in internal units (Hartrees-Bohrs-Radians)
 Mixed Optimization -- RFO/linear search
 Second derivative matrix not updated -- first step.
     Eigenvalues ---    0.00635   0.00650   0.00657   0.01534   0.01538
     Eigenvalues ---    0.01540   0.02138   0.02142   0.02147   0.02171
     Eigenvalues ---    0.02173   0.02174   0.02182   0.02184   0.02185
     Eigenvalues ---    0.02201   0.02202   0.02203   0.02212   0.02212
     Eigenvalues ---    0.02212   0.02215   0.02215   0.02215   0.02216
     Eigenvalues ---    0.02218   0.02219   0.02220   0.02220   0.02226
     Eigenvalues ---    0.04560   0.06397   0.06629   0.15997   0.15998
     Eigenvalues ---    0.16000   0.16000   0.16000   0.16000   0.16000
     Eigenvalues ---    0.16000   0.16000   0.16000   0.16000   0.16000
     Eigenvalues ---    0.16000   0.16000   0.16000   0.18859   0.19340
     Eigenvalues ---    0.22000   0.22000   0.22000   0.22000   0.22000
     Eigenvalues ---    0.22000   0.23466   0.23477   0.23478   0.24968
     Eigenvalues ---    0.24999   0.25000   0.31258   0.31362   0.31471
     Eigenvalues ---    0.31529   0.33516   0.33594   0.33972   0.34051
     Eigenvalues ---    0.34075   0.34095   0.34255   0.34261   0.34264
     Eigenvalues ---    0.34266   0.34269   0.34270   0.34280   0.34280
     Eigenvalues ---    0.34295   0.42400   0.42464   0.42495   0.42560
     Eigenvalues ---    0.42582   0.42621   0.46335   0.46392   0.46448
     Eigenvalues ---    0.46734   0.46763   0.46814   0.47214   0.47216
     Eigenvalues ---    0.47222   0.47346   0.47348   0.474461000.00000
     Eigenvalues --- 1000.000001000.000001000.000001000.000001000.00000
     Eigenvalues --- 1000.000001000.000001000.000001000.000001000.00000
     Eigenvalues --- 1000.000001000.000001000.000001000.000001000.00000
     Eigenvalues --- 1000.000001000.000001000.000001000.000001000.00000
     Eigenvalues --- 1000.000001000.000001000.000001000.000001000.00000
     Eigenvalues --- 1000.000001000.000001000.000001000.000001000.00000
     Eigenvalues --- 1000.000001000.000001000.000001000.000001000.00000
     Eigenvalues --- 1000.000001000.000001000.000001000.000001000.00000
     Eigenvalues --- 1000.000001000.000001000.000001000.000001000.00000
     Eigenvalues --- 1000.000001000.000001000.000001000.000001000.00000
     Eigenvalues --- 1000.000001000.000001000.000001000.000001000.00000
     Eigenvalues --- 1000.000001000.000001000.000001000.000001000.00000
     Eigenvalues --- 1000.000001000.000001000.000001000.000001000.00000
     Eigenvalues --- 1000.000001000.000001000.000001000.000001000.00000
     Eigenvalues --- 1000.000001000.000001000.000001000.000001000.00000
     Eigenvalues --- 1000.000001000.000001000.000001000.000001000.00000
     Eigenvalues --- 1000.000001000.000001000.000001000.000001000.00000
     Eigenvalues --- 1000.000001000.00000
 RFO step:  Lambda=-4.19351647D-02 EMin= 6.35160760D-03
 Linear search not attempted -- first point.
 Maximum step size (   0.300) exceeded in Quadratic search.
    -- Step size scaled by   0.592
 Iteration  1 RMS(Cart)=  0.12579683 RMS(Int)=  0.00304302
 Iteration  2 RMS(Cart)=  0.00615685 RMS(Int)=  0.00028262
 Iteration  3 RMS(Cart)=  0.00001074 RMS(Int)=  0.00028255
 Iteration  4 RMS(Cart)=  0.00000000 RMS(Int)=  0.00028255
 Variable       Old X    -DE/DX   Delta X   Delta X   Delta X     New X
                                 (Linear)    (Quad)   (Total)
    R1        2.12223  -0.02488   0.00000  -0.04151  -0.04151   2.08071
    R2        2.85014   0.02369   0.00000   0.03923   0.03923   2.88936
    R3        2.85327   0.02296   0.00000   0.03820   0.03820   2.89147
    R4        2.85122   0.02348   0.00000   0.03894   0.03894   2.89017
    R5        2.63968   0.00075   0.00000   0.00102   0.00104   2.64072
    R6        2.63929  -0.00424   0.00000  -0.00492  -0.00490   2.63440
    R7        2.62556  -0.00443   0.00000  -0.00500  -0.00500   2.62056
    R8        2.08154  -0.02868   0.00000  -0.04499  -0.04499   2.03655
    R9        2.62783  -0.00240   0.00000  -0.00284  -0.00284   2.62499
   R10        2.07204  -0.01782   0.00000  -0.02754  -0.02754   2.04450
   R11        2.62857  -0.00556   0.00000  -0.00646  -0.00648   2.62209
   R12        2.06892  -0.01673   0.00000  -0.02573  -0.02573   2.04319
   R13        2.62723  -0.00917   0.00000  -0.01068  -0.01069   2.61654
   R14        2.06901  -0.01669   0.00000  -0.02568  -0.02568   2.04333
   R15        2.06860  -0.01681   0.00000  -0.02584  -0.02584   2.04276
   R16        2.63868  -0.00420   0.00000  -0.00486  -0.00485   2.63383
   R17        2.63862   0.00000   0.00000   0.00010   0.00012   2.63874
   R18        2.62785  -0.00225   0.00000  -0.00264  -0.00265   2.62520
   R19        2.07170  -0.01752   0.00000  -0.02707  -0.02707   2.04463
   R20        2.62551  -0.00465   0.00000  -0.00529  -0.00528   2.62023
   R21        2.08021  -0.02667   0.00000  -0.04175  -0.04175   2.03845
   R22        2.62723  -0.00868   0.00000  -0.01008  -0.01010   2.61712
   R23        2.06877  -0.01655   0.00000  -0.02545  -0.02545   2.04331
   R24        2.62863  -0.00527   0.00000  -0.00613  -0.00614   2.62248
   R25        2.06878  -0.01670   0.00000  -0.02569  -0.02569   2.04309
   R26        2.06860  -0.01681   0.00000  -0.02585  -0.02585   2.04276
   R27        2.64387  -0.00200   0.00000  -0.00231  -0.00230   2.64156
   R28        2.63494  -0.00219   0.00000  -0.00242  -0.00241   2.63253
   R29        2.62387  -0.00479   0.00000  -0.00555  -0.00555   2.61832
   R30        2.07244  -0.01877   0.00000  -0.02904  -0.02904   2.04340
   R31        2.62906  -0.00131   0.00000  -0.00143  -0.00143   2.62763
   R32        2.07378  -0.02190   0.00000  -0.03395  -0.03395   2.03983
   R33        2.62964  -0.00494   0.00000  -0.00584  -0.00585   2.62379
   R34        2.06884  -0.01662   0.00000  -0.02557  -0.02557   2.04327
   R35        2.62535  -0.00740   0.00000  -0.00853  -0.00854   2.61681
   R36        2.06886  -0.01663   0.00000  -0.02558  -0.02558   2.04329
   R37        2.06835  -0.01660   0.00000  -0.02551  -0.02551   2.04283
    A1        1.87605  -0.00999   0.00000  -0.05146  -0.05054   1.82551
    A2        1.88370  -0.00872   0.00000  -0.04854  -0.04772   1.83598
    A3        1.82857   0.00380   0.00000   0.00007   0.00033   1.82890
    A4        1.92852   0.01537   0.00000   0.05446   0.05329   1.98181
    A5        1.99395   0.00081   0.00000   0.02158   0.01966   2.01361
    A6        1.94584  -0.00318   0.00000   0.01228   0.01011   1.95595
    A7        2.12444   0.02289   0.00000   0.04642   0.04639   2.17083
    A8        2.07971  -0.01105   0.00000  -0.02235  -0.02237   2.05734
    A9        2.07901  -0.01183   0.00000  -0.02403  -0.02399   2.05501
   A10        2.10240   0.00450   0.00000   0.01017   0.01016   2.11255
   A11        2.07776   0.00440   0.00000   0.01448   0.01444   2.09220
   A12        2.10293  -0.00889   0.00000  -0.02446  -0.02450   2.07844
   A13        2.10009   0.00815   0.00000   0.01790   0.01793   2.11802
   A14        2.09464  -0.00471   0.00000  -0.01082  -0.01083   2.08381
   A15        2.08845  -0.00344   0.00000  -0.00709  -0.00710   2.08135
   A16        2.09623   0.00240   0.00000   0.00500   0.00498   2.10122
   A17        2.09145  -0.00111   0.00000  -0.00223  -0.00222   2.08923
   A18        2.09550  -0.00130   0.00000  -0.00277  -0.00277   2.09274
   A19        2.09792  -0.00024   0.00000  -0.00144  -0.00145   2.09648
   A20        2.09096   0.00030   0.00000   0.00125   0.00126   2.09222
   A21        2.09430  -0.00006   0.00000   0.00019   0.00019   2.09449
   A22        2.09073  -0.00299   0.00000  -0.00761  -0.00764   2.08308
   A23        2.09603   0.00154   0.00000   0.00393   0.00395   2.09997
   A24        2.09643   0.00145   0.00000   0.00368   0.00370   2.10013
   A25        2.08469  -0.00801   0.00000  -0.01619  -0.01624   2.06845
   A26        2.11756   0.01876   0.00000   0.03805   0.03799   2.15555
   A27        2.08093  -0.01076   0.00000  -0.02191  -0.02190   2.05903
   A28        2.09892   0.00740   0.00000   0.01632   0.01633   2.11525
   A29        2.09514  -0.00437   0.00000  -0.01013  -0.01014   2.08500
   A30        2.08912  -0.00303   0.00000  -0.00620  -0.00621   2.08291
   A31        2.10144   0.00421   0.00000   0.00946   0.00941   2.11085
   A32        2.07787   0.00376   0.00000   0.01260   0.01249   2.09037
   A33        2.10372  -0.00793   0.00000  -0.02167  -0.02177   2.08195
   A34        2.09785  -0.00031   0.00000  -0.00142  -0.00144   2.09640
   A35        2.09114   0.00035   0.00000   0.00128   0.00129   2.09243
   A36        2.09420  -0.00004   0.00000   0.00014   0.00015   2.09435
   A37        2.09606   0.00225   0.00000   0.00464   0.00464   2.10069
   A38        2.09175  -0.00103   0.00000  -0.00205  -0.00205   2.08970
   A39        2.09537  -0.00122   0.00000  -0.00259  -0.00259   2.09278
   A40        2.09116  -0.00279   0.00000  -0.00703  -0.00707   2.08409
   A41        2.09614   0.00136   0.00000   0.00343   0.00344   2.09957
   A42        2.09588   0.00143   0.00000   0.00361   0.00362   2.09951
   A43        2.06936   0.00067   0.00000   0.00125   0.00124   2.07060
   A44        2.13614   0.00726   0.00000   0.01463   0.01462   2.15075
   A45        2.07662  -0.00796   0.00000  -0.01614  -0.01613   2.06049
   A46        2.10348   0.00470   0.00000   0.01028   0.01028   2.11376
   A47        2.08447  -0.00125   0.00000  -0.00191  -0.00192   2.08255
   A48        2.09523  -0.00345   0.00000  -0.00837  -0.00837   2.08686
   A49        2.10148   0.00351   0.00000   0.00806   0.00807   2.10955
   A50        2.09253  -0.00010   0.00000   0.00082   0.00082   2.09335
   A51        2.08918  -0.00341   0.00000  -0.00888  -0.00889   2.08029
   A52        2.09660   0.00085   0.00000   0.00120   0.00119   2.09779
   A53        2.09181  -0.00042   0.00000  -0.00059  -0.00059   2.09123
   A54        2.09477  -0.00043   0.00000  -0.00061  -0.00061   2.09417
   A55        2.09926   0.00111   0.00000   0.00225   0.00224   2.10150
   A56        2.08886  -0.00049   0.00000  -0.00093  -0.00093   2.08793
   A57        2.09507  -0.00062   0.00000  -0.00132  -0.00132   2.09375
[...]
 6194,0.00042152,0.00052233,0.00017429,0.00010654,-0.00025520,0.0001873
 4,0.00042459,-0.00017323,0.00019153,-0.00010882,0.00002714,0.00000571,
 -0.00004888,0.00042381,0.00003005,0.00005195,-0.00008043,-0.00014933,-
 0.00014071,-0.00007769,-0.00029808,0.00006928,-0.00001876,-0.00002131,
 0.00001265,0.00001116,0.00001736,-0.00001247,-0.00003683,0.00000874,0.
 00000639,0.00076431,0.00012660,-0.00000110,0.00027865,-0.00011338,0.00
 023636,0.00024238,-0.00009968,-0.00033335,-0.00010748,0.00027505,0.000
 02825,-0.00001850,0.00004526,0.00004959,-0.00000637,0.00010772,0.00049
 761,-0.00020165,0.00040249,-0.00001489,0.00001106,-0.00020035,-0.00015
 964,-0.00003113,-0.00000913,0.00001821,0.00002598,0.00000320,-0.000012
 10,0.00000876,0.00000639,0.00003746,-0.05595063,-0.04066405,-0.0534639
 8,0.05136528,-0.00168256,-0.04274039,0.11881024,-0.05642603,-0.3043424
 1,-0.02102050,0.01843386,0.07036427,0.00096386,0.00063839,-0.00010515,
 -0.00861723,0.21107319,0.70946307,-0.00075147,0.00148962,0.00033608,-0
 .00002027,0.00008523,0.00011337,0.00032580,0.00116199,0.00145350,-0.00
 006504,0.00060218,0.00097655,0.00038111,-0.00036850,0.00063896,0.00025
 687,-0.00014688,0.00017038,0.00001681,0.00001957,-0.00025302,-0.000145
 01,-0.00005767,-0.00002833,-0.00001366,-0.00001666,-0.00007911,-0.0000
 8675,0.00024381,-0.00024097,-0.00000986,-0.00001234,0.00000053,-0.0000
 1799,0.00000887,-0.00000251,-0.00001533,0.00000917,-0.00000274,0.00018
 414,-0.00029872,-0.00024276,-0.00000570,0.00012320,-0.00009196,0.00016
 504,-0.00011131,-0.00026931,-0.00000119,-0.00003292,0.00000524,-0.0000
 1330,0.00000095,0.00001284,0.00002676,0.00008300,0.00003594,-0.0002751
 4,0.00007239,0.00008441,-0.00001136,0.00001055,0.00001778,-0.00000785,
 0.00000830,-0.00000020,-0.00001165,0.00000311,-0.00001089,-0.00000486,
 -0.00000156,0.00001602,-0.01416176,-0.00233380,0.00662805,0.00030614,-
 0.00288145,-0.00231481,-0.35606903,-0.06058621,0.04858467,0.00085094,0
 .00032879,-0.00035545,-0.00077993,-0.00016307,0.00025882,-0.00741411,-
 0.00443499,-0.00229687,0.37576300,0.00064852,-0.00354625,0.00186676,0.
 00016376,-0.00002768,-0.00040762,-0.00026683,-0.00013232,-0.00084868,0
 .00038539,0.00033107,-0.00013473,0.00004199,-0.00024636,0.00028196,0.0
 0005297,0.00006364,-0.00011785,-0.00003795,-0.00007530,0.00021284,0.00
 024638,-0.00017785,0.00014559,-0.00007099,-0.00004770,-0.00008038,-0.0
 0002890,-0.00002949,-0.00001961,-0.00005390,-0.00001771,0.00003885,-0.
 00000433,-0.00000105,-0.00003270,-0.00002982,-0.00000323,0.00000319,-0
 .00012516,0.00053113,0.00057937,0.00003274,-0.00019586,0.00012937,-0.0
 0007913,0.00017110,0.00025780,0.00002292,0.00002573,-0.00001098,-0.000
 02440,-0.00003008,-0.00001730,0.00001012,-0.00006645,-0.00007674,0.000
 17121,-0.00008443,-0.00010147,0.00000220,-0.00001036,0.00000540,0.0000
 0701,-0.00001260,0.00000345,0.00000908,-0.00001679,0.00001592,-0.00000
 538,-0.00000460,-0.00001572,-0.01540618,0.00272411,0.00311083,-0.00335
 278,0.00559603,-0.00504697,-0.05865581,-0.06397509,0.00158716,0.000391
 58,-0.00103231,-0.00033474,-0.00073415,-0.00019686,0.00022285,0.009449
 99,0.00695079,-0.00242345,0.06626629,0.05141448,-0.00024779,0.00187495
 ,0.00016803,0.00005796,0.00011935,0.00052450,0.00014897,-0.00104179,-0
 .00171054,0.00028630,-0.00025532,-0.00054945,0.00021292,-0.00036734,-0
 .00013363,0.00045239,-0.00009956,0.00003052,-0.00000089,0.00006015,-0.
 00022163,-0.00036395,-0.00002136,-0.00004729,0.00003587,0.00013900,0.0
 0005788,0.00002162,0.00027881,-0.00013865,-0.00002608,-0.00001636,0.00
 002869,-0.00002823,0.00005604,0.00000442,-0.00004436,0.00004171,0.0000
 1763,0.00008680,-0.00014244,-0.00033526,-0.00000608,0.00007181,-0.0000
 6396,0.00007049,-0.00008512,-0.00006272,-0.00000439,-0.00005109,0.0000
 0168,-0.00000775,-0.00000028,-0.00000196,0.00001199,0.00006632,-0.0000
 1251,-0.00016686,0.00003014,0.00007945,-0.00000490,0.00001668,0.000029
 03,-0.00000472,0.00000582,0.00000689,-0.00000204,-0.00001393,0.0000008
 9,0.00000031,-0.00000563,0.00001506,-0.02622569,-0.00494721,0.01024991
 ,-0.00197859,-0.00506692,-0.00258644,0.04921784,0.00191215,-0.07708473
 ,-0.00037518,-0.00013930,-0.00111937,-0.00133207,-0.00025160,0.0002267
 8,0.03340270,0.00675616,0.00015383,-0.05585773,0.00295314,0.07643430,-
 0.00058291,0.00000335,-0.00234259,0.00039454,0.00097238,0.00016473,0.0
 0011770,-0.00066028,0.00015845,0.00046000,0.00011331,0.00006554,-0.000
 39162,0.00021162,0.00024942,-0.00027705,0.00024872,-0.00011866,0.00002
 599,0.00001576,-0.00002633,0.00048068,0.00006027,0.00000731,-0.0000381
 7,-0.00006077,-0.00005390,-0.00014782,-0.00036476,0.00011734,-0.000021
 30,-0.00001170,-0.00000297,-0.00000502,0.00002738,0.00000026,-0.000021
 41,0.00000381,0.00000354,0.00106135,0.00008754,-0.00050363,0.00034810,
 -0.00011321,0.00037008,0.00024945,0.00006481,-0.00014082,-0.00016968,0
 .00034449,-0.00005647,0.00000607,0.00000296,-0.00001026,0.00006602,-0.
 00001512,0.00050752,-0.00025062,0.00032847,0.00019789,0.00001871,-0.00
 028068,-0.00024040,-0.00004517,-0.00001625,0.00001057,0.00002898,-0.00
 001336,0.00001844,0.00000176,0.00000066,0.00001673,-0.08848553,-0.0345
 5601,-0.02911000,0.09059704,-0.00051791,-0.05231988,-0.01241809,0.0366
 2737,0.10458226,-0.21962361,-0.05012970,-0.03063351,-0.00000734,-0.000
 63337,0.00447823,-0.35023786,-0.07119342,0.00387372,0.00139634,-0.0008
 8321,0.00247805,0.72256369,-0.00028566,-0.00059878,-0.00074471,0.00036
 998,0.00037372,-0.00017223,-0.00002770,-0.00027014,-0.00009363,0.00025
 147,-0.00000117,0.00002296,-0.00011658,0.00008116,0.00014556,-0.000130
 84,0.00009979,-0.00004980,0.00000311,-0.00000617,-0.00000336,0.0002026
 8,0.00002727,0.00002445,-0.00001455,-0.00003920,-0.00003436,-0.0000255
 7,-0.00015121,0.00005216,0.00000419,-0.00000187,-0.00000503,0.00000090
 ,0.00000582,-0.00000153,-0.00000423,-0.00000391,-0.00000027,0.00056650
 ,-0.00001168,-0.00004800,0.00017722,0.00005669,0.00019747,0.00012044,0
 .00007193,-0.00026858,-0.00009645,0.00018163,-0.00003926,0.00000187,0.
 00000001,0.00000676,0.00005071,-0.00005825,0.00022865,-0.00007219,0.00
 001485,-0.00007560,-0.00000949,-0.00011363,-0.00017415,-0.00002432,0.0
 0000043,-0.00000781,0.00001602,0.00004284,-0.00002043,-0.00000527,0.00
 000355,-0.00000513,-0.03489815,-0.02098660,-0.00880673,0.02658018,0.00
 033970,-0.04052723,0.01043359,0.02629718,0.03351389,-0.08245719,-0.137
 02518,-0.07567607,-0.00093438,0.00737662,-0.00353893,-0.03943804,-0.10
 613740,-0.02948527,-0.00066424,0.00694394,-0.00460657,0.11457392,0.288
 56488,-0.00110711,0.00048768,-0.00102168,0.00041352,0.00038900,-0.0001
 0769,-0.00015320,-0.00023717,-0.00016236,0.00015004,-0.00011709,0.0000
 1946,-0.00001427,0.00012429,0.00004658,-0.00009612,0.00004249,-0.00002
 299,-0.00000291,-0.00000156,-0.00001253,0.00011208,0.00005559,0.000033
 53,-0.00005603,0.00001443,-0.00004639,0.00005260,-0.00008819,0.0000479
 9,0.00002460,0.00000118,-0.00001245,0.00003059,-0.00003089,-0.00001224
 ,0.00001380,-0.00000652,-0.00000698,0.00100273,-0.00048816,-0.00018345
 ,0.00009669,0.00027700,0.00000224,-0.00001494,-0.00003586,-0.00030122,
 -0.00010981,0.00008418,-0.00004284,0.00002111,-0.00000835,0.00002811,0
 .00003131,0.00003129,0.00020286,-0.00004797,0.00003220,-0.00001919,-0.
 00001394,-0.00005509,-0.00015621,-0.00003072,0.00001580,-0.00003475,0.
 00000966,0.00005485,-0.00003085,-0.00000662,0.00001375,-0.00000183,-0.
 03047382,-0.01017628,-0.00982673,0.01058599,-0.02359267,-0.05467985,0.
 04144559,0.01638267,0.02228703,-0.11122160,-0.09825500,-0.25164493,0.0
 0383019,-0.00385899,-0.00300191,0.08484894,-0.00717517,-0.16079498,0.0
 0274362,-0.00431840,-0.00411176,-0.09122636,0.20448507,0.74769373,-0.0
 0052702,-0.00023924,-0.00033007,0.00000021,0.00003021,0.00005279,0.000
 11284,0.00001711,0.00022072,-0.00006715,0.00006252,-0.00000775,-0.0000
 6307,-0.00002296,0.00002004,0.00001642,0.00000185,-0.00001213,0.000006
 55,0.00000109,-0.00000844,0.00000448,-0.00002372,0.00000302,0.00001207
 ,-0.00001668,0.00000001,-0.00002118,0.00001045,-0.00000105,-0.00001583
 ,-0.00000717,0.00000063,-0.00001471,0.00001427,-0.00000820,-0.00001462
 ,0.00000300,-0.00000077,-0.00010542,0.00015039,-0.00002602,0.00003413,
 -0.00007462,0.00004366,0.00002366,-0.00006012,0.00001126,0.00001544,-0
 .00000135,0.00001584,-0.00001079,0.00000303,-0.00001150,-0.00000032,0.
 00002862,0.00000386,-0.00001512,0.00004923,-0.00000953,0.00001317,-0.0
 0000503,0.00002956,-0.00000128,-0.00000318,0.00002191,-0.00000499,-0.0
 0002151,0.00000361,0.00000024,-0.00000926,0.00001600,0.00158238,-0.000
 89836,0.00291969,-0.00837746,-0.00485512,-0.00243550,0.00091179,0.0003
 9553,-0.00026289,-0.34966793,-0.06273430,0.05278922,0.00086097,0.00169
 577,0.00001852,0.00037653,-0.00336860,-0.00261540,-0.00017446,0.000262
 48,-0.00009845,-0.01292490,-0.00172362,0.00851801,0.36809334,0.0004629
 6,0.00003215,0.00004708,-0.00002337,-0.00005032,-0.00002207,-0.0000871
 0,-0.00009700,0.00000160,0.00005180,0.00000448,0.00001425,0.00000469,0
 .00005888,0.00000708,-0.00003394,0.00002959,-0.00000391,-0.00000120,-0
 .00000232,-0.00000098,0.00005284,-0.00000064,0.00000237,-0.00000596,-0
 .00001120,-0.00001086,-0.00000782,-0.00004657,0.00001922,-0.00000063,-
 0.00000264,-0.00000418,0.00000844,-0.00000271,0.00000087,-0.00000062,-
 0.00000187,-0.00000156,-0.00005897,0.00000632,0.00009203,-0.00003827,-
 0.00001834,-0.00001611,0.00001172,-0.00000993,0.00001815,0.00001078,-0
 .00001224,-0.00000314,0.00000138,-0.00000538,-0.00000420,0.00001815,0.
 00002158,-0.00000404,-0.00003524,0.00000282,-0.00001220,0.00000883,-0.
 00000437,0.00002061,0.00000303,-0.00000080,-0.00000137,-0.00000941,-0.
 00001623,0.00000528,-0.00000455,-0.00000172,0.00000383,-0.00091997,0.0
 0705021,-0.00449938,0.00942152,0.00716405,-0.00280054,0.00042603,-0.00
 092228,-0.00026274,-0.06285653,-0.06538417,0.00252673,0.00120629,-0.00
 395478,0.00220187,-0.00317152,0.00571719,-0.00511839,0.00024062,-0.001
 01032,0.00044928,-0.01592054,0.00273704,0.00429800,0.07033603,0.052570
 78,0.00134080,0.00038421,0.00019030,-0.00004679,-0.00002817,0.00007692
 ,-0.00003270,0.00000113,-0.00045056,0.00006240,-0.00003420,0.00002538,
 0.00006861,-0.00002542,0.00000295,0.00002088,-0.00000561,0.00003643,-0
 .00000370,-0.00000093,-0.00001779,-0.00003166,0.00001841,0.00001645,-0
 .00000871,0.00000159,-0.00000469,0.00004351,0.00001664,-0.00001172,0.0
 0001603,0.00000401,-0.00000239,0.00000736,-0.00000970,0.00000228,0.000
 00774,-0.00000299,-0.00000319,0.00009226,-0.00013376,0.00004975,-0.000
 03116,0.00005086,-0.00005970,-0.00003379,0.00003679,-0.00002685,-0.000
 01568,-0.00001226,-0.00000692,0.00001438,0.00000389,0.00001019,-0.0000
 1561,-0.00000033,-0.00001268,0.00002906,-0.00002154,-0.00000232,-0.000
 01827,0.00002266,-0.00002026,0.00000440,0.00000517,-0.00001306,0.00000
 667,0.00001942,-0.00000699,0.00000488,0.00000596,-0.00000775,0.0022822
 0,-0.00448687,-0.00404313,0.03337978,0.00726004,0.00042125,-0.00038564
 ,-0.00022267,-0.00119095,0.05259562,0.00242692,-0.07894185,-0.00116567
 ,0.00192595,0.00045366,-0.00209577,-0.00501442,-0.00236692,-0.00003645
 ,0.00045467,-0.00007789,-0.02706949,-0.00567249,0.01010617,-0.05796045
 ,0.00108593,0.07522724,0.00043287,0.00031111,0.00036040,-0.00001819,0.
 00007040,0.00010925,0.00004220,-0.00001281,-0.00008401,0.00001207,-0.0
 0003949,-0.00001585,-0.00000544,0.00000279,-0.00000842,-0.00001876,-0.
 00000313,-0.00000385,0.00000025,-0.00000067,0.00000984,-0.00000182,0.0
 0001157,-0.00000785,-0.00000226,0.00001032,0.00000567,-0.00001301,0.00
 000126,-0.00000378,0.00000265,0.00000378,0.00000414,0.00000035,-0.0000
 0203,0.00000297,0.00000464,0.00000032,0.00000306,-0.00000336,0.0000052
 3,0.00002886,-0.00000607,0.00001363,0.00001508,0.00000129,0.00000401,-
 0.00002931,0.00000443,0.00000159,0.00000280,-0.00000432,-0.00000305,0.
 00000108,0.00001072,-0.00002062,-0.00000123,-0.00000402,-0.00003544,0.
 00000439,-0.00000072,0.00000148,-0.00000400,0.00000026,0.00000019,-0.0
 0000295,-0.00000431,0.00000789,-0.00000413,-0.00000314,0.00000145,-0.0
 0000464,0.00001727,-0.00078526,0.00405323,-0.00054359,0.00052851,0.000
 97537,0.01268491,0.00746670,0.01379784,-0.00530234,-0.00264555,0.00313
 781,-0.00004124,0.00024397,-0.00020507,-0.16866873,-0.07915983,-0.1169
 2652,0.00092474,0.00114862,-0.00114199,-0.01239441,-0.01596745,-0.0278
 6793,-0.00086902,-0.00073055,-0.00123211,0.17287442,-0.00049939,-0.000
 17527,0.00015518,-0.00001913,-0.00006210,-0.00006319,-0.00003387,0.000
 02630,-0.00005263,-0.00004423,-0.00001855,0.00000488,0.00007183,-0.000
 01194,-0.00001877,0.00003399,-0.00002464,0.00002298,-0.00000955,-0.000
 00709,0.00000500,-0.00004073,0.00000651,0.00002500,-0.00002008,-0.0000
 0025,-0.00001681,0.00005135,0.00003251,0.00000258,0.00000633,-0.000000
 16,-0.00000550,0.00001337,-0.00002580,-0.00000942,0.00001152,-0.000004
 54,-0.00000952,0.00010797,-0.00002870,-0.00007015,0.00001835,0.0000261
 7,-0.00001636,-0.00001666,0.00004414,0.00004310,-0.00001701,0.00000941
 ,-0.00001196,0.00000570,-0.00000647,0.00000292,0.00000170,-0.00001588,
 -0.00000235,-0.00000059,-0.00000552,-0.00000985,0.00000056,-0.00000744
 ,-0.00001560,-0.00000558,-0.00000185,-0.00001121,-0.00000131,-0.000000
 34,0.00000664,-0.00000019,0.00000431,-0.00000832,-0.00059033,0.0069467
 4,-0.00392338,0.00064558,-0.00057045,0.00055517,-0.00670964,0.00188547
 ,-0.00451018,-0.00284992,0.00742759,-0.00186892,0.00024630,-0.00105123
 ,0.00036049,-0.07891703,-0.10945871,-0.09835059,0.00146027,-0.00382520
 ,0.00195876,-0.00185389,0.00268901,-0.00608011,-0.00010028,-0.00019549
 ,-0.00021451,0.08792647,0.10026645,-0.00109901,-0.00049558,-0.00040597
 ,0.00011944,-0.00010164,-0.00040458,-0.00029739,0.00011245,0.00003067,
 0.00009163,-0.00002673,0.00003887,0.00004584,-0.00001836,0.00002991,-0
 .00000054,0.00001727,0.00001574,-0.00001938,-0.00000350,-0.00002070,0.
 00000378,0.00001817,0.00000428,-0.00000766,0.00002865,-0.00001319,0.00
 005865,-0.00001159,0.00002148,0.00002769,0.00000407,-0.00002102,0.0000
 1135,-0.00001637,-0.00000274,0.00001641,-0.00000731,-0.00000904,0.0001
 3797,-0.00026449,-0.00000970,-0.00003116,0.00012772,-0.00008798,0.0000
 1821,0.00006137,-0.00009987,-0.00000839,-0.00000011,-0.00001277,-0.000
 00232,0.00000972,0.00002554,0.00001135,-0.00001807,0.00000397,-0.00002
 796,-0.00006660,0.00001067,-0.00000775,0.00001659,-0.00002747,-0.00000
 498,0.00000639,-0.00001927,-0.00001350,0.00002855,-0.00001387,-0.00000
 606,0.00000783,-0.00001090,0.00436056,-0.00341539,-0.00296920,0.001012
 20,0.00060750,-0.00011279,-0.02183022,-0.01435068,-0.01556830,0.002683
 64,-0.00205115,0.00194684,-0.00022174,0.00035905,-0.00019398,-0.116916
 38,-0.09841458,-0.21559964,0.00003434,0.00218501,0.00046052,0.00792579
 ,0.00371670,0.00953435,0.00026204,0.00020123,0.00021878,0.12491586,0.1
 0993959,0.22290227,0.00003265,0.00025295,-0.00018350,0.00002098,0.0000
 8638,0.00009922,0.00003420,0.00001080,0.00002474,-0.00000704,0.0000532
 3,0.00002811,0.00000035,-0.00003704,0.00002890,0.00004156,0.00000329,0
 .00000742,0.00000208,0.00000181,-0.00002393,-0.00000359,-0.00001710,0.
 00000437,0.00000582,-0.00000509,-0.00000447,0.00000027,0.00001007,-0.0
 0001236,-0.00000681,-0.00000571,0.,-0.00000635,0.00001149,-0.00000146,
 -0.00001082,0.00000341,0.00000060,0.00000829,0.00001188,-0.00003871,0.
 00000684,-0.00001099,0.00000643,0.00001588,-0.00003467,-0.00001595,0.0
 0000255,-0.00000248,0.00000417,-0.00000369,0.00000183,-0.00000137,-0.0
 0000327,0.00001883,0.00001041,-0.00001958,0.00002747,-0.00000218,-0.00
 000042,-0.00000203,0.00000662,-0.00000032,0.00000038,0.00000620,0.0000
 0249,-0.00000381,-0.00000069,0.00000159,-0.00000235,0.00000632,-0.0010
 1058,-0.00032255,-0.00077309,-0.00139910,-0.00375761,-0.00233374,-0.00
 548587,-0.00364100,0.00078793,0.01313736,-0.00610503,-0.02093296,0.000
 37727,-0.00024861,-0.00091104,-0.00689088,0.01001642,0.03350726,-0.000
 54196,0.00044568,0.00143353,-0.11977390,0.02354310,0.10851229,0.000811
 06,0.00164109,0.00020708,0.00089165,0.00112810,-0.00124232,0.11977129,
 0.00025055,-0.00085374,0.00048646,-0.00011088,-0.00005619,-0.00007359,
 -0.00005241,0.00002804,-0.00001609,0.00004873,0.00000605,0.00000961,0.
 00002395,0.00000738,0.00003505,0.00000802,-0.00000027,-0.00000261,-0.0
 0000480,-0.00000801,0.00000093,0.00000271,0.00000164,0.00000743,-0.000
 01332,0.00000315,-0.00000988,0.00000245,-0.00000065,-0.00000294,0.0000
 0212,0.00000087,0.00000253,0.00000692,-0.00000870,-0.00000282,0.000003
 93,-0.00000084,-0.00000146,-0.00000887,0.00006842,0.00014101,0.0000207
 0,-0.00002629,0.00003131,0.00001915,0.00001186,0.00001322,0.00000392,0
 .00001051,0.00000846,-0.00000440,-0.00000388,0.00000089,0.00000528,-0.
 00000026,0.00000021,-0.00002088,0.00000836,-0.00001002,-0.00000032,-0.
 00000635,-0.00000072,-0.00000035,-0.00000385,-0.00000289,-0.00000210,-
 0.00000530,0.00000601,-0.00000206,0.00000210,-0.00000279,-0.00028221,-
 0.00094997,0.00024685,-0.00403045,0.00580993,-0.00433871,-0.00337306,0
 .00718173,-0.00227682,0.00811032,0.00169001,-0.01408937,0.00036218,-0.
 00026181,-0.00066401,-0.00407058,0.00685643,0.00693036,-0.00010758,0.0
 0001388,0.00032156,0.02353738,-0.07050287,-0.07226398,0.00110354,-0.00
 364379,0.00216160,0.00164459,-0.00386697,0.00181426,-0.02307215,0.0584
 9937,-0.00005852,0.00035148,-0.00013877,0.00002443,0.00006870,0.000041
 17,-0.00004336,0.00003597,-0.00007154,0.00003014,-0.00005115,-0.000001
 04,0.00002583,-0.00000856,-0.00002858,-0.00001662,-0.00000635,0.000003
 33,-0.00000606,0.00000087,0.00001152,-0.00001149,0.00002324,-0.0000103
 7,-0.00000627,0.00002179,0.00000350,0.00001725,-0.00000200,0.00000388,
 0.00001362,0.00000689,-0.00000378,0.00000679,-0.00001066,0.00000582,0.
 00001404,-0.00000250,0.00000047,0.00008531,-0.00010998,-0.00002860,-0.
 00001141,0.00006397,-0.00002148,-0.00000792,0.00004736,-0.00003133,-0.
 00000942,0.00001192,-0.00000653,-0.00000141,0.00000135,0.00001228,0.00
 000603,-0.00004437,0.00000536,0.00001023,-0.00005741,0.00001029,-0.000
 00759,0.00000129,-0.00002554,-0.00000211,0.00000135,-0.00001550,-0.000
 00034,0.00002349,-0.00000612,-0.00000202,0.00000780,-0.00001489,-0.000
 81102,0.00037587,0.00061962,-0.00292718,-0.00449407,-0.00048470,0.0014
 3098,-0.00215929,0.00254424,0.01477696,-0.00405990,-0.01541414,0.00054
 433,-0.00023089,-0.00098447,-0.00241457,-0.00290119,-0.00044049,-0.000
 02796,-0.00006680,-0.00023220,0.10862941,-0.07233648,-0.30376626,-0.00
 116224,0.00177025,0.00042984,0.00011599,0.00218705,0.00035910,-0.11820
 387,0.08154095,0.31767590||-0.00000981,0.00001240,-0.00001011,0.000003
 31,0.00000227,0.00000353,-0.00000190,-0.00005559,0.00002132,0.00004296
 ,0.00001412,-0.00001022,-0.00003741,0.00003127,-0.00001597,-0.00003699
 ,0.00003251,-0.00000740,-0.00000791,0.00000317,-0.00000409,0.00004569,
 0.00001162,-0.00000263,0.00000295,-0.00000292,0.00000047,-0.00001018,-
 0.00004456,0.00001541,0.00000256,-0.00000256,0.00000046,-0.00000306,-0
 .00000103,-0.00000011,0.00000114,0.00000295,-0.00000067,-0.00000408,-0
 .00000614,0.00000292,0.00000321,-0.00000099,-0.00000559,0.00000183,-0.
 00000296,0.00000262,0.00000031,-0.00000697,0.00000223,0.00000124,-0.00
 000014,0.00000085,0.00000144,0.00000311,-0.00000565,0.00000252,-0.0000
 0050,0.00000119,-0.00000157,0.00000597,0.00000523,0.00000008,0.0000007
 2,0.00000001,-0.00000140,0.00000052,-0.00000014,0.00000026,0.00000032,
 0.00000027,-0.00004256,-0.00002747,-0.00001174,0.00005456,0.00000339,-
 0.00004276,0.00000328,0.00003506,0.00006400,0.00000487,0.00002978,0.00
 006003,-0.00000639,-0.00000258,-0.00000013,0.00005132,0.00000313,-0.00
 004546,-0.00000290,-0.00000393,-0.00000071,-0.00005868,-0.00003410,-0.
 00001606,-0.00000079,-0.00000303,-0.00000737,-0.00000409,-0.00000075,0
 .00000426,0.00000619,0.00000388,0.00000203|||@


 NOTHING RESEMBLES A NEW PHENOMENON AS MUCH AS A MISTAKE.

                               -- ENRICO FERMI (?)
 Job cpu time:  0 days  0 hours  6 minutes 25.0 seconds.
 File lengths (MBytes):  RWF=    350 Int=      0 D2E=      0 Chk=      7 Scr=      1
 Normal termination of Gaussian 09 at Mon Sep 06 23:52:23 2021.
