 Entering Link 1 = b:\programy\g09w\l1.exe PID=     13264.
  
 Copyright (c) 1988,1990,1992,1993,1995,1998,2003,2009, Gaussian, Inc.
                  All Rights Reserved.
  
 This is part of the Gaussian(R) 09 program.  It is based on
 the Gaussian(R) 03 system (copyright 2003, Gaussian, Inc.),
 the Gaussian(R) 98 system (copyright 1998, Gaussian, Inc.),
 the Gaussian(R) 94 system (copyright 1995, Gaussian, Inc.),
 the Gaussian 92(TM) system (copyright 1992, Gaussian, Inc.),
 the Gaussian 90(TM) system (copyright 1990, Gaussian, Inc.),
 the Gaussian 88(TM) system (copyright 1988, Gaussian, Inc.),
 the Gaussian 86(TM) system (copyright 1986, Carnegie Mellon
 University), and the Gaussian 82(TM) system (copyright 1983,
 Carnegie Mellon University). Gaussian is a federally registered
 trademark of Gaussian, Inc.
  
 This software contains proprietary and confidential information,
 including trade secrets, belonging to Gaussian, Inc.
  
 This software is provided under written license and may be
 used, copied, transmitted, or stored only in accord with that
 written license.
  
 The following legend is applicable only to US Government
 contracts under FAR:
  
                    RESTRICTED RIGHTS LEGEND
  
 Use, reproduction and disclosure by the US Government is
 subject to restrictions as set forth in subparagraphs (a)
 and (c) of the Commercial Computer Software - Restricted
 Rights clause in FAR 52.227-19.
  
 Gaussian, Inc.
 340 Quinnipiac St., Bldg. 40, Wallingford CT 06492
  
  
 ---------------------------------------------------------------
 Warning -- This program may not be used in any manner that
 competes with the business of Gaussian, Inc. or will provide
 assistance to any competitor of Gaussian, Inc.  The licensee
 of this program is prohibited from giving any competitor of
 Gaussian, Inc. access to this program.  By using this program,
 the user acknowledges that Gaussian, Inc. is engaged in the
 business of creating and licensing software in the field of
 computational chemistry and represents and warrants to the
 licensee that it is not a competitor of Gaussian, Inc. and that
 it will not use this program in any manner prohibited above.
 ---------------------------------------------------------------
  

 Cite this work as:
 Gaussian 09, Revision A.02,
 M. J. Frisch, G. W. Trucks, H. B. Schlegel, G. E. Scuseria, 
 M. A. Robb, J. R. Cheeseman, G. Scalmani, V. Barone, B. Mennucci, 
 G. A. Petersson, H. Nakatsuji, M. Caricato, X. Li, H. P. Hratchian, 
 A. F. Izmaylov, J. Bloino, G. Zheng, J. L. Sonnenberg, M. Hada, 
 M. Ehara, K. Toyota, R. Fukuda, J. Hasegawa, M. Ishida, T. Nakajima, 
 Y. Honda, O. Kitao, H. Nakai, T. Vreven, J. A. Montgomery, Jr., 
 J. E. Peralta, F. Ogliaro, M. Bearpark, J. J. Heyd, E. Brothers, 
 K. N. Kudin, V. N. Staroverov, R. Kobayashi, J. Normand, 
 K. Raghavachari, A. Rendell, J. C. Burant, S. S. Iyengar, J. Tomasi, 
 M. Cossi, N. Rega, J. M. Millam, M. Klene, J. E. Knox, J. B. Cross, 
 V. Bakken, C. Adamo, J. Jaramillo, R. Gomperts, R. E. Stratmann, 
 O. Yazyev, A. J. Austin, R. Cammi, C. Pomelli, J. W. Ochterski, 
 R. L. Martin, K. Morokuma, V. G. Zakrzewski, G. A. Voth, 
 P. Salvador, J. J. Dannenberg, S. Dapprich, A. D. Daniels, 
 O. Farkas, J. B. Foresman, J. V. Ortiz, J. Cioslowski, 
 and D. J. Fox, Gaussian, Inc., Wallingford CT, 2009.
 
 ******************************************
 Gaussian 09:  IA32W-G09RevA.02 11-Jun-2009
                06-Sep-2021 
 ******************************************
 %nprocshared=12
 Will use up to   12 processors via shared memory.
 ----------------------------------------------
 # opt freq=noraman hf/6-311g geom=connectivity
 ----------------------------------------------
 1/18=20,19=15,38=1,57=2/1,3;
 2/9=110,12=2,17=6,18=5,40=1/2;
 3/5=4,6=6,11=9,16=1,25=1,30=1,71=1/1,2,3;
 4//1;
 5/5=2,38=5/2;
 6/7=2,8=2,9=2,10=2,28=1/1;
 7//1,2,3,16;
 1/18=20,19=15/3(2);
 2/9=110/2;
 99//99;
 2/9=110/2;
 3/5=4,6=6,11=9,16=1,25=1,30=1,71=1/1,2,3;
 4/5=5,16=3/1;
 5/5=2,38=5/2;
 7//1,2,3,16;
 1/18=20,19=15/3(-5);
 2/9=110/2;
 6/7=2,8=2,9=2,10=2,19=2,28=1/1;
 99/9=1/99;
 -----
 M0001
 -----
 Symbolic Z-matrix:
 Charge =  0 Multiplicity = 1
 C                    -0.18831  -0.11175  -0.73631 
 H                    -0.48561  -0.33355  -1.7973 
 C                     0.01748   1.38056  -0.65697 
 C                    -0.54251   2.18218  -1.6565 
 C                     0.73757   1.98976   0.37209 
 C                    -0.38343   3.5624   -1.6254 
 H                    -1.11322   1.72202  -2.47182 
 C                     0.89903   3.37037   0.39965 
 H                     1.1864    1.36697   1.16271 
 C                     0.33858   4.15993  -0.59797 
 H                    -0.82779   4.17974  -2.41295 
 H                     1.47036   3.83459   1.21006 
 H                     0.46523   5.24699  -0.5754 
 C                    -1.32003  -0.59889   0.13646 
 C                    -2.07264  -1.69324  -0.3021 
 C                    -1.63583  -0.00626   1.35872 
 C                    -3.11903  -2.18258   0.46953 
 H                    -1.83476  -2.17232  -1.25916 
 C                    -2.6855   -0.49643   2.12857 
 H                    -1.05962   0.8584    1.71234 
 C                    -3.42843  -1.5847    1.68706 
 H                    -3.70108  -3.04067   0.11755 
 H                    -2.9259   -0.02048   3.08487 
 H                    -4.25413  -1.96978   2.29379 
 C                     1.06699  -0.9009   -0.45568 
 C                     1.6731   -1.60493  -1.49917 
 C                     1.62785  -0.96464   0.82076 
 C                     2.81536  -2.36235  -1.26532 
 H                     1.24754  -1.56264  -2.50893 
 C                     2.7669   -1.72571   1.05419 
 H                     1.16606  -0.38562   1.63484 
 C                     3.36226  -2.42737   0.0115 
 H                     3.2836   -2.90998  -2.08956 
 H                     3.1944   -1.77148   2.0609 
 H                     4.2591   -3.02763   0.19496 
 

 GradGradGradGradGradGradGradGradGradGradGradGradGradGradGradGradGradGrad
 Berny optimization.
 Initialization pass.
                           ----------------------------
                           !    Initial Parameters    !
                           ! (Angstroms and Degrees)  !
 --------------------------                            --------------------------
 ! Name  Definition              Value          Derivative Info.                !
 --------------------------------------------------------------------------------
 ! R1    R(1,2)                  1.124          estimate D2E/DX2                !
 ! R2    R(1,3)                  1.5085         estimate D2E/DX2                !
 ! R3    R(1,14)                 1.5099         estimate D2E/DX2                !
 ! R4    R(1,25)                 1.5091         estimate D2E/DX2                !
 ! R5    R(3,4)                  1.3983         estimate D2E/DX2                !
 ! R6    R(3,5)                  1.3959         estimate D2E/DX2                !
 ! R7    R(4,6)                  1.3897         estimate D2E/DX2                !
 ! R8    R(4,7)                  1.0964         estimate D2E/DX2                !
 ! R9    R(5,8)                  1.3903         estimate D2E/DX2                !
 ! R10   R(5,9)                  1.102          estimate D2E/DX2                !
 ! R11   R(6,10)                 1.3907         estimate D2E/DX2                !
 ! R12   R(6,11)                 1.0949         estimate D2E/DX2                !
 ! R13   R(8,10)                 1.3902         estimate D2E/DX2                !
 ! R14   R(8,12)                 1.0948         estimate D2E/DX2                !
 ! R15   R(10,13)                1.0946         estimate D2E/DX2                !
 ! R16   R(14,15)                1.3987         estimate D2E/DX2                !
 ! R17   R(14,16)                1.3946         estimate D2E/DX2                !
 ! R18   R(15,17)                1.3892         estimate D2E/DX2                !
 ! R19   R(15,18)                1.0964         estimate D2E/DX2                !
 ! R20   R(16,19)                1.391          estimate D2E/DX2                !
 ! R21   R(16,20)                1.0976         estimate D2E/DX2                !
 ! R22   R(17,21)                1.3913         estimate D2E/DX2                !
 ! R23   R(17,22)                1.095          estimate D2E/DX2                !
 ! R24   R(19,21)                1.3897         estimate D2E/DX2                !
 ! R25   R(19,23)                1.0949         estimate D2E/DX2                !
 ! R26   R(21,24)                1.0946         estimate D2E/DX2                !
 ! R27   R(25,26)                1.3971         estimate D2E/DX2                !
 ! R28   R(25,27)                1.3957         estimate D2E/DX2                !
 ! R29   R(26,28)                1.3904         estimate D2E/DX2                !
 ! R30   R(26,29)                1.0966         estimate D2E/DX2                !
 ! R31   R(27,30)                1.3897         estimate D2E/DX2                !
 ! R32   R(27,31)                1.1006         estimate D2E/DX2                !
 ! R33   R(28,32)                1.3905         estimate D2E/DX2                !
 ! R34   R(28,33)                1.0948         estimate D2E/DX2                !
 ! R35   R(30,32)                1.3907         estimate D2E/DX2                !
 ! R36   R(30,34)                1.0947         estimate D2E/DX2                !
 ! R37   R(32,35)                1.0947         estimate D2E/DX2                !
 ! A1    A(2,1,3)              106.3173         estimate D2E/DX2                !
 ! A2    A(2,1,14)             106.4825         estimate D2E/DX2                !
 ! A3    A(2,1,25)             107.0002         estimate D2E/DX2                !
 ! A4    A(3,1,14)             113.0171         estimate D2E/DX2                !
 ! A5    A(3,1,25)             113.2073         estimate D2E/DX2                !
 ! A6    A(14,1,25)            110.3211         estimate D2E/DX2                !
 ! A7    A(1,3,4)              118.3522         estimate D2E/DX2                !
 ! A8    A(1,3,5)              122.7431         estimate D2E/DX2                !
 ! A9    A(4,3,5)              118.9044         estimate D2E/DX2                !
 ! A10   A(3,4,6)              120.4993         estimate D2E/DX2                !
 ! A11   A(3,4,7)              119.96           estimate D2E/DX2                !
 ! A12   A(6,4,7)              119.5407         estimate D2E/DX2                !
 ! A13   A(3,5,8)              120.524          estimate D2E/DX2                !
 ! A14   A(3,5,9)              119.4949         estimate D2E/DX2                !
 ! A15   A(8,5,9)              119.9795         estimate D2E/DX2                !
 ! A16   A(4,6,10)             120.1791         estimate D2E/DX2                !
 ! A17   A(4,6,11)             119.8301         estimate D2E/DX2                !
 ! A18   A(10,6,11)            119.9908         estimate D2E/DX2                !
 ! A19   A(5,8,10)             120.1946         estimate D2E/DX2                !
 ! A20   A(5,8,12)             119.7574         estimate D2E/DX2                !
 ! A21   A(10,8,12)            120.048          estimate D2E/DX2                !
 ! A22   A(6,10,8)             119.6981         estimate D2E/DX2                !
 ! A23   A(6,10,13)            120.1317         estimate D2E/DX2                !
 ! A24   A(8,10,13)            120.1701         estimate D2E/DX2                !
 ! A25   A(1,14,15)            118.3263         estimate D2E/DX2                !
 ! A26   A(1,14,16)            122.6312         estimate D2E/DX2                !
 ! A27   A(15,14,16)           119.0416         estimate D2E/DX2                !
 ! A28   A(14,15,17)           120.4475         estimate D2E/DX2                !
 ! A29   A(14,15,18)           119.9231         estimate D2E/DX2                !
 ! A30   A(17,15,18)           119.629          estimate D2E/DX2                !
 ! A31   A(14,16,19)           120.412          estimate D2E/DX2                !
 ! A32   A(14,16,20)           119.8849         estimate D2E/DX2                !
 ! A33   A(19,16,20)           119.7006         estimate D2E/DX2                !
 ! A34   A(15,17,21)           120.1485         estimate D2E/DX2                !
 ! A35   A(15,17,22)           119.8607         estimate D2E/DX2                !
 ! A36   A(21,17,22)           119.9908         estimate D2E/DX2                !
 ! A37   A(16,19,21)           120.236          estimate D2E/DX2                !
 ! A38   A(16,19,23)           119.7298         estimate D2E/DX2                !
 ! A39   A(21,19,23)           120.0342         estimate D2E/DX2                !
 ! A40   A(17,21,19)           119.7142         estimate D2E/DX2                !
 ! A41   A(17,21,24)           120.1093         estimate D2E/DX2                !
 ! A42   A(19,21,24)           120.1764         estimate D2E/DX2                !
 ! A43   A(1,25,26)            119.0456         estimate D2E/DX2                !
 ! A44   A(1,25,27)            121.886          estimate D2E/DX2                !
 ! A45   A(26,25,27)           119.0605         estimate D2E/DX2                !
 ! A46   A(25,26,28)           120.3522         estimate D2E/DX2                !
 ! A47   A(25,26,29)           119.9975         estimate D2E/DX2                !
 ! A48   A(28,26,29)           119.6502         estimate D2E/DX2                !
 ! A49   A(25,27,30)           120.5318         estimate D2E/DX2                !
 ! A50   A(25,27,31)           118.9375         estimate D2E/DX2                !
 ! A51   A(30,27,31)           120.5182         estimate D2E/DX2                !
 ! A52   A(26,28,32)           120.2004         estimate D2E/DX2                !
 ! A53   A(26,28,33)           119.8191         estimate D2E/DX2                !
 ! A54   A(32,28,33)           119.9805         estimate D2E/DX2                !
 ! A55   A(27,30,32)           120.0852         estimate D2E/DX2                !
 ! A56   A(27,30,34)           119.833          estimate D2E/DX2                !
 ! A57   A(32,30,34)           120.0818         estimate D2E/DX2                !
 ! A58   A(28,32,30)           119.7676         estimate D2E/DX2                !
 ! A59   A(28,32,35)           120.1161         estimate D2E/DX2                !
 ! A60   A(30,32,35)           120.1163         estimate D2E/DX2                !
 ! D1    D(2,1,3,4)             18.491          estimate D2E/DX2                !
 ! D2    D(2,1,3,5)           -161.7207         estimate D2E/DX2                !
 ! D3    D(14,1,3,4)           -97.9687         estimate D2E/DX2                !
 ! D4    D(14,1,3,5)            81.8196         estimate D2E/DX2                !
 ! D5    D(25,1,3,4)           135.6836         estimate D2E/DX2                !
 ! D6    D(25,1,3,5)           -44.5281         estimate D2E/DX2                !
 ! D7    D(2,1,14,15)           30.4941         estimate D2E/DX2                !
 ! D8    D(2,1,14,16)         -149.8505         estimate D2E/DX2                !
 ! D9    D(3,1,14,15)          146.8559         estimate D2E/DX2                !
 ! D10   D(3,1,14,16)          -33.4887         estimate D2E/DX2                !
 ! D11   D(25,1,14,15)         -85.273          estimate D2E/DX2                !
 ! D12   D(25,1,14,16)          94.3823         estimate D2E/DX2                !
 ! D13   D(2,1,25,26)            5.8412         estimate D2E/DX2                !
 ! D14   D(2,1,25,27)         -173.1296         estimate D2E/DX2                !
 ! D15   D(3,1,25,26)         -110.9502         estimate D2E/DX2                !
 ! D16   D(3,1,25,27)           70.079          estimate D2E/DX2                !
 ! D17   D(14,1,25,26)         121.2834         estimate D2E/DX2                !
 ! D18   D(14,1,25,27)         -57.6874         estimate D2E/DX2                !
 ! D19   D(1,3,4,6)            179.838          estimate D2E/DX2                !
 ! D20   D(1,3,4,7)             -0.0803         estimate D2E/DX2                !
 ! D21   D(5,3,4,6)              0.0414         estimate D2E/DX2                !
 ! D22   D(5,3,4,7)           -179.8769         estimate D2E/DX2                !
 ! D23   D(1,3,5,8)            179.986          estimate D2E/DX2                !
 ! D24   D(1,3,5,9)              0.4511         estimate D2E/DX2                !
 ! D25   D(4,3,5,8)             -0.2268         estimate D2E/DX2                !
 ! D26   D(4,3,5,9)           -179.7617         estimate D2E/DX2                !
 ! D27   D(3,4,6,10)             0.1237         estimate D2E/DX2                !
 ! D28   D(3,4,6,11)          -179.9144         estimate D2E/DX2                !
 ! D29   D(7,4,6,10)          -179.9577         estimate D2E/DX2                !
 ! D30   D(7,4,6,11)             0.0042         estimate D2E/DX2                !
 ! D31   D(3,5,8,10)             0.2482         estimate D2E/DX2                !
 ! D32   D(3,5,8,12)          -179.7038         estimate D2E/DX2                !
 ! D33   D(9,5,8,10)           179.7808         estimate D2E/DX2                !
 ! D34   D(9,5,8,12)            -0.1712         estimate D2E/DX2                !
 ! D35   D(4,6,10,8)            -0.1042         estimate D2E/DX2                !
 ! D36   D(4,6,10,13)          179.8681         estimate D2E/DX2                !
 ! D37   D(11,6,10,8)          179.9339         estimate D2E/DX2                !
 ! D38   D(11,6,10,13)          -0.0938         estimate D2E/DX2                !
 ! D39   D(5,8,10,6)            -0.0807         estimate D2E/DX2                !
 ! D40   D(5,8,10,13)          179.9471         estimate D2E/DX2                !
 ! D41   D(12,8,10,6)          179.8712         estimate D2E/DX2                !
 ! D42   D(12,8,10,13)          -0.1011         estimate D2E/DX2                !
 ! D43   D(1,14,15,17)         179.6372         estimate D2E/DX2                !
 ! D44   D(1,14,15,18)          -0.1274         estimate D2E/DX2                !
 ! D45   D(16,14,15,17)         -0.0308         estimate D2E/DX2                !
 ! D46   D(16,14,15,18)       -179.7955         estimate D2E/DX2                !
 ! D47   D(1,14,16,19)        -179.7361         estimate D2E/DX2                !
 ! D48   D(1,14,16,20)           0.8498         estimate D2E/DX2                !
 ! D49   D(15,14,16,19)         -0.0831         estimate D2E/DX2                !
 ! D50   D(15,14,16,20)       -179.4972         estimate D2E/DX2                !
 ! D51   D(14,15,17,21)          0.0982         estimate D2E/DX2                !
 ! D52   D(14,15,17,22)       -179.9185         estimate D2E/DX2                !
 ! D53   D(18,15,17,21)        179.8636         estimate D2E/DX2                !
 ! D54   D(18,15,17,22)         -0.1531         estimate D2E/DX2                !
 ! D55   D(14,16,19,21)          0.1304         estimate D2E/DX2                !
 ! D56   D(14,16,19,23)       -179.7946         estimate D2E/DX2                !
 ! D57   D(20,16,19,21)        179.5455         estimate D2E/DX2                !
 ! D58   D(20,16,19,23)         -0.3795         estimate D2E/DX2                !
 ! D59   D(15,17,21,19)         -0.0513         estimate D2E/DX2                !
 ! D60   D(15,17,21,24)        179.8995         estimate D2E/DX2                !
 ! D61   D(22,17,21,19)        179.9654         estimate D2E/DX2                !
 ! D62   D(22,17,21,24)         -0.0838         estimate D2E/DX2                !
 ! D63   D(16,19,21,17)         -0.0625         estimate D2E/DX2                !
 ! D64   D(16,19,21,24)        179.9868         estimate D2E/DX2                !
 ! D65   D(23,19,21,17)        179.8623         estimate D2E/DX2                !
 ! D66   D(23,19,21,24)         -0.0885         estimate D2E/DX2                !
 ! D67   D(1,25,26,28)        -178.7175         estimate D2E/DX2                !
 ! D68   D(1,25,26,29)           1.2271         estimate D2E/DX2                !
 ! D69   D(27,25,26,28)          0.2827         estimate D2E/DX2                !
 ! D70   D(27,25,26,29)       -179.7726         estimate D2E/DX2                !
 ! D71   D(1,25,27,30)         178.4652         estimate D2E/DX2                !
 ! D72   D(1,25,27,31)          -2.8143         estimate D2E/DX2                !
 ! D73   D(26,25,27,30)         -0.5054         estimate D2E/DX2                !
 ! D74   D(26,25,27,31)        178.215          estimate D2E/DX2                !
 ! D75   D(25,26,28,32)          0.1446         estimate D2E/DX2                !
 ! D76   D(25,26,28,33)       -179.9547         estimate D2E/DX2                !
 ! D77   D(29,26,28,32)       -179.8002         estimate D2E/DX2                !
 ! D78   D(29,26,28,33)          0.1004         estimate D2E/DX2                !
 ! D79   D(25,27,30,32)          0.3009         estimate D2E/DX2                !
 ! D80   D(25,27,30,34)       -179.7024         estimate D2E/DX2                !
 ! D81   D(31,27,30,32)       -178.3992         estimate D2E/DX2                !
 ! D82   D(31,27,30,34)          1.5974         estimate D2E/DX2                !
 ! D83   D(26,28,32,30)         -0.3535         estimate D2E/DX2                !
 ! D84   D(26,28,32,35)        179.7334         estimate D2E/DX2                !
 ! D85   D(33,28,32,30)        179.746          estimate D2E/DX2                !
 ! D86   D(33,28,32,35)         -0.1671         estimate D2E/DX2                !
 ! D87   D(27,30,32,28)          0.1317         estimate D2E/DX2                !
 ! D88   D(27,30,32,35)       -179.9551         estimate D2E/DX2                !
 ! D89   D(34,30,32,28)       -179.8649         estimate D2E/DX2                !
 ! D90   D(34,30,32,35)          0.0483         estimate D2E/DX2                !
 --------------------------------------------------------------------------------
 Trust Radius=3.00D-01 FncErr=1.00D-07 GrdErr=1.00D-07
 Number of steps in this run= 197 maximum allowed number of steps= 210.
 GradGradGradGradGradGradGradGradGradGradGradGradGradGradGradGradGradGrad

                          Input orientation:                          
 ---------------------------------------------------------------------
 Center     Atomic      Atomic             Coordinates (Angstroms)
 Number     Number       Type             X           Y           Z
 ---------------------------------------------------------------------
      1          6           0       -0.188310   -0.111750   -0.736314
      2          1           0       -0.485605   -0.333552   -1.797301
      3          6           0        0.017476    1.380558   -0.656966
      4          6           0       -0.542514    2.182179   -1.656500
      5          6           0        0.737566    1.989765    0.372090
      6          6           0       -0.383433    3.562400   -1.625397
      7          1           0       -1.113216    1.722023   -2.471815
      8          6           0        0.899033    3.370368    0.399647
      9          1           0        1.186397    1.366971    1.162712
     10          6           0        0.338585    4.159931   -0.597965
     11          1           0       -0.827791    4.179743   -2.412951
     12          1           0        1.470357    3.834587    1.210062
     13          1           0        0.465232    5.246987   -0.575403
     14          6           0       -1.320031   -0.598892    0.136459
     15          6           0       -2.072642   -1.693239   -0.302102
     16          6           0       -1.635830   -0.006257    1.358715
     17          6           0       -3.119025   -2.182583    0.469528
     18          1           0       -1.834758   -2.172320   -1.259163
     19          6           0       -2.685497   -0.496430    2.128572
     20          1           0       -1.059616    0.858403    1.712335
     21          6           0       -3.428435   -1.584703    1.687061
     22          1           0       -3.701076   -3.040668    0.117551
     23          1           0       -2.925895   -0.020482    3.084871
     24          1           0       -4.254129   -1.969783    2.293787
     25          6           0        1.066995   -0.900900   -0.455684
     26          6           0        1.673102   -1.604929   -1.499168
     27          6           0        1.627849   -0.964642    0.820759
     28          6           0        2.815357   -2.362346   -1.265324
     29          1           0        1.247541   -1.562644   -2.508929
     30          6           0        2.766899   -1.725709    1.054186
     31          1           0        1.166056   -0.385618    1.634840
     32          6           0        3.362256   -2.427374    0.011503
     33          1           0        3.283601   -2.909979   -2.089561
     34          1           0        3.194400   -1.771481    2.060904
     35          1           0        4.259102   -3.027633    0.194960
 ---------------------------------------------------------------------
                    Distance matrix (angstroms):
                    1          2          3          4          5
     1  C    0.000000
     2  H    1.123955   0.000000
     3  C    1.508518   2.119346   0.000000
     4  C    2.496861   2.520311   1.398303   0.000000
     5  C    2.549936   3.405908   1.395930   2.406409   0.000000
     6  C    3.785225   3.901081   2.420542   1.389707   2.778449
     7  H    2.688892   2.252610   2.165350   1.096442   3.403657
     8  C    3.820716   4.523586   2.419281   2.778055   1.390287
     9  H    2.771775   3.801190   2.162820   3.406120   1.102000
    10  C    4.306277   4.723250   2.798484   2.410049   2.410356
    11  H    4.651555   4.567926   3.410777   2.154962   3.873345
    12  H    4.702461   5.499400   3.408654   3.872890   2.154658
    13  H    5.400840   5.791333   3.893124   3.402553   3.403146
    14  C    1.509911   2.122758   2.517274   3.399057   3.315172
    15  C    2.498070   2.569641   3.733998   4.381158   4.681487
    16  C    2.548645   3.374993   2.952904   3.882797   3.254311
    17  C    3.785696   3.936030   4.878790   5.496322   5.682541
    18  H    2.688886   2.343262   4.051710   4.559543   5.157595
    19  C    3.819881   4.503169   4.311422   5.108237   4.580803
    20  H    2.774212   3.750706   2.654498   3.656340   2.511195
    21  C    4.305896   4.729313   5.114834   5.804941   5.644602
    22  H    4.652652   4.618917   5.828786   6.356249   6.713538
    23  H    4.701506   5.467050   4.962629   5.745678   4.982090
    24  H    5.400433   5.797933   6.178861   6.827857   6.654919
    25  C    1.509072   2.128940   2.519336   3.679382   3.024843
    26  C    2.505271   2.522955   3.516182   4.390432   4.159166
    27  C    2.539751   3.423332   3.205766   4.555191   3.118080
    28  C    3.790388   3.910928   4.712490   5.664011   5.093054
    29  H    2.703502   2.240731   3.688531   4.237290   4.602168
    30  C    3.813661   4.543992   4.487345   5.794102   4.288145
    31  H    2.744391   3.809237   3.113035   4.510622   2.724075
    32  C    4.304401   4.739399   5.112216   6.267172   5.150741
    33  H    4.659992   4.574965   5.579302   6.384103   6.045619
    34  H    4.692746   5.522303   5.235935   6.589009   4.799489
    35  H    5.398992   5.808565   6.176513   7.322947   6.132444
                    6          7          8          9         10
     6  C    0.000000
     7  H    2.153137   0.000000
     8  C    2.404661   3.874466   0.000000
     9  H    3.880442   4.315562   2.162972   0.000000
    10  C    1.390672   3.400359   1.390231   3.408724   0.000000
    11  H    1.094901   2.474938   3.398193   4.975340   2.157545
    12  H    3.398595   4.969306   1.094844   2.484352   2.157712
    13  H    2.158831   4.302702   2.158843   4.312267   1.094640
    14  C    4.614944   3.497501   4.555056   3.346639   5.092817
    15  C    5.676819   4.158385   5.912987   4.704455   6.337282
    16  C    4.817545   4.234742   4.329773   3.144699   5.008396
    17  C    6.699030   5.284006   6.854556   5.622854   7.302198
    18  H    5.926845   4.142108   6.398957   5.245897   6.727408
    19  C    5.988813   5.343890   5.548888   4.404169   6.185529
    20  H    4.348480   4.272684   3.445203   2.367551   4.265271
    21  C    6.836453   5.795768   6.703517   5.503089   7.239655
    22  H    7.592440   6.007084   7.895693   6.663861   8.287307
    23  H    6.441101   6.099089   5.773939   4.746648   6.457242
    24  H    7.806878   6.797479   7.658985   6.481711   8.187102
    25  C    4.836633   3.962048   4.359304   2.788674   5.114962
    26  C    5.562964   4.447271   5.381288   4.019288   5.985543
    27  C    5.524766   5.056941   4.415973   2.397546   5.471401
    28  C    6.742738   5.794081   6.269643   4.738847   7.008557
    29  H    5.450393   4.045193   5.737236   4.697588   6.101299
    30  C    6.713334   6.274937   5.466932   3.474829   6.577772
    31  H    5.349478   5.147995   3.962882   1.815182   5.131486
    32  C    7.251691   6.588947   6.311255   4.522909   7.273695
    33  H    7.453474   6.397934   7.164153   5.767829   7.802667
    34  H    7.405403   7.162798   5.870868   3.832585   7.099783
    35  H    8.264101   7.650668   7.229549   5.448909   8.225586
                   11         12         13         14         15
    11  H    0.000000
    12  H    4.304282   0.000000
    13  H    2.487469   2.488581   0.000000
    14  C    5.438487   5.347394   6.153715   0.000000
    15  C    6.363745   6.737681   7.394743   1.398698   0.000000
    16  C    5.692186   4.941921   5.979285   1.394580   2.407286
    17  C    7.351029   7.603759   8.314883   2.419792   1.389168
    18  H    6.534058   7.287235   7.797666   2.165267   1.096392
    19  C    6.778133   6.072273   7.086989   2.417335   2.777789
    20  H    5.301229   3.938364   5.178665   2.162154   3.405151
    21  C    7.536729   7.320820   8.182382   2.796705   2.409714
    22  H    8.172732   8.672165   9.301803   3.410573   2.154872
    23  H    7.229798   6.140318   7.255590   3.406830   3.872691
    24  H    8.468166   8.224045   9.087705   3.891316   3.402058
    25  C    5.764897   5.036094   6.178427   2.477848   3.241714
    26  C    6.368037   6.080244   7.018621   3.556154   3.933366
    27  C    6.553758   4.817567   6.471883   3.048284   3.935137
    28  C    7.575519   6.807241   7.993811   4.709161   5.026732
    29  H    6.106654   6.558250   7.121910   3.810423   3.988829
    30  C    7.734158   5.711586   7.521417   4.337618   5.026105
    31  H    6.418922   4.252431   6.091188   2.910542   3.993842
    32  C    8.190755   6.650412   8.223930   5.028198   5.493216
    33  H    8.201968   7.724282   8.761961   5.611570   5.776228
    34  H    8.462297   5.926572   7.978556   5.045646   5.773358
    35  H    9.199128   7.476469   9.135439   6.085140   6.489889
                   16         17         18         19         20
    16  C    0.000000
    17  C    2.779733   0.000000
    18  H    3.403629   2.153560   0.000000
    19  C    1.390953   2.404887   3.874159   0.000000
    20  H    1.097591   3.877284   4.314618   2.156923   0.000000
    21  C    2.410962   1.391251   3.400784   1.389686   3.403044
    22  H    3.874711   1.094981   2.476391   3.398346   4.972264
    23  H    2.155014   3.398822   4.969066   1.094909   2.477760
    24  H    3.403716   2.159088   4.303235   2.158395   4.306000
    25  C    3.376046   4.474538   3.268372   4.574185   3.509690
    26  C    4.655349   5.212862   3.561547   5.778118   4.883596
    27  C    3.443762   4.913202   4.215947   4.531506   3.367620
    28  C    5.678890   6.185379   4.654000   6.727522   5.852785
    29  H    5.069007   5.321882   3.381447   6.173492   5.385491
    30  C    4.736377   5.932508   5.169747   5.691577   4.664012
    31  H    2.840901   4.790506   4.535685   3.884650   2.550923
    32  C    5.714687   6.502055   5.356174   6.692223   5.765598
    33  H    6.672556   6.933373   5.237490   7.697272   6.893378
    34  H    5.190396   6.523866   6.039532   6.016937   5.013426
    35  H    6.725567   7.431437   6.323066   7.640242   6.759620
                   21         22         23         24         25
    21  C    0.000000
    22  H    2.158131   0.000000
    23  H    2.157129   4.304349   0.000000
    24  H    1.094611   2.487703   2.487929   0.000000
    25  C    5.026711   5.257538   5.408681   6.084115   0.000000
    26  C    6.014827   5.792834   6.683911   7.046396   1.397098
    27  C    5.167297   5.762103   5.172449   6.146363   1.395682
    28  C    6.950269   6.695996   7.574331   7.924582   2.418287
    29  H    6.282640   5.794114   7.147477   7.314384   2.164791
    30  C    6.229171   6.666416   6.280078   7.133793   2.418614
    31  H    4.748671   5.748081   4.356601   5.685260   2.155370
    32  C    7.044932   7.090701   7.401322   7.964140   2.795821
    33  H    7.814772   7.326264   8.583809   8.770124   3.408709
    34  H    6.636007   7.275648   6.447676   7.454807   3.408369
    35  H    7.962828   7.960565   8.307751   8.831716   3.890486
                   26         27         28         29         30
    26  C    0.000000
    27  C    2.407089   0.000000
    28  C    1.390363   2.777678   0.000000
    29  H    1.096589   3.404272   2.155023   0.000000
    30  C    2.780395   1.389657   2.405780   3.876961   0.000000
    31  H    3.400856   1.100567   3.877963   4.308463   2.166957
    32  C    2.410764   2.408869   1.390545   3.401817   1.390673
    33  H    2.155325   3.872443   1.094771   2.477241   3.398915
    34  H    3.875074   2.154770   3.399498   4.971645   1.094685
    35  H    3.403168   3.401625   2.158573   4.304267   2.158690
                   31         32         33         34         35
    31  H    0.000000
    32  C    3.409881   0.000000
    33  H    4.972682   2.157212   0.000000
    34  H    2.493256   2.158337   4.304707   0.000000
    35  H    4.315140   1.094669   2.486862   2.488625   0.000000
 Stoichiometry    C19H16
 Framework group  C1[X(C19H16)]
 Deg. of freedom    99
 Full point group                 C1      NOp   1
 Largest Abelian subgroup         C1      NOp   1
 Largest concise Abelian subgroup C1      NOp   1
                         Standard orientation:                         
 ---------------------------------------------------------------------
 Center     Atomic      Atomic             Coordinates (Angstroms)
 Number     Number       Type             X           Y           Z
 ---------------------------------------------------------------------
      1          6           0        0.021921   -0.013828   -0.753836
      2          1           0       -0.000822   -0.006923   -1.877540
      3          6           0        1.454322   -0.276806   -0.360521
      4          6           0        2.454885   -0.060744   -1.313119
      5          6           0        1.818580   -0.720919    0.911760
      6          6           0        3.789498   -0.285592   -0.997624
      7          1           0        2.188424    0.289979   -2.317199
      8          6           0        3.153868   -0.949053    1.224580
      9          1           0        1.037614   -0.898129    1.668790
     10          6           0        4.142335   -0.731318    0.271550
     11          1           0        4.564167   -0.111513   -1.751541
     12          1           0        3.425014   -1.301957    2.224891
     13          1           0        5.193627   -0.910240    0.518550
     14          6           0       -0.473880    1.340550   -0.306988
     15          6           0       -1.402762    2.006423   -1.113303
     16          6           0       -0.047920    1.944678    0.875569
     17          6           0       -1.893961    3.251246   -0.740576
     18          1           0       -1.750090    1.543269   -2.044392
     19          6           0       -0.539317    3.192215    1.245610
     20          1           0        0.686824    1.438208    1.514588
     21          6           0       -1.462783    3.847639    0.440093
     22          1           0       -2.621893    3.763386   -1.378394
     23          1           0       -0.194688    3.657756    2.174765
     24          1           0       -1.849011    4.829266    0.732345
     25          6           0       -0.927543   -1.095404   -0.299951
     26          6           0       -1.520844   -1.922548   -1.256879
     27          6           0       -1.246125   -1.279392    1.046370
     28          6           0       -2.420117   -2.910328   -0.871254
     29          1           0       -1.278705   -1.793911   -2.318637
     30          6           0       -2.148586   -2.263997    1.430116
     31          1           0       -0.755162   -0.646452    1.801083
     32          6           0       -2.738569   -3.080741    0.471564
     33          1           0       -2.879341   -3.554084   -1.628363
     34          1           0       -2.393881   -2.395128    2.488875
     35          1           0       -3.450087   -3.856015    0.773214
 ---------------------------------------------------------------------
 Rotational constants (GHZ):      0.4000185      0.3720583      0.2368875
 Standard basis: 6-311G (5D, 7F)
 There are   295 symmetry adapted basis functions of A   symmetry.
 Integral buffers will be    262144 words long.
 Raffenetti 1 integral format.
 Two-electron integral symmetry is turned on.
   295 basis functions,   574 primitive gaussians,   295 cartesian basis functions
    65 alpha electrons       65 beta electrons
       nuclear repulsion energy      1288.3584324418 Hartrees.
 NAtoms=   35 NActive=   35 NUniq=   35 SFac= 7.50D-01 NAtFMM=   80 NAOKFM=F Big=F
 One-electron integrals computed using PRISM.
 PrsmSu:  requested number of processors reduced to:  10 ShMem   1 Linda.
 NBasis=   295 RedAO= T  NBF=   295
 NBsUse=   295 1.00D-06 NBFU=   295
 Harris functional with IExCor=  205 diagonalized for initial guess.
 ExpMin= 1.03D-01 ExpMax= 4.56D+03 ExpMxC= 6.82D+02 IAcc=1 IRadAn=         1 AccDes= 0.00D+00
 HarFok:  IExCor=  205 AccDes= 0.00D+00 IRadAn=         1 IDoV= 1
 ScaDFX=  1.000000  1.000000  1.000000  1.000000
 FoFCou: FMM=F IPFlag=           0 FMFlag=      100000 FMFlg1=           0
         NFxFlg=           0 DoJE=T BraDBF=F KetDBF=T FulRan=T
         Omega=  0.000000  0.000000  1.000000  0.000000  0.000000 ICntrl=     500 IOpCl=  0
         NMat0=    1 NMatS0=    1 NMatT0=    0 NMatD0=    1 NMtDS0=    0 NMtDT0=    0
         I1Cent=           4 NGrid=           0.
 Petite list used in FoFCou.
 Initial guess orbital symmetries:
       Occupied  (A) (A) (A) (A) (A) (A) (A) (A) (A) (A) (A) (A)
                 (A) (A) (A) (A) (A) (A) (A) (A) (A) (A) (A) (A)
                 (A) (A) (A) (A) (A) (A) (A) (A) (A) (A) (A) (A)
                 (A) (A) (A) (A) (A) (A) (A) (A) (A) (A) (A) (A)
                 (A) (A) (A) (A) (A) (A) (A) (A) (A) (A) (A) (A)
                 (A) (A) (A) (A) (A)
       Virtual   (A) (A) (A) (A) (A) (A) (A) (A) (A) (A) (A) (A)
                 (A) (A) (A) (A) (A) (A) (A) (A) (A) (A) (A) (A)
                 (A) (A) (A) (A) (A) (A) (A) (A) (A) (A) (A) (A)
                 (A) (A) (A) (A) (A) (A) (A) (A) (A) (A) (A) (A)
                 (A) (A) (A) (A) (A) (A) (A) (A) (A) (A) (A) (A)
                 (A) (A) (A) (A) (A) (A) (A) (A) (A) (A) (A) (A)
                 (A) (A) (A) (A) (A) (A) (A) (A) (A) (A) (A) (A)
                 (A) (A) (A) (A) (A) (A) (A) (A) (A) (A) (A) (A)
                 (A) (A) (A) (A) (A) (A) (A) (A) (A) (A) (A) (A)
                 (A) (A) (A) (A) (A) (A) (A) (A) (A) (A) (A) (A)
                 (A) (A) (A) (A) (A) (A) (A) (A) (A) (A) (A) (A)
                 (A) (A) (A) (A) (A) (A) (A) (A) (A) (A) (A) (A)
                 (A) (A) (A) (A) (A) (A) (A) (A) (A) (A) (A) (A)
                 (A) (A) (A) (A) (A) (A) (A) (A) (A) (A) (A) (A)
                 (A) (A) (A) (A) (A) (A) (A) (A) (A) (A) (A) (A)
                 (A) (A) (A) (A) (A) (A) (A) (A) (A) (A) (A) (A)
                 (A) (A) (A) (A) (A) (A) (A) (A) (A) (A) (A) (A)
                 (A) (A) (A) (A) (A) (A) (A) (A) (A) (A) (A) (A)
                 (A) (A) (A) (A) (A) (A) (A) (A) (A) (A) (A) (A)
                 (A) (A)
 The electronic state of the initial guess is 1-A.
 Requested convergence on RMS density matrix=1.00D-08 within 128 cycles.
 Requested convergence on MAX density matrix=1.00D-06.
 Requested convergence on             energy=1.00D-06.
 No special actions if energy rises.
 Integral accuracy reduced to 1.0D-05 until final iterations.
 Initial convergence to 1.0D-05 achieved.  Increase integral accuracy.
 SCF Done:  E(RHF) =  -728.671707492     A.U. after   14 cycles
             Convg  =    0.6189D-08             -V/T =  2.0001

 **********************************************************************

            Population analysis using the SCF density.

 **********************************************************************

 Orbital symmetries:
       Occupied  (A) (A) (A) (A) (A) (A) (A) (A) (A) (A) (A) (A)
                 (A) (A) (A) (A) (A) (A) (A) (A) (A) (A) (A) (A)
                 (A) (A) (A) (A) (A) (A) (A) (A) (A) (A) (A) (A)
                 (A) (A) (A) (A) (A) (A) (A) (A) (A) (A) (A) (A)
                 (A) (A) (A) (A) (A) (A) (A) (A) (A) (A) (A) (A)
                 (A) (A) (A) (A) (A)
       Virtual   (A) (A) (A) (A) (A) (A) (A) (A) (A) (A) (A) (A)
                 (A) (A) (A) (A) (A) (A) (A) (A) (A) (A) (A) (A)
                 (A) (A) (A) (A) (A) (A) (A) (A) (A) (A) (A) (A)
                 (A) (A) (A) (A) (A) (A) (A) (A) (A) (A) (A) (A)
                 (A) (A) (A) (A) (A) (A) (A) (A) (A) (A) (A) (A)
                 (A) (A) (A) (A) (A) (A) (A) (A) (A) (A) (A) (A)
                 (A) (A) (A) (A) (A) (A) (A) (A) (A) (A) (A) (A)
                 (A) (A) (A) (A) (A) (A) (A) (A) (A) (A) (A) (A)
                 (A) (A) (A) (A) (A) (A) (A) (A) (A) (A) (A) (A)
                 (A) (A) (A) (A) (A) (A) (A) (A) (A) (A) (A) (A)
                 (A) (A) (A) (A) (A) (A) (A) (A) (A) (A) (A) (A)
                 (A) (A) (A) (A) (A) (A) (A) (A) (A) (A) (A) (A)
                 (A) (A) (A) (A) (A) (A) (A) (A) (A) (A) (A) (A)
                 (A) (A) (A) (A) (A) (A) (A) (A) (A) (A) (A) (A)
                 (A) (A) (A) (A) (A) (A) (A) (A) (A) (A) (A) (A)
                 (A) (A) (A) (A) (A) (A) (A) (A) (A) (A) (A) (A)
                 (A) (A) (A) (A) (A) (A) (A) (A) (A) (A) (A) (A)
                 (A) (A) (A) (A) (A) (A) (A) (A) (A) (A) (A) (A)
                 (A) (A) (A) (A) (A) (A) (A) (A) (A) (A) (A) (A)
                 (A) (A)
 The electronic state is 1-A.
 Alpha  occ. eigenvalues --  -11.25830 -11.25274 -11.25262 -11.25133 -11.24448
 Alpha  occ. eigenvalues --  -11.24434 -11.24355 -11.24350 -11.24213 -11.24192
 Alpha  occ. eigenvalues --  -11.24126 -11.24115 -11.24114 -11.24054 -11.24027
 Alpha  occ. eigenvalues --  -11.24021 -11.23917 -11.23836 -11.23742  -1.18591
 Alpha  occ. eigenvalues --   -1.15825  -1.15680  -1.09037  -1.02410  -1.02113
 Alpha  occ. eigenvalues --   -1.01889  -1.01495  -1.01391  -0.92962  -0.84537
 Alpha  occ. eigenvalues --   -0.82939  -0.82543  -0.81706  -0.81565  -0.77733
 Alpha  occ. eigenvalues --   -0.70729  -0.70449  -0.69107  -0.65998  -0.63617
 Alpha  occ. eigenvalues --   -0.63500  -0.62370  -0.62034  -0.61900  -0.59568
 Alpha  occ. eigenvalues --   -0.58771  -0.58517  -0.58429  -0.57621  -0.53913
 Alpha  occ. eigenvalues --   -0.51741  -0.51077  -0.50856  -0.49677  -0.49164
 Alpha  occ. eigenvalues --   -0.48682  -0.47792  -0.47468  -0.46767  -0.34692
 Alpha  occ. eigenvalues --   -0.34244  -0.33698  -0.33589  -0.33278  -0.31179
 Alpha virt. eigenvalues --    0.11656   0.12011   0.13580   0.13742   0.14050
 Alpha virt. eigenvalues --    0.14933   0.15135   0.16274   0.16374   0.16880
 Alpha virt. eigenvalues --    0.18807   0.19133   0.19284   0.21284   0.21419
 Alpha virt. eigenvalues --    0.21511   0.23641   0.24240   0.24978   0.27174
 Alpha virt. eigenvalues --    0.28523   0.29476   0.34031   0.34189   0.35871
 Alpha virt. eigenvalues --    0.37461   0.38512   0.39682   0.40945   0.43681
 Alpha virt. eigenvalues --    0.44097   0.44375   0.45028   0.45398   0.45574
 Alpha virt. eigenvalues --    0.45869   0.46399   0.48418   0.49912   0.50380
 Alpha virt. eigenvalues --    0.50794   0.51009   0.51446   0.54977   0.55786
 Alpha virt. eigenvalues --    0.56802   0.57906   0.58956   0.59054   0.59609
 Alpha virt. eigenvalues --    0.59684   0.60670   0.61063   0.61494   0.61696
 Alpha virt. eigenvalues --    0.61849   0.62381   0.62469   0.63280   0.63460
 Alpha virt. eigenvalues --    0.64125   0.64999   0.65160   0.65427   0.66900
 Alpha virt. eigenvalues --    0.67413   0.68214   0.68434   0.70119   0.71379
 Alpha virt. eigenvalues --    0.72347   0.73798   0.74454   0.75076   0.76202
 Alpha virt. eigenvalues --    0.77282   0.78316   0.78635   0.80470   0.81190
 Alpha virt. eigenvalues --    0.81861   0.82192   0.82346   0.82822   0.82909
 Alpha virt. eigenvalues --    0.83524   0.83913   0.84057   0.84788   0.85603
 Alpha virt. eigenvalues --    0.86043   0.86385   0.86901   0.87463   0.88059
 Alpha virt. eigenvalues --    0.89655   0.90562   0.91258   0.92980   0.94421
 Alpha virt. eigenvalues --    0.96087   0.96855   0.97679   0.98122   0.98935
 Alpha virt. eigenvalues --    0.99336   1.00286   1.02787   1.05744   1.06223
 Alpha virt. eigenvalues --    1.06812   1.07136   1.08013   1.08378   1.10501
 Alpha virt. eigenvalues --    1.11075   1.12221   1.12490   1.12970   1.14260
 Alpha virt. eigenvalues --    1.14641   1.15371   1.18589   1.19510   1.21734
 Alpha virt. eigenvalues --    1.25369   1.26732   1.27689   1.28217   1.28845
 Alpha virt. eigenvalues --    1.30345   1.35142   1.39579   1.45221   1.46591
 Alpha virt. eigenvalues --    1.51656   1.52249   1.56492   2.54628   2.55623
 Alpha virt. eigenvalues --    2.56171   2.59218   2.61958   2.62493   2.64477
 Alpha virt. eigenvalues --    2.67010   2.67712   2.68445   2.72299   2.76745
 Alpha virt. eigenvalues --    2.77767   2.83503   2.87899   2.88638   2.94128
 Alpha virt. eigenvalues --    2.94271   2.94424   2.97074   2.97454   2.98025
 Alpha virt. eigenvalues --    3.00374   3.00766   3.04045   3.05736   3.07118
 Alpha virt. eigenvalues --    3.08141   3.08433   3.08998   3.09970   3.14343
 Alpha virt. eigenvalues --    3.14765   3.16345   3.16824   3.17570   3.18830
 Alpha virt. eigenvalues --    3.22648   3.25643   3.25828   3.28290   3.28911
 Alpha virt. eigenvalues --    3.30912   3.33378   3.34271   3.35143   3.42623
 Alpha virt. eigenvalues --    3.43066   3.44423   3.46964   3.49477   3.52246
 Alpha virt. eigenvalues --    3.53447   3.54453   3.59257   3.60656   3.60664
 Alpha virt. eigenvalues --    3.63135   3.63487   3.63776   3.65967   3.66654
 Alpha virt. eigenvalues --    3.68385   3.70276   3.70458   3.71426   3.73483
 Alpha virt. eigenvalues --    3.74205   3.75556   3.80870   3.85859   3.86654
 Alpha virt. eigenvalues --    3.93029  24.24831  24.30690  24.31556  24.50538
 Alpha virt. eigenvalues --   24.50832  24.51118  24.53990  24.54678  24.56097
 Alpha virt. eigenvalues --   24.77288  24.78600  24.79142  24.79612  24.80639
 Alpha virt. eigenvalues --   24.81838  24.83237  25.05542  25.05801  25.06122
          Condensed to atoms (all electrons):
              1          2          3          4          5          6
     1  C    5.829409   0.463799   0.170934  -0.045449  -0.045757   0.008258
     2  H    0.463799   0.512418  -0.073682   0.002777   0.005104   0.001516
     3  C    0.170934  -0.073682   5.366515   0.495087   0.450395  -0.071491
     4  C   -0.045449   0.002777   0.495087   5.040950  -0.061560   0.471650
     5  C   -0.045757   0.005104   0.450395  -0.061560   5.121719  -0.031215
     6  C    0.008258   0.001516  -0.071491   0.471650  -0.031215   5.044646
     7  H   -0.000698   0.002679  -0.045687   0.394501   0.004750  -0.034698
     8  C    0.003591  -0.000276  -0.064474  -0.036061   0.473382  -0.075108
     9  H   -0.000338  -0.000141  -0.053017   0.004504   0.386610  -0.000213
    10  C    0.001135  -0.000016  -0.017772  -0.086757  -0.094823   0.494566
    11  H   -0.000389  -0.000029   0.007144  -0.039661  -0.000597   0.396653
    12  H   -0.000295   0.000014   0.006033  -0.000393  -0.036762   0.005896
    13  H   -0.000019  -0.000001  -0.001592   0.007490   0.008115  -0.042964
    14  C    0.158124  -0.059921  -0.104267  -0.001446  -0.005918  -0.000716
    15  C   -0.049812  -0.003268   0.006336   0.000464  -0.000179   0.000003
    16  C   -0.040233   0.004925  -0.014502   0.001900  -0.007330   0.000227
    17  C    0.006270   0.001552  -0.000758  -0.000017   0.000025   0.000001
    18  H    0.001764   0.001069   0.000692   0.000014  -0.000038   0.000001
    19  C    0.004791  -0.000248   0.000520  -0.000090   0.000018  -0.000004
    20  H   -0.001589  -0.000066  -0.003176  -0.000885   0.001105  -0.000135
    21  C    0.000993   0.000009   0.000046  -0.000014  -0.000019   0.000000
    22  H   -0.000351  -0.000027   0.000011   0.000001   0.000000   0.000000
    23  H   -0.000325   0.000013   0.000037   0.000007   0.000028   0.000001
    24  H   -0.000012  -0.000002  -0.000001   0.000000   0.000001   0.000000
    25  C    0.185193  -0.074350  -0.112026   0.002024  -0.004622  -0.000680
    26  C   -0.026242   0.002090  -0.000355   0.000191   0.001502  -0.000004
    27  C   -0.054390   0.005549  -0.006263   0.000217  -0.017197   0.000029
    28  C    0.007691   0.001758  -0.000603  -0.000009   0.000125   0.000001
    29  H   -0.000487   0.002424   0.000558   0.000134   0.000003   0.000003
    30  C    0.001400  -0.000282   0.001771   0.000027  -0.001741  -0.000001
    31  H    0.003108   0.000066  -0.003171  -0.000194   0.000332   0.000016
    32  C    0.001273  -0.000013  -0.000034  -0.000001   0.000045   0.000000
    33  H   -0.000368  -0.000037   0.000020   0.000000  -0.000001   0.000000
    34  H   -0.000319   0.000012   0.000008   0.000000   0.000015   0.000000
    35  H   -0.000013  -0.000001  -0.000001   0.000000   0.000001   0.000000
              7          8          9         10         11         12
     1  C   -0.000698   0.003591  -0.000338   0.001135  -0.000389  -0.000295
     2  H    0.002679  -0.000276  -0.000141  -0.000016  -0.000029   0.000014
     3  C   -0.045687  -0.064474  -0.053017  -0.017772   0.007144   0.006033
     4  C    0.394501  -0.036061   0.004504  -0.086757  -0.039661  -0.000393
     5  C    0.004750   0.473382   0.386610  -0.094823  -0.000597  -0.036762
     6  C   -0.034698  -0.075108  -0.000213   0.494566   0.396653   0.005896
     7  H    0.507699  -0.000400  -0.000243   0.005353  -0.004218   0.000022
     8  C   -0.000400   5.056434  -0.025343   0.495883   0.006223   0.395567
     9  H   -0.000243  -0.025343   0.498340   0.004793   0.000020  -0.003438
    10  C    0.005353   0.495883   0.004793   5.030374  -0.041050  -0.039657
    11  H   -0.004218   0.006223   0.000020  -0.041050   0.517925  -0.000212
    12  H    0.000022   0.395567  -0.003438  -0.039657  -0.000212   0.515480
    13  H   -0.000183  -0.042529  -0.000183   0.399165  -0.004549  -0.004350
    14  C    0.000478   0.000877  -0.000495   0.000024   0.000022  -0.000007
    15  C    0.000122   0.000023  -0.000029  -0.000001   0.000000  -0.000001
    16  C    0.000186  -0.001486   0.000327   0.000082  -0.000001   0.000013
    17  C   -0.000008   0.000000   0.000006   0.000000   0.000000   0.000000
    18  H    0.000004   0.000000   0.000007   0.000000   0.000000   0.000000
    19  C    0.000009  -0.000031   0.000052   0.000004   0.000000   0.000001
    20  H   -0.000037   0.000953   0.000141   0.000047   0.000001  -0.000003
    21  C   -0.000004   0.000000   0.000001   0.000000   0.000000   0.000000
    22  H    0.000000   0.000000   0.000000   0.000000   0.000000   0.000000
    23  H    0.000000  -0.000001  -0.000017  -0.000001   0.000000   0.000000
    24  H    0.000000   0.000000   0.000000   0.000000   0.000000   0.000000
    25  C    0.000366   0.001536  -0.003001   0.000020   0.000014   0.000011
    26  C   -0.000022   0.000042  -0.000258  -0.000011   0.000001   0.000002
    27  C   -0.000026  -0.000011   0.002830  -0.000005   0.000000   0.000032
    28  C    0.000001   0.000000  -0.000139   0.000000   0.000000   0.000000
    29  H   -0.000025   0.000003  -0.000005  -0.000001   0.000000   0.000000
    30  C    0.000002  -0.000088   0.001155   0.000001   0.000000   0.000000
    31  H   -0.000007   0.000857   0.003448  -0.000011   0.000000  -0.000053
    32  C    0.000000   0.000003   0.000079   0.000000   0.000000  -0.000001
    33  H    0.000000   0.000000   0.000000   0.000000   0.000000   0.000000
    34  H    0.000000   0.000001  -0.000105   0.000000   0.000000   0.000001
    35  H    0.000000   0.000000   0.000000   0.000000   0.000000   0.000000
             13         14         15         16         17         18
     1  C   -0.000019   0.158124  -0.049812  -0.040233   0.006270   0.001764
     2  H   -0.000001  -0.059921  -0.003268   0.004925   0.001552   0.001069
     3  C   -0.001592  -0.104267   0.006336  -0.014502  -0.000758   0.000692
     4  C    0.007490  -0.001446   0.000464   0.001900  -0.000017   0.000014
     5  C    0.008115  -0.005918  -0.000179  -0.007330   0.000025  -0.000038
     6  C   -0.042964  -0.000716   0.000003   0.000227   0.000001   0.000001
     7  H   -0.000183   0.000478   0.000122   0.000186  -0.000008   0.000004
     8  C   -0.042529   0.000877   0.000023  -0.001486   0.000000   0.000000
     9  H   -0.000183  -0.000495  -0.000029   0.000327   0.000006   0.000007
    10  C    0.399165   0.000024  -0.000001   0.000082   0.000000   0.000000
    11  H   -0.004549   0.000022   0.000000  -0.000001   0.000000   0.000000
    12  H   -0.004350  -0.000007  -0.000001   0.000013   0.000000   0.000000
    13  H    0.517653   0.000001   0.000000   0.000000   0.000000   0.000000
    14  C    0.000001   5.366767   0.473228   0.485616  -0.065389  -0.050631
    15  C    0.000000   0.473228   5.071630  -0.071903   0.466197   0.399559
    16  C    0.000000   0.485616  -0.071903   5.087501  -0.027887   0.004138
    17  C    0.000000  -0.065389   0.466197  -0.027887   5.050361  -0.035561
    18  H    0.000000  -0.050631   0.399559   0.004138  -0.035561   0.509962
    19  C    0.000000  -0.064536  -0.031571   0.471634  -0.076895  -0.000334
    20  H    0.000000  -0.042725   0.004180   0.390166  -0.000180  -0.000249
    21  C    0.000000  -0.018505  -0.086126  -0.093491   0.489011   0.005339
    22  H    0.000000   0.006707  -0.039646  -0.000523   0.397071  -0.004286
    23  H    0.000000   0.006179  -0.000424  -0.037586   0.005995   0.000024
    24  H    0.000000  -0.001480   0.007376   0.007827  -0.042954  -0.000185
    25  C   -0.000002  -0.154307   0.000728  -0.014077  -0.000424   0.000561
    26  C    0.000000  -0.005718   0.002044  -0.000316  -0.000036   0.001426
    27  C    0.000001  -0.007670   0.000805  -0.000076   0.000192  -0.000050
    28  C    0.000000  -0.000465  -0.000098   0.000048   0.000006   0.000030
    29  H    0.000000   0.000150   0.000250  -0.000048  -0.000006   0.000254
    30  C    0.000000   0.000753  -0.000064  -0.000032   0.000002  -0.000017
    31  H    0.000000  -0.001892  -0.000264   0.004790  -0.000098  -0.000037
    32  C    0.000000   0.000096  -0.000014  -0.000004   0.000000  -0.000011
    33  H    0.000000   0.000011   0.000003   0.000000   0.000000  -0.000003
    34  H    0.000000   0.000018   0.000006  -0.000002   0.000001   0.000000
    35  H    0.000000  -0.000002   0.000000   0.000000   0.000000   0.000000
             19         20         21         22         23         24
     1  C    0.004791  -0.001589   0.000993  -0.000351  -0.000325  -0.000012
     2  H   -0.000248  -0.000066   0.000009  -0.000027   0.000013  -0.000002
     3  C    0.000520  -0.003176   0.000046   0.000011   0.000037  -0.000001
     4  C   -0.000090  -0.000885  -0.000014   0.000001   0.000007   0.000000
     5  C    0.000018   0.001105  -0.000019   0.000000   0.000028   0.000001
     6  C   -0.000004  -0.000135   0.000000   0.000000   0.000001   0.000000
     7  H    0.000009  -0.000037  -0.000004   0.000000   0.000000   0.000000
     8  C   -0.000031   0.000953   0.000000   0.000000  -0.000001   0.000000
     9  H    0.000052   0.000141   0.000001   0.000000  -0.000017   0.000000
    10  C    0.000004   0.000047   0.000000   0.000000  -0.000001   0.000000
    11  H    0.000000   0.000001   0.000000   0.000000   0.000000   0.000000
    12  H    0.000001  -0.000003   0.000000   0.000000   0.000000   0.000000
    13  H    0.000000   0.000000   0.000000   0.000000   0.000000   0.000000
    14  C   -0.064536  -0.042725  -0.018505   0.006707   0.006179  -0.001480
    15  C   -0.031571   0.004180  -0.086126  -0.039646  -0.000424   0.007376
    16  C    0.471634   0.390166  -0.093491  -0.000523  -0.037586   0.007827
    17  C   -0.076895  -0.000180   0.489011   0.397071   0.005995  -0.042954
    18  H   -0.000334  -0.000249   0.005339  -0.004286   0.000024  -0.000185
    19  C    5.050249  -0.029880   0.499247   0.006122   0.395902  -0.042214
    20  H   -0.029880   0.481592   0.004708   0.000020  -0.003333  -0.000182
    21  C    0.499247   0.004708   5.033414  -0.040715  -0.040247   0.399195
    22  H    0.006122   0.000020  -0.040715   0.518577  -0.000213  -0.004486
    23  H    0.395902  -0.003333  -0.040247  -0.000213   0.516790  -0.004444
    24  H   -0.042214  -0.000182   0.399195  -0.004486  -0.004444   0.518533
    25  C    0.000640  -0.001050   0.000074   0.000012   0.000005  -0.000001
    26  C    0.000028  -0.000082  -0.000003  -0.000001   0.000000   0.000000
    27  C   -0.000663   0.000501   0.000029   0.000003   0.000014  -0.000001
    28  C   -0.000001   0.000002   0.000000   0.000000   0.000000   0.000000
    29  H    0.000000   0.000000   0.000000  -0.000001   0.000000   0.000000
    30  C   -0.000017   0.000064   0.000003   0.000000   0.000000   0.000000
    31  H    0.000447   0.001050  -0.000011   0.000001  -0.000001  -0.000001
    32  C    0.000000   0.000002   0.000000   0.000000   0.000000   0.000000
    33  H    0.000000   0.000000   0.000000   0.000000   0.000000   0.000000
    34  H   -0.000001  -0.000009   0.000000   0.000000   0.000000   0.000000
    35  H    0.000000   0.000000   0.000000   0.000000   0.000000   0.000000
             25         26         27         28         29         30
     1  C    0.185193  -0.026242  -0.054390   0.007691  -0.000487   0.001400
     2  H   -0.074350   0.002090   0.005549   0.001758   0.002424  -0.000282
     3  C   -0.112026  -0.000355  -0.006263  -0.000603   0.000558   0.001771
     4  C    0.002024   0.000191   0.000217  -0.000009   0.000134   0.000027
     5  C   -0.004622   0.001502  -0.017197   0.000125   0.000003  -0.001741
     6  C   -0.000680  -0.000004   0.000029   0.000001   0.000003  -0.000001
     7  H    0.000366  -0.000022  -0.000026   0.000001  -0.000025   0.000002
     8  C    0.001536   0.000042  -0.000011   0.000000   0.000003  -0.000088
     9  H   -0.003001  -0.000258   0.002830  -0.000139  -0.000005   0.001155
    10  C    0.000020  -0.000011  -0.000005   0.000000  -0.000001   0.000001
    11  H    0.000014   0.000001   0.000000   0.000000   0.000000   0.000000
    12  H    0.000011   0.000002   0.000032   0.000000   0.000000   0.000000
    13  H   -0.000002   0.000000   0.000001   0.000000   0.000000   0.000000
    14  C   -0.154307  -0.005718  -0.007670  -0.000465   0.000150   0.000753
    15  C    0.000728   0.002044   0.000805  -0.000098   0.000250  -0.000064
    16  C   -0.014077  -0.000316  -0.000076   0.000048  -0.000048  -0.000032
    17  C   -0.000424  -0.000036   0.000192   0.000006  -0.000006   0.000002
    18  H    0.000561   0.001426  -0.000050   0.000030   0.000254  -0.000017
    19  C    0.000640   0.000028  -0.000663  -0.000001   0.000000  -0.000017
    20  H   -0.001050  -0.000082   0.000501   0.000002   0.000000   0.000064
    21  C    0.000074  -0.000003   0.000029   0.000000   0.000000   0.000003
    22  H    0.000012  -0.000001   0.000003   0.000000  -0.000001   0.000000
    23  H    0.000005   0.000000   0.000014   0.000000   0.000000   0.000000
    24  H   -0.000001   0.000000  -0.000001   0.000000   0.000000   0.000000
    25  C    5.374523   0.503618   0.438906  -0.072777  -0.046624  -0.061717
    26  C    0.503618   5.069970  -0.065402   0.459883   0.395684  -0.033482
    27  C    0.438906  -0.065402   5.095535  -0.029637   0.004634   0.479226
    28  C   -0.072777   0.459883  -0.029637   5.054876  -0.035030  -0.076827
    29  H   -0.046624   0.395684   0.004634  -0.035030   0.510849  -0.000238
    30  C   -0.061717  -0.033482   0.479226  -0.076827  -0.000238   5.035992
    31  H   -0.048555   0.004052   0.388607  -0.000170  -0.000260  -0.027222
    32  C   -0.017861  -0.086344  -0.092106   0.496922   0.005162   0.494404
    33  H    0.007059  -0.039691  -0.000617   0.396773  -0.004172   0.006224
    34  H    0.006074  -0.000448  -0.039065   0.006001   0.000024   0.396679
    35  H   -0.001594   0.007533   0.008017  -0.042750  -0.000186  -0.042913
             31         32         33         34         35
     1  C    0.003108   0.001273  -0.000368  -0.000319  -0.000013
     2  H    0.000066  -0.000013  -0.000037   0.000012  -0.000001
     3  C   -0.003171  -0.000034   0.000020   0.000008  -0.000001
     4  C   -0.000194  -0.000001   0.000000   0.000000   0.000000
     5  C    0.000332   0.000045  -0.000001   0.000015   0.000001
     6  C    0.000016   0.000000   0.000000   0.000000   0.000000
     7  H   -0.000007   0.000000   0.000000   0.000000   0.000000
     8  C    0.000857   0.000003   0.000000   0.000001   0.000000
     9  H    0.003448   0.000079   0.000000  -0.000105   0.000000
    10  C   -0.000011   0.000000   0.000000   0.000000   0.000000
    11  H    0.000000   0.000000   0.000000   0.000000   0.000000
    12  H   -0.000053  -0.000001   0.000000   0.000001   0.000000
    13  H    0.000000   0.000000   0.000000   0.000000   0.000000
    14  C   -0.001892   0.000096   0.000011   0.000018  -0.000002
    15  C   -0.000264  -0.000014   0.000003   0.000006   0.000000
    16  C    0.004790  -0.000004   0.000000  -0.000002   0.000000
    17  C   -0.000098   0.000000   0.000000   0.000001   0.000000
    18  H   -0.000037  -0.000011  -0.000003   0.000000   0.000000
    19  C    0.000447   0.000000   0.000000  -0.000001   0.000000
    20  H    0.001050   0.000002   0.000000  -0.000009   0.000000
    21  C   -0.000011   0.000000   0.000000   0.000000   0.000000
    22  H    0.000001   0.000000   0.000000   0.000000   0.000000
    23  H   -0.000001   0.000000   0.000000   0.000000   0.000000
    24  H   -0.000001   0.000000   0.000000   0.000000   0.000000
    25  C   -0.048555  -0.017861   0.007059   0.006074  -0.001594
    26  C    0.004052  -0.086344  -0.039691  -0.000448   0.007533
    27  C    0.388607  -0.092106  -0.000617  -0.039065   0.008017
    28  C   -0.000170   0.496922   0.396773   0.006001  -0.042750
    29  H   -0.000260   0.005162  -0.004172   0.000024  -0.000186
    30  C   -0.027222   0.494404   0.006224   0.396679  -0.042913
    31  H    0.495334   0.004559   0.000021  -0.003440  -0.000169
    32  C    0.004559   5.031010  -0.040782  -0.039552   0.399616
    33  H    0.000021  -0.040782   0.518264  -0.000211  -0.004580
    34  H   -0.003440  -0.039552  -0.000211   0.515379  -0.004453
    35  H   -0.000169   0.399616  -0.004580  -0.004453   0.517461
 Mulliken atomic charges:
              1
     1  C   -0.580649
     2  H    0.204585
     3  C    0.066767
     4  C   -0.149401
     5  C   -0.145518
     6  C   -0.166238
     7  H    0.170086
     8  C   -0.189567
     9  H    0.184651
    10  C   -0.151343
    11  H    0.162704
    12  H    0.162098
    13  H    0.163948
    14  C    0.087042
    15  C   -0.149552
    16  C   -0.149885
    17  C   -0.166479
    18  H    0.166560
    19  C   -0.183180
    20  H    0.199048
    21  C   -0.152933
    22  H    0.161722
    23  H    0.161597
    24  H    0.163030
    25  C    0.092302
    26  C   -0.189650
    27  C   -0.111946
    28  C   -0.165613
    29  H    0.166949
    30  C   -0.173064
    31  H    0.178870
    32  C   -0.156450
    33  H    0.162087
    34  H    0.163386
    35  H    0.164035
 Sum of Mulliken atomic charges =   0.00000
 Mulliken charges with hydrogens summed into heavy atoms:
              1
     1  C   -0.376064
     3  C    0.066767
     4  C    0.020685
     5  C    0.039134
     6  C   -0.003535
     8  C   -0.027469
    10  C    0.012605
    14  C    0.087042
    15  C    0.017008
    16  C    0.049163
    17  C   -0.004756
    19  C   -0.021583
    21  C    0.010097
    25  C    0.092302
    26  C   -0.022701
    27  C    0.066924
    28  C   -0.003526
    30  C   -0.009678
    32  C    0.007585
 Sum of Mulliken charges with hydrogens summed into heavy atoms =   0.00000
 Electronic spatial extent (au):  <R**2>=           4939.9190
 Charge=              0.0000 electrons
 Dipole moment (field-independent basis, Debye):
    X=             -0.0144    Y=             -0.0634    Z=             -0.0431  Tot=              0.0780
 Quadrupole moment (field-independent basis, Debye-Ang):
   XX=           -110.6057   YY=           -114.0691   ZZ=           -102.8531
   XY=              0.7810   XZ=              2.2736   YZ=             -0.2151
 Traceless Quadrupole moment (field-independent basis, Debye-Ang):
   XX=             -1.4298   YY=             -4.8931   ZZ=              6.3229
   XY=              0.7810   XZ=              2.2736   YZ=             -0.2151
 Octapole moment (field-independent basis, Debye-Ang**2):
  XXX=             39.5086  YYY=             19.8131  ZZZ=             -0.1874  XYY=            -44.1136
  XXY=            -15.6634  XXZ=             -6.4726  XZZ=              0.5979  YZZ=             -4.7661
  YYZ=             10.3345  XYZ=              0.2103
 Hexadecapole moment (field-independent basis, Debye-Ang**3):
 XXXX=          -3091.7752 YYYY=          -2907.9727 ZZZZ=           -786.9490 XXXY=             -4.8069
 XXXZ=             -0.7388 YYYX=              1.2788 YYYZ=             57.5241 ZZZX=              6.2943
 ZZZY=             -4.1657 XXYY=           -972.9157 XXZZ=           -631.1555 YYZZ=           -601.5786
 XXYZ=            -49.6485 YYXZ=             24.1980 ZZXY=             15.4879
 N-N= 1.288358432442D+03 E-N=-4.272724588786D+03  KE= 7.285899575221D+02
 PrsmSu:  requested number of processors reduced to:  10 ShMem   1 Linda.
 Calling FoFJK, ICntrl=      2127 FMM=F ISym2X=0 I1Cent= 0 IOpClX= 0 NMat=1 NMatS=1 NMatT=0.
 ***** Axes restored to original set *****
 -------------------------------------------------------------------
 Center     Atomic                   Forces (Hartrees/Bohr)
 Number     Number              X              Y              Z
 -------------------------------------------------------------------
      1        6          -0.005339848   -0.003949746   -0.023009764
      2        1           0.007893500    0.004900794    0.025867477
      3        6           0.000206767    0.011462163   -0.006952235
      4        6          -0.003617962   -0.001841633   -0.004776382
      5        6           0.007309490   -0.005560496    0.009769629
      6        6          -0.005279096    0.008172044   -0.008761687
      7        1           0.009400811    0.006776923    0.013373113
      8        6           0.005859380    0.004912338    0.009341504
      9        1          -0.008595307    0.021806251   -0.019574131
     10        6           0.001185803    0.013399153   -0.000220151
     11        1           0.006968909   -0.009384597    0.011961348
     12        1          -0.008759522   -0.007024270   -0.012377530
     13        1          -0.001803569   -0.016704785   -0.000406195
     14        6          -0.013696636   -0.004465709    0.002723077
     15        6           0.000138578   -0.003906288   -0.005103260
     16        6           0.005107053    0.009012251    0.004125322
     17        6          -0.006280027   -0.010369451   -0.004230009
     18        1          -0.003455369    0.008133994    0.015056752
     19        6          -0.002754873    0.003981126    0.011147916
     20        1          -0.013716260   -0.016150522   -0.006085876
     21        6          -0.010138315   -0.004466918    0.007847305
     22        1           0.008755757    0.013228233    0.005346051
     23        1           0.003604048   -0.007291559   -0.014629124
     24        1           0.012528642    0.006015064   -0.009349179
     25        6           0.009349031   -0.008478778   -0.006721525
     26        6          -0.002209367    0.000133523   -0.005702024
     27        6          -0.003734385    0.004747230    0.010080402
     28        6           0.007022938   -0.007168764   -0.008641241
     29        1           0.006529780   -0.000324113    0.016578922
     30        6           0.003407184    0.001299592    0.011837922
     31        1           0.010318723   -0.021153971   -0.013424654
     32        6           0.011050696   -0.007860799    0.000491950
     33        1          -0.007053571    0.008193205    0.012604501
     34        1          -0.006355190    0.000746846   -0.015381352
     35        1          -0.013847793    0.009181669   -0.002806871
 -------------------------------------------------------------------
 Cartesian Forces:  Max     0.025867477 RMS     0.009564002

 GradGradGradGradGradGradGradGradGradGradGradGradGradGradGradGradGradGrad
 Berny optimization.
 Internal  Forces:  Max     0.029867850 RMS     0.007839605
 Search for a local minimum.
 Step number   1 out of a maximum of  197
 All quantities printed in internal units (Hartrees-Bohrs-Radians)
 Mixed Optimization -- RFO/linear search
 Second derivative matrix not updated -- first step.
     Eigenvalues ---    0.00635   0.00646   0.00653   0.01530   0.01532
     Eigenvalues ---    0.01537   0.02137   0.02140   0.02146   0.02167
     Eigenvalues ---    0.02170   0.02171   0.02180   0.02184   0.02187
     Eigenvalues ---    0.02201   0.02202   0.02203   0.02212   0.02213
     Eigenvalues ---    0.02215   0.02215   0.02215   0.02216   0.02217
     Eigenvalues ---    0.02218   0.02218   0.02219   0.02220   0.02222
     Eigenvalues ---    0.04518   0.06373   0.06675   0.15996   0.15999
     Eigenvalues ---    0.15999   0.16000   0.16000   0.16000   0.16000
     Eigenvalues ---    0.16000   0.16000   0.16000   0.16000   0.16000
     Eigenvalues ---    0.16000   0.16000   0.16000   0.18941   0.19365
     Eigenvalues ---    0.22000   0.22000   0.22000   0.22000   0.22000
     Eigenvalues ---    0.22000   0.23476   0.23476   0.23477   0.24996
     Eigenvalues ---    0.25000   0.25000   0.31166   0.31359   0.31444
     Eigenvalues ---    0.31500   0.33462   0.33619   0.33950   0.34062
     Eigenvalues ---    0.34079   0.34084   0.34243   0.34251   0.34252
     Eigenvalues ---    0.34259   0.34267   0.34277   0.34279   0.34282
     Eigenvalues ---    0.34285   0.42412   0.42418   0.42482   0.42569
     Eigenvalues ---    0.42583   0.42612   0.46330   0.46351   0.46428
     Eigenvalues ---    0.46757   0.46778   0.46817   0.47220   0.47226
     Eigenvalues ---    0.47250   0.47327   0.47328   0.473691000.00000
     Eigenvalues --- 1000.000001000.000001000.000001000.000001000.00000
     Eigenvalues --- 1000.000001000.000001000.000001000.000001000.00000
     Eigenvalues --- 1000.000001000.000001000.000001000.000001000.00000
     Eigenvalues --- 1000.000001000.000001000.000001000.000001000.00000
     Eigenvalues --- 1000.000001000.000001000.000001000.000001000.00000
     Eigenvalues --- 1000.000001000.000001000.000001000.000001000.00000
     Eigenvalues --- 1000.000001000.000001000.000001000.000001000.00000
     Eigenvalues --- 1000.000001000.000001000.000001000.000001000.00000
     Eigenvalues --- 1000.000001000.000001000.000001000.000001000.00000
     Eigenvalues --- 1000.000001000.000001000.000001000.000001000.00000
     Eigenvalues --- 1000.000001000.000001000.000001000.000001000.00000
     Eigenvalues --- 1000.000001000.000001000.000001000.000001000.00000
     Eigenvalues --- 1000.000001000.000001000.000001000.000001000.00000
     Eigenvalues --- 1000.000001000.000001000.000001000.000001000.00000
     Eigenvalues --- 1000.000001000.000001000.000001000.000001000.00000
     Eigenvalues --- 1000.000001000.000001000.000001000.000001000.00000
     Eigenvalues --- 1000.000001000.000001000.000001000.000001000.00000
     Eigenvalues --- 1000.000001000.00000
 RFO step:  Lambda=-4.28956314D-02 EMin= 6.34843935D-03
 Linear search not attempted -- first point.
 Maximum step size (   0.300) exceeded in Quadratic search.
    -- Step size scaled by   0.575
 Iteration  1 RMS(Cart)=  0.12578694 RMS(Int)=  0.00283571
 Iteration  2 RMS(Cart)=  0.00583632 RMS(Int)=  0.00028866
 Iteration  3 RMS(Cart)=  0.00000903 RMS(Int)=  0.00028861
 Iteration  4 RMS(Cart)=  0.00000000 RMS(Int)=  0.00028861
 Variable       Old X    -DE/DX   Delta X   Delta X   Delta X     New X
                                 (Linear)    (Quad)   (Total)
    R1        2.12397  -0.02747   0.00000  -0.04457  -0.04457   2.07939
    R2        2.85069   0.02567   0.00000   0.04126   0.04126   2.89195
    R3        2.85332   0.02091   0.00000   0.03374   0.03374   2.88705
    R4        2.85173   0.02266   0.00000   0.03648   0.03648   2.88821
    R5        2.64241  -0.00362   0.00000  -0.00408  -0.00406   2.63835
    R6        2.63793   0.00067   0.00000   0.00094   0.00096   2.63888
    R7        2.62617  -0.00358   0.00000  -0.00410  -0.00409   2.62208
    R8        2.07197  -0.01768   0.00000  -0.02651  -0.02651   2.04546
    R9        2.62726  -0.00323   0.00000  -0.00349  -0.00350   2.62376
   R10        2.08248  -0.02987   0.00000  -0.04551  -0.04551   2.03697
   R11        2.62799  -0.00836   0.00000  -0.00952  -0.00954   2.61845
   R12        2.06906  -0.01672   0.00000  -0.02496  -0.02496   2.04410
   R13        2.62716  -0.00690   0.00000  -0.00776  -0.00778   2.61938
   R14        2.06896  -0.01671   0.00000  -0.02494  -0.02494   2.04402
   R15        2.06857  -0.01681   0.00000  -0.02506  -0.02506   2.04351
   R16        2.64316  -0.00433   0.00000  -0.00499  -0.00499   2.63817
   R17        2.63537  -0.00255   0.00000  -0.00283  -0.00283   2.63255
   R18        2.62515  -0.00410   0.00000  -0.00463  -0.00463   2.62052
   R19        2.07188  -0.01745   0.00000  -0.02615  -0.02615   2.04572
   R20        2.62852  -0.00275   0.00000  -0.00299  -0.00300   2.62552
   R21        2.07415  -0.02188   0.00000  -0.03292  -0.03292   2.04122
   R22        2.62908  -0.00611   0.00000  -0.00690  -0.00690   2.62218
   R23        2.06921  -0.01674   0.00000  -0.02499  -0.02499   2.04422
   R24        2.62613  -0.00627   0.00000  -0.00696  -0.00697   2.61916
   R25        2.06908  -0.01674   0.00000  -0.02498  -0.02498   2.04410
   R26        2.06852  -0.01675   0.00000  -0.02498  -0.02498   2.04354
   R27        2.64013  -0.00428   0.00000  -0.00481  -0.00480   2.63533
   R28        2.63746   0.00084   0.00000   0.00111   0.00113   2.63859
   R29        2.62740  -0.00287   0.00000  -0.00327  -0.00328   2.62413
   R30        2.07225  -0.01781   0.00000  -0.02672  -0.02672   2.04554
   R31        2.62607  -0.00459   0.00000  -0.00504  -0.00503   2.62104
   R32        2.07977  -0.02539   0.00000  -0.03853  -0.03853   2.04124
   R33        2.62775  -0.00835   0.00000  -0.00947  -0.00949   2.61826
   R34        2.06882  -0.01661   0.00000  -0.02477  -0.02477   2.04404
   R35        2.62799  -0.00552   0.00000  -0.00624  -0.00625   2.62174
   R36        2.06865  -0.01666   0.00000  -0.02485  -0.02485   2.04381
   R37        2.06862  -0.01685   0.00000  -0.02513  -0.02513   2.04349
    A1        1.85559  -0.00922   0.00000  -0.04548  -0.04454   1.81105
    A2        1.85847  -0.00031   0.00000  -0.01909  -0.01892   1.83955
    A3        1.86751  -0.00588   0.00000  -0.03526  -0.03452   1.83299
    A4        1.97252   0.00306   0.00000   0.02553   0.02363   1.99615
    A5        1.97584   0.01469   0.00000   0.05366   0.05249   2.02833
    A6        1.92547  -0.00407   0.00000   0.00949   0.00715   1.93262
    A7        2.06564  -0.01293   0.00000  -0.02541  -0.02543   2.04021
    A8        2.14227   0.02504   0.00000   0.04917   0.04915   2.19142
    A9        2.07527  -0.01211   0.00000  -0.02375  -0.02372   2.05156
   A10        2.10311   0.00826   0.00000   0.01752   0.01755   2.12066
   A11        2.09370  -0.00486   0.00000  -0.01083  -0.01084   2.08286
   A12        2.08638  -0.00340   0.00000  -0.00670  -0.00671   2.07967
   A13        2.10354   0.00444   0.00000   0.00986   0.00986   2.11340
   A14        2.08558   0.00419   0.00000   0.01325   0.01324   2.09882
   A15        2.09404  -0.00864   0.00000  -0.02313  -0.02314   2.07090
   A16        2.09752   0.00004   0.00000  -0.00095  -0.00096   2.09656
   A17        2.09143   0.00006   0.00000   0.00069   0.00069   2.09212
   A18        2.09423  -0.00010   0.00000   0.00026   0.00026   2.09450
   A19        2.09779   0.00244   0.00000   0.00498   0.00495   2.10274
   A20        2.09016  -0.00115   0.00000  -0.00230  -0.00229   2.08787
   A21        2.09523  -0.00129   0.00000  -0.00268  -0.00267   2.09256
   A22        2.08913  -0.00307   0.00000  -0.00765  -0.00768   2.08144
   A23        2.09669   0.00156   0.00000   0.00390   0.00392   2.10061
   A24        2.09736   0.00151   0.00000   0.00375   0.00376   2.10113
   A25        2.06518  -0.00202   0.00000  -0.00389  -0.00389   2.06129
   A26        2.14032   0.00962   0.00000   0.01899   0.01899   2.15931
   A27        2.07767  -0.00760   0.00000  -0.01511  -0.01510   2.06257
   A28        2.10221   0.00533   0.00000   0.01118   0.01119   2.11340
   A29        2.09305  -0.00329   0.00000  -0.00736  -0.00737   2.08568
   A30        2.08792  -0.00204   0.00000  -0.00383  -0.00383   2.08409
   A31        2.10159   0.00317   0.00000   0.00690   0.00690   2.10849
   A32        2.09239   0.00059   0.00000   0.00270   0.00270   2.09508
   A33        2.08917  -0.00376   0.00000  -0.00963  -0.00963   2.07954
   A34        2.09699   0.00010   0.00000  -0.00033  -0.00033   2.09666
   A35        2.09196   0.00001   0.00000   0.00033   0.00033   2.09229
   A36        2.09423  -0.00011   0.00000   0.00000   0.00000   2.09423
   A37        2.09851   0.00132   0.00000   0.00280   0.00279   2.10130
   A38        2.08968  -0.00060   0.00000  -0.00122  -0.00122   2.08846
   A39        2.09499  -0.00073   0.00000  -0.00158  -0.00158   2.09341
   A40        2.08941  -0.00232   0.00000  -0.00544  -0.00545   2.08395
   A41        2.09630   0.00118   0.00000   0.00278   0.00279   2.09909
   A42        2.09747   0.00114   0.00000   0.00266   0.00266   2.10014
   A43        2.07774  -0.00627   0.00000  -0.01243  -0.01250   2.06524
   A44        2.12731   0.01643   0.00000   0.03217   0.03209   2.15940
   A45        2.07800  -0.01019   0.00000  -0.02004  -0.02004   2.05796
   A46        2.10054   0.00694   0.00000   0.01482   0.01482   2.11537
   A47        2.09435  -0.00404   0.00000  -0.00904  -0.00905   2.08530
   A48        2.08829  -0.00289   0.00000  -0.00578  -0.00579   2.08250
   A49        2.10368   0.00376   0.00000   0.00840   0.00833   2.11201
   A50        2.07585   0.00415   0.00000   0.01308   0.01296   2.08881
   A51        2.10344  -0.00785   0.00000  -0.02096  -0.02108   2.08236
   A52        2.09789  -0.00008   0.00000  -0.00099  -0.00101   2.09688
   A53        2.09124   0.00018   0.00000   0.00090   0.00091   2.09215
   A54        2.09405  -0.00010   0.00000   0.00009   0.00010   2.09416
   A55        2.09588   0.00210   0.00000   0.00422   0.00421   2.10009
   A56        2.09148  -0.00095   0.00000  -0.00182  -0.00183   2.08965
   A57        2.09582  -0.00115   0.00000  -0.00240  -0.00240   2.09342
[...]
 00001812,0.00001080,0.00135635,-0.00013301,0.00028884,-0.00031560,-0.0
 0036223,0.00008594,0.00031922,0.00003025,0.00023070,0.00011237,-0.0000
 1914,-0.00025416,-0.00003813,0.00002982,0.00000938,-0.00028044,-0.0001
 9678,0.00023595,-0.00006185,0.00012107,-0.00004019,-0.00002471,0.00022
 535,0.00015124,0.00002261,0.00001902,0.00001749,0.00000013,-0.00001415
 ,-0.00002107,0.00003626,0.00001418,-0.00001242,-0.04262486,0.01750677,
 0.02824362,0.03145834,-0.01344181,-0.01533990,-0.05411365,0.05440983,-
 0.16123243,0.00301239,0.02164249,-0.06127233,0.00033267,-0.00069318,0.
 00063252,-0.06122718,-0.16871255,0.78088181,-0.00109090,-0.00186953,-0
 .00044132,-0.00010851,-0.00000673,0.00007248,0.00046401,0.00001940,0.0
 0025197,-0.00004029,-0.00016855,-0.00005099,0.00029126,-0.00014222,0.0
 0008655,-0.00000599,0.00001130,0.00001127,-0.00001279,0.00000678,-0.00
 002141,-0.00006037,0.00002386,-0.00006520,-0.00021230,-0.00001786,0.00
 006466,-0.00000435,-0.00000746,0.00000345,-0.00000676,-0.00001072,0.00
 000053,-0.00000920,-0.00002503,0.00000223,-0.00000851,0.00000687,-0.00
 000582,-0.00167560,0.00108653,-0.00183903,-0.00011550,0.00028355,-0.00
 024892,-0.00097922,0.00054694,-0.00029943,-0.00002789,-0.00009940,0.00
 001555,0.00005687,-0.00000011,0.00004357,-0.00009089,0.00016946,0.0000
 5374,0.00009803,-0.00014802,0.00002015,-0.00001818,-0.00010550,0.00003
 936,0.00000723,0.00002326,0.00000669,0.00003619,-0.00002716,-0.0000183
 6,0.00003157,0.00000158,-0.00000670,0.00915258,0.00030853,-0.00683914,
 0.00209754,0.00362568,-0.00130927,-0.19929541,0.02664272,0.15337502,-0
 .00026621,-0.00000142,-0.00108999,0.00031530,-0.00002826,-0.00040945,-
 0.01325230,0.00139902,0.02530224,0.20788465,-0.00197320,-0.00300392,-0
 .00162559,-0.00043764,0.00046071,-0.00026144,0.00067935,-0.00021878,0.
 00038400,-0.00004435,-0.00022554,-0.00005740,0.00030340,-0.00006690,0.
 00010473,0.00001535,0.00003939,0.00004778,-0.00001000,-0.00000079,-0.0
 0001842,-0.00006791,-0.00002725,-0.00008429,-0.00030171,0.00001883,0.0
 0009576,-0.00002712,0.00000519,-0.00001588,-0.00001482,-0.00000619,-0.
 00000317,-0.00000042,-0.00000884,0.00000999,-0.00000893,0.00002051,-0.
 00000813,0.00085659,-0.00014553,0.00035799,0.00033587,0.00001221,0.000
 04468,0.00026396,0.00000300,0.00026512,-0.00029360,-0.00021499,0.00031
 222,-0.00006360,-0.00000368,-0.00016017,0.00027026,0.00023130,-0.00021
 068,0.00013804,-0.00032352,0.00003303,-0.00005985,-0.00026654,-0.00014
 667,-0.00005107,-0.00001285,-0.00002081,0.00000817,0.00000463,-0.00000
 332,-0.00003926,-0.00001481,-0.00001261,-0.01063957,0.00720184,0.01136
 069,0.00400526,0.00492052,0.00447036,0.02619614,-0.05841191,-0.0142287
 6,-0.00017025,-0.00097806,0.00018685,-0.00051935,0.00002379,0.00057722
 ,0.01309660,0.00358301,-0.01503160,-0.03492891,0.04704273,0.00057010,-
 0.00149821,-0.00003887,-0.00003856,0.00003774,0.00012448,0.00003185,-0
 .00003598,0.00013474,-0.00001934,-0.00000807,0.00000022,-0.00008279,0.
 00002491,0.00004934,-0.00002194,-0.00001309,-0.00000706,0.00000816,-0.
 00000447,-0.00003180,-0.00001474,0.00003934,0.00003526,0.00011015,0.00
 000845,-0.00008627,0.00002156,-0.00001544,0.00000641,0.00000380,-0.000
 00320,-0.00000063,-0.00000315,-0.00000924,-0.00000951,0.00000475,-0.00
 000727,-0.00000644,0.00009184,0.00026857,0.00030234,-0.00023516,-0.000
 83201,0.00010508,0.00029293,-0.00006578,0.00069043,-0.00000903,-0.0001
 2860,-0.00012833,-0.00001243,0.00007872,-0.00005646,-0.00027271,-0.000
 15402,0.00021096,-0.00005613,0.00008551,-0.00005505,0.00006156,0.00033
 342,0.00003036,0.00001869,0.00003432,-0.00000900,0.00003876,-0.0000345
 7,-0.00003969,0.00004277,0.00001238,-0.00001767,0.02384168,-0.00457490
 ,-0.01753852,-0.00112302,0.00486508,-0.00369805,0.15141046,-0.01464149
 ,-0.23941208,-0.00115793,0.00028024,-0.00005641,0.00103930,-0.00028440
 ,-0.00108904,-0.00784588,0.00273757,0.00935617,-0.16535009,0.01270731,
 0.24867999,0.00054148,-0.00058234,-0.00001199,-0.00036367,0.00002059,-
 0.00018070,-0.00008170,-0.00037644,-0.00008305,0.00012070,0.00028253,0
 .00003413,-0.00002628,0.00015633,-0.00016233,-0.00006414,-0.00006037,-
 0.00005738,0.00000411,-0.00002453,0.00000920,-0.00006615,0.00010593,-0
 .00004870,-0.00027766,0.00001399,-0.00011046,0.00007329,0.00006735,0.0
 0005172,-0.00000691,0.00003380,0.00000551,0.00001575,0.00006620,0.0000
 1973,0.00000166,0.00001806,-0.00000476,0.00010394,0.00033508,-0.000071
 44,-0.00020282,0.00000440,0.00009244,-0.00000274,-0.00004286,-0.000176
 59,0.00013327,0.00000685,-0.00011432,0.00001966,0.00002105,0.00001114,
 -0.00008258,-0.00010614,0.00000516,0.00000998,-0.00001420,-0.00001875,
 -0.00002840,0.00008311,0.00015516,-0.00003321,-0.00001544,-0.00000876,
 -0.00001980,0.00000548,0.00002334,-0.00002083,-0.00000266,0.00000678,-
 0.01012353,-0.00825411,0.02858066,0.01892720,0.00965640,-0.04194313,-0
 .04840450,0.02814976,0.00765934,-0.15376489,0.05804462,-0.06197919,-0.
 00305575,0.00627366,0.00038510,-0.23907394,0.03371625,0.14948377,-0.00
 209588,0.00609078,-0.00067097,0.70155293,-0.00057000,-0.00114597,0.000
 34339,-0.00002051,-0.00008325,-0.00029165,0.00073290,0.00015420,-0.000
 14884,-0.00004090,-0.00014033,-0.00011070,0.00005472,-0.00005807,0.000
 10382,-0.00003780,-0.00003358,0.00003796,0.00000629,0.00001985,-0.0000
 1333,-0.00007890,0.00005449,-0.00007468,-0.00008788,0.00000275,-0.0000
 3692,0.00003949,-0.00003727,0.00003515,-0.00000635,-0.00002584,0.00001
 298,-0.00000174,-0.00001763,-0.00000968,-0.00000809,-0.00000231,-0.000
 00565,0.00003334,0.00002221,0.00016450,-0.00004176,-0.00005673,-0.0000
 4848,0.00006432,0.00006055,0.00001285,0.00000540,-0.00000380,-0.000060
 79,-0.00002948,-0.00004131,0.00002211,-0.00003383,-0.00002104,0.000024
 11,0.00000350,-0.00001245,0.00000102,0.00003082,0.00004864,-0.00000809
 ,0.00003295,0.00001022,0.00000177,0.00001344,-0.00000406,-0.00000760,0
 .00001083,-0.00000100,-0.00000409,-0.00804712,-0.00772809,0.01557784,0
 .02889131,-0.01063757,0.01654682,0.00861719,0.01335180,-0.02466707,0.0
 3325257,-0.13770117,0.10983800,0.00618542,0.00510711,0.00209054,0.0591
 2873,-0.10943900,-0.01878886,0.00598676,0.00460555,0.00294731,-0.26293
 584,0.36216686,-0.00068077,0.00197901,-0.00159927,0.00007389,0.0005290
 2,0.00110713,-0.00126913,0.00007976,0.00079412,-0.00005280,-0.00034151
 ,0.00042685,-0.00031491,0.00030298,0.00010545,0.00030823,0.00031752,0.
 00006662,-0.00000580,-0.00000717,0.00001020,0.00020306,-0.00048954,0.0
 0022200,0.00033602,0.00011272,0.00001889,-0.00031469,0.00009846,-0.000
 28677,0.00003224,0.00001221,-0.00004680,-0.00001014,0.00002345,0.00004
 296,0.00001063,-0.00000154,0.00000403,-0.00037760,-0.00041237,-0.00044
 034,0.00051068,-0.00003416,-0.00000440,-0.00031500,-0.00011082,0.00042
 003,-0.00029370,-0.00005662,0.00041182,-0.00003203,0.00003187,-0.00010
 179,0.00028256,0.00029015,-0.00009645,-0.00002236,0.00002074,0.0000098
 6,-0.00005831,-0.00030890,-0.00027114,-0.00000059,0.00001022,0.0000115
 2,-0.00000629,0.00000291,-0.00001177,0.00000827,0.00000086,-0.00001047
 ,0.02984887,0.01409474,-0.10144331,-0.10257545,0.04706528,0.02796644,0
 .06773070,-0.05589528,0.07121760,0.01391625,0.06892483,-0.31661663,0.0
 0105064,0.00168736,0.00232143,0.07386434,0.02242037,-0.26887497,-0.001
 04387,0.00317276,0.00171310,-0.05924592,-0.13990205,0.69510570,-0.0005
 2027,-0.00025689,0.00124820,-0.00001134,-0.00002221,-0.00006680,-0.000
 10347,-0.00018335,-0.00001495,0.00004164,0.00010326,-0.00002056,0.0000
 4149,0.00004563,0.00001190,-0.00000492,0.00000828,-0.00002168,-0.00000
 672,-0.00001282,0.00001253,-0.00001140,0.00000345,-0.00000811,-0.00002
 771,-0.00002563,-0.00002298,0.00000597,0.00002553,-0.00000821,-0.00001
 226,0.00001988,-0.00000122,0.00000538,0.00001181,0.00001071,-0.0000021
 1,0.00001542,0.00000116,-0.00012427,0.00028965,-0.00025959,-0.00004338
 ,0.00001422,0.00007509,-0.00009005,-0.00006997,0.00004469,0.00001107,0
 .00000749,0.00002424,0.00001045,0.00001261,-0.00000948,0.00003092,-0.0
 0001064,0.00000209,0.00000186,0.00000252,-0.00000762,-0.00003203,-0.00
 002193,0.00000987,-0.00001738,-0.00001797,0.00000492,-0.00001202,0.000
 00345,0.00001551,-0.00001284,-0.00000321,0.00000615,-0.00186947,0.0063
 3137,-0.00109800,-0.01334311,0.00165083,0.02618251,-0.00029462,0.00003
 608,-0.00115164,-0.19708126,0.03071349,0.14948673,-0.00008744,-0.00229
 311,-0.00138506,0.00246735,0.00364533,-0.00095856,-0.00027073,-0.00051
 677,-0.00005693,0.00943633,0.00071384,-0.00867380,0.20180658,0.0003388
 7,0.00002471,-0.00069620,-0.00006376,0.00005611,-0.00001688,0.00011794
 ,0.00005109,-0.00000320,-0.00000298,-0.00004842,-0.00001671,-0.0000193
 1,-0.00004408,0.00001460,-0.00000926,-0.00000186,0.00001386,-0.0000015
 6,0.00000462,-0.00001350,-0.00000807,-0.00000444,0.00002385,0.00003280
 ,0.00001591,-0.00002306,-0.00001071,-0.00003320,0.00000749,0.00000216,
 -0.00000724,-0.00000167,-0.00000011,-0.00001752,-0.00001818,0.00000534
 ,-0.00000634,-0.00000544,0.00016293,-0.00029201,0.00003994,0.00005886,
 0.00004096,0.00000626,0.00001196,0.00002212,0.00000247,-0.00005055,-0.
 00000518,0.00002749,-0.00000514,-0.00000125,-0.00000292,0.00002311,0.0
 0004200,-0.00002333,0.00000624,-0.00001266,0.00000528,0.00001404,-0.00
 003524,-0.00004528,0.00000121,0.00000222,0.00000339,0.00000535,0.,-0.0
 0001011,0.00000436,-0.00000026,-0.00000193,0.00592496,0.00474473,0.003
 19257,0.01267981,0.00376679,-0.01519848,-0.00008049,-0.00097840,0.0003
 0269,0.03070036,-0.05912466,-0.01865245,-0.00269213,-0.00331581,-0.001
 24554,0.00383860,0.00508416,0.00460867,-0.00047422,-0.00087027,-0.0003
 8088,-0.01025878,0.00704170,0.01197644,-0.03766687,0.04698158,-0.00033
 136,0.00004485,0.00019153,0.00003463,-0.00004543,-0.00001798,0.0001189
 2,0.00000549,0.00000299,-0.00001666,-0.00002674,-0.00003712,-0.0000225
 3,-0.00003174,-0.00001050,-0.00001182,-0.00001476,0.00000303,-0.000002
 33,0.00000626,-0.00000385,0.00001101,0.00002169,0.00002444,0.00002389,
 0.00003273,-0.00000286,0.00000801,-0.00002262,0.00001575,0.00000290,-0
 .00000923,0.00000437,-0.00000292,-0.00001283,-0.00001607,0.00000347,-0
 .00001203,-0.00000077,-0.00002960,-0.00003840,-0.00001858,0.00002972,-
 0.00000526,0.00000116,0.00002013,0.00001016,0.00003061,-0.00001958,-0.
 00001757,0.00001439,-0.00001491,-0.00000410,-0.00001300,0.00001203,0.0
 0001037,0.00000958,-0.00000852,0.00000891,-0.00000277,-0.00000083,-0.0
 0001498,-0.00001220,0.00000222,0.00000695,0.00000002,0.00000011,0.0000
 0023,-0.00000883,0.00000436,0.00000326,-0.00000658,-0.00071518,0.00288
 347,0.00171879,-0.00748099,0.00304746,0.00878779,-0.00111169,0.0002532
 0,0.00007170,0.14971257,-0.01875918,-0.23778467,-0.00026621,-0.0018004
 9,0.00075995,-0.00143254,0.00484883,-0.00383061,-0.00007612,-0.0003341
 7,-0.00012148,0.02478001,-0.00613087,-0.01656445,-0.16292893,0.0174265
 7,0.24710145,0.00029853,0.00014827,-0.00125204,-0.00026763,0.00016415,
 -0.00014050,-0.00019671,-0.00005752,-0.00002643,0.00000474,0.00009016,
 0.00002139,0.00002253,0.00003538,0.00002943,0.00000573,0.00001621,-0.0
 0001362,0.00000538,-0.00000948,0.00001005,-0.00000003,-0.00000284,-0.0
 0000192,0.00000066,-0.00000274,-0.00001630,-0.00000561,0.00001772,-0.0
 0000613,-0.00000175,0.00001280,-0.00000688,0.00000720,0.00000621,0.000
 00216,0.00000003,0.00000833,0.00000047,0.00020038,0.00003768,-0.000072
 41,-0.00004754,-0.00002863,0.00003736,0.00000858,-0.00002612,0.0000240
 4,0.00002485,-0.00001119,-0.00000303,0.00000276,0.00002140,-0.00001055
 ,-0.00001073,-0.00002358,0.00002731,0.00000041,0.00001118,-0.00001827,
 -0.00003259,-0.00001591,0.00005664,-0.00002302,-0.00000680,-0.00000675
 ,-0.00001915,0.00001034,0.00000506,-0.00001660,0.00000403,-0.00000002,
 -0.00324196,0.00617733,0.00078747,-0.00125657,-0.00002940,0.00048344,0
 .00039573,0.01274642,-0.02994208,-0.00119307,0.00387184,0.00474103,-0.
 00018725,-0.00049776,-0.00023040,-0.07739284,0.03006527,-0.04432386,0.
 00007568,-0.00261149,-0.00031270,0.00983343,-0.01035940,0.02410615,0.0
 0021494,-0.00049731,0.00108117,0.07285810,-0.00005836,-0.00022573,0.00
 064498,0.00022652,-0.00018169,0.00003709,0.00011484,0.00014947,0.00007
 802,-0.00004188,-0.00010437,-0.00001198,0.00005939,-0.00009812,0.00000
 272,0.00000682,0.00000128,0.00000165,-0.00001924,0.00000794,-0.0000090
 6,0.00000895,0.00000983,-0.00000287,0.00000529,0.00004060,0.00004642,-
 0.00000697,-0.00002224,-0.00000223,0.00000102,-0.00001128,-0.00000038,
 -0.00001214,-0.00002816,-0.00000282,-0.00000337,-0.00000684,0.00000263
 ,-0.00020666,-0.00004043,0.00008915,-0.00001677,0.00003029,-0.00000228
 ,0.00006575,0.00004581,-0.00006860,0.00001791,-0.00001305,-0.00002244,
 -0.00000914,-0.00001348,-0.00001924,-0.00002950,-0.00002037,-0.0000010
 3,0.00000147,-0.00001666,0.00001210,0.00001745,0.00003057,0.00000194,-
 0.00000161,0.00000233,-0.00000314,0.00001772,-0.00000987,-0.00001158,0
 .00000730,0.00000190,-0.00000262,0.00595387,0.00494828,0.00149889,-0.0
 0008144,-0.00067457,-0.00073403,0.00165103,-0.00140354,0.01801917,0.00
 377791,0.00661729,0.00090868,-0.00050819,-0.00090476,-0.00023428,0.030
 03623,-0.10253582,0.11273262,-0.00212587,-0.00323913,-0.00184533,0.000
 89474,0.00697805,-0.00550976,-0.00004555,0.00001640,-0.00023571,-0.037
 10000,0.09394455,0.00033954,-0.00015124,-0.00022173,-0.00006878,0.0000
 6051,-0.00003547,-0.00014238,-0.00005274,0.00000535,0.00002245,0.00006
 213,0.00003177,0.00001587,0.00005038,0.00002123,0.00000594,0.00001350,
 -0.00000599,0.00000399,-0.00001050,0.00000144,-0.00002473,-0.00001857,
 -0.00001100,-0.00001702,-0.00002727,-0.00004019,-0.00000813,0.00001871
 ,-0.00000779,-0.00000376,0.00001373,-0.00000783,0.00001162,0.00001222,
 0.00000242,0.00000016,0.00001396,-0.00000293,0.00004280,0.00010500,-0.
 00006067,-0.00004935,-0.00000875,0.00002977,-0.00002952,-0.00003296,-0
 .00002193,0.00003318,0.00000495,-0.00000284,0.00001461,0.00002078,-0.0
 0000495,-0.00000345,-0.00002190,0.00000349,0.00000702,-0.00000438,-0.0
 0001132,-0.00001743,-0.00000099,0.00004296,-0.00002289,-0.00001137,-0.
 00000749,-0.00001205,0.00000592,0.00001049,-0.00001706,0.00000016,0.00
 000575,0.00037689,0.00191292,0.00228350,0.00035946,-0.00073699,0.00070
 440,0.00349900,-0.00002819,0.00000602,0.00519472,0.00065031,-0.0013465
 0,-0.00022255,-0.00024493,-0.00019453,-0.04451264,0.11257504,-0.313796
 87,-0.00127628,-0.00123971,0.00072674,-0.00937525,0.01262028,-0.016977
 47,-0.00035054,0.00050506,-0.00107705,0.04645032,-0.12423030,0.3292376
 0,-0.00012429,-0.00051195,-0.00012457,-0.00003000,0.00004670,-0.000104
 16,0.00000557,-0.00008948,0.00003242,0.00001381,0.00001442,0.00001700,
 0.00003246,0.00003023,0.00003129,0.00000894,0.00000974,0.00000458,0.00
 000274,-0.00000751,0.00000052,-0.00002605,-0.00001817,-0.00001831,-0.0
 0002724,-0.00002763,-0.00002151,-0.00000700,0.00001413,-0.00000911,-0.
 00000691,0.00001014,-0.00000610,0.00000835,0.00000682,0.00000550,-0.00
 000106,0.00001498,-0.00000234,0.00003249,0.00007462,-0.00005494,-0.000
 01262,0.00002399,0.00002830,-0.00006962,-0.00002904,-0.00001107,0.0000
 1159,0.00001788,0.00001275,0.00001793,0.00001157,0.00000027,0.00001777
 ,0.00000567,-0.00002842,0.00001379,-0.00002021,-0.00000060,-0.00000652
 ,-0.00001356,0.00000444,-0.00001583,-0.00001399,-0.00000250,-0.0000050
 6,0.00000311,0.00001369,-0.00001410,-0.00000412,0.00000876,0.00034552,
 -0.00084891,0.00037431,0.00307837,0.00300159,0.00004532,0.00047233,0.0
 0289988,0.00508545,-0.00031874,0.00173483,0.00353389,-0.00027756,0.000
 08681,0.00002380,-0.01357826,0.01296762,-0.00853381,-0.00086312,0.0005
 2006,-0.00030485,-0.28297835,0.13849579,-0.03698938,-0.00009519,-0.002
 08768,-0.00137246,-0.00006661,-0.00259753,-0.00022376,0.29446248,-0.00
 033748,-0.00083508,-0.00024892,-0.00003679,0.00002772,-0.00015409,0.00
 017217,-0.00000438,0.00006311,-0.00003010,-0.00006807,-0.00001592,-0.0
 0000607,-0.00004548,0.00000552,-0.00000339,-0.00001085,0.00000773,-0.0
 0000583,0.00000537,-0.00000584,0.00001480,0.00002364,0.00001789,0.0000
 2920,0.00004062,0.00001306,0.00000315,-0.00001874,0.00000758,0.0000021
 3,-0.00001006,0.00000213,-0.00000580,-0.00001894,-0.00001169,0.0000021
 6,-0.00001025,0.00000020,0.00001537,-0.00004380,0.00000480,0.00003287,
 -0.00002042,0.00001828,0.00001635,0.00001856,0.00002737,-0.00000965,-0
 .00002002,0.00000222,-0.00000912,-0.00000177,-0.00001446,-0.00000851,0
 .00000505,0.00000930,-0.00000667,0.00000057,-0.00000395,0.00000706,0.0
 0000409,-0.00000989,-0.00000178,0.00000598,-0.00000118,0.00000615,-0.0
 0000469,-0.00000728,0.00000498,0.00000275,-0.00000495,-0.00097624,-0.0
 0036959,-0.00013578,0.00282265,0.00572567,0.00436681,0.00313945,0.0068
 4825,0.00136704,0.01273781,-0.00156958,-0.00076074,0.00050779,-0.00035
 201,0.00002200,0.00164445,0.00324356,0.00323274,0.00004473,-0.00013372
 ,0.00007608,0.13862676,-0.13243352,0.02991602,-0.00250724,-0.00309629,
 -0.00109431,-0.00216456,-0.00327448,-0.00182476,-0.15372081,0.12638988
 ,-0.00017433,-0.00027733,-0.00000067,0.00007570,0.00000541,0.00000826,
 0.00001562,-0.00003740,0.00004694,-0.00000306,-0.00001829,0.00001330,-
 0.00002167,0.00000638,0.00000947,0.00000677,-0.00000005,0.00000844,0.0
 0000547,-0.00000241,-0.00000341,0.00000183,-0.00000859,0.00000424,0.00
 001727,0.00001070,-0.00001432,-0.00000259,0.00000081,-0.00000660,-0.00
 000136,0.00000117,-0.00000270,0.00000127,-0.00000023,0.00000165,0.0000
 0065,0.00000313,0.00000011,0.00002717,0.00003765,0.00000197,-0.0000122
 8,-0.00004418,0.00001217,0.00000064,-0.00001166,0.00004899,0.00000361,
 -0.00000484,-0.00000394,0.00000312,0.00001076,-0.00000368,-0.00001775,
 -0.00000806,0.00002183,-0.00000561,0.00000853,-0.00000877,-0.00000666,
 0.00000982,0.00000596,-0.00000241,-0.00000010,0.00000062,-0.00000110,-
 0.00000117,0.00000003,0.00000075,0.00000097,0.00000016,0.00034522,-0.0
 0008540,-0.00131673,0.00063090,0.00409113,-0.00488335,0.00448077,0.001
 64351,-0.00307489,-0.03001506,0.01743982,0.00129655,-0.00137240,0.0007
 6510,-0.00023950,0.02500267,-0.01500309,0.00986513,0.00104192,-0.00066
 766,0.00023676,-0.03703948,0.02992888,-0.07862971,-0.00009164,-0.00180
 085,0.00079184,-0.00147959,-0.00112635,0.00072162,0.03858563,-0.034866
 11,0.07509224||-0.00000721,0.00001916,0.00000099,0.00000127,-0.0000072
 6,0.00000185,0.00002944,-0.00001701,0.00003569,-0.00001246,0.00004077,
 -0.00001592,-0.00003431,-0.00004932,-0.00002093,-0.00001810,-0.0000394
 5,-0.00001503,0.00000009,-0.00000548,0.00000127,-0.00001334,0.00005224
 ,-0.00002067,0.00000703,-0.00000237,0.00000319,0.00003658,-0.00000035,
 0.00003653,0.00000122,0.00000280,0.00000109,0.00000168,-0.00000356,0.0
 0000279,-0.00000228,0.00000188,-0.00000250,0.00000904,0.00002080,0.000
 02650,-0.00002646,-0.00002005,0.00000013,0.00003178,-0.00000725,-0.000
 03851,0.00001934,0.00000023,-0.00003471,0.00000315,0.00000284,-0.00000
 154,-0.00003777,-0.00002605,0.00000580,-0.00000008,0.00000725,0.000000
 07,0.00001046,0.00002866,0.00003282,-0.00000293,0.00000022,0.00000415,
 0.00000276,0.00000231,0.00000038,-0.00000189,-0.00000441,-0.00000170,0
 .00000657,0.00000255,0.00000501,0.00000047,-0.00000473,-0.00000158,-0.
 00001507,0.00000784,-0.00001451,-0.00000280,0.00000618,-0.00000061,-0.
 00000060,0.00000146,-0.00000073,0.00001323,-0.00000990,-0.00000663,-0.
 00000021,-0.00000065,0.00000434,0.00000173,0.00000108,0.00001276,-0.00
 000058,-0.00000171,-0.00000120,-0.00000048,0.00000271,0.00000282,0.000
 00072,-0.00000143,-0.00000141|||@


      HUMANKIND PERIODICALLY GOES THROUGH A SPEEDUP OF ITS AFFAIRS, 
      THEREBY EXPERIENCING THE RACE BETWEEN THE RENEWABLE VITALITY
      OF THE LIVING, AND THE BECKONING VITIATION OF DECADENCE.
      IN THIS PERIODIC RACE, ANY PAUSE BECOMES A LUXURY.
      ONLY THEN CAN ONE REFLECT THAT ALL IS PERMITTED;
      ALL IS POSSIBLE.

                              -- THE APOCRYPHA OF MUAD'DIB
                                 CHILDREN OF DUNE, BY FRANK HERBERT
 Job cpu time:  0 days  0 hours  6 minutes 27.0 seconds.
 File lengths (MBytes):  RWF=    350 Int=      0 D2E=      0 Chk=      7 Scr=      1
 Normal termination of Gaussian 09 at Mon Sep 06 19:56:06 2021.
