 Entering Link 1 = b:\programy\g09w\l1.exe PID=     15660.
  
 Copyright (c) 1988,1990,1992,1993,1995,1998,2003,2009, Gaussian, Inc.
                  All Rights Reserved.
  
 This is part of the Gaussian(R) 09 program.  It is based on
 the Gaussian(R) 03 system (copyright 2003, Gaussian, Inc.),
 the Gaussian(R) 98 system (copyright 1998, Gaussian, Inc.),
 the Gaussian(R) 94 system (copyright 1995, Gaussian, Inc.),
 the Gaussian 92(TM) system (copyright 1992, Gaussian, Inc.),
 the Gaussian 90(TM) system (copyright 1990, Gaussian, Inc.),
 the Gaussian 88(TM) system (copyright 1988, Gaussian, Inc.),
 the Gaussian 86(TM) system (copyright 1986, Carnegie Mellon
 University), and the Gaussian 82(TM) system (copyright 1983,
 Carnegie Mellon University). Gaussian is a federally registered
 trademark of Gaussian, Inc.
  
 This software contains proprietary and confidential information,
 including trade secrets, belonging to Gaussian, Inc.
  
 This software is provided under written license and may be
 used, copied, transmitted, or stored only in accord with that
 written license.
  
 The following legend is applicable only to US Government
 contracts under FAR:
  
                    RESTRICTED RIGHTS LEGEND
  
 Use, reproduction and disclosure by the US Government is
 subject to restrictions as set forth in subparagraphs (a)
 and (c) of the Commercial Computer Software - Restricted
 Rights clause in FAR 52.227-19.
  
 Gaussian, Inc.
 340 Quinnipiac St., Bldg. 40, Wallingford CT 06492
  
  
 ---------------------------------------------------------------
 Warning -- This program may not be used in any manner that
 competes with the business of Gaussian, Inc. or will provide
 assistance to any competitor of Gaussian, Inc.  The licensee
 of this program is prohibited from giving any competitor of
 Gaussian, Inc. access to this program.  By using this program,
 the user acknowledges that Gaussian, Inc. is engaged in the
 business of creating and licensing software in the field of
 computational chemistry and represents and warrants to the
 licensee that it is not a competitor of Gaussian, Inc. and that
 it will not use this program in any manner prohibited above.
 ---------------------------------------------------------------
  

 Cite this work as:
 Gaussian 09, Revision A.02,
 M. J. Frisch, G. W. Trucks, H. B. Schlegel, G. E. Scuseria, 
 M. A. Robb, J. R. Cheeseman, G. Scalmani, V. Barone, B. Mennucci, 
 G. A. Petersson, H. Nakatsuji, M. Caricato, X. Li, H. P. Hratchian, 
 A. F. Izmaylov, J. Bloino, G. Zheng, J. L. Sonnenberg, M. Hada, 
 M. Ehara, K. Toyota, R. Fukuda, J. Hasegawa, M. Ishida, T. Nakajima, 
 Y. Honda, O. Kitao, H. Nakai, T. Vreven, J. A. Montgomery, Jr., 
 J. E. Peralta, F. Ogliaro, M. Bearpark, J. J. Heyd, E. Brothers, 
 K. N. Kudin, V. N. Staroverov, R. Kobayashi, J. Normand, 
 K. Raghavachari, A. Rendell, J. C. Burant, S. S. Iyengar, J. Tomasi, 
 M. Cossi, N. Rega, J. M. Millam, M. Klene, J. E. Knox, J. B. Cross, 
 V. Bakken, C. Adamo, J. Jaramillo, R. Gomperts, R. E. Stratmann, 
 O. Yazyev, A. J. Austin, R. Cammi, C. Pomelli, J. W. Ochterski, 
 R. L. Martin, K. Morokuma, V. G. Zakrzewski, G. A. Voth, 
 P. Salvador, J. J. Dannenberg, S. Dapprich, A. D. Daniels, 
 O. Farkas, J. B. Foresman, J. V. Ortiz, J. Cioslowski, 
 and D. J. Fox, Gaussian, Inc., Wallingford CT, 2009.
 
 ******************************************
 Gaussian 09:  IA32W-G09RevA.02 11-Jun-2009
                07-Sep-2021 
 ******************************************
 %nprocshared=12
 Will use up to   12 processors via shared memory.
 ----------------------------------------------
 # opt freq=noraman hf/6-311g geom=connectivity
 ----------------------------------------------
 1/18=20,19=15,38=1,57=2/1,3;
 2/9=110,12=2,17=6,18=5,40=1/2;
 3/5=4,6=6,11=9,16=1,25=1,30=1,71=1/1,2,3;
 4//1;
 5/5=2,38=5/2;
 6/7=2,8=2,9=2,10=2,28=1/1;
 7//1,2,3,16;
 1/18=20,19=15/3(2);
 2/9=110/2;
 99//99;
 2/9=110/2;
 3/5=4,6=6,11=9,16=1,25=1,30=1,71=1/1,2,3;
 4/5=5,16=3/1;
 5/5=2,38=5/2;
 7//1,2,3,16;
 1/18=20,19=15/3(-5);
 2/9=110/2;
 6/7=2,8=2,9=2,10=2,19=2,28=1/1;
 99/9=1/99;
 -----
 M0001
 -----
 Symbolic Z-matrix:
 Charge =  0 Multiplicity = 1
 C                    -0.08888  -0.76756   0.05472 
 H                    -0.16917  -1.885     0.13276 
 C                     0.19608  -0.50355  -1.40333 
 C                     1.42887  -0.90712  -1.92771 
 C                    -0.74471   0.0731   -2.25614 
 C                     1.71359  -0.73084  -3.27525 
 H                     2.17442  -1.36064  -1.26358 
 C                    -0.45803   0.24693  -3.60648 
 H                    -1.71742   0.39267  -1.86137 
 C                     0.76965  -0.15315  -4.11904 
 H                     2.68267  -1.04813  -3.67351 
 H                    -1.2055    0.7002   -4.26551 
 H                     0.99373  -0.01572  -5.18163 
 C                    -1.39038  -0.18462   0.54577 
 C                    -2.40679  -1.04656   0.96403 
 C                    -1.60395   1.19478   0.5998 
 C                    -3.61515  -0.53581   1.42525 
 H                    -2.25421  -2.13186   0.92993 
 C                    -2.81194   1.70276   1.06151 
 H                    -0.79621   1.87432   0.28427 
 C                    -3.82063   0.83814   1.47397 
 H                    -4.40592  -1.21912   1.75067 
 H                    -2.96775   2.78606   1.1006 
 H                    -4.77253   1.23873   1.83685 
 C                     1.05665  -0.32206   0.93153 
 C                     1.69245  -1.25303   1.75541 
 C                     1.49763   1.00272   0.93306 
 C                     2.75516  -0.86363   2.56319 
 H                     1.35428  -2.29579   1.76836 
 C                     2.56153   1.38876   1.73893 
 H                     0.97904   1.73951   0.30072 
 C                     3.19321   0.45567   2.55451 
 H                     3.24758  -1.59959   3.20704 
 H                     2.90097   2.42953   1.73158 
 H                     4.03166   0.75988   3.18908 
 

 GradGradGradGradGradGradGradGradGradGradGradGradGradGradGradGradGradGrad
 Berny optimization.
 Initialization pass.
                           ----------------------------
                           !    Initial Parameters    !
                           ! (Angstroms and Degrees)  !
 --------------------------                            --------------------------
 ! Name  Definition              Value          Derivative Info.                !
 --------------------------------------------------------------------------------
 ! R1    R(1,2)                  1.123          estimate D2E/DX2                !
 ! R2    R(1,3)                  1.5089         estimate D2E/DX2                !
 ! R3    R(1,14)                 1.5083         estimate D2E/DX2                !
 ! R4    R(1,25)                 1.5098         estimate D2E/DX2                !
 ! R5    R(3,4)                  1.3992         estimate D2E/DX2                !
 ! R6    R(3,5)                  1.3946         estimate D2E/DX2                !
 ! R7    R(4,6)                  1.3885         estimate D2E/DX2                !
 ! R8    R(4,7)                  1.0966         estimate D2E/DX2                !
 ! R9    R(5,8)                  1.3913         estimate D2E/DX2                !
 ! R10   R(5,9)                  1.0973         estimate D2E/DX2                !
 ! R11   R(6,10)                 1.3917         estimate D2E/DX2                !
 ! R12   R(6,11)                 1.0947         estimate D2E/DX2                !
 ! R13   R(8,10)                 1.3892         estimate D2E/DX2                !
 ! R14   R(8,12)                 1.0948         estimate D2E/DX2                !
 ! R15   R(10,13)                1.0946         estimate D2E/DX2                !
 ! R16   R(14,15)                1.3968         estimate D2E/DX2                !
 ! R17   R(14,16)                1.3969         estimate D2E/DX2                !
 ! R18   R(15,17)                1.3906         estimate D2E/DX2                !
 ! R19   R(15,18)                1.0965         estimate D2E/DX2                !
 ! R20   R(16,19)                1.3894         estimate D2E/DX2                !
 ! R21   R(16,20)                1.1017         estimate D2E/DX2                !
 ! R22   R(17,21)                1.3901         estimate D2E/DX2                !
 ! R23   R(17,22)                1.0946         estimate D2E/DX2                !
 ! R24   R(19,21)                1.3911         estimate D2E/DX2                !
 ! R25   R(19,23)                1.0951         estimate D2E/DX2                !
 ! R26   R(21,24)                1.0947         estimate D2E/DX2                !
 ! R27   R(25,26)                1.3963         estimate D2E/DX2                !
 ! R28   R(25,27)                1.3962         estimate D2E/DX2                !
 ! R29   R(26,28)                1.3905         estimate D2E/DX2                !
 ! R30   R(26,29)                1.0963         estimate D2E/DX2                !
 ! R31   R(27,30)                1.3894         estimate D2E/DX2                !
 ! R32   R(27,31)                1.1008         estimate D2E/DX2                !
 ! R33   R(28,32)                1.3902         estimate D2E/DX2                !
 ! R34   R(28,33)                1.0948         estimate D2E/DX2                !
 ! R35   R(30,32)                1.391          estimate D2E/DX2                !
 ! R36   R(30,34)                1.0948         estimate D2E/DX2                !
 ! R37   R(32,35)                1.0946         estimate D2E/DX2                !
 ! A1    A(2,1,3)              104.7585         estimate D2E/DX2                !
 ! A2    A(2,1,14)             107.4732         estimate D2E/DX2                !
 ! A3    A(2,1,25)             107.9082         estimate D2E/DX2                !
 ! A4    A(3,1,14)             114.2005         estimate D2E/DX2                !
 ! A5    A(3,1,25)             111.4846         estimate D2E/DX2                !
 ! A6    A(14,1,25)            110.5852         estimate D2E/DX2                !
 ! A7    A(1,3,4)              118.5597         estimate D2E/DX2                !
 ! A8    A(1,3,5)              122.4017         estimate D2E/DX2                !
 ! A9    A(4,3,5)              118.9779         estimate D2E/DX2                !
 ! A10   A(3,4,6)              120.5152         estimate D2E/DX2                !
 ! A11   A(3,4,7)              119.4285         estimate D2E/DX2                !
 ! A12   A(6,4,7)              120.0554         estimate D2E/DX2                !
 ! A13   A(3,5,8)              120.4082         estimate D2E/DX2                !
 ! A14   A(3,5,9)              119.8947         estimate D2E/DX2                !
 ! A15   A(8,5,9)              119.6971         estimate D2E/DX2                !
 ! A16   A(4,6,10)             120.1351         estimate D2E/DX2                !
 ! A17   A(4,6,11)             119.8533         estimate D2E/DX2                !
 ! A18   A(10,6,11)            120.0116         estimate D2E/DX2                !
 ! A19   A(5,8,10)             120.277          estimate D2E/DX2                !
 ! A20   A(5,8,12)             119.6895         estimate D2E/DX2                !
 ! A21   A(10,8,12)            120.0334         estimate D2E/DX2                !
 ! A22   A(6,10,8)             119.6861         estimate D2E/DX2                !
 ! A23   A(6,10,13)            120.122          estimate D2E/DX2                !
 ! A24   A(8,10,13)            120.1919         estimate D2E/DX2                !
 ! A25   A(1,14,15)            119.138          estimate D2E/DX2                !
 ! A26   A(1,14,16)            121.748          estimate D2E/DX2                !
 ! A27   A(15,14,16)           119.1132         estimate D2E/DX2                !
 ! A28   A(14,15,17)           120.3306         estimate D2E/DX2                !
 ! A29   A(14,15,18)           120.0142         estimate D2E/DX2                !
 ! A30   A(17,15,18)           119.6551         estimate D2E/DX2                !
 ! A31   A(14,16,19)           120.4518         estimate D2E/DX2                !
 ! A32   A(14,16,20)           119.0727         estimate D2E/DX2                !
 ! A33   A(19,16,20)           120.4702         estimate D2E/DX2                !
 ! A34   A(15,17,21)           120.2057         estimate D2E/DX2                !
 ! A35   A(15,17,22)           119.8069         estimate D2E/DX2                !
 ! A36   A(21,17,22)           119.9874         estimate D2E/DX2                !
 ! A37   A(16,19,21)           120.1133         estimate D2E/DX2                !
 ! A38   A(16,19,23)           119.816          estimate D2E/DX2                !
 ! A39   A(21,19,23)           120.0707         estimate D2E/DX2                !
 ! A40   A(17,21,19)           119.7851         estimate D2E/DX2                !
 ! A41   A(17,21,24)           120.123          estimate D2E/DX2                !
 ! A42   A(19,21,24)           120.0918         estimate D2E/DX2                !
 ! A43   A(1,25,26)            119.4326         estimate D2E/DX2                !
 ! A44   A(1,25,27)            121.3484         estimate D2E/DX2                !
 ! A45   A(26,25,27)           119.2187         estimate D2E/DX2                !
 ! A46   A(25,26,28)           120.2683         estimate D2E/DX2                !
 ! A47   A(25,26,29)           120.0451         estimate D2E/DX2                !
 ! A48   A(28,26,29)           119.6865         estimate D2E/DX2                !
 ! A49   A(25,27,30)           120.4053         estimate D2E/DX2                !
 ! A50   A(25,27,31)           119.0559         estimate D2E/DX2                !
 ! A51   A(30,27,31)           120.5299         estimate D2E/DX2                !
 ! A52   A(26,28,32)           120.1969         estimate D2E/DX2                !
 ! A53   A(26,28,33)           119.8102         estimate D2E/DX2                !
 ! A54   A(32,28,33)           119.9929         estimate D2E/DX2                !
 ! A55   A(27,30,32)           120.096          estimate D2E/DX2                !
 ! A56   A(27,30,34)           119.847          estimate D2E/DX2                !
 ! A57   A(32,30,34)           120.057          estimate D2E/DX2                !
 ! A58   A(28,32,30)           119.8136         estimate D2E/DX2                !
 ! A59   A(28,32,35)           120.0983         estimate D2E/DX2                !
 ! A60   A(30,32,35)           120.0879         estimate D2E/DX2                !
 ! D1    D(2,1,3,4)            -67.8841         estimate D2E/DX2                !
 ! D2    D(2,1,3,5)            109.2508         estimate D2E/DX2                !
 ! D3    D(14,1,3,4)           174.805          estimate D2E/DX2                !
 ! D4    D(14,1,3,5)            -8.06           estimate D2E/DX2                !
 ! D5    D(25,1,3,4)            48.5659         estimate D2E/DX2                !
 ! D6    D(25,1,3,5)          -134.2991         estimate D2E/DX2                !
 ! D7    D(2,1,14,15)           -0.8618         estimate D2E/DX2                !
 ! D8    D(2,1,14,16)          178.8079         estimate D2E/DX2                !
 ! D9    D(3,1,14,15)          114.8774         estimate D2E/DX2                !
 ! D10   D(3,1,14,16)          -65.4529         estimate D2E/DX2                !
 ! D11   D(25,1,14,15)        -118.4156         estimate D2E/DX2                !
 ! D12   D(25,1,14,16)          61.2541         estimate D2E/DX2                !
 ! D13   D(2,1,25,26)           -6.7715         estimate D2E/DX2                !
 ! D14   D(2,1,25,27)          173.02           estimate D2E/DX2                !
 ! D15   D(3,1,25,26)         -121.2845         estimate D2E/DX2                !
 ! D16   D(3,1,25,27)           58.5071         estimate D2E/DX2                !
 ! D17   D(14,1,25,26)         110.5149         estimate D2E/DX2                !
 ! D18   D(14,1,25,27)         -69.6936         estimate D2E/DX2                !
 ! D19   D(1,3,4,6)            177.5175         estimate D2E/DX2                !
 ! D20   D(1,3,4,7)             -2.8169         estimate D2E/DX2                !
 ! D21   D(5,3,4,6)              0.2825         estimate D2E/DX2                !
 ! D22   D(5,3,4,7)            179.9482         estimate D2E/DX2                !
 ! D23   D(1,3,5,8)           -177.3083         estimate D2E/DX2                !
 ! D24   D(1,3,5,9)              2.7164         estimate D2E/DX2                !
 ! D25   D(4,3,5,8)             -0.1849         estimate D2E/DX2                !
 ! D26   D(4,3,5,9)            179.8399         estimate D2E/DX2                !
 ! D27   D(3,4,6,10)            -0.2134         estimate D2E/DX2                !
 ! D28   D(3,4,6,11)           179.8356         estimate D2E/DX2                !
 ! D29   D(7,4,6,10)          -179.877          estimate D2E/DX2                !
 ! D30   D(7,4,6,11)             0.172          estimate D2E/DX2                !
 ! D31   D(3,5,8,10)             0.0183         estimate D2E/DX2                !
 ! D32   D(3,5,8,12)           179.9528         estimate D2E/DX2                !
 ! D33   D(9,5,8,10)           179.9936         estimate D2E/DX2                !
 ! D34   D(9,5,8,12)            -0.0719         estimate D2E/DX2                !
 ! D35   D(4,6,10,8)             0.0431         estimate D2E/DX2                !
 ! D36   D(4,6,10,13)         -179.9036         estimate D2E/DX2                !
 ! D37   D(11,6,10,8)          179.994          estimate D2E/DX2                !
 ! D38   D(11,6,10,13)           0.0473         estimate D2E/DX2                !
 ! D39   D(5,8,10,6)             0.0542         estimate D2E/DX2                !
 ! D40   D(5,8,10,13)         -179.9992         estimate D2E/DX2                !
 ! D41   D(12,8,10,6)         -179.8801         estimate D2E/DX2                !
 ! D42   D(12,8,10,13)           0.0665         estimate D2E/DX2                !
 ! D43   D(1,14,15,17)         179.7997         estimate D2E/DX2                !
 ! D44   D(1,14,15,18)          -0.1902         estimate D2E/DX2                !
 ! D45   D(16,14,15,17)          0.1212         estimate D2E/DX2                !
 ! D46   D(16,14,15,18)       -179.8687         estimate D2E/DX2                !
 ! D47   D(1,14,16,19)        -179.7655         estimate D2E/DX2                !
 ! D48   D(1,14,16,20)          -0.5969         estimate D2E/DX2                !
 ! D49   D(15,14,16,19)         -0.0958         estimate D2E/DX2                !
 ! D50   D(15,14,16,20)        179.0729         estimate D2E/DX2                !
 ! D51   D(14,15,17,21)         -0.0223         estimate D2E/DX2                !
 ! D52   D(14,15,17,22)        179.9842         estimate D2E/DX2                !
 ! D53   D(18,15,17,21)        179.9675         estimate D2E/DX2                !
 ! D54   D(18,15,17,22)         -0.0259         estimate D2E/DX2                !
 ! D55   D(14,16,19,21)         -0.0287         estimate D2E/DX2                !
 ! D56   D(14,16,19,23)        179.9261         estimate D2E/DX2                !
 ! D57   D(20,16,19,21)       -179.1857         estimate D2E/DX2                !
 ! D58   D(20,16,19,23)          0.7692         estimate D2E/DX2                !
 ! D59   D(15,17,21,19)         -0.1032         estimate D2E/DX2                !
 ! D60   D(15,17,21,24)        179.9726         estimate D2E/DX2                !
 ! D61   D(22,17,21,19)        179.8902         estimate D2E/DX2                !
 ! D62   D(22,17,21,24)         -0.034          estimate D2E/DX2                !
 ! D63   D(16,19,21,17)          0.1287         estimate D2E/DX2                !
 ! D64   D(16,19,21,24)       -179.9471         estimate D2E/DX2                !
 ! D65   D(23,19,21,17)       -179.8261         estimate D2E/DX2                !
 ! D66   D(23,19,21,24)          0.0982         estimate D2E/DX2                !
 ! D67   D(1,25,26,28)         179.5625         estimate D2E/DX2                !
 ! D68   D(1,25,26,29)          -0.4869         estimate D2E/DX2                !
 ! D69   D(27,25,26,28)         -0.2336         estimate D2E/DX2                !
 ! D70   D(27,25,26,29)        179.7171         estimate D2E/DX2                !
 ! D71   D(1,25,27,30)        -179.42           estimate D2E/DX2                !
 ! D72   D(1,25,27,31)           1.6605         estimate D2E/DX2                !
 ! D73   D(26,25,27,30)          0.372          estimate D2E/DX2                !
 ! D74   D(26,25,27,31)       -178.5475         estimate D2E/DX2                !
 ! D75   D(25,26,28,32)         -0.0896         estimate D2E/DX2                !
 ! D76   D(25,26,28,33)        179.9378         estimate D2E/DX2                !
 ! D77   D(29,26,28,32)        179.9596         estimate D2E/DX2                !
 ! D78   D(29,26,28,33)         -0.0129         estimate D2E/DX2                !
 ! D79   D(25,27,30,32)         -0.1873         estimate D2E/DX2                !
 ! D80   D(25,27,30,34)        179.8865         estimate D2E/DX2                !
 ! D81   D(31,27,30,32)        178.7161         estimate D2E/DX2                !
 ! D82   D(31,27,30,34)         -1.2102         estimate D2E/DX2                !
 ! D83   D(26,28,32,30)          0.2771         estimate D2E/DX2                !
 ! D84   D(26,28,32,35)       -179.8382         estimate D2E/DX2                !
 ! D85   D(33,28,32,30)       -179.7504         estimate D2E/DX2                !
 ! D86   D(33,28,32,35)          0.1343         estimate D2E/DX2                !
 ! D87   D(27,30,32,28)         -0.139          estimate D2E/DX2                !
 ! D88   D(27,30,32,35)        179.9763         estimate D2E/DX2                !
 ! D89   D(34,30,32,28)        179.787          estimate D2E/DX2                !
 ! D90   D(34,30,32,35)         -0.0977         estimate D2E/DX2                !
 --------------------------------------------------------------------------------
 Trust Radius=3.00D-01 FncErr=1.00D-07 GrdErr=1.00D-07
 Number of steps in this run= 197 maximum allowed number of steps= 210.
 GradGradGradGradGradGradGradGradGradGradGradGradGradGradGradGradGradGrad

                          Input orientation:                          
 ---------------------------------------------------------------------
 Center     Atomic      Atomic             Coordinates (Angstroms)
 Number     Number       Type             X           Y           Z
 ---------------------------------------------------------------------
      1          6           0       -0.088880   -0.767564    0.054723
      2          1           0       -0.169167   -1.885004    0.132760
      3          6           0        0.196076   -0.503547   -1.403331
      4          6           0        1.428871   -0.907124   -1.927708
      5          6           0       -0.744708    0.073102   -2.256140
      6          6           0        1.713588   -0.730835   -3.275252
      7          1           0        2.174417   -1.360639   -1.263580
      8          6           0       -0.458034    0.246930   -3.606477
      9          1           0       -1.717419    0.392668   -1.861369
     10          6           0        0.769653   -0.153146   -4.119037
     11          1           0        2.682674   -1.048130   -3.673513
     12          1           0       -1.205502    0.700197   -4.265506
     13          1           0        0.993728   -0.015715   -5.181630
     14          6           0       -1.390384   -0.184620    0.545771
     15          6           0       -2.406795   -1.046562    0.964033
     16          6           0       -1.603946    1.194777    0.599803
     17          6           0       -3.615150   -0.535807    1.425246
     18          1           0       -2.254211   -2.131860    0.929932
     19          6           0       -2.811938    1.702764    1.061510
     20          1           0       -0.796206    1.874324    0.284274
     21          6           0       -3.820629    0.838144    1.473970
     22          1           0       -4.405915   -1.219119    1.750670
     23          1           0       -2.967748    2.786060    1.100601
     24          1           0       -4.772532    1.238729    1.836853
     25          6           0        1.056650   -0.322059    0.931526
     26          6           0        1.692450   -1.253034    1.755412
     27          6           0        1.497629    1.002724    0.933063
     28          6           0        2.755158   -0.863634    2.563187
     29          1           0        1.354283   -2.295787    1.768361
     30          6           0        2.561526    1.388759    1.738931
     31          1           0        0.979041    1.739512    0.300715
     32          6           0        3.193212    0.455673    2.554508
     33          1           0        3.247576   -1.599585    3.207039
     34          1           0        2.900972    2.429529    1.731575
     35          1           0        4.031660    0.759878    3.189082
 ---------------------------------------------------------------------
                    Distance matrix (angstroms):
                    1          2          3          4          5
     1  C    0.000000
     2  H    1.123035   0.000000
     3  C    1.508916   2.097952   0.000000
     4  C    2.500616   2.784871   1.399153   0.000000
     5  C    2.544978   3.142017   1.394590   2.406898   0.000000
     6  C    3.786684   4.060963   2.420452   1.388530   2.779951
     7  H    2.685549   2.777969   2.160548   1.096622   3.400305
     8  C    3.817048   4.313986   2.417628   2.776781   1.391333
     9  H    2.769420   3.400210   2.162051   3.404850   1.097330
    10  C    4.305213   4.685988   2.797647   2.409351   2.411402
    11  H    4.654027   4.829189   3.410786   2.154005   3.874668
    12  H    4.697397   5.205958   3.406680   3.871524   2.154793
    13  H    5.399695   5.752330   3.892270   3.401759   3.404194
    14  C    1.508265   2.133835   2.533292   3.819464   2.886871
    15  C    2.505477   2.530016   3.560087   4.805616   3.792848
    16  C    2.538369   3.429544   3.183855   4.472615   3.186354
    17  C    3.790333   3.919905   4.746297   6.068140   4.707739
    18  H    2.704802   2.245847   3.754921   4.819874   4.158306
    19  C    3.811979   4.551801   4.471175   5.807874   4.235096
    20  H    2.744553   3.814273   3.080082   4.192885   3.114603
    21  C    4.303313   4.748426   5.119855   6.494199   4.894926
    22  H    4.660143   4.583784   5.624775   6.904531   5.579319
    23  H    4.691479   5.530606   5.205860   6.491573   4.854869
    24  H    5.397943   5.818299   6.182345   7.565316   5.859577
    25  C    1.509801   2.140900   2.495012   2.942120   3.682698
    26  C    2.510212   2.549119   3.574707   3.708707   4.877595
    27  C    2.534247   3.428945   3.069467   3.440386   4.007902
    28  C    3.793439   3.937239   4.734113   4.682848   6.029299
    29  H    2.711963   2.272627   3.822721   3.949035   5.119962
    30  C    3.809323   4.555655   4.364629   4.471938   5.350021
    31  H    2.736128   3.805747   2.923717   3.488968   3.505102
    32  C    4.303181   4.759120   5.056423   5.006034   6.228636
    33  H    4.664900   4.605083   5.636352   5.491158   6.970117
    34  H    4.687478   5.531470   5.074154   5.166303   5.894540
    35  H    5.397791   5.829533   6.115408   5.977872   7.275699
                    6          7          8          9         10
     6  C    0.000000
     7  H    2.157740   0.000000
     8  C    2.404512   3.873401   0.000000
     9  H    3.877259   4.310200   2.157010   0.000000
    10  C    1.391657   3.403679   1.389242   3.403014   0.000000
    11  H    1.094721   2.482692   3.397900   4.971980   2.158503
    12  H    3.398462   4.968144   1.094751   2.477198   2.156591
    13  H    2.159599   4.307430   2.158171   4.305953   1.094624
    14  C    4.953101   4.167082   4.277461   2.496906   5.140737
    15  C    5.920201   5.103764   5.134233   3.244922   6.060166
    16  C    5.452529   4.927309   4.461425   2.591066   5.451451
    17  C    7.108317   6.436553   5.991518   3.907081   7.078982
    18  H    5.948939   5.001902   5.428066   3.801677   6.208957
    19  C    6.723860   6.297159   5.426824   3.384900   6.565840
    20  H    5.075051   4.656762   4.230923   2.765452   5.094280
    21  C    7.459515   6.947618   6.121072   3.968177   7.303086
    22  H    7.933892   7.239234   6.814256   4.782541   7.897864
    23  H    7.309689   7.016147   5.907827   4.008106   7.060575
    24  H    8.490144   8.039247   7.016295   4.870973   8.253832
    25  C    4.277342   2.673302   4.817830   4.000820   5.061530
    26  C    5.057739   3.059116   5.968612   5.236092   6.047352
    27  C    4.556510   3.296781   5.000326   4.303202   5.233516
    28  C    5.932106   3.902361   7.044339   6.415523   7.007078
    29  H    5.293034   3.277161   6.216010   5.462425   6.292388
    30  C    5.509421   4.089513   6.244590   5.680118   6.316967
    31  H    4.407916   3.672449   4.422571   3.709380   4.812505
    32  C    6.130513   4.349107   7.164698   6.604411   7.126043
    33  H    6.717733   4.603824   7.972776   7.369465   7.867888
    34  H    6.038718   4.885101   6.673939   6.195772   6.741097
    35  H    7.027326   5.269929   8.160888   7.661189   8.054993
                   11         12         13         14         15
    11  H    0.000000
    12  H    4.304070   0.000000
    13  H    2.488540   2.487655   0.000000
    14  C    5.927715   4.895454   6.206097   0.000000
    15  C    6.885458   5.642903   7.098970   1.396774   0.000000
    16  C    6.454996   4.906588   6.452764   1.396877   2.408491
    17  C    8.119261   6.302283   8.072364   2.417932   1.390579
    18  H    6.836593   6.009402   7.237290   2.164606   1.096502
    19  C    7.757488   5.653572   7.510863   2.418475   2.780725
    20  H    6.025564   4.716630   6.054107   2.158861   3.404063
    21  C    8.505737   6.308685   8.258579   2.795298   2.410618
    22  H    8.927435   7.079604   8.869110   3.408137   2.155239
    23  H    8.331893   6.020917   7.937862   3.408937   3.875862
    24  H    9.548505   7.088900   9.169650   3.889954   3.403098
    25  C    4.937360   5.759470   6.121150   2.481063   3.538561
    26  C    5.522296   6.961659   7.081082   3.479742   4.180039
    27  C    5.179853   5.867159   6.219373   3.146489   4.409654
    28  C    6.239849   8.047574   7.987727   4.660101   5.407080
    29  H    5.738925   7.206662   7.323325   3.672186   4.043911
    30  C    5.936974   7.121649   7.233581   4.417776   5.587080
    31  H    5.144687   5.167474   5.756487   3.062109   4.434646
    32  C    6.427310   8.119179   8.056535   5.045231   6.012188
    33  H    6.925692   8.997657   8.829396   5.531287   6.108094
    34  H    6.430921   7.471192   7.576886   5.162910   6.390987
    35  H    7.223840   9.110561   8.938646   6.105549   7.047537
                   16         17         18         19         20
    16  C    0.000000
    17  C    2.778708   0.000000
    18  H    3.405634   2.155198   0.000000
    19  C    1.389413   2.405962   3.877204   0.000000
    20  H    1.101720   3.880334   4.311863   2.167188   0.000000
    21  C    2.409365   1.390085   3.401553   1.391096   3.411185
    22  H    3.873296   1.094589   2.477204   3.398986   4.974908
    23  H    2.154747   3.399900   4.972343   1.095141   2.492639
    24  H    3.401788   2.158224   4.304104   2.158799   4.315745
    25  C    3.080521   4.702677   3.773220   4.368384   2.945524
    26  C    4.265377   5.366009   4.126729   5.432104   4.258876
    27  C    3.125334   5.361887   4.888960   4.367942   2.538167
    28  C    5.205163   6.479445   5.419382   6.311418   5.030114
    29  H    4.722361   5.283042   3.708243   5.817685   4.921072
    30  C    4.322777   6.477166   6.020013   5.425092   3.691364
    31  H    2.656693   5.248642   5.083046   3.866741   1.780435
    32  C    5.232578   6.972235   6.245718   6.312378   4.804372
    33  H    6.176035   7.169618   5.978143   7.226791   6.079702
    34  H    4.806226   7.165675   6.929994   5.797803   4.008997
    35  H    6.217199   7.953844   7.278605   7.228447   5.743535
                   21         22         23         24         25
    21  C    0.000000
    22  H    2.156723   0.000000
    23  H    2.158978   4.304924   0.000000
    24  H    1.094656   2.486533   2.488683   0.000000
    25  C    5.042635   5.596011   5.087708   6.102052   0.000000
    26  C    5.903074   6.098462   6.201654   6.929034   1.396333
    27  C    5.348227   6.360574   4.811231   6.339357   1.396249
    28  C    6.879202   7.215783   6.943420   7.849434   2.416723
    29  H    6.057054   5.859985   6.704553   7.073568   2.164366
    30  C    6.411340   7.439517   5.738710   7.336246   2.417323
    31  H    5.022532   6.312973   4.160797   5.974203   2.157318
    32  C    7.106885   7.822904   6.745516   8.036249   2.793534
    33  H    7.674996   7.800109   7.893112   8.617167   3.407372
    34  H    6.912220   8.167227   5.913300   7.766064   3.407761
    35  H    8.037797   8.785109   7.580164   8.920293   3.888165
                   26         27         28         29         30
    26  C    0.000000
    27  C    2.408871   0.000000
    28  C    1.390496   2.778845   0.000000
    29  H    1.096293   3.405649   2.155287   0.000000
    30  C    2.781121   1.389362   2.406276   3.877394   0.000000
    31  H    3.403003   1.100751   3.879399   4.310271   2.166968
    32  C    2.410502   2.409015   1.390158   3.401503   1.390986
    33  H    2.155396   3.873667   1.094826   2.477710   3.399442
    34  H    3.875870   2.154708   3.399671   4.972144   1.094751
    35  H    3.402812   3.401458   2.158007   4.303939   2.158640
                   31         32         33         34         35
    31  H    0.000000
    32  C    3.410334   0.000000
    33  H    4.974187   2.157044   0.000000
    34  H    2.493452   2.158409   4.304752   0.000000
    35  H    4.315186   1.094633   2.486398   2.488076   0.000000
 Stoichiometry    C19H16
 Framework group  C1[X(C19H16)]
 Deg. of freedom    99
 Full point group                 C1      NOp   1
 Largest Abelian subgroup         C1      NOp   1
 Largest concise Abelian subgroup C1      NOp   1
                         Standard orientation:                         
 ---------------------------------------------------------------------
 Center     Atomic      Atomic             Coordinates (Angstroms)
 Number     Number       Type             X           Y           Z
 ---------------------------------------------------------------------
      1          6           0       -0.011138    0.011111   -0.760182
      2          1           0        0.017925    0.016002   -1.882831
      3          6           0        0.646189    1.306853   -0.352998
      4          6           0        2.015093    1.467076   -0.593952
      5          6           0       -0.071373    2.367637    0.199020
      6          6           0        2.650663    2.661750   -0.282791
      7          1           0        2.586686    0.637432   -1.027026
      8          6           0        0.567138    3.564529    0.508151
      9          1           0       -1.146188    2.259284    0.391801
     10          6           0        1.927408    3.714786    0.269228
     11          1           0        3.722766    2.774383   -0.473380
     12          1           0       -0.007711    4.389879    0.940384
     13          1           0        2.428347    4.657041    0.512983
     14          6           0       -1.456407   -0.106157   -0.345081
     15          6           0       -2.444446   -0.165032   -1.330622
     16          6           0       -1.832733   -0.164292    0.998892
     17          6           0       -3.784310   -0.277451   -0.975889
     18          1           0       -2.165453   -0.122804   -2.390196
     19          6           0       -3.172077   -0.277151    1.350873
     20          1           0       -1.051735   -0.133335    1.775339
     21          6           0       -4.150806   -0.332611    0.363877
     22          1           0       -4.551552   -0.322636   -1.755263
     23          1           0       -3.455335   -0.323100    2.407749
     24          1           0       -5.205978   -0.420657    0.641603
     25          6           0        0.777542   -1.183646   -0.280556
     26          6           0        1.253670   -2.109842   -1.210722
     27          6           0        1.045256   -1.380437    1.075583
     28          6           0        1.989669   -3.211639   -0.789024
     29          1           0        1.047406   -1.971078   -2.278457
     30          6           0        1.783316   -2.480593    1.494210
     31          1           0        0.648160   -0.661724    1.808673
     32          6           0        2.258145   -3.397545    0.562234
     33          1           0        2.358484   -3.933721   -1.524698
     34          1           0        1.989427   -2.624973    2.559645
     35          1           0        2.839955   -4.264068    0.892166
 ---------------------------------------------------------------------
 Rotational constants (GHZ):      0.4040425      0.3817868      0.2325866
 Standard basis: 6-311G (5D, 7F)
 There are   295 symmetry adapted basis functions of A   symmetry.
 Integral buffers will be    262144 words long.
 Raffenetti 1 integral format.
 Two-electron integral symmetry is turned on.
   295 basis functions,   574 primitive gaussians,   295 cartesian basis functions
    65 alpha electrons       65 beta electrons
       nuclear repulsion energy      1290.6453675950 Hartrees.
 NAtoms=   35 NActive=   35 NUniq=   35 SFac= 7.50D-01 NAtFMM=   80 NAOKFM=F Big=F
 One-electron integrals computed using PRISM.
 PrsmSu:  requested number of processors reduced to:  10 ShMem   1 Linda.
 NBasis=   295 RedAO= T  NBF=   295
 NBsUse=   295 1.00D-06 NBFU=   295
 Harris functional with IExCor=  205 diagonalized for initial guess.
 ExpMin= 1.03D-01 ExpMax= 4.56D+03 ExpMxC= 6.82D+02 IAcc=1 IRadAn=         1 AccDes= 0.00D+00
 HarFok:  IExCor=  205 AccDes= 0.00D+00 IRadAn=         1 IDoV= 1
 ScaDFX=  1.000000  1.000000  1.000000  1.000000
 FoFCou: FMM=F IPFlag=           0 FMFlag=      100000 FMFlg1=           0
         NFxFlg=           0 DoJE=T BraDBF=F KetDBF=T FulRan=T
         Omega=  0.000000  0.000000  1.000000  0.000000  0.000000 ICntrl=     500 IOpCl=  0
         NMat0=    1 NMatS0=    1 NMatT0=    0 NMatD0=    1 NMtDS0=    0 NMtDT0=    0
         I1Cent=           4 NGrid=           0.
 Petite list used in FoFCou.
 Initial guess orbital symmetries:
       Occupied  (A) (A) (A) (A) (A) (A) (A) (A) (A) (A) (A) (A)
                 (A) (A) (A) (A) (A) (A) (A) (A) (A) (A) (A) (A)
                 (A) (A) (A) (A) (A) (A) (A) (A) (A) (A) (A) (A)
                 (A) (A) (A) (A) (A) (A) (A) (A) (A) (A) (A) (A)
                 (A) (A) (A) (A) (A) (A) (A) (A) (A) (A) (A) (A)
                 (A) (A) (A) (A) (A)
       Virtual   (A) (A) (A) (A) (A) (A) (A) (A) (A) (A) (A) (A)
                 (A) (A) (A) (A) (A) (A) (A) (A) (A) (A) (A) (A)
                 (A) (A) (A) (A) (A) (A) (A) (A) (A) (A) (A) (A)
                 (A) (A) (A) (A) (A) (A) (A) (A) (A) (A) (A) (A)
                 (A) (A) (A) (A) (A) (A) (A) (A) (A) (A) (A) (A)
                 (A) (A) (A) (A) (A) (A) (A) (A) (A) (A) (A) (A)
                 (A) (A) (A) (A) (A) (A) (A) (A) (A) (A) (A) (A)
                 (A) (A) (A) (A) (A) (A) (A) (A) (A) (A) (A) (A)
                 (A) (A) (A) (A) (A) (A) (A) (A) (A) (A) (A) (A)
                 (A) (A) (A) (A) (A) (A) (A) (A) (A) (A) (A) (A)
                 (A) (A) (A) (A) (A) (A) (A) (A) (A) (A) (A) (A)
                 (A) (A) (A) (A) (A) (A) (A) (A) (A) (A) (A) (A)
                 (A) (A) (A) (A) (A) (A) (A) (A) (A) (A) (A) (A)
                 (A) (A) (A) (A) (A) (A) (A) (A) (A) (A) (A) (A)
                 (A) (A) (A) (A) (A) (A) (A) (A) (A) (A) (A) (A)
                 (A) (A) (A) (A) (A) (A) (A) (A) (A) (A) (A) (A)
                 (A) (A) (A) (A) (A) (A) (A) (A) (A) (A) (A) (A)
                 (A) (A) (A) (A) (A) (A) (A) (A) (A) (A) (A) (A)
                 (A) (A) (A) (A) (A) (A) (A) (A) (A) (A) (A) (A)
                 (A) (A)
 The electronic state of the initial guess is 1-A.
 Requested convergence on RMS density matrix=1.00D-08 within 128 cycles.
 Requested convergence on MAX density matrix=1.00D-06.
 Requested convergence on             energy=1.00D-06.
 No special actions if energy rises.
 Integral accuracy reduced to 1.0D-05 until final iterations.
 Initial convergence to 1.0D-05 achieved.  Increase integral accuracy.
 SCF Done:  E(RHF) =  -728.672419971     A.U. after   14 cycles
             Convg  =    0.8689D-08             -V/T =  2.0001

 **********************************************************************

            Population analysis using the SCF density.

 **********************************************************************

 Orbital symmetries:
       Occupied  (A) (A) (A) (A) (A) (A) (A) (A) (A) (A) (A) (A)
                 (A) (A) (A) (A) (A) (A) (A) (A) (A) (A) (A) (A)
                 (A) (A) (A) (A) (A) (A) (A) (A) (A) (A) (A) (A)
                 (A) (A) (A) (A) (A) (A) (A) (A) (A) (A) (A) (A)
                 (A) (A) (A) (A) (A) (A) (A) (A) (A) (A) (A) (A)
                 (A) (A) (A) (A) (A)
       Virtual   (A) (A) (A) (A) (A) (A) (A) (A) (A) (A) (A) (A)
                 (A) (A) (A) (A) (A) (A) (A) (A) (A) (A) (A) (A)
                 (A) (A) (A) (A) (A) (A) (A) (A) (A) (A) (A) (A)
                 (A) (A) (A) (A) (A) (A) (A) (A) (A) (A) (A) (A)
                 (A) (A) (A) (A) (A) (A) (A) (A) (A) (A) (A) (A)
                 (A) (A) (A) (A) (A) (A) (A) (A) (A) (A) (A) (A)
                 (A) (A) (A) (A) (A) (A) (A) (A) (A) (A) (A) (A)
                 (A) (A) (A) (A) (A) (A) (A) (A) (A) (A) (A) (A)
                 (A) (A) (A) (A) (A) (A) (A) (A) (A) (A) (A) (A)
                 (A) (A) (A) (A) (A) (A) (A) (A) (A) (A) (A) (A)
                 (A) (A) (A) (A) (A) (A) (A) (A) (A) (A) (A) (A)
                 (A) (A) (A) (A) (A) (A) (A) (A) (A) (A) (A) (A)
                 (A) (A) (A) (A) (A) (A) (A) (A) (A) (A) (A) (A)
                 (A) (A) (A) (A) (A) (A) (A) (A) (A) (A) (A) (A)
                 (A) (A) (A) (A) (A) (A) (A) (A) (A) (A) (A) (A)
                 (A) (A) (A) (A) (A) (A) (A) (A) (A) (A) (A) (A)
                 (A) (A) (A) (A) (A) (A) (A) (A) (A) (A) (A) (A)
                 (A) (A) (A) (A) (A) (A) (A) (A) (A) (A) (A) (A)
                 (A) (A) (A) (A) (A) (A) (A) (A) (A) (A) (A) (A)
                 (A) (A)
 The electronic state is 1-A.
 Alpha  occ. eigenvalues --  -11.25761 -11.25233 -11.25185 -11.24920 -11.24526
 Alpha  occ. eigenvalues --  -11.24431 -11.24420 -11.24370 -11.24222 -11.24168
 Alpha  occ. eigenvalues --  -11.24144 -11.24120 -11.24076 -11.24033 -11.24030
 Alpha  occ. eigenvalues --  -11.23966 -11.23730 -11.23631 -11.23501  -1.18616
 Alpha  occ. eigenvalues --   -1.15878  -1.15570  -1.09029  -1.02379  -1.02240
 Alpha  occ. eigenvalues --   -1.01879  -1.01485  -1.01090  -0.92921  -0.84282
 Alpha  occ. eigenvalues --   -0.83361  -0.82331  -0.81916  -0.81136  -0.77587
 Alpha  occ. eigenvalues --   -0.70870  -0.70370  -0.68983  -0.65685  -0.63900
 Alpha  occ. eigenvalues --   -0.63613  -0.62516  -0.61701  -0.61583  -0.59723
 Alpha  occ. eigenvalues --   -0.58846  -0.58490  -0.58316  -0.56772  -0.55078
 Alpha  occ. eigenvalues --   -0.51724  -0.50914  -0.50227  -0.49865  -0.49380
 Alpha  occ. eigenvalues --   -0.48424  -0.47950  -0.47506  -0.46315  -0.35021
 Alpha  occ. eigenvalues --   -0.34318  -0.33961  -0.33325  -0.32544  -0.31465
 Alpha virt. eigenvalues --    0.11541   0.12292   0.12744   0.13514   0.14983
 Alpha virt. eigenvalues --    0.15121   0.15642   0.16236   0.16485   0.16917
 Alpha virt. eigenvalues --    0.18904   0.19187   0.19232   0.21238   0.21296
 Alpha virt. eigenvalues --    0.21589   0.23567   0.24009   0.24949   0.25404
 Alpha virt. eigenvalues --    0.26825   0.31486   0.33168   0.34244   0.35767
 Alpha virt. eigenvalues --    0.37570   0.39789   0.40548   0.41503   0.43104
 Alpha virt. eigenvalues --    0.44094   0.44431   0.44931   0.45450   0.45619
 Alpha virt. eigenvalues --    0.45871   0.46752   0.47235   0.47954   0.50600
 Alpha virt. eigenvalues --    0.51064   0.51424   0.52196   0.54956   0.56073
 Alpha virt. eigenvalues --    0.57326   0.57834   0.58506   0.58887   0.59342
 Alpha virt. eigenvalues --    0.60228   0.60447   0.60623   0.61141   0.61467
 Alpha virt. eigenvalues --    0.62047   0.62210   0.62957   0.63412   0.63678
 Alpha virt. eigenvalues --    0.64259   0.64565   0.65227   0.65918   0.66393
 Alpha virt. eigenvalues --    0.67216   0.67823   0.68581   0.69847   0.72357
 Alpha virt. eigenvalues --    0.73126   0.73902   0.74456   0.75303   0.75746
 Alpha virt. eigenvalues --    0.76789   0.78866   0.79388   0.79909   0.81292
 Alpha virt. eigenvalues --    0.81504   0.82214   0.82500   0.82911   0.83299
 Alpha virt. eigenvalues --    0.83829   0.84364   0.84831   0.84959   0.85476
 Alpha virt. eigenvalues --    0.85941   0.86220   0.86481   0.87752   0.88144
 Alpha virt. eigenvalues --    0.90234   0.90835   0.92155   0.93465   0.95052
 Alpha virt. eigenvalues --    0.95939   0.96362   0.97038   0.98225   0.99720
 Alpha virt. eigenvalues --    1.00053   1.02323   1.03029   1.04792   1.06216
 Alpha virt. eigenvalues --    1.07129   1.08137   1.09335   1.10143   1.10862
 Alpha virt. eigenvalues --    1.11487   1.11725   1.12420   1.12765   1.13801
 Alpha virt. eigenvalues --    1.14983   1.16503   1.19744   1.20575   1.21126
 Alpha virt. eigenvalues --    1.23755   1.25701   1.27337   1.28094   1.29088
 Alpha virt. eigenvalues --    1.29446   1.31961   1.32817   1.46847   1.47773
 Alpha virt. eigenvalues --    1.52009   1.54180   1.56945   2.53508   2.55702
 Alpha virt. eigenvalues --    2.56059   2.57746   2.62081   2.62339   2.63888
 Alpha virt. eigenvalues --    2.66421   2.67096   2.68465   2.72082   2.74306
 Alpha virt. eigenvalues --    2.78333   2.83401   2.86661   2.91736   2.94355
 Alpha virt. eigenvalues --    2.94614   2.94759   2.96019   2.98106   2.98569
 Alpha virt. eigenvalues --    2.99956   3.02256   3.03925   3.04417   3.06511
 Alpha virt. eigenvalues --    3.08485   3.09262   3.09801   3.10064   3.13197
 Alpha virt. eigenvalues --    3.15132   3.16158   3.17714   3.18416   3.19401
 Alpha virt. eigenvalues --    3.21631   3.24104   3.25061   3.27674   3.28775
 Alpha virt. eigenvalues --    3.31410   3.33873   3.34345   3.35709   3.40914
 Alpha virt. eigenvalues --    3.41292   3.44155   3.45045   3.49956   3.52557
 Alpha virt. eigenvalues --    3.53496   3.55960   3.57605   3.58308   3.59523
 Alpha virt. eigenvalues --    3.62372   3.64062   3.65077   3.66250   3.66770
 Alpha virt. eigenvalues --    3.67684   3.69219   3.71266   3.72293   3.74283
 Alpha virt. eigenvalues --    3.76358   3.77507   3.78498   3.85585   3.88044
 Alpha virt. eigenvalues --    3.91091  24.26065  24.30032  24.31745  24.50530
 Alpha virt. eigenvalues --   24.50778  24.51037  24.53051  24.54607  24.56489
 Alpha virt. eigenvalues --   24.76196  24.77077  24.79114  24.80201  24.80727
 Alpha virt. eigenvalues --   24.82803  24.87421  25.04672  25.05778  25.07119
          Condensed to atoms (all electrons):
              1          2          3          4          5          6
     1  C    6.108279   0.472685   0.034480  -0.085654  -0.030728   0.008375
     2  H    0.472685   0.502599  -0.062359  -0.004782   0.000799   0.000620
     3  C    0.034480  -0.062359   5.351995   0.471493   0.500447  -0.056853
     4  C   -0.085654  -0.004782   0.471493   5.124634  -0.083733   0.463479
     5  C   -0.030728   0.000799   0.500447  -0.083733   5.096563  -0.030153
     6  C    0.008375   0.000620  -0.056853   0.463479  -0.030153   5.062127
     7  H   -0.003093  -0.000136  -0.044996   0.397485   0.004479  -0.035151
     8  C    0.012220  -0.000118  -0.068829  -0.033360   0.454370  -0.073864
     9  H   -0.011348  -0.000272  -0.034842   0.004968   0.394015  -0.000437
    10  C    0.000382   0.000035  -0.020696  -0.085049  -0.089925   0.480601
    11  H   -0.000355   0.000005   0.006150  -0.038338  -0.000436   0.397099
    12  H   -0.000362   0.000014   0.006480  -0.000406  -0.036823   0.006012
    13  H   -0.000014  -0.000002  -0.001453   0.007440   0.007662  -0.043198
    14  C    0.117483  -0.075399  -0.065472   0.011480  -0.012837  -0.000883
    15  C   -0.024300   0.006453  -0.000545  -0.000278   0.000841   0.000009
    16  C   -0.072006   0.004436   0.006774   0.000843  -0.018312  -0.000023
    17  C    0.008215   0.001457  -0.000761   0.000005   0.000350   0.000000
    18  H   -0.002046   0.002841   0.000493   0.000012   0.000139   0.000000
    19  C    0.002652  -0.000225   0.000749   0.000015  -0.001443   0.000000
    20  H    0.000666  -0.000026   0.001435   0.000014   0.001632  -0.000053
    21  C    0.001692   0.000006  -0.000067   0.000000   0.000142   0.000000
    22  H   -0.000409  -0.000034   0.000024   0.000000  -0.000008   0.000000
    23  H   -0.000371   0.000012   0.000019   0.000000   0.000004   0.000000
    24  H   -0.000026  -0.000002   0.000002   0.000000  -0.000003   0.000000
    25  C    0.148759  -0.070502  -0.094554  -0.007074   0.001259  -0.001626
    26  C   -0.024506   0.001705  -0.001514   0.000581  -0.000444  -0.000048
    27  C   -0.056074   0.005468  -0.006997  -0.008909   0.001654  -0.000290
    28  C    0.006851   0.001557  -0.000422  -0.000099   0.000020   0.000014
    29  H   -0.000102   0.002380   0.000146   0.000290  -0.000034  -0.000008
    30  C    0.003265  -0.000262  -0.000543  -0.000341   0.000019  -0.000009
    31  H    0.000145   0.000107   0.001140   0.000309  -0.000146   0.000062
    32  C    0.001275  -0.000001   0.000041   0.000112  -0.000002   0.000002
    33  H   -0.000340  -0.000039   0.000011  -0.000002   0.000000   0.000000
    34  H   -0.000349   0.000011   0.000024   0.000016   0.000000   0.000001
    35  H   -0.000012  -0.000001   0.000001   0.000000   0.000000   0.000000
              7          8          9         10         11         12
     1  C   -0.003093   0.012220  -0.011348   0.000382  -0.000355  -0.000362
     2  H   -0.000136  -0.000118  -0.000272   0.000035   0.000005   0.000014
     3  C   -0.044996  -0.068829  -0.034842  -0.020696   0.006150   0.006480
     4  C    0.397485  -0.033360   0.004968  -0.085049  -0.038338  -0.000406
     5  C    0.004479   0.454370   0.394015  -0.089925  -0.000436  -0.036823
     6  C   -0.035151  -0.073864  -0.000437   0.480601   0.397099   0.006012
     7  H    0.489683  -0.000469  -0.000196   0.005224  -0.003867   0.000017
     8  C   -0.000469   5.078657  -0.036421   0.495501   0.006002   0.395625
     9  H   -0.000196  -0.036421   0.477517   0.005048   0.000017  -0.003526
    10  C    0.005224   0.495501   0.005048   5.042834  -0.040854  -0.041257
    11  H   -0.003867   0.006002   0.000017  -0.040854   0.517617  -0.000213
    12  H    0.000017   0.395625  -0.003526  -0.041257  -0.000213   0.517803
    13  H   -0.000173  -0.042145  -0.000170   0.399476  -0.004405  -0.004467
    14  C    0.000811  -0.001627   0.000999   0.000123   0.000012   0.000058
    15  C   -0.000006  -0.000116  -0.001076  -0.000004   0.000000   0.000004
    16  C   -0.000041  -0.000960  -0.001019  -0.000016   0.000000   0.000025
    17  C    0.000000   0.000004  -0.000125   0.000000   0.000000   0.000000
    18  H   -0.000001   0.000004   0.000091   0.000000   0.000000   0.000000
    19  C    0.000000  -0.000040   0.000281   0.000000   0.000000  -0.000001
    20  H    0.000022   0.000112   0.000049   0.000001  -0.000001   0.000000
    21  C    0.000000   0.000004   0.000110   0.000000   0.000000  -0.000001
    22  H    0.000000   0.000000   0.000011   0.000000   0.000000   0.000000
    23  H    0.000000  -0.000002   0.000038   0.000000   0.000000   0.000000
    24  H    0.000000   0.000000   0.000010   0.000000   0.000000   0.000000
    25  C    0.004076  -0.000814   0.000422   0.000129   0.000016   0.000012
    26  C    0.001599   0.000007  -0.000017  -0.000003  -0.000004   0.000000
    27  C   -0.000606   0.000050   0.000059   0.000033   0.000014   0.000000
    28  C    0.000118   0.000000   0.000000   0.000000  -0.000001   0.000000
    29  H    0.000202   0.000000   0.000001   0.000001   0.000000   0.000000
    30  C   -0.000256   0.000004   0.000000   0.000002   0.000002   0.000000
    31  H   -0.000059  -0.000104   0.000022  -0.000040   0.000005   0.000000
    32  C   -0.000086   0.000000   0.000000   0.000000   0.000000   0.000000
    33  H    0.000006   0.000000   0.000000   0.000000   0.000000   0.000000
    34  H    0.000005   0.000000   0.000000   0.000000   0.000000   0.000000
    35  H    0.000001   0.000000   0.000000   0.000000   0.000000   0.000000
             13         14         15         16         17         18
     1  C   -0.000014   0.117483  -0.024300  -0.072006   0.008215  -0.002046
     2  H   -0.000002  -0.075399   0.006453   0.004436   0.001457   0.002841
     3  C   -0.001453  -0.065472  -0.000545   0.006774  -0.000761   0.000493
     4  C    0.007440   0.011480  -0.000278   0.000843   0.000005   0.000012
     5  C    0.007662  -0.012837   0.000841  -0.018312   0.000350   0.000139
     6  C   -0.043198  -0.000883   0.000009  -0.000023   0.000000   0.000000
     7  H   -0.000173   0.000811  -0.000006  -0.000041   0.000000  -0.000001
     8  C   -0.042145  -0.001627  -0.000116  -0.000960   0.000004   0.000004
     9  H   -0.000170   0.000999  -0.001076  -0.001019  -0.000125   0.000091
    10  C    0.399476   0.000123  -0.000004  -0.000016   0.000000   0.000000
    11  H   -0.004405   0.000012   0.000000   0.000000   0.000000   0.000000
    12  H   -0.004467   0.000058   0.000004   0.000025   0.000000   0.000000
    13  H    0.519375   0.000001   0.000000   0.000001   0.000000   0.000000
    14  C    0.000001   5.394660   0.498665   0.451228  -0.076831  -0.045709
    15  C    0.000000   0.498665   5.048710  -0.063416   0.468186   0.394592
    16  C    0.000001   0.451228  -0.063416   5.096566  -0.029495   0.004758
    17  C    0.000000  -0.076831   0.468186  -0.029495   5.047301  -0.033773
    18  H    0.000000  -0.045709   0.394592   0.004758  -0.033773   0.506522
    19  C    0.000000  -0.063834  -0.033947   0.480301  -0.077353  -0.000289
    20  H    0.000000  -0.047510   0.004607   0.386221  -0.000127  -0.000270
    21  C    0.000000  -0.016162  -0.088945  -0.093598   0.499744   0.005071
    22  H    0.000000   0.007017  -0.039455  -0.000632   0.396404  -0.004078
    23  H    0.000000   0.005978  -0.000378  -0.038523   0.005895   0.000025
    24  H    0.000000  -0.001678   0.007564   0.007982  -0.042548  -0.000178
    25  C    0.000002  -0.140600  -0.004413  -0.003118  -0.000591   0.000159
    26  C    0.000000  -0.002135   0.000612   0.000523  -0.000011   0.000202
    27  C    0.000000  -0.003331   0.000738  -0.011822   0.000054  -0.000025
    28  C    0.000000  -0.000517  -0.000017   0.000127   0.000002  -0.000002
    29  H    0.000000   0.000351   0.000269  -0.000007   0.000006   0.000063
    30  C    0.000000   0.001893   0.000029  -0.000410  -0.000001   0.000001
    31  H    0.000001  -0.002842  -0.000197  -0.000979   0.000001  -0.000002
    32  C    0.000000  -0.000088  -0.000009  -0.000025   0.000000  -0.000001
    33  H    0.000000   0.000025   0.000001   0.000000   0.000000   0.000000
    34  H    0.000000   0.000027   0.000000   0.000056   0.000000   0.000000
    35  H    0.000000  -0.000003   0.000000   0.000000   0.000000   0.000000
             19         20         21         22         23         24
     1  C    0.002652   0.000666   0.001692  -0.000409  -0.000371  -0.000026
     2  H   -0.000225  -0.000026   0.000006  -0.000034   0.000012  -0.000002
     3  C    0.000749   0.001435  -0.000067   0.000024   0.000019   0.000002
     4  C    0.000015   0.000014   0.000000   0.000000   0.000000   0.000000
     5  C   -0.001443   0.001632   0.000142  -0.000008   0.000004  -0.000003
     6  C    0.000000  -0.000053   0.000000   0.000000   0.000000   0.000000
     7  H    0.000000   0.000022   0.000000   0.000000   0.000000   0.000000
     8  C   -0.000040   0.000112   0.000004   0.000000  -0.000002   0.000000
     9  H    0.000281   0.000049   0.000110   0.000011   0.000038   0.000010
    10  C    0.000000   0.000001   0.000000   0.000000   0.000000   0.000000
    11  H    0.000000  -0.000001   0.000000   0.000000   0.000000   0.000000
    12  H   -0.000001   0.000000  -0.000001   0.000000   0.000000   0.000000
    13  H    0.000000   0.000000   0.000000   0.000000   0.000000   0.000000
    14  C   -0.063834  -0.047510  -0.016162   0.007017   0.005978  -0.001678
    15  C   -0.033947   0.004607  -0.088945  -0.039455  -0.000378   0.007564
    16  C    0.480301   0.386221  -0.093598  -0.000632  -0.038523   0.007982
    17  C   -0.077353  -0.000127   0.499744   0.396404   0.005895  -0.042548
    18  H   -0.000289  -0.000270   0.005071  -0.004078   0.000025  -0.000178
    19  C    5.046730  -0.027146   0.490216   0.006274   0.396953  -0.042959
    20  H   -0.027146   0.497413   0.004639   0.000016  -0.003392  -0.000170
    21  C    0.490216   0.004639   5.033631  -0.041047  -0.039784   0.399450
    22  H    0.006274   0.000016  -0.041047   0.517954  -0.000206  -0.004562
    23  H    0.396953  -0.003392  -0.039784  -0.000206   0.514394  -0.004363
    24  H   -0.042959  -0.000170   0.399450  -0.004562  -0.004363   0.516901
    25  C    0.001962  -0.003696  -0.000060   0.000020   0.000027  -0.000002
    26  C    0.000043  -0.000212  -0.000013   0.000001   0.000002   0.000000
    27  C   -0.000098   0.001921  -0.000005  -0.000001   0.000038   0.000001
    28  C    0.000001  -0.000059   0.000000   0.000000   0.000000   0.000000
    29  H   -0.000001   0.000001  -0.000002   0.000000   0.000000   0.000000
    30  C   -0.000101   0.001143   0.000002   0.000000   0.000000   0.000000
    31  H    0.000879   0.001591  -0.000014   0.000000  -0.000033   0.000000
    32  C    0.000001   0.000004   0.000000   0.000000   0.000000   0.000000
    33  H    0.000000   0.000001   0.000000   0.000000   0.000000   0.000000
    34  H    0.000002  -0.000059   0.000000   0.000000   0.000001   0.000000
    35  H    0.000000   0.000000   0.000000   0.000000   0.000000   0.000000
             25         26         27         28         29         30
     1  C    0.148759  -0.024506  -0.056074   0.006851  -0.000102   0.003265
     2  H   -0.070502   0.001705   0.005468   0.001557   0.002380  -0.000262
     3  C   -0.094554  -0.001514  -0.006997  -0.000422   0.000146  -0.000543
     4  C   -0.007074   0.000581  -0.008909  -0.000099   0.000290  -0.000341
     5  C    0.001259  -0.000444   0.001654   0.000020  -0.000034   0.000019
     6  C   -0.001626  -0.000048  -0.000290   0.000014  -0.000008  -0.000009
     7  H    0.004076   0.001599  -0.000606   0.000118   0.000202  -0.000256
     8  C   -0.000814   0.000007   0.000050   0.000000   0.000000   0.000004
     9  H    0.000422  -0.000017   0.000059   0.000000   0.000001   0.000000
    10  C    0.000129  -0.000003   0.000033   0.000000   0.000001   0.000002
    11  H    0.000016  -0.000004   0.000014  -0.000001   0.000000   0.000002
    12  H    0.000012   0.000000   0.000000   0.000000   0.000000   0.000000
    13  H    0.000002   0.000000   0.000000   0.000000   0.000000   0.000000
    14  C   -0.140600  -0.002135  -0.003331  -0.000517   0.000351   0.001893
    15  C   -0.004413   0.000612   0.000738  -0.000017   0.000269   0.000029
    16  C   -0.003118   0.000523  -0.011822   0.000127  -0.000007  -0.000410
    17  C   -0.000591  -0.000011   0.000054   0.000002   0.000006  -0.000001
    18  H    0.000159   0.000202  -0.000025  -0.000002   0.000063   0.000001
    19  C    0.001962   0.000043  -0.000098   0.000001  -0.000001  -0.000101
    20  H   -0.003696  -0.000212   0.001921  -0.000059   0.000001   0.001143
    21  C   -0.000060  -0.000013  -0.000005   0.000000  -0.000002   0.000002
    22  H    0.000020   0.000001  -0.000001   0.000000   0.000000   0.000000
    23  H    0.000027   0.000002   0.000038   0.000000   0.000000   0.000000
    24  H   -0.000002   0.000000   0.000001   0.000000   0.000000   0.000000
    25  C    5.390835   0.492620   0.447673  -0.073849  -0.050668  -0.058243
    26  C    0.492620   5.091697  -0.072168   0.454428   0.400416  -0.030653
    27  C    0.447673  -0.072168   5.068712  -0.026488   0.004342   0.478870
    28  C   -0.073849   0.454428  -0.026488   5.059173  -0.034823  -0.078678
    29  H   -0.050668   0.400416   0.004342  -0.034823   0.509638  -0.000281
    30  C   -0.058243  -0.030653   0.478870  -0.078678  -0.000281   5.040641
    31  H   -0.044557   0.004096   0.388746   0.000021  -0.000272  -0.028507
    32  C   -0.018766  -0.086438  -0.091289   0.497800   0.005243   0.491194
    33  H    0.006924  -0.039666  -0.000686   0.396952  -0.004208   0.006245
    34  H    0.006024  -0.000477  -0.038914   0.005975   0.000025   0.397248
    35  H   -0.001549   0.007494   0.007891  -0.042564  -0.000184  -0.042918
             31         32         33         34         35
     1  C    0.000145   0.001275  -0.000340  -0.000349  -0.000012
     2  H    0.000107  -0.000001  -0.000039   0.000011  -0.000001
     3  C    0.001140   0.000041   0.000011   0.000024   0.000001
     4  C    0.000309   0.000112  -0.000002   0.000016   0.000000
     5  C   -0.000146  -0.000002   0.000000   0.000000   0.000000
     6  C    0.000062   0.000002   0.000000   0.000001   0.000000
     7  H   -0.000059  -0.000086   0.000006   0.000005   0.000001
     8  C   -0.000104   0.000000   0.000000   0.000000   0.000000
     9  H    0.000022   0.000000   0.000000   0.000000   0.000000
    10  C   -0.000040   0.000000   0.000000   0.000000   0.000000
    11  H    0.000005   0.000000   0.000000   0.000000   0.000000
    12  H    0.000000   0.000000   0.000000   0.000000   0.000000
    13  H    0.000001   0.000000   0.000000   0.000000   0.000000
    14  C   -0.002842  -0.000088   0.000025   0.000027  -0.000003
    15  C   -0.000197  -0.000009   0.000001   0.000000   0.000000
    16  C   -0.000979  -0.000025   0.000000   0.000056   0.000000
    17  C    0.000001   0.000000   0.000000   0.000000   0.000000
    18  H   -0.000002  -0.000001   0.000000   0.000000   0.000000
    19  C    0.000879   0.000001   0.000000   0.000002   0.000000
    20  H    0.001591   0.000004   0.000001  -0.000059   0.000000
    21  C   -0.000014   0.000000   0.000000   0.000000   0.000000
    22  H    0.000000   0.000000   0.000000   0.000000   0.000000
    23  H   -0.000033   0.000000   0.000000   0.000001   0.000000
    24  H    0.000000   0.000000   0.000000   0.000000   0.000000
    25  C   -0.044557  -0.018766   0.006924   0.006024  -0.001549
    26  C    0.004096  -0.086438  -0.039666  -0.000477   0.007494
    27  C    0.388746  -0.091289  -0.000686  -0.038914   0.007891
    28  C    0.000021   0.497800   0.396952   0.005975  -0.042564
    29  H   -0.000272   0.005243  -0.004208   0.000025  -0.000184
    30  C   -0.028507   0.491194   0.006245   0.397248  -0.042918
    31  H    0.497138   0.004554   0.000015  -0.003328  -0.000173
    32  C    0.004554   5.034080  -0.040695  -0.039849   0.399674
    33  H    0.000015  -0.040695   0.518079  -0.000206  -0.004592
    34  H   -0.003328  -0.039849  -0.000206   0.514807  -0.004472
    35  H   -0.000173   0.399674  -0.004592  -0.004472   0.517379
 Mulliken atomic charges:
              1
     1  C   -0.615332
     2  H    0.210970
     3  C    0.078996
     4  C   -0.135152
     5  C   -0.159366
     6  C   -0.175805
     7  H    0.185407
     8  C   -0.183691
     9  H    0.205788
    10  C   -0.151547
    11  H    0.161534
    12  H    0.161004
    13  H    0.162068
    14  C    0.066642
    15  C   -0.174178
    16  C   -0.105441
    17  C   -0.166011
    18  H    0.171399
    19  C   -0.179623
    20  H    0.181232
    21  C   -0.155006
    22  H    0.162710
    23  H    0.163670
    24  H    0.164582
    25  C    0.073763
    26  C   -0.197714
    27  C   -0.088563
    28  C   -0.165522
    29  H    0.167216
    30  C   -0.179357
    31  H    0.182423
    32  C   -0.156732
    33  H    0.162175
    34  H    0.163431
    35  H    0.164028
 Sum of Mulliken atomic charges =   0.00000
 Mulliken charges with hydrogens summed into heavy atoms:
              1
     1  C   -0.404361
     3  C    0.078996
     4  C    0.050255
     5  C    0.046422
     6  C   -0.014270
     8  C   -0.022687
    10  C    0.010521
    14  C    0.066642
    15  C   -0.002779
    16  C    0.075791
    17  C   -0.003301
    19  C   -0.015953
    21  C    0.009576
    25  C    0.073763
    26  C   -0.030498
    27  C    0.093859
    28  C   -0.003347
    30  C   -0.015925
    32  C    0.007295
 Sum of Mulliken charges with hydrogens summed into heavy atoms =   0.00000
 Electronic spatial extent (au):  <R**2>=           4932.4799
 Charge=              0.0000 electrons
 Dipole moment (field-independent basis, Debye):
    X=             -0.0910    Y=             -0.1667    Z=             -0.0195  Tot=              0.1909
 Quadrupole moment (field-independent basis, Debye-Ang):
   XX=           -107.5366   YY=           -113.3699   ZZ=           -106.8541
   XY=             -2.6986   XZ=             -0.9693   YZ=              2.5890
 Traceless Quadrupole moment (field-independent basis, Debye-Ang):
   XX=              1.7169   YY=             -4.1164   ZZ=              2.3994
   XY=             -2.6986   XZ=             -0.9693   YZ=              2.5890
 Octapole moment (field-independent basis, Debye-Ang**2):
  XXX=            -27.8649  YYY=             11.9700  ZZZ=              0.7515  XYY=             36.6204
  XXY=             -0.7334  XXZ=             -2.7942  XZZ=             -9.6213  YZZ=            -18.8215
  YYZ=             11.7805  XYZ=             -1.6960
 Hexadecapole moment (field-independent basis, Debye-Ang**3):
 XXXX=          -3060.4465 YYYY=          -2919.8632 ZZZZ=           -665.3609 XXXY=             63.4215
 XXXZ=            -14.1815 YYYX=            -66.7447 YYYZ=             74.7524 ZZZX=              6.6357
 ZZZY=             -2.5240 XXYY=          -1012.7775 XXZZ=           -626.8502 YYZZ=           -637.4310
 XXYZ=             -9.5513 YYXZ=              8.3708 ZZXY=            -32.3611
 N-N= 1.290645367595D+03 E-N=-4.277367459550D+03  KE= 7.286029225499D+02
 PrsmSu:  requested number of processors reduced to:  10 ShMem   1 Linda.
 Calling FoFJK, ICntrl=      2127 FMM=F ISym2X=0 I1Cent= 0 IOpClX= 0 NMat=1 NMatS=1 NMatT=0.
 ***** Axes restored to original set *****
 -------------------------------------------------------------------
 Center     Atomic                   Forces (Hartrees/Bohr)
 Number     Number              X              Y              Z
 -------------------------------------------------------------------
      1        6          -0.002480832   -0.022888666    0.002673861
      2        1           0.001407864    0.025113539    0.002771175
      3        6           0.000670547    0.002439414   -0.014874496
      4        6           0.007184974   -0.003821030    0.002843737
      5        6          -0.010925353    0.002865753    0.004096012
      6        6           0.011426753   -0.004642558   -0.002764380
      7        1          -0.011990231    0.007776550   -0.012117764
      8        6          -0.006353389    0.004879327   -0.009860806
      9        1           0.018584783   -0.006769662   -0.009510700
     10        6           0.000928564    0.002671724   -0.013426613
     11        1          -0.014702108    0.004740430    0.006025416
     12        1           0.011367264   -0.006864014    0.009962607
     13        1          -0.003385348   -0.001979956    0.016200897
     14        6          -0.011779364   -0.005377061    0.004711388
     15        6           0.001363746   -0.005825749   -0.000812728
     16        6           0.007950276    0.009519028   -0.001416427
     17        6          -0.011123602   -0.006464232    0.004573421
     18        1          -0.001970072    0.017735364    0.000171333
     19        6           0.000487753    0.012699903   -0.000573008
     20        1          -0.026063426   -0.012844805    0.006429104
     21        6          -0.012476455    0.003044161    0.004754450
     22        1           0.011852560    0.010425573   -0.004817314
     23        1           0.002310261   -0.016766863   -0.000536893
     24        1           0.014625284   -0.006189410   -0.005508155
     25        6           0.009463481   -0.006185980    0.008847784
     26        6          -0.002350476   -0.005519795    0.000069930
     27        6          -0.003644945    0.009055739   -0.006080045
     28        6           0.007578166   -0.007337728    0.008930294
     29        1           0.004985128    0.016790238   -0.000717422
     30        6           0.001620821    0.012282982   -0.001613945
     31        1           0.020082062   -0.015096137    0.012207832
     32        6           0.010609022    0.001845233    0.008697061
     33        1          -0.007296077    0.011281084   -0.009759989
     34        1          -0.005128626   -0.015894760    0.000190991
     35        1          -0.012829004   -0.004697637   -0.009766610
 -------------------------------------------------------------------
 Cartesian Forces:  Max     0.026063426 RMS     0.009559593

 GradGradGradGradGradGradGradGradGradGradGradGradGradGradGradGradGradGrad
 Berny optimization.
 Internal  Forces:  Max     0.028872758 RMS     0.007784835
 Search for a local minimum.
 Step number   1 out of a maximum of  197
 All quantities printed in internal units (Hartrees-Bohrs-Radians)
 Mixed Optimization -- RFO/linear search
 Second derivative matrix not updated -- first step.
     Eigenvalues ---    0.00636   0.00648   0.00657   0.01534   0.01537
     Eigenvalues ---    0.01538   0.02136   0.02141   0.02147   0.02170
     Eigenvalues ---    0.02171   0.02174   0.02181   0.02182   0.02186
     Eigenvalues ---    0.02201   0.02202   0.02203   0.02211   0.02212
     Eigenvalues ---    0.02213   0.02215   0.02216   0.02217   0.02217
     Eigenvalues ---    0.02217   0.02219   0.02220   0.02221   0.02225
     Eigenvalues ---    0.04555   0.06399   0.06629   0.15997   0.15998
     Eigenvalues ---    0.16000   0.16000   0.16000   0.16000   0.16000
     Eigenvalues ---    0.16000   0.16000   0.16000   0.16000   0.16000
     Eigenvalues ---    0.16000   0.16000   0.16000   0.18873   0.19339
     Eigenvalues ---    0.22000   0.22000   0.22000   0.22000   0.22000
     Eigenvalues ---    0.22000   0.23466   0.23477   0.23478   0.24968
     Eigenvalues ---    0.25000   0.25000   0.31258   0.31370   0.31460
     Eigenvalues ---    0.31526   0.33493   0.33599   0.33979   0.34058
     Eigenvalues ---    0.34072   0.34095   0.34225   0.34261   0.34269
     Eigenvalues ---    0.34269   0.34273   0.34280   0.34283   0.34284
     Eigenvalues ---    0.34288   0.42392   0.42459   0.42499   0.42558
     Eigenvalues ---    0.42588   0.42602   0.46320   0.46384   0.46453
     Eigenvalues ---    0.46730   0.46771   0.46787   0.47214   0.47224
     Eigenvalues ---    0.47229   0.47345   0.47354   0.474391000.00000
     Eigenvalues --- 1000.000001000.000001000.000001000.000001000.00000
     Eigenvalues --- 1000.000001000.000001000.000001000.000001000.00000
     Eigenvalues --- 1000.000001000.000001000.000001000.000001000.00000
     Eigenvalues --- 1000.000001000.000001000.000001000.000001000.00000
     Eigenvalues --- 1000.000001000.000001000.000001000.000001000.00000
     Eigenvalues --- 1000.000001000.000001000.000001000.000001000.00000
     Eigenvalues --- 1000.000001000.000001000.000001000.000001000.00000
     Eigenvalues --- 1000.000001000.000001000.000001000.000001000.00000
     Eigenvalues --- 1000.000001000.000001000.000001000.000001000.00000
     Eigenvalues --- 1000.000001000.000001000.000001000.000001000.00000
     Eigenvalues --- 1000.000001000.000001000.000001000.000001000.00000
     Eigenvalues --- 1000.000001000.000001000.000001000.000001000.00000
     Eigenvalues --- 1000.000001000.000001000.000001000.000001000.00000
     Eigenvalues --- 1000.000001000.000001000.000001000.000001000.00000
     Eigenvalues --- 1000.000001000.000001000.000001000.000001000.00000
     Eigenvalues --- 1000.000001000.000001000.000001000.000001000.00000
     Eigenvalues --- 1000.000001000.000001000.000001000.000001000.00000
     Eigenvalues --- 1000.000001000.00000
 RFO step:  Lambda=-4.18629031D-02 EMin= 6.36292550D-03
 Linear search not attempted -- first point.
 Maximum step size (   0.300) exceeded in Quadratic search.
    -- Step size scaled by   0.591
 Iteration  1 RMS(Cart)=  0.12541008 RMS(Int)=  0.00303187
 Iteration  2 RMS(Cart)=  0.00612589 RMS(Int)=  0.00028075
 Iteration  3 RMS(Cart)=  0.00001070 RMS(Int)=  0.00028069
 Iteration  4 RMS(Cart)=  0.00000000 RMS(Int)=  0.00028069
 Variable       Old X    -DE/DX   Delta X   Delta X   Delta X     New X
                                 (Linear)    (Quad)   (Total)
    R1        2.12223  -0.02490   0.00000  -0.04153  -0.04153   2.08070
    R2        2.85144   0.02339   0.00000   0.03880   0.03880   2.89024
    R3        2.85021   0.02367   0.00000   0.03920   0.03920   2.88940
    R4        2.85311   0.02288   0.00000   0.03805   0.03805   2.89117
    R5        2.64402  -0.00207   0.00000  -0.00240  -0.00239   2.64162
    R6        2.63539  -0.00245   0.00000  -0.00273  -0.00273   2.63267
    R7        2.62394  -0.00488   0.00000  -0.00565  -0.00565   2.61830
    R8        2.07232  -0.01871   0.00000  -0.02892  -0.02892   2.04339
    R9        2.62924  -0.00138   0.00000  -0.00152  -0.00152   2.62772
   R10        2.07365  -0.02187   0.00000  -0.03388  -0.03388   2.03978
   R11        2.62985  -0.00505   0.00000  -0.00595  -0.00596   2.62389
   R12        2.06872  -0.01658   0.00000  -0.02549  -0.02549   2.04323
   R13        2.62529  -0.00738   0.00000  -0.00850  -0.00851   2.61678
   R14        2.06878  -0.01660   0.00000  -0.02552  -0.02552   2.04325
   R15        2.06854  -0.01667   0.00000  -0.02562  -0.02562   2.04292
   R16        2.63952  -0.00433   0.00000  -0.00502  -0.00500   2.63452
   R17        2.63972   0.00072   0.00000   0.00098   0.00099   2.64071
   R18        2.62781  -0.00240   0.00000  -0.00284  -0.00283   2.62498
   R19        2.07209  -0.01783   0.00000  -0.02756  -0.02756   2.04453
   R20        2.62561  -0.00443   0.00000  -0.00500  -0.00501   2.62060
   R21        2.08195  -0.02887   0.00000  -0.04531  -0.04531   2.03664
   R22        2.62688  -0.00900   0.00000  -0.01047  -0.01048   2.61640
   R23        2.06847  -0.01650   0.00000  -0.02536  -0.02536   2.04311
   R24        2.62879  -0.00569   0.00000  -0.00661  -0.00663   2.62216
   R25        2.06952  -0.01693   0.00000  -0.02607  -0.02607   2.04345
   R26        2.06860  -0.01681   0.00000  -0.02584  -0.02584   2.04276
   R27        2.63869  -0.00418   0.00000  -0.00485  -0.00484   2.63385
   R28        2.63853   0.00005   0.00000   0.00016   0.00018   2.63871
   R29        2.62766  -0.00217   0.00000  -0.00254  -0.00255   2.62511
   R30        2.07169  -0.01752   0.00000  -0.02705  -0.02705   2.04464
   R31        2.62551  -0.00463   0.00000  -0.00526  -0.00526   2.62026
   R32        2.08012  -0.02658   0.00000  -0.04159  -0.04159   2.03853
   R33        2.62702  -0.00854   0.00000  -0.00991  -0.00993   2.61709
   R34        2.06892  -0.01660   0.00000  -0.02554  -0.02554   2.04339
   R35        2.62858  -0.00525   0.00000  -0.00611  -0.00612   2.62246
   R36        2.06878  -0.01670   0.00000  -0.02568  -0.02568   2.04310
   R37        2.06856  -0.01679   0.00000  -0.02581  -0.02581   2.04274
    A1        1.82838   0.00379   0.00000   0.00011   0.00036   1.82874
    A2        1.87576  -0.01002   0.00000  -0.05151  -0.05060   1.82516
    A3        1.88335  -0.00860   0.00000  -0.04810  -0.04729   1.83606
    A4        1.99318   0.00093   0.00000   0.02180   0.01991   2.01308
    A5        1.94577  -0.00332   0.00000   0.01186   0.00970   1.95547
    A6        1.93008   0.01533   0.00000   0.05425   0.05309   1.98317
    A7        2.06926   0.00056   0.00000   0.00104   0.00103   2.07029
    A8        2.13631   0.00731   0.00000   0.01474   0.01473   2.15104
    A9        2.07656  -0.00790   0.00000  -0.01604  -0.01603   2.06053
   A10        2.10339   0.00473   0.00000   0.01034   0.01034   2.11373
   A11        2.08442  -0.00127   0.00000  -0.00195  -0.00195   2.08247
   A12        2.09536  -0.00347   0.00000  -0.00839  -0.00840   2.08696
   A13        2.10152   0.00348   0.00000   0.00797   0.00797   2.10949
   A14        2.09256  -0.00009   0.00000   0.00084   0.00084   2.09340
   A15        2.08911  -0.00339   0.00000  -0.00881  -0.00882   2.08029
   A16        2.09675   0.00078   0.00000   0.00107   0.00106   2.09782
   A17        2.09183  -0.00040   0.00000  -0.00056  -0.00055   2.09128
   A18        2.09460  -0.00038   0.00000  -0.00051  -0.00051   2.09409
   A19        2.09923   0.00112   0.00000   0.00229   0.00228   2.10151
   A20        2.08898  -0.00051   0.00000  -0.00101  -0.00101   2.08797
   A21        2.09498  -0.00060   0.00000  -0.00128  -0.00127   2.09370
   A22        2.08892  -0.00221   0.00000  -0.00564  -0.00565   2.08326
   A23        2.09653   0.00113   0.00000   0.00288   0.00288   2.09941
   A24        2.09774   0.00109   0.00000   0.00276   0.00277   2.10051
   A25        2.07935  -0.01105   0.00000  -0.02234  -0.02237   2.05699
   A26        2.12490   0.02288   0.00000   0.04640   0.04638   2.17128
   A27        2.07892  -0.01183   0.00000  -0.02403  -0.02400   2.05492
   A28        2.10017   0.00815   0.00000   0.01791   0.01793   2.11810
   A29        2.09464  -0.00472   0.00000  -0.01084  -0.01086   2.08379
   A30        2.08838  -0.00343   0.00000  -0.00707  -0.00708   2.08130
   A31        2.10228   0.00455   0.00000   0.01025   0.01024   2.11252
   A32        2.07821   0.00436   0.00000   0.01436   0.01432   2.09253
   A33        2.10260  -0.00889   0.00000  -0.02444  -0.02447   2.07813
   A34        2.09799  -0.00026   0.00000  -0.00147  -0.00148   2.09650
   A35        2.09103   0.00029   0.00000   0.00121   0.00121   2.09224
   A36        2.09417  -0.00003   0.00000   0.00026   0.00027   2.09444
   A37        2.09637   0.00239   0.00000   0.00496   0.00494   2.10131
   A38        2.09118  -0.00107   0.00000  -0.00212  -0.00211   2.08907
   A39        2.09563  -0.00131   0.00000  -0.00284  -0.00283   2.09280
   A40        2.09065  -0.00299   0.00000  -0.00760  -0.00764   2.08301
   A41        2.09654   0.00145   0.00000   0.00367   0.00369   2.10023
   A42        2.09600   0.00154   0.00000   0.00393   0.00395   2.09994
   A43        2.08449  -0.00787   0.00000  -0.01591  -0.01597   2.06853
   A44        2.11793   0.01855   0.00000   0.03762   0.03756   2.15549
   A45        2.08076  -0.01069   0.00000  -0.02176  -0.02176   2.05900
   A46        2.09908   0.00734   0.00000   0.01618   0.01619   2.11527
   A47        2.09518  -0.00436   0.00000  -0.01012  -0.01013   2.08505
   A48        2.08892  -0.00298   0.00000  -0.00607  -0.00608   2.08284
   A49        2.10147   0.00421   0.00000   0.00944   0.00939   2.11086
   A50        2.07792   0.00374   0.00000   0.01253   0.01242   2.09034
   A51        2.10364  -0.00790   0.00000  -0.02157  -0.02167   2.08197
   A52        2.09783  -0.00031   0.00000  -0.00139  -0.00141   2.09642
   A53        2.09108   0.00035   0.00000   0.00128   0.00129   2.09237
   A54        2.09427  -0.00005   0.00000   0.00011   0.00012   2.09439
   A55        2.09607   0.00224   0.00000   0.00461   0.00461   2.10068
   A56        2.09172  -0.00103   0.00000  -0.00203  -0.00203   2.08969
   A57        2.09539  -0.00121   0.00000  -0.00258  -0.00258   2.09281
[...]
 586,-0.00086818,-0.00072650,-0.00020905,0.00022622,0.00066233,-0.00007
 494,-0.00018945,-0.00048770,-0.00002472,0.00030140,-0.00048596,0.00000
 715,-0.00009795,0.00002469,-0.00026532,0.00003165,0.00060339,0.0000585
 8,0.00005745,-0.00002615,0.00033949,-0.00040000,0.00003057,0.00000642,
 0.00000559,-0.00000870,-0.00000363,0.00000633,0.00000061,0.00001071,-0
 .00000421,-0.00000410,-0.00118545,-0.00023723,-0.00165080,0.00023772,0
 .00032106,-0.00014585,-0.00037054,-0.00015596,-0.00041803,-0.00018196,
 0.00016720,0.00026449,-0.00000029,-0.00000407,-0.00004753,0.00053933,0
 .00021051,0.00002548,0.00007669,0.00017853,0.00037967,-0.00016563,-0.0
 0032527,-0.00011978,-0.00001798,-0.00001615,0.00004484,-0.00001739,0.0
 0003067,-0.00002900,0.00001581,0.00001221,0.00000724,-0.01321720,-0.06
 499095,0.07803836,-0.04623470,0.00172899,-0.08024239,-0.07767973,0.011
 33245,-0.21361430,0.07016283,0.07980218,-0.00004346,-0.00041924,-0.000
 44911,-0.00093112,0.13965396,-0.18348695,0.64688665,-0.00141665,0.0024
 1750,0.00124513,0.00055697,0.00030209,0.00012547,-0.00090110,-0.001106
 50,-0.00066418,-0.00007949,-0.00024680,-0.00030028,-0.00029655,-0.0003
 7659,-0.00028781,-0.00011847,-0.00013140,0.00040504,0.00002779,0.00017
 261,-0.00000099,0.00012827,0.00004567,-0.00042256,-0.00030004,-0.00000
 839,-0.00002944,-0.00021891,0.00022332,0.00003669,-0.00000473,0.000044
 52,0.00004199,0.00001660,-0.00000718,0.00000616,-0.00000017,0.00003107
 ,0.00004487,-0.00037706,-0.00040256,-0.00028898,-0.00014639,0.00008659
 ,0.00003979,-0.00009601,-0.00014220,-0.00015654,0.00002362,-0.00005440
 ,-0.00000463,0.00000097,0.00001003,0.00000325,-0.00001433,0.00008656,0
 .00001848,0.00007648,0.00001572,0.00024648,0.00001824,0.00002367,0.000
 01484,0.00000149,0.00000836,0.00001032,-0.00000234,-0.00000991,0.00000
 229,0.00002028,0.00000308,-0.00000002,0.00942269,-0.00883886,0.0189145
 8,0.00133906,-0.00657490,-0.00132874,-0.07164485,0.01281953,-0.0521518
 4,-0.00099961,-0.00022894,0.00034929,0.00015755,-0.00044775,0.00096603
 ,0.00071688,0.01263527,-0.02541764,0.06609729,0.00245704,-0.00131785,-
 0.00061515,-0.00017090,0.00003146,-0.00016452,-0.00075437,-0.00033069,
 -0.00004589,0.00054855,-0.00020969,-0.00027861,-0.00009606,0.00050784,
 -0.00027016,0.00016548,-0.00011301,-0.00010122,-0.00007586,-0.00004807
 ,0.00004129,-0.00002336,0.00005335,-0.00026166,0.00005637,-0.00003490,
 0.00002170,-0.00017328,0.00006530,0.00006338,-0.00003417,0.00000243,0.
 00001826,0.00004681,-0.00002797,0.00005554,0.00000086,-0.00000080,0.00
 004717,0.00021297,0.00040214,0.00017377,0.00010382,-0.00007617,-0.0000
 4790,0.00009083,0.00012331,0.00004324,-0.00000567,0.00000145,-0.000019
 80,-0.00000386,-0.00003680,0.00001765,-0.00005269,-0.00002424,-0.00003
 275,-0.00002354,-0.00004653,-0.00003524,0.00001829,0.00000384,0.000005
 34,0.00000722,-0.00000403,-0.00000358,0.00001671,-0.00001193,-0.000007
 32,-0.00000257,-0.00000906,0.00000351,0.00630236,-0.00565754,0.0260062
 8,-0.00671867,-0.00054894,0.00322034,0.01260157,-0.11789623,0.12001414
 ,-0.00039916,-0.00084443,-0.00083541,0.00037402,-0.00058048,0.00120003
 ,-0.00426217,0.01043129,-0.01375261,-0.00796827,0.11459552,0.00096722,
 -0.00160122,-0.00139814,-0.00011422,-0.00008587,-0.00011193,-0.0013525
 7,-0.00183124,-0.00028622,-0.00060223,-0.00005848,0.00029008,-0.000807
 16,-0.00070633,-0.00049553,0.00006448,0.00006855,-0.00013893,0.0000496
 5,0.00003709,0.00001688,-0.00023409,0.00002040,0.00016946,0.00026309,0
 .00004338,0.00005473,0.00026071,-0.00009535,-0.00010122,-0.00000519,0.
 00000116,-0.00001232,0.00001197,0.00000522,0.00001250,0.00000687,-0.00
 000161,0.00000004,0.00018401,0.00041471,0.00035499,0.00016232,-0.00010
 766,-0.00004308,0.00024815,0.00017041,0.00024614,-0.00001738,0.0000280
 6,0.00000110,-0.00001309,-0.00001233,-0.00000949,-0.00002651,-0.000103
 30,-0.00001360,-0.00005095,-0.00001874,-0.00031019,-0.00000664,-0.0000
 0950,-0.00001475,0.00000589,-0.00000618,-0.00001104,0.00001789,-0.0000
 0007,-0.00001328,-0.00001621,-0.00000483,-0.00000563,-0.00424475,0.002
 56141,-0.00495208,-0.00087870,0.00288539,0.00252932,-0.05225372,0.1220
 5839,-0.30757984,0.00025116,-0.00077455,0.00054342,-0.00014732,0.00011
 959,-0.00032712,-0.00029576,0.01144090,-0.01145924,0.06186028,-0.13259
 192,0.32291520,-0.00103166,0.00003867,0.00099610,-0.00011761,0.0003366
 3,-0.00019507,-0.00006120,-0.00022322,0.00006061,-0.00002580,0.0000945
 0,0.00002195,0.00005074,-0.00006593,-0.00010289,0.00001007,0.00006764,
 -0.00004040,-0.00004283,-0.00000457,0.00004902,-0.00001841,-0.00000567
 ,0.00006036,-0.00001168,-0.00000325,0.00000118,0.00004979,-0.00001829,
 -0.00005833,0.00000058,-0.00002129,-0.00003696,-0.00000916,0.00000465,
 -0.00002094,-0.00000387,-0.00000188,-0.00001503,0.00001407,-0.00020756
 ,-0.00091883,-0.00011994,0.00021561,0.00001550,-0.00017491,-0.00012309
 ,-0.00000360,-0.00004308,-0.00000263,0.00008088,0.00002591,0.00000631,
 -0.00001741,0.00011556,0.00008949,0.00001834,-0.00000003,0.00003005,0.
 00004408,-0.00008669,-0.00005715,-0.00001315,-0.00003371,-0.00000344,0
 .00002155,-0.00003236,0.00002864,0.00000265,-0.00000343,0.00000948,0.0
 0000768,-0.00673507,-0.01272930,0.01774193,-0.03073380,-0.03065957,-0.
 01703173,0.01247029,0.02300485,-0.02888420,-0.18931506,-0.13634839,0.0
 3819870,0.00076509,-0.00469016,-0.00566093,-0.13879287,0.00471461,-0.0
 8700699,0.00007560,-0.00552686,-0.00485815,0.56123347,-0.00152257,-0.0
 0110887,0.00037602,-0.00035158,0.00082677,-0.00035398,0.00009157,-0.00
 050588,-0.00012867,0.00014320,0.00015273,0.00030283,0.00006250,0.00014
 508,-0.00038807,0.00002849,0.00018028,-0.00032652,-0.00004367,-0.00007
 678,0.00001663,-0.00015349,0.00006277,0.00026063,-0.00001343,-0.000002
 24,-0.00001204,0.00018138,-0.00023774,-0.00001387,-0.00000584,0.000005
 35,-0.00000729,-0.00000683,-0.00000587,-0.00000690,-0.00000002,-0.0000
 0623,0.00000472,-0.00015110,0.00016807,-0.00115781,0.00025948,0.000270
 29,-0.00021299,-0.00037159,0.00001250,-0.00020525,-0.00016710,0.000193
 73,0.00023949,0.00001153,0.00000509,-0.00000825,0.00042162,0.00010804,
 -0.00002502,-0.00005900,0.00006077,0.00018451,-0.00019602,-0.00027232,
 -0.00009216,-0.00001521,-0.00001849,0.00004094,-0.00003605,0.00004755,
 -0.00001373,-0.00000262,0.00000486,0.00000799,-0.01109309,-0.05712801,
 0.05267539,-0.06077697,-0.00935224,-0.06456495,0.05350570,0.06260422,0
 .00440134,-0.09658489,-0.25306899,0.09777504,-0.00424491,0.00406869,0.
 00084641,-0.03498506,-0.16820865,0.06979842,-0.00584394,0.00305891,0.0
 0005618,0.25321595,0.53030811,0.00180710,0.00056100,-0.00006250,0.0000
 3187,-0.00081701,-0.00004871,-0.00036368,0.00036026,0.00025230,-0.0001
 1110,-0.00009431,-0.00039099,-0.00002389,-0.00023610,0.00028251,0.0000
 0168,-0.00015639,0.00035120,0.00001793,0.00006163,-0.00000412,0.000164
 82,-0.00008636,-0.00024464,0.00002548,-0.00001624,0.00002125,-0.000173
 62,0.00027905,-0.00006317,0.00000752,-0.00002362,-0.00001739,-0.000002
 81,0.00001740,-0.00002059,-0.00000142,0.00000022,-0.00002220,0.0004339
 6,-0.00023099,0.00068398,-0.00034268,-0.00002479,0.00025661,0.00001971
 ,-0.00010165,0.00018256,0.00012544,-0.00018900,-0.00018140,0.00001598,
 0.00000036,0.00000320,-0.00036821,-0.00012739,-0.00001287,-0.00009190,
 -0.00026971,-0.00031556,0.00007242,0.00024315,0.00010770,-0.00002069,0
 .00002081,-0.00002727,-0.00003777,0.00001439,0.00002579,-0.00001754,-0
 .00000444,0.00000207,0.01704851,0.05184781,-0.05543438,0.02621545,-0.0
 1765744,0.07634171,-0.07254479,-0.04173756,-0.03891040,-0.01763876,0.0
 3989601,-0.16571199,-0.00605369,0.00033573,-0.00046141,-0.03056662,0.1
 2725371,-0.31036171,-0.00477475,0.00036182,0.00108904,0.20743133,-0.13
 262252,0.66727751,0.00007656,0.00069675,-0.00091597,0.00007880,0.00000
 507,0.00004375,-0.00040389,-0.00009312,-0.00005193,0.00001836,-0.00002
 042,-0.00006981,0.00002975,-0.00001005,-0.00004316,0.00000660,0.000004
 55,0.00005141,-0.00000252,0.00000195,0.00000660,0.00003942,0.00000698,
 -0.00002917,-0.00001599,-0.00000598,0.00000026,-0.00002489,0.00003658,
 -0.00003404,0.00000409,-0.00000533,-0.00000533,-0.00000160,0.00000828,
 -0.00001278,-0.00000141,-0.00000046,-0.00000748,0.00005909,-0.00007299
 ,-0.00012904,-0.00006376,0.00002625,0.00002209,-0.00004214,0.00001175,
 0.00003860,-0.00000280,-0.00001387,0.00001390,0.00000862,0.00001213,-0
 .00000894,-0.00000877,-0.00001519,0.00001639,0.00000923,-0.00000475,-0
 .00004158,-0.00003147,0.00000687,0.00002150,-0.00001183,0.00000222,-0.
 00000307,-0.00001476,0.00002092,-0.00000338,-0.00000908,0.00000479,-0.
 00000526,0.00017386,-0.00579844,-0.00458139,0.00093791,0.01307621,-0.0
 2520759,-0.00104556,-0.00036091,0.00032247,-0.07349620,0.01455445,-0.0
 5677975,-0.00138329,0.00232454,0.00224948,0.00153863,-0.00657062,-0.00
 114122,-0.00047011,0.00058973,0.00030212,0.00919344,-0.00974597,0.0192
 0683,0.06600549,0.00000100,0.00026537,-0.00059848,0.00003159,-0.000044
 98,0.00002335,-0.00003538,-0.00010908,0.00001771,0.00000050,0.00004002
 ,0.00000824,0.00001443,0.00003146,-0.00003543,0.00001008,0.00001255,-0
 .00003711,-0.00000586,-0.00001805,-0.00000187,-0.00000587,0.00001804,0
 .00002595,-0.00000769,-0.00000450,-0.00000172,0.00002374,-0.00002657,-
 0.00000698,-0.00000056,0.00000054,-0.00000530,-0.00000294,-0.00000462,
 -0.00000086,-0.00000204,-0.00000315,0.00000188,0.00007772,0.00002005,0
 .00007222,-0.00001081,-0.00003834,0.00002161,0.00001708,-0.00000920,-0
 .00001063,0.00000546,-0.00001047,-0.00001367,-0.00000314,-0.00000309,-
 0.00000342,-0.00001465,0.00002735,-0.00000381,-0.00001886,-0.00000268,
 0.00002761,0.00002050,0.00000974,-0.00000286,0.00000189,0.00000152,-0.
 00000325,0.00000836,-0.00001546,0.00000374,0.00000660,-0.00000138,0.00
 000255,-0.00563133,0.00307812,0.00039873,-0.00463295,0.01042701,-0.013
 41660,-0.00036054,-0.00072232,-0.00084352,0.01468662,-0.11923901,0.120
 42846,0.00285383,-0.00125920,-0.00135541,-0.00678906,-0.00055984,0.003
 05559,0.00056379,-0.00047103,-0.00029032,0.00782485,-0.00528856,0.0265
 4204,-0.01107695,0.11554697,0.00027357,0.00062618,-0.00064600,-0.00002
 807,-0.00006013,-0.00000703,-0.00024892,-0.00016368,0.00007819,-0.0000
 2402,0.00004886,-0.00005959,0.00003852,-0.00002466,-0.00009849,-0.0000
 0776,0.00002448,0.00000114,-0.00000839,0.00000593,0.00001676,0.0000118
 0,0.00000291,0.00002499,0.00000520,-0.00000233,0.00000692,0.00001238,-
 0.00000974,-0.00002801,0.00001376,-0.00000616,-0.00001977,-0.00000344,
 0.00001072,-0.00001464,0.00000172,0.00000119,-0.00001512,0.00011115,-0
 .00009629,-0.00012850,-0.00007728,0.00003426,0.00005819,-0.00002926,0.
 00004318,0.00003823,-0.00001522,-0.00001294,0.00000956,0.00001233,0.00
 000385,-0.00001152,0.00000078,-0.00001989,-0.00001002,0.00002134,-0.00
 003987,-0.00002117,-0.00002636,-0.00000535,0.00001028,-0.00002276,-0.0
 0000284,-0.00000482,-0.00000869,0.00001676,0.00000202,-0.00001735,0.00
 000345,0.00000124,-0.00515313,0.00017065,0.00134158,-0.00037226,0.0122
 2210,-0.01215262,0.00019007,-0.00085274,0.00056648,-0.05688735,0.12024
 672,-0.30125706,0.00141525,-0.00221750,-0.00000055,-0.00076427,0.00341
 603,0.00274293,0.00036279,-0.00029032,-0.00032140,-0.00547427,0.001055
 56,-0.00399147,0.06469028,-0.13303898,0.31433813,-0.00030193,-0.000752
 05,0.00063837,-0.00030759,-0.00013446,-0.00018332,-0.00000306,0.000015
 68,0.00028753,0.00003732,0.00000429,-0.00001746,0.00004369,0.00002347,
 -0.00009723,-0.00000860,0.00001794,-0.00001216,-0.00001538,0.00002261,
 0.00000760,-0.00000170,0.00002005,0.00001968,-0.00001993,-0.00001187,0
 .00001113,0.00002685,-0.00000167,-0.00003939,0.00000318,-0.00000419,-0
 .00000794,-0.00001714,0.00000595,-0.00002430,-0.00000271,-0.00000268,-
 0.00001358,0.00009687,-0.00018188,-0.00015601,-0.00011112,0.00006718,0
 .00005494,-0.00011682,0.00001372,-0.00002464,-0.00000663,-0.00000588,0
 .00000003,0.00001805,0.00001564,0.00001048,0.00000883,-0.00000679,-0.0
 0001304,0.00003209,-0.00006067,0.00000910,-0.00002608,0.00000773,0.000
 00934,-0.00001612,0.00000072,0.00000253,-0.00002410,0.00001614,0.00001
 746,-0.00000955,0.00000131,0.00000611,0.00072765,-0.00402614,-0.005851
 75,-0.00045796,0.00085915,-0.00049515,-0.00814706,-0.02186712,0.011203
 04,0.00404847,-0.00224782,-0.00398132,-0.00053241,0.00044065,0.0004301
 8,-0.15050552,-0.13593678,0.04475345,-0.00136012,0.00282553,0.00130626
 ,0.00893474,0.00705432,-0.00522159,0.00014875,0.00034396,-0.00013511,0
 .14928161,0.00016534,-0.00034998,0.00056763,-0.00011367,-0.00009646,-0
 .00005060,-0.00008310,-0.00000474,0.00010641,-0.00000170,0.00000714,-0
 .00007858,0.00002218,-0.00003292,-0.00000076,0.00001368,0.00000843,0.0
 0004154,-0.00002102,-0.00000137,0.00002084,0.00002978,-0.00000129,-0.0
 0002498,0.00000323,-0.00001097,0.00001160,0.00000109,0.00004469,-0.000
 04804,0.00000219,-0.00002352,-0.00002411,-0.00000947,0.00000374,-0.000
 01480,-0.00000699,-0.00000335,-0.00001909,-0.00001410,-0.00006659,-0.0
 0016768,-0.00005558,0.00005030,0.00000860,-0.00002005,0.00005052,0.000
 02553,-0.00001656,-0.00000120,0.00001619,0.00001140,0.00000064,-0.0000
 0253,0.00000769,-0.00002138,-0.00001551,0.00000731,-0.00003693,-0.0000
 0125,-0.00002186,-0.00000882,-0.00000177,-0.00001621,-0.00000676,0.000
 00380,-0.00000328,0.00000773,0.00000934,-0.00001384,0.00000144,0.00000
 298,-0.00456739,0.00380175,0.00024017,0.00081506,0.00030562,-0.0006129
 3,-0.00440538,-0.00420749,0.00743155,-0.00197466,0.00361017,0.00473694
 ,0.00044701,-0.00058213,-0.00032394,-0.13584525,-0.24457142,0.08042706
 ,0.00232020,-0.00121988,-0.00200627,-0.01042096,-0.00576979,0.00099782
 ,-0.00038603,-0.00055624,0.00009932,0.15132070,0.25094309,-0.00022960,
 -0.00070335,0.00050300,-0.00013534,-0.00013336,-0.00008082,0.00004954,
 0.00002371,0.00010700,0.00001072,0.00000438,-0.00003193,0.00001094,0.0
 0002862,0.00002165,0.00001606,-0.00000431,0.00000914,-0.00000967,-0.00
 001027,0.00000107,0.00001343,0.00001089,-0.00002466,-0.00000987,-0.000
 00673,0.00000334,0.00000636,0.00001910,-0.00003057,-0.00000280,-0.0000
 0713,-0.00000786,-0.00000686,-0.00000426,-0.00000513,-0.00000559,-0.00
 000405,-0.00000287,-0.00002708,-0.00004329,-0.00007204,-0.00003353,0.0
 0000406,-0.00000707,0.00001857,0.00002241,0.00001183,-0.00000825,-0.00
 000454,0.00000892,0.00000267,0.00000491,-0.00000394,-0.00000343,0.0000
 0900,0.00001135,-0.00001255,0.00001861,0.00000597,-0.00000392,-0.00000
 248,-0.00000073,-0.00000312,-0.00000155,0.00000202,0.00000486,-0.00000
 146,-0.00000216,0.00000024,0.00000166,-0.00000161,-0.00579234,0.000546
 26,-0.00053867,-0.00051336,-0.00048770,-0.00107449,-0.01356133,-0.0180
 4192,0.01135481,-0.00427226,0.00438734,-0.00358134,0.00041494,-0.00032
 719,-0.00017206,0.04470954,0.08065443,-0.09865087,0.00220138,-0.001316
 74,0.00014280,0.01972543,0.02646644,-0.00333212,0.00089180,0.00120162,
 -0.00043835,-0.04473532,-0.09008506,0.09581686,-0.00049113,0.00042886,
 0.00026374,0.00003757,0.00011737,-0.00002283,-0.00006702,-0.00000259,0
 .00001961,-0.00003047,-0.00001678,-0.00002443,0.00001348,-0.00004028,-
 0.00002561,-0.00001864,0.00001129,0.00001545,-0.00000039,0.00001889,0.
 00000764,0.00000526,-0.00000912,0.00001463,0.00000767,0.00000474,0.000
 00621,0.00000493,0.00000500,-0.00001447,0.00000836,-0.00000294,-0.0000
 0468,-0.00000560,0.00000782,-0.00001018,0.00000202,0.00000216,-0.00001
 133,-0.00002589,-0.00010920,-0.00012587,-0.00005175,0.00004727,0.00003
 157,-0.00004610,0.00002099,0.00001869,-0.00001121,0.00000116,0.0000105
 0,0.00000975,0.00000571,0.00000238,0.00001872,-0.00003409,-0.00001452,
 0.00003111,-0.00004145,-0.00002888,-0.00002362,-0.00000638,0.00000429,
 -0.00001358,-0.00000230,0.00000061,-0.00001510,0.00001923,0.00000521,-
 0.00001435,0.00000172,0.00000115,0.00020005,0.00050223,0.00093156,0.00
 281506,-0.00589596,-0.00024801,0.00458866,-0.00244900,-0.00294876,-0.0
 0819250,-0.00368141,-0.01409684,-0.00064411,-0.00022298,-0.00053704,0.
 00026199,-0.00486754,-0.00029703,-0.00023285,-0.00012670,-0.00003743,-
 0.22554618,-0.08860476,-0.13427052,-0.00129853,0.00210663,0.00214299,-
 0.00141657,0.00283026,0.00128975,0.23014094,0.00052083,-0.00035666,-0.
 00032551,-0.00002422,-0.00003648,0.00007746,-0.00004142,0.00001163,0.0
 0005401,0.00003411,0.00001202,-0.00002543,0.00001614,0.00002738,-0.000
 04360,0.00000362,0.00000354,0.00000357,-0.00001179,0.00000041,0.000012
 30,0.00000194,0.00000414,-0.00001474,-0.00000123,-0.00000845,0.0000029
 1,-0.00000542,0.00000252,-0.00000723,0.00000149,-0.00000507,-0.0000082
 1,0.00000092,0.00000248,-0.00000316,-0.00000060,0.00000068,-0.00000435
 ,0.00009053,0.00006742,0.00000539,0.00002589,0.00000530,-0.00001543,-0
 .00000600,0.00001803,-0.00001527,0.00000266,0.00001360,0.00000302,0.00
 000440,-0.00000281,0.00000513,0.00000747,-0.00000353,-0.00000666,-0.00
 000691,-0.00000972,0.00001959,-0.00000398,-0.00000806,-0.00000003,-0.0
 0000405,-0.00000455,-0.00000060,0.00000280,0.00000155,0.00000192,-0.00
 000591,0.00000104,0.00000215,0.00039662,-0.00096949,0.00055542,-0.0056
 1840,-0.00054994,0.00477965,-0.00270475,0.00253668,0.00529977,-0.02134
 101,-0.00358565,-0.01888282,-0.00096143,-0.00050544,-0.00085249,0.0126
 8090,0.01053805,0.01099589,0.00057902,0.00023343,0.00039494,-0.0885686
 9,-0.10123315,-0.05439771,0.00279106,-0.00109095,-0.00118871,0.0021632
 7,-0.00126198,-0.00221804,0.09998216,0.09615199,0.00041952,-0.00029270
 ,-0.00011213,-0.00007627,-0.00012711,0.00000488,-0.00003927,-0.0000256
 8,0.00004613,-0.00003163,0.00002922,-0.00000241,-0.00000330,-0.0000498
 1,-0.00004292,-0.00000974,0.00001776,0.00000276,-0.00000151,0.00000530
 ,0.00001246,-0.00000726,-0.00001831,0.00003524,0.00002430,0.00000252,0
 .00000637,0.00001421,-0.00000471,-0.00000397,0.00000658,-0.00001017,-0
 .00001252,-0.00000162,0.00000886,-0.00000662,0.00000096,0.00000049,-0.
 00001389,0.00007120,0.00001561,0.00000658,-0.00000426,0.00001005,0.000
 00549,-0.00000091,0.00003964,0.00002445,-0.00000475,0.00000477,0.00000
 415,0.00000407,-0.00000077,-0.00000222,-0.00000038,-0.00002281,-0.0000
 1335,0.00001166,-0.00002403,-0.00002231,-0.00000967,-0.00000298,-0.000
 00062,-0.00000799,-0.00000383,-0.00000153,-0.00000050,0.00000440,0.000
 00461,-0.00000979,0.00000014,0.00000211,0.00084457,0.00058602,-0.00057
 134,-0.00065191,0.00432065,0.00165591,-0.00248632,0.00576886,-0.002880
 59,0.01067005,0.00666342,0.01118644,0.00045526,0.00021935,0.00028051,-
 0.02535810,-0.01448944,-0.01127111,-0.00106674,-0.00062265,-0.00076065
 ,-0.13413842,-0.05436851,-0.16726256,0.00119340,-0.00216107,-0.0000105
 2,0.00224210,-0.00126940,0.00005953,0.14795248,0.05579692,0.16965366||
 0.00001947,0.00000253,0.00000251,-0.00000216,0.00000140,-0.00000165,0.
 00002339,-0.00004328,0.00000187,-0.00002751,0.00002313,0.00005548,-0.0
 0000508,0.00003486,-0.00005928,-0.00001076,0.00003283,-0.00005696,0.00
 000349,-0.00000434,-0.00000245,-0.00002645,0.00001747,0.00005785,0.000
 00018,-0.00000282,0.00000277,0.00003920,-0.00005417,-0.00000126,0.0000
 0166,-0.00000369,0.00000584,0.00000155,-0.00000149,-0.00000496,-0.0000
 0385,0.00000551,-0.00000067,-0.00003227,-0.00003447,-0.00002628,0.0000
 4700,0.00000338,0.00000902,-0.00001936,0.00002570,0.00002656,-0.000026
 22,0.00002924,0.00000983,-0.00000296,-0.00000169,-0.00000024,0.0000397
 3,0.00000942,-0.00000756,0.00000693,-0.00000132,0.00000031,-0.00001379
 ,-0.00003578,-0.00001161,0.00000147,-0.00000203,-0.00000059,-0.0000033
 5,0.00000011,-0.00000034,0.00000005,0.00000205,0.00000159,-0.00000578,
 0.00000039,0.00000171,0.00000103,-0.00000195,0.00000523,-0.00000235,-0
 .00000236,-0.00000276,-0.00000283,-0.00000697,-0.00000292,-0.00000104,
 0.00000026,0.00000002,0.00000391,0.00000010,0.00000222,-0.00000304,0.0
 0000093,-0.00000020,-0.00000082,0.00000563,-0.00000366,-0.00000018,0.0
 0000045,0.00000075,0.00000076,0.00000047,-0.00000018,-0.00000003,0.000
 00052,0.00000002|||@


 GROWING OLD ISN'T SO BAD -- WHEN YOU CONSIDER THE ALTERNATIVE.

                     -- MAURICE CHEVALIER
 Job cpu time:  0 days  0 hours  6 minutes 22.0 seconds.
 File lengths (MBytes):  RWF=    350 Int=      0 D2E=      0 Chk=      7 Scr=      1
 Normal termination of Gaussian 09 at Tue Sep 07 05:32:04 2021.
