 Entering Link 1 = b:\programy\g09w\l1.exe PID=      4020.
  
 Copyright (c) 1988,1990,1992,1993,1995,1998,2003,2009, Gaussian, Inc.
                  All Rights Reserved.
  
 This is part of the Gaussian(R) 09 program.  It is based on
 the Gaussian(R) 03 system (copyright 2003, Gaussian, Inc.),
 the Gaussian(R) 98 system (copyright 1998, Gaussian, Inc.),
 the Gaussian(R) 94 system (copyright 1995, Gaussian, Inc.),
 the Gaussian 92(TM) system (copyright 1992, Gaussian, Inc.),
 the Gaussian 90(TM) system (copyright 1990, Gaussian, Inc.),
 the Gaussian 88(TM) system (copyright 1988, Gaussian, Inc.),
 the Gaussian 86(TM) system (copyright 1986, Carnegie Mellon
 University), and the Gaussian 82(TM) system (copyright 1983,
 Carnegie Mellon University). Gaussian is a federally registered
 trademark of Gaussian, Inc.
  
 This software contains proprietary and confidential information,
 including trade secrets, belonging to Gaussian, Inc.
  
 This software is provided under written license and may be
 used, copied, transmitted, or stored only in accord with that
 written license.
  
 The following legend is applicable only to US Government
 contracts under FAR:
  
                    RESTRICTED RIGHTS LEGEND
  
 Use, reproduction and disclosure by the US Government is
 subject to restrictions as set forth in subparagraphs (a)
 and (c) of the Commercial Computer Software - Restricted
 Rights clause in FAR 52.227-19.
  
 Gaussian, Inc.
 340 Quinnipiac St., Bldg. 40, Wallingford CT 06492
  
  
 ---------------------------------------------------------------
 Warning -- This program may not be used in any manner that
 competes with the business of Gaussian, Inc. or will provide
 assistance to any competitor of Gaussian, Inc.  The licensee
 of this program is prohibited from giving any competitor of
 Gaussian, Inc. access to this program.  By using this program,
 the user acknowledges that Gaussian, Inc. is engaged in the
 business of creating and licensing software in the field of
 computational chemistry and represents and warrants to the
 licensee that it is not a competitor of Gaussian, Inc. and that
 it will not use this program in any manner prohibited above.
 ---------------------------------------------------------------
  

 Cite this work as:
 Gaussian 09, Revision A.02,
 M. J. Frisch, G. W. Trucks, H. B. Schlegel, G. E. Scuseria, 
 M. A. Robb, J. R. Cheeseman, G. Scalmani, V. Barone, B. Mennucci, 
 G. A. Petersson, H. Nakatsuji, M. Caricato, X. Li, H. P. Hratchian, 
 A. F. Izmaylov, J. Bloino, G. Zheng, J. L. Sonnenberg, M. Hada, 
 M. Ehara, K. Toyota, R. Fukuda, J. Hasegawa, M. Ishida, T. Nakajima, 
 Y. Honda, O. Kitao, H. Nakai, T. Vreven, J. A. Montgomery, Jr., 
 J. E. Peralta, F. Ogliaro, M. Bearpark, J. J. Heyd, E. Brothers, 
 K. N. Kudin, V. N. Staroverov, R. Kobayashi, J. Normand, 
 K. Raghavachari, A. Rendell, J. C. Burant, S. S. Iyengar, J. Tomasi, 
 M. Cossi, N. Rega, J. M. Millam, M. Klene, J. E. Knox, J. B. Cross, 
 V. Bakken, C. Adamo, J. Jaramillo, R. Gomperts, R. E. Stratmann, 
 O. Yazyev, A. J. Austin, R. Cammi, C. Pomelli, J. W. Ochterski, 
 R. L. Martin, K. Morokuma, V. G. Zakrzewski, G. A. Voth, 
 P. Salvador, J. J. Dannenberg, S. Dapprich, A. D. Daniels, 
 O. Farkas, J. B. Foresman, J. V. Ortiz, J. Cioslowski, 
 and D. J. Fox, Gaussian, Inc., Wallingford CT, 2009.
 
 ******************************************
 Gaussian 09:  IA32W-G09RevA.02 11-Jun-2009
                07-Sep-2021 
 ******************************************
 %nprocshared=12
 Will use up to   12 processors via shared memory.
 ----------------------------------------------
 # opt freq=noraman hf/6-311g geom=connectivity
 ----------------------------------------------
 1/18=20,19=15,38=1,57=2/1,3;
 2/9=110,12=2,17=6,18=5,40=1/2;
 3/5=4,6=6,11=9,16=1,25=1,30=1,71=1/1,2,3;
 4//1;
 5/5=2,38=5/2;
 6/7=2,8=2,9=2,10=2,28=1/1;
 7//1,2,3,16;
 1/18=20,19=15/3(2);
 2/9=110/2;
 99//99;
 2/9=110/2;
 3/5=4,6=6,11=9,16=1,25=1,30=1,71=1/1,2,3;
 4/5=5,16=3/1;
 5/5=2,38=5/2;
 7//1,2,3,16;
 1/18=20,19=15/3(-5);
 2/9=110/2;
 6/7=2,8=2,9=2,10=2,19=2,28=1/1;
 99/9=1/99;
 -----
 M0001
 -----
 Symbolic Z-matrix:
 Charge =  0 Multiplicity = 1
 C                    -0.75716  -0.10772   0.10818 
 H                    -1.86683  -0.25232   0.20525 
 C                    -0.21164   0.10828   1.49733 
 C                    -1.07774   0.00411   2.58847 
 C                     1.1317    0.41626   1.72443 
 C                    -0.60693   0.20435   3.88146 
 H                    -2.13534  -0.23679   2.42771 
 C                     1.60007   0.6168    3.01729 
 H                     1.81331   0.51027   0.86407 
 C                     0.7318    0.51051   4.09867 
 H                    -1.29403   0.12103   4.72983 
 H                     2.65461   0.8601    3.18256 
 H                     1.10105   0.66864   5.11697 
 C                    -0.25814  -1.36051  -0.56921 
 C                    -0.75996  -1.6677   -1.83914 
 C                     0.64189  -2.23869   0.03209 
 C                    -0.36339  -2.8265   -2.49272 
 H                    -1.46738  -0.9814   -2.31965 
 C                     1.03672  -3.4007   -0.62404 
 H                     1.04174  -2.01615   1.02968 
 C                     0.53699  -3.69719  -1.88581 
 H                    -0.76073  -3.05502  -3.48696 
 H                     1.74393  -4.08245  -0.14044 
 H                     0.84866  -4.61144  -2.4007 
 C                    -0.5241    1.10572  -0.75941 
 C                     0.75531   1.4501   -1.19977 
 C                    -1.61097   1.89652  -1.13829 
 C                     0.94449   2.56169  -2.01177 
 H                     1.61322   0.83988  -0.8791 
 C                    -1.41893   3.0103   -1.94848 
 H                    -2.62101   1.6411   -0.7969 
 C                    -0.14279   3.34303  -2.38891 
 H                     1.95159   2.82189  -2.35328 
 H                    -2.27626   3.62569  -2.24014 
 H                     0.00624   4.21828  -3.02924 
 

 GradGradGradGradGradGradGradGradGradGradGradGradGradGradGradGradGradGrad
 Berny optimization.
 Initialization pass.
                           ----------------------------
                           !    Initial Parameters    !
                           ! (Angstroms and Degrees)  !
 --------------------------                            --------------------------
 ! Name  Definition              Value          Derivative Info.                !
 --------------------------------------------------------------------------------
 ! R1    R(1,2)                  1.1233         estimate D2E/DX2                !
 ! R2    R(1,3)                  1.508          estimate D2E/DX2                !
 ! R3    R(1,14)                 1.5091         estimate D2E/DX2                !
 ! R4    R(1,25)                 1.5098         estimate D2E/DX2                !
 ! R5    R(3,4)                  1.397          estimate D2E/DX2                !
 ! R6    R(3,5)                  1.3968         estimate D2E/DX2                !
 ! R7    R(4,6)                  1.3905         estimate D2E/DX2                !
 ! R8    R(4,7)                  1.0965         estimate D2E/DX2                !
 ! R9    R(5,8)                  1.3896         estimate D2E/DX2                !
 ! R10   R(5,9)                  1.1017         estimate D2E/DX2                !
 ! R11   R(6,10)                 1.3904         estimate D2E/DX2                !
 ! R12   R(6,11)                 1.0949         estimate D2E/DX2                !
 ! R13   R(8,10)                 1.3909         estimate D2E/DX2                !
 ! R14   R(8,12)                 1.0948         estimate D2E/DX2                !
 ! R15   R(10,13)                1.0947         estimate D2E/DX2                !
 ! R16   R(14,15)                1.3996         estimate D2E/DX2                !
 ! R17   R(14,16)                1.3939         estimate D2E/DX2                !
 ! R18   R(15,17)                1.3883         estimate D2E/DX2                !
 ! R19   R(15,18)                1.0965         estimate D2E/DX2                !
 ! R20   R(16,19)                1.3916         estimate D2E/DX2                !
 ! R21   R(16,20)                1.0975         estimate D2E/DX2                !
 ! R22   R(17,21)                1.3918         estimate D2E/DX2                !
 ! R23   R(17,22)                1.0948         estimate D2E/DX2                !
 ! R24   R(19,21)                1.3891         estimate D2E/DX2                !
 ! R25   R(19,23)                1.0949         estimate D2E/DX2                !
 ! R26   R(21,24)                1.0946         estimate D2E/DX2                !
 ! R27   R(25,26)                1.3962         estimate D2E/DX2                !
 ! R28   R(25,27)                1.3965         estimate D2E/DX2                !
 ! R29   R(26,28)                1.3895         estimate D2E/DX2                !
 ! R30   R(26,29)                1.1005         estimate D2E/DX2                !
 ! R31   R(27,30)                1.3906         estimate D2E/DX2                !
 ! R32   R(27,31)                1.0963         estimate D2E/DX2                !
 ! R33   R(28,32)                1.391          estimate D2E/DX2                !
 ! R34   R(28,33)                1.0948         estimate D2E/DX2                !
 ! R35   R(30,32)                1.3904         estimate D2E/DX2                !
 ! R36   R(30,34)                1.0949         estimate D2E/DX2                !
 ! R37   R(32,35)                1.0947         estimate D2E/DX2                !
 ! A1    A(2,1,3)              107.2304         estimate D2E/DX2                !
 ! A2    A(2,1,14)             104.9868         estimate D2E/DX2                !
 ! A3    A(2,1,25)             107.7958         estimate D2E/DX2                !
 ! A4    A(3,1,14)             114.3801         estimate D2E/DX2                !
 ! A5    A(3,1,25)             111.0017         estimate D2E/DX2                !
 ! A6    A(14,1,25)            110.9914         estimate D2E/DX2                !
 ! A7    A(1,3,4)              118.9834         estimate D2E/DX2                !
 ! A8    A(1,3,5)              121.9565         estimate D2E/DX2                !
 ! A9    A(4,3,5)              119.0593         estimate D2E/DX2                !
 ! A10   A(3,4,6)              120.3727         estimate D2E/DX2                !
 ! A11   A(3,4,7)              119.9895         estimate D2E/DX2                !
 ! A12   A(6,4,7)              119.6378         estimate D2E/DX2                !
 ! A13   A(3,5,8)              120.4795         estimate D2E/DX2                !
 ! A14   A(3,5,9)              119.1359         estimate D2E/DX2                !
 ! A15   A(8,5,9)              120.3805         estimate D2E/DX2                !
 ! A16   A(4,6,10)             120.1975         estimate D2E/DX2                !
 ! A17   A(4,6,11)             119.8052         estimate D2E/DX2                !
 ! A18   A(10,6,11)            119.9973         estimate D2E/DX2                !
 ! A19   A(5,8,10)             120.1263         estimate D2E/DX2                !
 ! A20   A(5,8,12)             119.8128         estimate D2E/DX2                !
 ! A21   A(10,8,12)            120.0609         estimate D2E/DX2                !
 ! A22   A(6,10,8)             119.7647         estimate D2E/DX2                !
 ! A23   A(6,10,13)            120.1269         estimate D2E/DX2                !
 ! A24   A(8,10,13)            120.1083         estimate D2E/DX2                !
 ! A25   A(1,14,15)            118.0943         estimate D2E/DX2                !
 ! A26   A(1,14,16)            122.8826         estimate D2E/DX2                !
 ! A27   A(15,14,16)           118.9899         estimate D2E/DX2                !
 ! A28   A(14,15,17)           120.5278         estimate D2E/DX2                !
 ! A29   A(14,15,18)           119.4431         estimate D2E/DX2                !
 ! A30   A(17,15,18)           120.0281         estimate D2E/DX2                !
 ! A31   A(14,16,19)           120.3903         estimate D2E/DX2                !
 ! A32   A(14,16,20)           119.9732         estimate D2E/DX2                !
 ! A33   A(19,16,20)           119.6364         estimate D2E/DX2                !
 ! A34   A(15,17,21)           120.1116         estimate D2E/DX2                !
 ! A35   A(15,17,22)           119.8747         estimate D2E/DX2                !
 ! A36   A(21,17,22)           120.0137         estimate D2E/DX2                !
 ! A37   A(16,19,21)           120.2912         estimate D2E/DX2                !
 ! A38   A(16,19,23)           119.665          estimate D2E/DX2                !
 ! A39   A(21,19,23)           120.0438         estimate D2E/DX2                !
 ! A40   A(17,21,19)           119.6887         estimate D2E/DX2                !
 ! A41   A(17,21,24)           120.1059         estimate D2E/DX2                !
 ! A42   A(19,21,24)           120.2054         estimate D2E/DX2                !
 ! A43   A(1,25,26)            121.3945         estimate D2E/DX2                !
 ! A44   A(1,25,27)            119.3986         estimate D2E/DX2                !
 ! A45   A(26,25,27)           119.2054         estimate D2E/DX2                !
 ! A46   A(25,26,28)           120.4231         estimate D2E/DX2                !
 ! A47   A(25,26,29)           119.0558         estimate D2E/DX2                !
 ! A48   A(28,26,29)           120.5111         estimate D2E/DX2                !
 ! A49   A(25,27,30)           120.2735         estimate D2E/DX2                !
 ! A50   A(25,27,31)           120.0407         estimate D2E/DX2                !
 ! A51   A(30,27,31)           119.6858         estimate D2E/DX2                !
 ! A52   A(26,28,32)           120.0909         estimate D2E/DX2                !
 ! A53   A(26,28,33)           119.8455         estimate D2E/DX2                !
 ! A54   A(32,28,33)           120.0636         estimate D2E/DX2                !
 ! A55   A(27,30,32)           120.1965         estimate D2E/DX2                !
 ! A56   A(27,30,34)           119.817          estimate D2E/DX2                !
 ! A57   A(32,30,34)           119.9865         estimate D2E/DX2                !
 ! A58   A(28,32,30)           119.8093         estimate D2E/DX2                !
 ! A59   A(28,32,35)           120.0862         estimate D2E/DX2                !
 ! A60   A(30,32,35)           120.1044         estimate D2E/DX2                !
 ! D1    D(2,1,3,4)              4.3347         estimate D2E/DX2                !
 ! D2    D(2,1,3,5)           -175.3173         estimate D2E/DX2                !
 ! D3    D(14,1,3,4)          -111.6293         estimate D2E/DX2                !
 ! D4    D(14,1,3,5)            68.7187         estimate D2E/DX2                !
 ! D5    D(25,1,3,4)           121.839          estimate D2E/DX2                !
 ! D6    D(25,1,3,5)           -57.813          estimate D2E/DX2                !
 ! D7    D(2,1,14,15)           60.0198         estimate D2E/DX2                !
 ! D8    D(2,1,14,16)         -117.8625         estimate D2E/DX2                !
 ! D9    D(3,1,14,15)          177.2773         estimate D2E/DX2                !
 ! D10   D(3,1,14,16)           -0.605          estimate D2E/DX2                !
 ! D11   D(25,1,14,15)         -56.1857         estimate D2E/DX2                !
 ! D12   D(25,1,14,16)         125.932          estimate D2E/DX2                !
 ! D13   D(2,1,25,26)         -172.1102         estimate D2E/DX2                !
 ! D14   D(2,1,25,27)            7.4398         estimate D2E/DX2                !
 ! D15   D(3,1,25,26)           70.7307         estimate D2E/DX2                !
 ! D16   D(3,1,25,27)         -109.7193         estimate D2E/DX2                !
 ! D17   D(14,1,25,26)         -57.6504         estimate D2E/DX2                !
 ! D18   D(14,1,25,27)         121.8996         estimate D2E/DX2                !
 ! D19   D(1,3,4,6)           -179.6732         estimate D2E/DX2                !
 ! D20   D(1,3,4,7)              0.3266         estimate D2E/DX2                !
 ! D21   D(5,3,4,6)             -0.011          estimate D2E/DX2                !
 ! D22   D(5,3,4,7)            179.9887         estimate D2E/DX2                !
 ! D23   D(1,3,5,8)            179.6238         estimate D2E/DX2                !
 ! D24   D(1,3,5,9)              0.3573         estimate D2E/DX2                !
 ! D25   D(4,3,5,8)             -0.0279         estimate D2E/DX2                !
 ! D26   D(4,3,5,9)           -179.2944         estimate D2E/DX2                !
 ! D27   D(3,4,6,10)             0.0082         estimate D2E/DX2                !
 ! D28   D(3,4,6,11)           179.9628         estimate D2E/DX2                !
 ! D29   D(7,4,6,10)          -179.9915         estimate D2E/DX2                !
 ! D30   D(7,4,6,11)            -0.037          estimate D2E/DX2                !
 ! D31   D(3,5,8,10)             0.0697         estimate D2E/DX2                !
 ! D32   D(3,5,8,12)          -179.8509         estimate D2E/DX2                !
 ! D33   D(9,5,8,10)           179.3271         estimate D2E/DX2                !
 ! D34   D(9,5,8,12)            -0.5936         estimate D2E/DX2                !
 ! D35   D(4,6,10,8)             0.0333         estimate D2E/DX2                !
 ! D36   D(4,6,10,13)          179.9554         estimate D2E/DX2                !
 ! D37   D(11,6,10,8)         -179.9211         estimate D2E/DX2                !
 ! D38   D(11,6,10,13)           0.001          estimate D2E/DX2                !
 ! D39   D(5,8,10,6)            -0.0721         estimate D2E/DX2                !
 ! D40   D(5,8,10,13)         -179.9942         estimate D2E/DX2                !
 ! D41   D(12,8,10,6)          179.8483         estimate D2E/DX2                !
 ! D42   D(12,8,10,13)          -0.0738         estimate D2E/DX2                !
 ! D43   D(1,14,15,17)        -178.2311         estimate D2E/DX2                !
 ! D44   D(1,14,15,18)           2.1156         estimate D2E/DX2                !
 ! D45   D(16,14,15,17)         -0.2642         estimate D2E/DX2                !
 ! D46   D(16,14,15,18)       -179.9175         estimate D2E/DX2                !
 ! D47   D(1,14,16,19)         178.0398         estimate D2E/DX2                !
 ! D48   D(1,14,16,20)          -1.8372         estimate D2E/DX2                !
 ! D49   D(15,14,16,19)          0.1756         estimate D2E/DX2                !
 ! D50   D(15,14,16,20)       -179.7014         estimate D2E/DX2                !
 ! D51   D(14,15,17,21)          0.1901         estimate D2E/DX2                !
 ! D52   D(14,15,17,22)       -179.845          estimate D2E/DX2                !
 ! D53   D(18,15,17,21)        179.8414         estimate D2E/DX2                !
 ! D54   D(18,15,17,22)         -0.1937         estimate D2E/DX2                !
 ! D55   D(14,16,19,21)         -0.0133         estimate D2E/DX2                !
 ! D56   D(14,16,19,23)       -179.967          estimate D2E/DX2                !
 ! D57   D(20,16,19,21)        179.8641         estimate D2E/DX2                !
 ! D58   D(20,16,19,23)         -0.0896         estimate D2E/DX2                !
 ! D59   D(15,17,21,19)         -0.0243         estimate D2E/DX2                !
 ! D60   D(15,17,21,24)        179.9251         estimate D2E/DX2                !
 ! D61   D(22,17,21,19)       -179.9892         estimate D2E/DX2                !
 ! D62   D(22,17,21,24)         -0.0398         estimate D2E/DX2                !
 ! D63   D(16,19,21,17)         -0.0638         estimate D2E/DX2                !
 ! D64   D(16,19,21,24)        179.9868         estimate D2E/DX2                !
 ! D65   D(23,19,21,17)        179.8897         estimate D2E/DX2                !
 ! D66   D(23,19,21,24)         -0.0596         estimate D2E/DX2                !
 ! D67   D(1,25,26,28)         179.1737         estimate D2E/DX2                !
 ! D68   D(1,25,26,29)          -1.9693         estimate D2E/DX2                !
 ! D69   D(27,25,26,28)         -0.3771         estimate D2E/DX2                !
 ! D70   D(27,25,26,29)        178.4799         estimate D2E/DX2                !
 ! D71   D(1,25,27,30)        -179.3304         estimate D2E/DX2                !
 ! D72   D(1,25,27,31)           0.6945         estimate D2E/DX2                !
 ! D73   D(26,25,27,30)          0.2295         estimate D2E/DX2                !
 ! D74   D(26,25,27,31)       -179.7456         estimate D2E/DX2                !
 ! D75   D(25,26,28,32)          0.1892         estimate D2E/DX2                !
 ! D76   D(25,26,28,33)       -179.8756         estimate D2E/DX2                !
 ! D77   D(29,26,28,32)       -178.651          estimate D2E/DX2                !
 ! D78   D(29,26,28,33)          1.2842         estimate D2E/DX2                !
 ! D79   D(25,27,30,32)          0.1061         estimate D2E/DX2                !
 ! D80   D(25,27,30,34)       -179.9353         estimate D2E/DX2                !
 ! D81   D(31,27,30,32)       -179.9187         estimate D2E/DX2                !
 ! D82   D(31,27,30,34)          0.0399         estimate D2E/DX2                !
 ! D83   D(26,28,32,30)          0.1496         estimate D2E/DX2                !
 ! D84   D(26,28,32,35)       -179.9528         estimate D2E/DX2                !
 ! D85   D(33,28,32,30)       -179.7854         estimate D2E/DX2                !
 ! D86   D(33,28,32,35)          0.1121         estimate D2E/DX2                !
 ! D87   D(27,30,32,28)         -0.2968         estimate D2E/DX2                !
 ! D88   D(27,30,32,35)        179.8056         estimate D2E/DX2                !
 ! D89   D(34,30,32,28)        179.7446         estimate D2E/DX2                !
 ! D90   D(34,30,32,35)         -0.1529         estimate D2E/DX2                !
 --------------------------------------------------------------------------------
 Trust Radius=3.00D-01 FncErr=1.00D-07 GrdErr=1.00D-07
 Number of steps in this run= 197 maximum allowed number of steps= 210.
 GradGradGradGradGradGradGradGradGradGradGradGradGradGradGradGradGradGrad

                          Input orientation:                          
 ---------------------------------------------------------------------
 Center     Atomic      Atomic             Coordinates (Angstroms)
 Number     Number       Type             X           Y           Z
 ---------------------------------------------------------------------
      1          6           0       -0.757161   -0.107718    0.108179
      2          1           0       -1.866831   -0.252320    0.205248
      3          6           0       -0.211638    0.108283    1.497331
      4          6           0       -1.077739    0.004108    2.588468
      5          6           0        1.131702    0.416256    1.724425
      6          6           0       -0.606928    0.204354    3.881460
      7          1           0       -2.135341   -0.236791    2.427712
      8          6           0        1.600067    0.616798    3.017290
      9          1           0        1.813308    0.510272    0.864065
     10          6           0        0.731805    0.510514    4.098665
     11          1           0       -1.294029    0.121028    4.729828
     12          1           0        2.654613    0.860099    3.182558
     13          1           0        1.101046    0.668639    5.116969
     14          6           0       -0.258141   -1.360511   -0.569208
     15          6           0       -0.759959   -1.667699   -1.839138
     16          6           0        0.641893   -2.238692    0.032086
     17          6           0       -0.363393   -2.826498   -2.492720
     18          1           0       -1.467380   -0.981400   -2.319650
     19          6           0        1.036724   -3.400704   -0.624042
     20          1           0        1.041736   -2.016145    1.029681
     21          6           0        0.536989   -3.697185   -1.885809
     22          1           0       -0.760727   -3.055019   -3.486960
     23          1           0        1.743935   -4.082452   -0.140441
     24          1           0        0.848660   -4.611439   -2.400697
     25          6           0       -0.524099    1.105724   -0.759414
     26          6           0        0.755315    1.450100   -1.199771
     27          6           0       -1.610974    1.896523   -1.138289
     28          6           0        0.944495    2.561694   -2.011771
     29          1           0        1.613222    0.839885   -0.879098
     30          6           0       -1.418931    3.010301   -1.948479
     31          1           0       -2.621015    1.641104   -0.796905
     32          6           0       -0.142786    3.343029   -2.388911
     33          1           0        1.951589    2.821893   -2.353283
     34          1           0       -2.276263    3.625691   -2.240143
     35          1           0        0.006237    4.218278   -3.029237
 ---------------------------------------------------------------------
                    Distance matrix (angstroms):
                    1          2          3          4          5
     1  C    0.000000
     2  H    1.123254   0.000000
     3  C    1.507977   2.130535   0.000000
     4  C    2.503419   2.523521   1.396984   0.000000
     5  C    2.540591   3.427258   1.396776   2.407917   0.000000
     6  C    3.789143   3.912856   2.418585   1.390536   2.778585
     7  H    2.701161   2.238679   2.164560   1.096539   3.405093
     8  C    3.813709   4.547783   2.418912   2.780274   1.389634
     9  H    2.749652   3.815626   2.159403   3.404102   1.101655
    10  C    4.303860   4.742733   2.796214   2.410724   2.409527
    11  H    4.658346   4.575950   3.408925   2.155429   3.873471
    12  H    4.693472   5.526781   3.408901   3.875063   2.154624
    13  H    5.398485   5.812182   3.890876   3.403237   3.402057
    14  C    1.509094   2.101369   2.535765   3.536218   3.217036
    15  C    2.495113   2.721760   3.819266   4.743375   4.540951
    16  C    2.550332   3.204584   2.895470   3.810823   3.186326
    17  C    3.783053   4.020665   4.955449   5.860127   5.525856
    18  H    2.676208   2.658238   4.163369   5.021222   5.006318
    19  C    3.820723   4.362416   4.286213   5.136527   4.482578
    20  H    2.779800   3.500076   2.510545   3.317139   2.531272
    21  C    4.305239   4.692331   5.146617   6.027111   5.505259
    22  H    4.648829   4.765604   5.928839   6.809520   6.541374
    23  H    4.702743   5.275134   4.905998   5.666458   4.908251
    24  H    5.399688   5.759059   6.212458   7.064422   6.509568
    25  C    1.509795   2.139576   2.487050   3.567687   3.063740
    26  C    2.534781   3.427530   3.163831   4.449914   3.124328
    27  C    2.509913   2.547171   3.478856   4.213584   4.231855
    28  C    3.809933   4.553834   4.435050   5.638517   4.312437
    29  H    2.737039   3.805192   3.084277   4.468087   2.681353
    30  C    3.793392   3.934952   4.663997   5.453209   5.169625
    31  H    2.711366   2.271158   3.663080   4.064751   4.684041
    32  C    4.303554   4.756945   5.056797   6.066039   5.206712
    33  H    4.688150   5.529665   5.183672   6.444970   4.804894
    34  H    4.664829   4.602884   5.532047   6.153682   6.134533
    35  H    5.398185   5.827223   6.117952   7.105831   6.190262
                    6          7          8          9         10
     6  C    0.000000
     7  H    2.155004   0.000000
     8  C    2.405769   3.876789   0.000000
     9  H    3.880180   4.312183   2.166379   0.000000
    10  C    1.390366   3.401629   1.390880   3.410613   0.000000
    11  H    1.094888   2.477010   3.399171   4.975055   2.157329
    12  H    3.399428   4.971581   1.094795   2.491100   2.158391
    13  H    2.158522   4.304197   2.158786   4.315042   1.094662
    14  C    4.730634   3.710547   4.497295   3.137674   5.125404
    15  C    6.021066   4.705866   5.862895   4.321176   6.498267
    16  C    4.727124   4.178476   4.240679   3.101806   4.909509
    17  C    7.062262   5.835840   6.787612   5.209613   7.468699
    18  H    6.371825   4.851604   6.359749   4.808747   6.946726
    19  C    5.999798   5.420844   5.451328   4.255969   6.139590
    20  H    3.972574   3.900566   3.345849   2.646796   3.987320
    21  C    7.056341   6.141835   6.616718   5.185893   7.318239
    22  H    8.058584   6.694424   7.833317   6.186143   8.513658
    23  H    6.330793   6.036000   5.663471   4.701803   6.331647
    24  H    8.048360   7.166265   7.566615   6.149890   8.275855
    25  C    4.728323   3.815261   4.360576   2.907528   5.052970
    26  C    5.406154   4.935598   4.380822   2.502408   5.381152
    27  C    5.391607   4.188359   5.405305   4.202002   5.902145
    28  C    6.534075   6.084893   5.431745   3.637802   6.449032
    29  H    5.291113   5.113310   3.902791   1.785300   5.065916
    30  C    6.520804   5.496171   6.285068   4.960637   6.887855
    31  H    5.292248   3.763046   5.780555   4.868348   6.040384
    32  C    7.027394   6.323388   6.300546   4.736314   7.132790
    33  H    7.229768   6.994030   5.816276   3.964094   6.961176
    34  H    7.208762   6.060321   7.191660   6.005542   7.676802
    35  H    8.015316   7.362899   7.216055   5.672091   8.067276
                   11         12         13         14         15
    11  H    0.000000
    12  H    4.304886   0.000000
    13  H    2.487195   2.488407   0.000000
    14  C    5.598911   5.243186   6.188493   0.000000
    15  C    6.829062   6.577727   7.570286   1.399610   0.000000
    16  C    5.602218   4.855823   5.875324   1.393850   2.406804
    17  C    7.856156   7.410003   8.501055   2.420763   1.388255
    18  H    7.137264   7.117320   8.038828   2.161026   1.096514
    19  C    6.819012   5.938199   7.037251   2.417037   2.776299
    20  H    4.869742   3.938150   4.890552   2.162403   3.405532
    21  C    7.854809   7.137332   8.271486   2.797448   2.408956
    22  H    8.825377   8.454298   9.558212   3.411337   2.154060
    23  H    7.114631   6.024987   7.115232   3.406040   3.871187
    24  H    8.822231   8.023213   9.190116   3.892030   3.401267
    25  C    5.629760   5.069880   6.112611   2.487816   2.985516
    26  C    6.412986   4.812509   6.374278   3.053561   3.524984
    27  C    6.139025   6.159474   6.927554   3.572434   3.730830
    28  C    7.511125   5.727214   7.377472   4.348680   4.563193
    29  H    6.358373   4.193084   6.020337   2.905129   3.583523
    30  C    7.277588   6.895264   7.858385   4.727982   4.725450
    31  H    5.883562   6.654197   7.055021   3.826841   3.936744
    32  C    7.898297   6.710562   8.064596   5.044593   5.078439
    33  H    8.246161   5.915100   7.820779   5.055525   5.270035
    34  H    7.863074   7.833755   8.618437   5.632677   5.520865
    35  H    8.870245   7.541727   8.953168   6.102829   6.053769
                   16         17         18         19         20
    16  C    0.000000
    17  C    2.780425   0.000000
    18  H    3.400071   2.157111   0.000000
    19  C    1.391642   2.404578   3.872810   0.000000
    20  H    1.097542   3.877934   4.310961   2.156810   0.000000
    21  C    2.411748   1.391806   3.403117   1.389133   3.403050
    22  H    3.875231   1.094810   2.482310   3.398033   4.972744
    23  H    2.154927   3.398745   4.967698   1.094896   2.476266
    24  H    3.404573   2.159527   4.306715   2.158183   4.305848
    25  C    3.629205   4.300297   2.771318   4.770995   3.924127
    26  C    3.890697   4.605704   3.479468   4.892949   4.131265
    27  C    4.852339   5.069307   3.114270   5.944356   5.200571
    28  C    5.226149   5.565474   4.297144   6.122458   5.496954
    29  H    3.354306   4.466894   3.857769   4.287189   3.482375
    30  C    5.976752   5.956390   4.009213   6.991806   6.339517
    31  H    5.136790   5.285085   3.244558   6.231273   5.488865
    32  C    6.134538   6.174343   4.523277   7.069932   6.466113
    33  H    5.745852   6.105973   5.114247   6.522880   5.973181
    34  H    6.933228   6.734509   4.678236   7.934600   7.316500
    35  H    7.174136   7.074839   5.450845   8.055790   7.510999
                   21         22         23         24         25
    21  C    0.000000
    22  H    2.158733   0.000000
    23  H    2.156724   4.304432   0.000000
    24  H    1.094582   2.488481   2.487992   0.000000
    25  C    5.046049   4.980691   5.695988   6.104444   0.000000
    26  C    5.197389   5.275008   5.719149   6.180064   1.396212
    27  C    6.038386   5.545894   6.928149   7.070860   1.396498
    28  C    6.273396   6.052390   6.948788   7.184309   2.417647
    29  H    4.770403   5.254222   4.979166   5.711108   2.157113
    30  C    6.987125   6.291920   7.973698   7.964759   2.417025
    31  H    6.297304   5.722817   7.227919   7.328376   2.164507
    32  C    7.090826   6.520934   7.984553   8.016026   2.793956
    33  H    6.687152   6.571147   7.253259   7.514861   3.408033
    34  H    7.852671   6.962993   8.943500   8.811426   3.407765
    35  H    8.015216   7.327932   8.959177   8.892055   3.888617
                   26         27         28         29         30
    26  C    0.000000
    27  C    2.408817   0.000000
    28  C    1.389524   2.781339   0.000000
    29  H    1.100544   3.402809   2.166743   0.000000
    30  C    2.778874   1.390607   2.406457   3.879206   0.000000
    31  H    3.405640   1.096341   3.877660   4.310159   2.155418
    32  C    2.409112   2.410811   1.391006   3.410107   1.390408
    33  H    2.154873   3.876129   1.094794   2.493205   3.399967
    34  H    3.873762   2.155623   3.399635   4.974058   1.094893
    35  H    3.401599   3.403175   2.158665   4.314979   2.158322
                   31         32         33         34         35
    31  H    0.000000
    32  C    3.401860   0.000000
    33  H    4.972452   2.158532   0.000000
    34  H    2.477978   2.157256   4.305070   0.000000
    35  H    4.304368   1.094663   2.488213   2.486691   0.000000
 Stoichiometry    C19H16
 Framework group  C1[X(C19H16)]
 Deg. of freedom    99
 Full point group                 C1      NOp   1
 Largest Abelian subgroup         C1      NOp   1
 Largest concise Abelian subgroup C1      NOp   1
                         Standard orientation:                         
 ---------------------------------------------------------------------
 Center     Atomic      Atomic             Coordinates (Angstroms)
 Number     Number       Type             X           Y           Z
 ---------------------------------------------------------------------
      1          6           0        0.017078    0.010247   -0.757969
      2          1           0       -0.015231    0.010109   -1.880758
      3          6           0        1.468456   -0.047885   -0.352856
      4          6           0        2.450722    0.003584   -1.344857
      5          6           0        1.859088   -0.158780    0.983591
      6          6           0        3.797649   -0.054688   -1.004293
      7          1           0        2.161178    0.090411   -2.398908
      8          6           0        3.205651   -0.217680    1.321797
      9          1           0        1.085310   -0.211284    1.765994
     10          6           0        4.177852   -0.164995    0.328521
     11          1           0        4.559741   -0.014205   -1.789376
     12          1           0        3.499522   -0.307027    2.372622
     13          1           0        5.238498   -0.211511    0.595262
     14          6           0       -0.694080    1.276316   -0.347254
     15          6           0       -2.029326    1.437578   -0.734578
     16          6           0       -0.067046    2.301419    0.359011
     17          6           0       -2.720825    2.598332   -0.415625
     18          1           0       -2.530295    0.635289   -1.289290
     19          6           0       -0.761491    3.464966    0.676141
     20          1           0        0.981073    2.194058    0.666451
     21          6           0       -2.087631    3.616401    0.291288
     22          1           0       -3.765790    2.712137   -0.721736
     23          1           0       -0.257146    4.262908    1.230867
     24          1           0       -2.632570    4.532080    0.541654
     25          6           0       -0.728892   -1.210199   -0.274731
     26          6           0       -1.004207   -1.405234    1.080102
     27          6           0       -1.161676   -2.160761   -1.201736
     28          6           0       -1.707232   -2.527529    1.500799
     29          1           0       -0.640131   -0.667481    1.811105
     30          6           0       -1.862440   -3.284723   -0.778149
     31          1           0       -0.949318   -2.023432   -2.268511
     32          6           0       -2.139036   -3.468681    0.571995
     33          1           0       -1.919675   -2.669989    2.565292
     34          1           0       -2.197307   -4.025799   -1.511266
     35          1           0       -2.693541   -4.352404    0.903422
 ---------------------------------------------------------------------
 Rotational constants (GHZ):      0.4052697      0.3780668      0.2333558
 Standard basis: 6-311G (5D, 7F)
 There are   295 symmetry adapted basis functions of A   symmetry.
 Integral buffers will be    262144 words long.
 Raffenetti 1 integral format.
 Two-electron integral symmetry is turned on.
   295 basis functions,   574 primitive gaussians,   295 cartesian basis functions
    65 alpha electrons       65 beta electrons
       nuclear repulsion energy      1290.1291139807 Hartrees.
 NAtoms=   35 NActive=   35 NUniq=   35 SFac= 7.50D-01 NAtFMM=   80 NAOKFM=F Big=F
 One-electron integrals computed using PRISM.
 PrsmSu:  requested number of processors reduced to:  10 ShMem   1 Linda.
 NBasis=   295 RedAO= T  NBF=   295
 NBsUse=   295 1.00D-06 NBFU=   295
 Harris functional with IExCor=  205 diagonalized for initial guess.
 ExpMin= 1.03D-01 ExpMax= 4.56D+03 ExpMxC= 6.82D+02 IAcc=1 IRadAn=         1 AccDes= 0.00D+00
 HarFok:  IExCor=  205 AccDes= 0.00D+00 IRadAn=         1 IDoV= 1
 ScaDFX=  1.000000  1.000000  1.000000  1.000000
 FoFCou: FMM=F IPFlag=           0 FMFlag=      100000 FMFlg1=           0
         NFxFlg=           0 DoJE=T BraDBF=F KetDBF=T FulRan=T
         Omega=  0.000000  0.000000  1.000000  0.000000  0.000000 ICntrl=     500 IOpCl=  0
         NMat0=    1 NMatS0=    1 NMatT0=    0 NMatD0=    1 NMtDS0=    0 NMtDT0=    0
         I1Cent=           4 NGrid=           0.
 Petite list used in FoFCou.
 Initial guess orbital symmetries:
       Occupied  (A) (A) (A) (A) (A) (A) (A) (A) (A) (A) (A) (A)
                 (A) (A) (A) (A) (A) (A) (A) (A) (A) (A) (A) (A)
                 (A) (A) (A) (A) (A) (A) (A) (A) (A) (A) (A) (A)
                 (A) (A) (A) (A) (A) (A) (A) (A) (A) (A) (A) (A)
                 (A) (A) (A) (A) (A) (A) (A) (A) (A) (A) (A) (A)
                 (A) (A) (A) (A) (A)
       Virtual   (A) (A) (A) (A) (A) (A) (A) (A) (A) (A) (A) (A)
                 (A) (A) (A) (A) (A) (A) (A) (A) (A) (A) (A) (A)
                 (A) (A) (A) (A) (A) (A) (A) (A) (A) (A) (A) (A)
                 (A) (A) (A) (A) (A) (A) (A) (A) (A) (A) (A) (A)
                 (A) (A) (A) (A) (A) (A) (A) (A) (A) (A) (A) (A)
                 (A) (A) (A) (A) (A) (A) (A) (A) (A) (A) (A) (A)
                 (A) (A) (A) (A) (A) (A) (A) (A) (A) (A) (A) (A)
                 (A) (A) (A) (A) (A) (A) (A) (A) (A) (A) (A) (A)
                 (A) (A) (A) (A) (A) (A) (A) (A) (A) (A) (A) (A)
                 (A) (A) (A) (A) (A) (A) (A) (A) (A) (A) (A) (A)
                 (A) (A) (A) (A) (A) (A) (A) (A) (A) (A) (A) (A)
                 (A) (A) (A) (A) (A) (A) (A) (A) (A) (A) (A) (A)
                 (A) (A) (A) (A) (A) (A) (A) (A) (A) (A) (A) (A)
                 (A) (A) (A) (A) (A) (A) (A) (A) (A) (A) (A) (A)
                 (A) (A) (A) (A) (A) (A) (A) (A) (A) (A) (A) (A)
                 (A) (A) (A) (A) (A) (A) (A) (A) (A) (A) (A) (A)
                 (A) (A) (A) (A) (A) (A) (A) (A) (A) (A) (A) (A)
                 (A) (A) (A) (A) (A) (A) (A) (A) (A) (A) (A) (A)
                 (A) (A) (A) (A) (A) (A) (A) (A) (A) (A) (A) (A)
                 (A) (A)
 The electronic state of the initial guess is 1-A.
 Requested convergence on RMS density matrix=1.00D-08 within 128 cycles.
 Requested convergence on MAX density matrix=1.00D-06.
 Requested convergence on             energy=1.00D-06.
 No special actions if energy rises.
 Integral accuracy reduced to 1.0D-05 until final iterations.
 Initial convergence to 1.0D-05 achieved.  Increase integral accuracy.
 SCF Done:  E(RHF) =  -728.672302824     A.U. after   14 cycles
             Convg  =    0.7995D-08             -V/T =  2.0001

 **********************************************************************

            Population analysis using the SCF density.

 **********************************************************************

 Orbital symmetries:
       Occupied  (A) (A) (A) (A) (A) (A) (A) (A) (A) (A) (A) (A)
                 (A) (A) (A) (A) (A) (A) (A) (A) (A) (A) (A) (A)
                 (A) (A) (A) (A) (A) (A) (A) (A) (A) (A) (A) (A)
                 (A) (A) (A) (A) (A) (A) (A) (A) (A) (A) (A) (A)
                 (A) (A) (A) (A) (A) (A) (A) (A) (A) (A) (A) (A)
                 (A) (A) (A) (A) (A)
       Virtual   (A) (A) (A) (A) (A) (A) (A) (A) (A) (A) (A) (A)
                 (A) (A) (A) (A) (A) (A) (A) (A) (A) (A) (A) (A)
                 (A) (A) (A) (A) (A) (A) (A) (A) (A) (A) (A) (A)
                 (A) (A) (A) (A) (A) (A) (A) (A) (A) (A) (A) (A)
                 (A) (A) (A) (A) (A) (A) (A) (A) (A) (A) (A) (A)
                 (A) (A) (A) (A) (A) (A) (A) (A) (A) (A) (A) (A)
                 (A) (A) (A) (A) (A) (A) (A) (A) (A) (A) (A) (A)
                 (A) (A) (A) (A) (A) (A) (A) (A) (A) (A) (A) (A)
                 (A) (A) (A) (A) (A) (A) (A) (A) (A) (A) (A) (A)
                 (A) (A) (A) (A) (A) (A) (A) (A) (A) (A) (A) (A)
                 (A) (A) (A) (A) (A) (A) (A) (A) (A) (A) (A) (A)
                 (A) (A) (A) (A) (A) (A) (A) (A) (A) (A) (A) (A)
                 (A) (A) (A) (A) (A) (A) (A) (A) (A) (A) (A) (A)
                 (A) (A) (A) (A) (A) (A) (A) (A) (A) (A) (A) (A)
                 (A) (A) (A) (A) (A) (A) (A) (A) (A) (A) (A) (A)
                 (A) (A) (A) (A) (A) (A) (A) (A) (A) (A) (A) (A)
                 (A) (A) (A) (A) (A) (A) (A) (A) (A) (A) (A) (A)
                 (A) (A) (A) (A) (A) (A) (A) (A) (A) (A) (A) (A)
                 (A) (A) (A) (A) (A) (A) (A) (A) (A) (A) (A) (A)
                 (A) (A)
 The electronic state is 1-A.
 Alpha  occ. eigenvalues --  -11.25775 -11.25249 -11.25198 -11.24954 -11.24526
 Alpha  occ. eigenvalues --  -11.24434 -11.24415 -11.24363 -11.24223 -11.24169
 Alpha  occ. eigenvalues --  -11.24142 -11.24112 -11.24075 -11.24067 -11.24020
 Alpha  occ. eigenvalues --  -11.23996 -11.23743 -11.23685 -11.23509  -1.18609
 Alpha  occ. eigenvalues --   -1.15869  -1.15585  -1.09029  -1.02384  -1.02224
 Alpha  occ. eigenvalues --   -1.01873  -1.01489  -1.01139  -0.92927  -0.84330
 Alpha  occ. eigenvalues --   -0.83295  -0.82391  -0.81849  -0.81209  -0.77609
 Alpha  occ. eigenvalues --   -0.70849  -0.70382  -0.68988  -0.65747  -0.63866
 Alpha  occ. eigenvalues --   -0.63593  -0.62483  -0.61737  -0.61648  -0.59687
 Alpha  occ. eigenvalues --   -0.58850  -0.58476  -0.58332  -0.56979  -0.54828
 Alpha  occ. eigenvalues --   -0.51723  -0.50962  -0.50309  -0.49817  -0.49379
 Alpha  occ. eigenvalues --   -0.48491  -0.47869  -0.47541  -0.46367  -0.34962
 Alpha  occ. eigenvalues --   -0.34306  -0.33880  -0.33352  -0.32779  -0.31354
 Alpha virt. eigenvalues --    0.11486   0.12261   0.12909   0.13674   0.14873
 Alpha virt. eigenvalues --    0.14963   0.15498   0.16239   0.16463   0.16951
 Alpha virt. eigenvalues --    0.18912   0.19155   0.19238   0.21263   0.21322
 Alpha virt. eigenvalues --    0.21550   0.23586   0.23974   0.25079   0.25483
 Alpha virt. eigenvalues --    0.27245   0.30913   0.33400   0.34286   0.35770
 Alpha virt. eigenvalues --    0.37454   0.39815   0.40250   0.41616   0.43233
 Alpha virt. eigenvalues --    0.44108   0.44415   0.44805   0.45435   0.45653
 Alpha virt. eigenvalues --    0.45898   0.46821   0.47095   0.48270   0.50478
 Alpha virt. eigenvalues --    0.51222   0.51482   0.51823   0.54840   0.55923
 Alpha virt. eigenvalues --    0.57337   0.57828   0.58442   0.59088   0.59534
 Alpha virt. eigenvalues --    0.59947   0.60384   0.60707   0.61224   0.61448
 Alpha virt. eigenvalues --    0.62109   0.62335   0.62878   0.63698   0.63851
 Alpha virt. eigenvalues --    0.64386   0.64566   0.65188   0.65908   0.66313
 Alpha virt. eigenvalues --    0.67145   0.67818   0.68647   0.70033   0.72297
 Alpha virt. eigenvalues --    0.73200   0.73833   0.73971   0.75035   0.75770
 Alpha virt. eigenvalues --    0.76618   0.78777   0.79274   0.79629   0.81421
 Alpha virt. eigenvalues --    0.81628   0.82171   0.82501   0.82980   0.83081
 Alpha virt. eigenvalues --    0.83789   0.84293   0.84626   0.84683   0.85445
 Alpha virt. eigenvalues --    0.86042   0.86266   0.86529   0.87574   0.88255
 Alpha virt. eigenvalues --    0.90122   0.90793   0.92409   0.93091   0.94615
 Alpha virt. eigenvalues --    0.96105   0.96617   0.97108   0.98211   0.99390
 Alpha virt. eigenvalues --    0.99713   1.02349   1.03078   1.04362   1.06118
 Alpha virt. eigenvalues --    1.06912   1.08434   1.08835   1.09890   1.10522
 Alpha virt. eigenvalues --    1.10999   1.11831   1.12522   1.12651   1.13923
 Alpha virt. eigenvalues --    1.14749   1.16777   1.18699   1.20712   1.21016
 Alpha virt. eigenvalues --    1.24011   1.25647   1.27183   1.28577   1.29009
 Alpha virt. eigenvalues --    1.29270   1.32667   1.33980   1.46389   1.47401
 Alpha virt. eigenvalues --    1.52390   1.53967   1.57550   2.53702   2.55656
 Alpha virt. eigenvalues --    2.56295   2.57809   2.62083   2.62179   2.64005
 Alpha virt. eigenvalues --    2.66078   2.67560   2.68525   2.71673   2.74461
 Alpha virt. eigenvalues --    2.78297   2.83649   2.86306   2.91057   2.94332
 Alpha virt. eigenvalues --    2.94534   2.94737   2.96109   2.97913   2.98441
 Alpha virt. eigenvalues --    3.00181   3.02063   3.03808   3.04775   3.06405
 Alpha virt. eigenvalues --    3.08544   3.08918   3.09500   3.10168   3.13201
 Alpha virt. eigenvalues --    3.15315   3.16320   3.17657   3.18241   3.19362
 Alpha virt. eigenvalues --    3.21665   3.24265   3.25379   3.27568   3.28721
 Alpha virt. eigenvalues --    3.31134   3.33826   3.34087   3.35615   3.41460
 Alpha virt. eigenvalues --    3.41812   3.44310   3.45113   3.50038   3.51963
 Alpha virt. eigenvalues --    3.53256   3.55620   3.57293   3.58372   3.59970
 Alpha virt. eigenvalues --    3.62107   3.64431   3.64847   3.65993   3.66281
 Alpha virt. eigenvalues --    3.67626   3.69283   3.71309   3.72793   3.73508
 Alpha virt. eigenvalues --    3.75519   3.76888   3.78971   3.85225   3.87669
 Alpha virt. eigenvalues --    3.91430  24.25817  24.30148  24.31900  24.50451
 Alpha virt. eigenvalues --   24.50826  24.51028  24.53367  24.54532  24.56560
 Alpha virt. eigenvalues --   24.76556  24.77181  24.79127  24.80150  24.80541
 Alpha virt. eigenvalues --   24.82491  24.86655  25.04777  25.05822  25.07056
          Condensed to atoms (all electrons):
              1          2          3          4          5          6
     1  C    6.054416   0.474726   0.125594  -0.027460  -0.066078   0.008371
     2  H    0.474726   0.505933  -0.077685   0.006542   0.004488   0.001487
     3  C    0.125594  -0.077685   5.385431   0.501697   0.450152  -0.076868
     4  C   -0.027460   0.006542   0.501697   5.041646  -0.061771   0.470299
     5  C   -0.066078   0.004488   0.450152  -0.061771   5.105605  -0.029919
     6  C    0.008371   0.001487  -0.076868   0.470299  -0.029919   5.045530
     7  H   -0.002065   0.002798  -0.044996   0.393840   0.004778  -0.033815
     8  C    0.002010  -0.000229  -0.065807  -0.034695   0.479074  -0.076865
     9  H    0.001270  -0.000073  -0.049253   0.004640   0.386342  -0.000165
    10  C    0.001740   0.000001  -0.015904  -0.088727  -0.093749   0.498985
    11  H   -0.000420  -0.000033   0.007087  -0.039560  -0.000629   0.396427
    12  H   -0.000363   0.000012   0.005971  -0.000366  -0.038380   0.005894
    13  H   -0.000025  -0.000002  -0.001660   0.007538   0.007985  -0.042568
    14  C    0.050929  -0.062818  -0.069896  -0.001113   0.005709  -0.000787
    15  C   -0.084087  -0.005141   0.011132  -0.000197   0.000551   0.000005
    16  C   -0.026032   0.001932  -0.012240   0.000912  -0.016249   0.000386
    17  C    0.007267   0.000880  -0.000875   0.000007  -0.000014   0.000000
    18  H   -0.000653  -0.000134   0.000874  -0.000004  -0.000042   0.000000
    19  C    0.011330  -0.000165  -0.001157  -0.000124  -0.000738   0.000002
    20  H   -0.010284  -0.000270  -0.000094  -0.001309  -0.001468  -0.000118
    21  C    0.000545   0.000023   0.000108  -0.000005  -0.000025   0.000000
    22  H   -0.000353   0.000000   0.000012   0.000000   0.000000   0.000000
    23  H   -0.000356   0.000015   0.000057   0.000004   0.000034   0.000000
    24  H   -0.000014  -0.000002   0.000000   0.000000   0.000001   0.000000
    25  C    0.158041  -0.071415  -0.132710  -0.003555  -0.003641  -0.000623
    26  C   -0.053313   0.005810  -0.004445   0.000660  -0.012954   0.000044
    27  C   -0.024462   0.000999  -0.001356   0.000575   0.000586  -0.000009
    28  C    0.002765  -0.000272   0.001904   0.000030  -0.000656  -0.000001
    29  H    0.000674   0.000128  -0.002717  -0.000196  -0.001325   0.000007
    30  C    0.006885   0.001619  -0.000512  -0.000016   0.000141   0.000002
    31  H    0.000060   0.002246   0.000423   0.000245  -0.000004   0.000008
    32  C    0.001255  -0.000004  -0.000083  -0.000007  -0.000018   0.000000
    33  H   -0.000341   0.000011   0.000025   0.000000   0.000054   0.000000
    34  H   -0.000341  -0.000039   0.000024   0.000001   0.000000   0.000000
    35  H   -0.000011  -0.000001  -0.000003   0.000000   0.000000   0.000000
              7          8          9         10         11         12
     1  C   -0.002065   0.002010   0.001270   0.001740  -0.000420  -0.000363
     2  H    0.002798  -0.000229  -0.000073   0.000001  -0.000033   0.000012
     3  C   -0.044996  -0.065807  -0.049253  -0.015904   0.007087   0.005971
     4  C    0.393840  -0.034695   0.004640  -0.088727  -0.039560  -0.000366
     5  C    0.004778   0.479074   0.386342  -0.093749  -0.000629  -0.038380
     6  C   -0.033815  -0.076865  -0.000165   0.498985   0.396427   0.005894
     7  H    0.506251  -0.000308  -0.000264   0.005095  -0.004092   0.000024
     8  C   -0.000308   5.048846  -0.026644   0.490265   0.006283   0.396873
     9  H   -0.000264  -0.026644   0.497589   0.004690   0.000017  -0.003418
    10  C    0.005095   0.490265   0.004690   5.033910  -0.041140  -0.039809
    11  H   -0.004092   0.006283   0.000017  -0.041140   0.517989  -0.000207
    12  H    0.000024   0.396873  -0.003418  -0.039809  -0.000207   0.514561
    13  H   -0.000179  -0.042875  -0.000174   0.399405  -0.004553  -0.004349
    14  C    0.000516   0.001002   0.000868  -0.000067   0.000026   0.000012
    15  C    0.000010   0.000018   0.000055   0.000000   0.000000  -0.000001
    16  C    0.000171  -0.001465   0.001190   0.000093  -0.000007   0.000012
    17  C   -0.000001   0.000000  -0.000021   0.000000   0.000000   0.000000
    18  H   -0.000002   0.000000   0.000018   0.000000   0.000000   0.000000
    19  C    0.000008  -0.000040   0.000039   0.000004   0.000000  -0.000001
    20  H    0.000055   0.000725  -0.000079   0.000061   0.000009   0.000044
    21  C    0.000000   0.000000   0.000002   0.000000   0.000000   0.000000
    22  H    0.000000   0.000000   0.000000   0.000000   0.000000   0.000000
    23  H    0.000000  -0.000001  -0.000003  -0.000001   0.000000   0.000000
    24  H    0.000000   0.000000   0.000000   0.000000   0.000000   0.000000
    25  C    0.000183   0.001981  -0.003439  -0.000034   0.000018   0.000021
    26  C   -0.000025  -0.000105   0.002662   0.000001  -0.000001   0.000032
    27  C    0.000132   0.000049  -0.000221  -0.000014   0.000001   0.000002
    28  C    0.000002  -0.000101   0.001188   0.000002   0.000000  -0.000001
    29  H   -0.000004   0.000830   0.002092  -0.000012   0.000000  -0.000037
    30  C   -0.000002   0.000001  -0.000078   0.000000   0.000000   0.000000
    31  H    0.000040   0.000000   0.000000  -0.000002   0.000000   0.000000
    32  C   -0.000001   0.000002   0.000017   0.000000   0.000000   0.000000
    33  H    0.000000   0.000002  -0.000070   0.000000   0.000000   0.000001
    34  H    0.000000   0.000000   0.000001   0.000000   0.000000   0.000000
    35  H    0.000000   0.000000   0.000000   0.000000   0.000000   0.000000
             13         14         15         16         17         18
     1  C   -0.000025   0.050929  -0.084087  -0.026032   0.007267  -0.000653
     2  H   -0.000002  -0.062818  -0.005141   0.001932   0.000880  -0.000134
     3  C   -0.001660  -0.069896   0.011132  -0.012240  -0.000875   0.000874
     4  C    0.007538  -0.001113  -0.000197   0.000912   0.000007  -0.000004
     5  C    0.007985   0.005709   0.000551  -0.016249  -0.000014  -0.000042
     6  C   -0.042568  -0.000787   0.000005   0.000386   0.000000   0.000000
     7  H   -0.000179   0.000516   0.000010   0.000171  -0.000001  -0.000002
     8  C   -0.042875   0.001002   0.000018  -0.001465   0.000000   0.000000
     9  H   -0.000174   0.000868   0.000055   0.001190  -0.000021   0.000018
    10  C    0.399405  -0.000067   0.000000   0.000093   0.000000   0.000000
    11  H   -0.004553   0.000026   0.000000  -0.000007   0.000000   0.000000
    12  H   -0.004349   0.000012  -0.000001   0.000012   0.000000   0.000000
    13  H    0.516875   0.000002   0.000000  -0.000003   0.000000   0.000000
    14  C    0.000002   5.356066   0.468961   0.505258  -0.057102  -0.047343
    15  C    0.000000   0.468961   5.114316  -0.080704   0.465905   0.398133
    16  C   -0.000003   0.505258  -0.080704   5.089042  -0.029398   0.004318
    17  C    0.000000  -0.057102   0.465905  -0.029398   5.057465  -0.035249
    18  H    0.000000  -0.047343   0.398133   0.004318  -0.035249   0.494404
    19  C    0.000000  -0.070436  -0.033262   0.455322  -0.074529  -0.000442
    20  H    0.000007  -0.034708   0.004853   0.393013  -0.000382  -0.000206
    21  C    0.000000  -0.020047  -0.084927  -0.091178   0.480112   0.005255
    22  H    0.000000   0.006205  -0.038790  -0.000463   0.397303  -0.003990
    23  H    0.000000   0.006475  -0.000412  -0.036799   0.006018   0.000018
    24  H    0.000000  -0.001465   0.007419   0.007719  -0.043311  -0.000175
    25  C   -0.000003  -0.107402  -0.004593  -0.002600  -0.001293   0.003333
    26  C    0.000001  -0.009511  -0.005964   0.001683  -0.000069  -0.000403
    27  C    0.000000  -0.002238   0.000914  -0.000435  -0.000044   0.002089
    28  C    0.000000  -0.000598  -0.000311   0.000029  -0.000001  -0.000175
    29  H    0.000000   0.000882  -0.000104   0.000354  -0.000029  -0.000087
    30  C    0.000000  -0.000412  -0.000141   0.000024   0.000013   0.000104
    31  H    0.000000   0.000115   0.000320  -0.000040  -0.000008   0.000229
    32  C    0.000000   0.000074   0.000079  -0.000003   0.000001  -0.000088
    33  H    0.000000   0.000020   0.000017  -0.000001   0.000002   0.000003
    34  H    0.000000   0.000011  -0.000001   0.000000   0.000000   0.000002
    35  H    0.000000   0.000000   0.000000   0.000000   0.000000   0.000000
             19         20         21         22         23         24
     1  C    0.011330  -0.010284   0.000545  -0.000353  -0.000356  -0.000014
     2  H   -0.000165  -0.000270   0.000023   0.000000   0.000015  -0.000002
     3  C   -0.001157  -0.000094   0.000108   0.000012   0.000057   0.000000
     4  C   -0.000124  -0.001309  -0.000005   0.000000   0.000004   0.000000
     5  C   -0.000738  -0.001468  -0.000025   0.000000   0.000034   0.000001
     6  C    0.000002  -0.000118   0.000000   0.000000   0.000000   0.000000
     7  H    0.000008   0.000055   0.000000   0.000000   0.000000   0.000000
     8  C   -0.000040   0.000725   0.000000   0.000000  -0.000001   0.000000
     9  H    0.000039  -0.000079   0.000002   0.000000  -0.000003   0.000000
    10  C    0.000004   0.000061   0.000000   0.000000  -0.000001   0.000000
    11  H    0.000000   0.000009   0.000000   0.000000   0.000000   0.000000
    12  H   -0.000001   0.000044   0.000000   0.000000   0.000000   0.000000
    13  H    0.000000   0.000007   0.000000   0.000000   0.000000   0.000000
    14  C   -0.070436  -0.034708  -0.020047   0.006205   0.006475  -0.001465
    15  C   -0.033262   0.004853  -0.084927  -0.038790  -0.000412   0.007419
    16  C    0.455322   0.393013  -0.091178  -0.000463  -0.036799   0.007719
    17  C   -0.074529  -0.000382   0.480112   0.397303   0.006018  -0.043311
    18  H   -0.000442  -0.000206   0.005255  -0.003990   0.000018  -0.000175
    19  C    5.076671  -0.035764   0.498309   0.006031   0.395496  -0.042061
    20  H   -0.035764   0.476166   0.004947   0.000018  -0.003434  -0.000171
    21  C    0.498309   0.004947   5.041558  -0.040828  -0.041156   0.399484
    22  H    0.006031   0.000018  -0.040828   0.517799  -0.000212  -0.004413
    23  H    0.395496  -0.003434  -0.041156  -0.000212   0.517728  -0.004475
    24  H   -0.042061  -0.000171   0.399484  -0.004413  -0.004475   0.519263
    25  C   -0.000695   0.000322   0.000117   0.000011   0.000011   0.000002
    26  C    0.000035   0.000122   0.000041   0.000013   0.000000  -0.000001
    27  C    0.000008  -0.000021  -0.000002  -0.000005   0.000000   0.000000
    28  C    0.000007  -0.000002   0.000003   0.000002   0.000000   0.000000
    29  H   -0.000006  -0.000004  -0.000050   0.000004   0.000003   0.000001
    30  C    0.000000   0.000000   0.000000   0.000000   0.000000   0.000000
    31  H    0.000000   0.000001   0.000001   0.000000   0.000000   0.000000
    32  C    0.000000   0.000000   0.000000   0.000000   0.000000   0.000000
    33  H    0.000000   0.000000   0.000000   0.000000   0.000000   0.000000
    34  H    0.000000   0.000000   0.000000   0.000000   0.000000   0.000000
    35  H    0.000000   0.000000   0.000000   0.000000   0.000000   0.000000
             25         26         27         28         29         30
     1  C    0.158041  -0.053313  -0.024462   0.002765   0.000674   0.006885
     2  H   -0.071415   0.005810   0.000999  -0.000272   0.000128   0.001619
     3  C   -0.132710  -0.004445  -0.001356   0.001904  -0.002717  -0.000512
     4  C   -0.003555   0.000660   0.000575   0.000030  -0.000196  -0.000016
     5  C   -0.003641  -0.012954   0.000586  -0.000656  -0.001325   0.000141
     6  C   -0.000623   0.000044  -0.000009  -0.000001   0.000007   0.000002
     7  H    0.000183  -0.000025   0.000132   0.000002  -0.000004  -0.000002
     8  C    0.001981  -0.000105   0.000049  -0.000101   0.000830   0.000001
     9  H   -0.003439   0.002662  -0.000221   0.001188   0.002092  -0.000078
    10  C   -0.000034   0.000001  -0.000014   0.000002  -0.000012   0.000000
    11  H    0.000018  -0.000001   0.000001   0.000000   0.000000   0.000000
    12  H    0.000021   0.000032   0.000002  -0.000001  -0.000037   0.000000
    13  H   -0.000003   0.000001   0.000000   0.000000   0.000000   0.000000
    14  C   -0.107402  -0.009511  -0.002238  -0.000598   0.000882  -0.000412
    15  C   -0.004593  -0.005964   0.000914  -0.000311  -0.000104  -0.000141
    16  C   -0.002600   0.001683  -0.000435   0.000029   0.000354   0.000024
    17  C   -0.001293  -0.000069  -0.000044  -0.000001  -0.000029   0.000013
    18  H    0.003333  -0.000403   0.002089  -0.000175  -0.000087   0.000104
    19  C   -0.000695   0.000035   0.000008   0.000007  -0.000006   0.000000
    20  H    0.000322   0.000122  -0.000021  -0.000002  -0.000004   0.000000
    21  C    0.000117   0.000041  -0.000002   0.000003  -0.000050   0.000000
    22  H    0.000011   0.000013  -0.000005   0.000002   0.000004   0.000000
    23  H    0.000011   0.000000   0.000000   0.000000   0.000003   0.000000
    24  H    0.000002  -0.000001   0.000000   0.000000   0.000001   0.000000
    25  C    5.381033   0.443016   0.494037  -0.058759  -0.045197  -0.072582
    26  C    0.443016   5.075658  -0.071620   0.479521   0.389534  -0.027037
    27  C    0.494037  -0.071620   5.092106  -0.030593   0.004033   0.453301
    28  C   -0.058759   0.479521  -0.030593   5.038364  -0.028130  -0.078200
    29  H   -0.045197   0.389534   0.004033  -0.028130   0.495798  -0.000024
    30  C   -0.072582  -0.027037   0.453301  -0.078200  -0.000024   5.060630
    31  H   -0.050707   0.004332   0.400454  -0.000285  -0.000270  -0.035133
    32  C   -0.018812  -0.090831  -0.085936   0.491424   0.004552   0.496719
    33  H    0.006039  -0.039029  -0.000485   0.397192  -0.003359   0.005996
    34  H    0.006947  -0.000676  -0.039739   0.006232   0.000016   0.397024
    35  H   -0.001541   0.007875   0.007476  -0.042904  -0.000170  -0.042550
             31         32         33         34         35
     1  C    0.000060   0.001255  -0.000341  -0.000341  -0.000011
     2  H    0.002246  -0.000004   0.000011  -0.000039  -0.000001
     3  C    0.000423  -0.000083   0.000025   0.000024  -0.000003
     4  C    0.000245  -0.000007   0.000000   0.000001   0.000000
     5  C   -0.000004  -0.000018   0.000054   0.000000   0.000000
     6  C    0.000008   0.000000   0.000000   0.000000   0.000000
     7  H    0.000040  -0.000001   0.000000   0.000000   0.000000
     8  C    0.000000   0.000002   0.000002   0.000000   0.000000
     9  H    0.000000   0.000017  -0.000070   0.000001   0.000000
    10  C   -0.000002   0.000000   0.000000   0.000000   0.000000
    11  H    0.000000   0.000000   0.000000   0.000000   0.000000
    12  H    0.000000   0.000000   0.000001   0.000000   0.000000
    13  H    0.000000   0.000000   0.000000   0.000000   0.000000
    14  C    0.000115   0.000074   0.000020   0.000011   0.000000
    15  C    0.000320   0.000079   0.000017  -0.000001   0.000000
    16  C   -0.000040  -0.000003  -0.000001   0.000000   0.000000
    17  C   -0.000008   0.000001   0.000002   0.000000   0.000000
    18  H    0.000229  -0.000088   0.000003   0.000002   0.000000
    19  C    0.000000   0.000000   0.000000   0.000000   0.000000
    20  H    0.000001   0.000000   0.000000   0.000000   0.000000
    21  C    0.000001   0.000000   0.000000   0.000000   0.000000
    22  H    0.000000   0.000000   0.000000   0.000000   0.000000
    23  H    0.000000   0.000000   0.000000   0.000000   0.000000
    24  H    0.000000   0.000000   0.000000   0.000000   0.000000
    25  C   -0.050707  -0.018812   0.006039   0.006947  -0.001541
    26  C    0.004332  -0.090831  -0.039029  -0.000676   0.007875
    27  C    0.400454  -0.085936  -0.000485  -0.039739   0.007476
    28  C   -0.000285   0.491424   0.397192   0.006232  -0.042904
    29  H   -0.000270   0.004552  -0.003359   0.000016  -0.000170
    30  C   -0.035133   0.496719   0.005996   0.397024  -0.042550
    31  H    0.510358   0.005266   0.000024  -0.004218  -0.000185
    32  C    0.005266   5.034166  -0.039815  -0.040685   0.399702
    33  H    0.000024  -0.039815   0.514992  -0.000207  -0.004482
    34  H   -0.004218  -0.040685  -0.000207   0.518154  -0.004586
    35  H   -0.000185   0.399702  -0.004482  -0.004586   0.517406
 Mulliken atomic charges:
              1
     1  C   -0.611221
     2  H    0.208633
     3  C    0.067770
     4  C   -0.169532
     5  C   -0.117842
     6  C   -0.165707
     7  H    0.171850
     8  C   -0.178824
     9  H    0.181225
    10  C   -0.154793
    11  H    0.162785
    12  H    0.163469
    13  H    0.164578
    14  C    0.082815
    15  C   -0.134051
    16  C   -0.163842
    17  C   -0.172647
    18  H    0.180215
    19  C   -0.183842
    20  H    0.207972
    21  C   -0.152285
    22  H    0.161658
    23  H    0.160989
    24  H    0.162199
    25  C    0.084490
    26  C   -0.095056
    27  C   -0.199583
    28  C   -0.177676
    29  H    0.182810
    30  C   -0.165773
    31  H    0.166730
    32  C   -0.156975
    33  H    0.163410
    34  H    0.162080
    35  H    0.163973
 Sum of Mulliken atomic charges =   0.00000
 Mulliken charges with hydrogens summed into heavy atoms:
              1
     1  C   -0.402588
     3  C    0.067770
     4  C    0.002318
     5  C    0.063383
     6  C   -0.002923
     8  C   -0.015356
    10  C    0.009785
    14  C    0.082815
    15  C    0.046163
    16  C    0.044130
    17  C   -0.010989
    19  C   -0.022853
    21  C    0.009914
    25  C    0.084490
    26  C    0.087754
    27  C   -0.032853
    28  C   -0.014266
    30  C   -0.003694
    32  C    0.006998
 Sum of Mulliken charges with hydrogens summed into heavy atoms =   0.00000
 Electronic spatial extent (au):  <R**2>=           4934.4764
 Charge=              0.0000 electrons
 Dipole moment (field-independent basis, Debye):
    X=              0.0871    Y=             -0.1542    Z=             -0.0217  Tot=              0.1784
 Quadrupole moment (field-independent basis, Debye-Ang):
   XX=           -108.1228   YY=           -113.4827   ZZ=           -106.1126
   XY=              2.5455   XZ=              1.4553   YZ=              2.5139
 Traceless Quadrupole moment (field-independent basis, Debye-Ang):
   XX=              1.1166   YY=             -4.2433   ZZ=              3.1268
   XY=              2.5455   XZ=              1.4553   YZ=              2.5139
 Octapole moment (field-independent basis, Debye-Ang**2):
  XXX=             29.8010  YYY=              4.8323  ZZZ=              0.3856  XYY=            -38.9371
  XXY=              4.0679  XXZ=             -4.8933  XZZ=              9.0994  YZZ=            -15.9899
  YYZ=             13.2092  XYZ=              1.3311
 Hexadecapole moment (field-independent basis, Debye-Ang**3):
 XXXX=          -3069.6162 YYYY=          -2896.4508 ZZZZ=           -690.9554 XXXY=            -55.5227
 XXXZ=             21.3232 YYYX=             57.0085 YYYZ=             80.8557 ZZZX=             -6.1185
 ZZZY=             -3.7399 XXYY=          -1016.2550 XXZZ=           -630.5243 YYZZ=           -625.2118
 XXYZ=            -19.3591 YYXZ=             -8.7951 ZZXY=             32.7678
 N-N= 1.290129113981D+03 E-N=-4.276321515651D+03  KE= 7.285986833754D+02
 PrsmSu:  requested number of processors reduced to:  10 ShMem   1 Linda.
 Calling FoFJK, ICntrl=      2127 FMM=F ISym2X=0 I1Cent= 0 IOpClX= 0 NMat=1 NMatS=1 NMatT=0.
 ***** Axes restored to original set *****
 -------------------------------------------------------------------
 Center     Atomic                   Forces (Hartrees/Bohr)
 Number     Number              X              Y              Z
 -------------------------------------------------------------------
      1        6          -0.023092601   -0.002133611    0.003239456
      2        1           0.024757064    0.006951486   -0.001016353
      3        6          -0.005301577    0.000377430    0.012602107
      4        6          -0.005666533   -0.001787103   -0.001213299
      5        6           0.009253215    0.003263657   -0.008025379
      6        6          -0.006669039   -0.000566437    0.011826316
      7        1           0.017335697    0.003839082    0.002037065
      8        6           0.012166392    0.002452932   -0.000334311
      9        1          -0.012706478   -0.003330101    0.026889480
     10        6           0.002622187    0.001536000    0.013256329
     11        1           0.010591771    0.001367321   -0.012851280
     12        1          -0.016104095   -0.003711043   -0.002437740
     13        1          -0.005720260   -0.002369170   -0.015635777
     14        6           0.004218185   -0.013793419   -0.004440152
     15        6          -0.005054174    0.002880686   -0.005486905
     16        6           0.003994091    0.002292818    0.011498030
     17        6          -0.006119890   -0.000520727   -0.011242089
     18        1           0.011788424   -0.011737398    0.007307085
     19        6           0.008084452   -0.009690292    0.002307920
     20        1          -0.008142085   -0.006458482   -0.019782092
     21        6           0.005480730   -0.011893237   -0.004399494
     22        1           0.005960683    0.003420886    0.015154949
     23        1          -0.010819641    0.010325321   -0.007421872
     24        1          -0.004688074    0.013917831    0.007855437
     25        6          -0.007896617    0.009913054   -0.006960912
     26        6           0.009982048   -0.005062542    0.001591306
     27        6          -0.005298202   -0.001320712    0.002171606
     28        6           0.012158684    0.001055917   -0.002067007
     29        1          -0.017686251    0.013559642   -0.015995645
     30        6          -0.008990771    0.009065408   -0.004712830
     31        1           0.016401008    0.003562287   -0.005150127
     32        6          -0.000216365    0.011264089   -0.007812174
     33        1          -0.015425665   -0.003893721    0.005186391
     34        1           0.013134188   -0.009304367    0.004266661
     35        1          -0.002330499   -0.013473484    0.009795301
 -------------------------------------------------------------------
 Cartesian Forces:  Max     0.026889480 RMS     0.009562280

 GradGradGradGradGradGradGradGradGradGradGradGradGradGradGradGradGradGrad
 Berny optimization.
 Internal  Forces:  Max     0.029145706 RMS     0.007796010
 Search for a local minimum.
 Step number   1 out of a maximum of  197
 All quantities printed in internal units (Hartrees-Bohrs-Radians)
 Mixed Optimization -- RFO/linear search
 Second derivative matrix not updated -- first step.
     Eigenvalues ---    0.00636   0.00646   0.00660   0.01534   0.01536
     Eigenvalues ---    0.01538   0.02136   0.02140   0.02147   0.02169
     Eigenvalues ---    0.02171   0.02173   0.02180   0.02185   0.02185
     Eigenvalues ---    0.02200   0.02201   0.02202   0.02210   0.02211
     Eigenvalues ---    0.02212   0.02214   0.02214   0.02215   0.02215
     Eigenvalues ---    0.02217   0.02219   0.02219   0.02219   0.02227
     Eigenvalues ---    0.04540   0.06373   0.06665   0.15997   0.15999
     Eigenvalues ---    0.16000   0.16000   0.16000   0.16000   0.16000
     Eigenvalues ---    0.16000   0.16000   0.16000   0.16000   0.16000
     Eigenvalues ---    0.16000   0.16000   0.16000   0.18875   0.19371
     Eigenvalues ---    0.22000   0.22000   0.22000   0.22000   0.22000
     Eigenvalues ---    0.22000   0.23471   0.23477   0.23478   0.24982
     Eigenvalues ---    0.24999   0.25000   0.31236   0.31371   0.31442
     Eigenvalues ---    0.31555   0.33500   0.33622   0.33955   0.34068
     Eigenvalues ---    0.34071   0.34090   0.34253   0.34253   0.34254
     Eigenvalues ---    0.34263   0.34264   0.34264   0.34279   0.34279
     Eigenvalues ---    0.34288   0.42366   0.42455   0.42487   0.42546
     Eigenvalues ---    0.42572   0.42629   0.46298   0.46374   0.46439
     Eigenvalues ---    0.46729   0.46756   0.46831   0.47198   0.47204
     Eigenvalues ---    0.47217   0.47321   0.47328   0.474691000.00000
     Eigenvalues --- 1000.000001000.000001000.000001000.000001000.00000
     Eigenvalues --- 1000.000001000.000001000.000001000.000001000.00000
     Eigenvalues --- 1000.000001000.000001000.000001000.000001000.00000
     Eigenvalues --- 1000.000001000.000001000.000001000.000001000.00000
     Eigenvalues --- 1000.000001000.000001000.000001000.000001000.00000
     Eigenvalues --- 1000.000001000.000001000.000001000.000001000.00000
     Eigenvalues --- 1000.000001000.000001000.000001000.000001000.00000
     Eigenvalues --- 1000.000001000.000001000.000001000.000001000.00000
     Eigenvalues --- 1000.000001000.000001000.000001000.000001000.00000
     Eigenvalues --- 1000.000001000.000001000.000001000.000001000.00000
     Eigenvalues --- 1000.000001000.000001000.000001000.000001000.00000
     Eigenvalues --- 1000.000001000.000001000.000001000.000001000.00000
     Eigenvalues --- 1000.000001000.000001000.000001000.000001000.00000
     Eigenvalues --- 1000.000001000.000001000.000001000.000001000.00000
     Eigenvalues --- 1000.000001000.000001000.000001000.000001000.00000
     Eigenvalues --- 1000.000001000.000001000.000001000.000001000.00000
     Eigenvalues --- 1000.000001000.000001000.000001000.000001000.00000
     Eigenvalues --- 1000.000001000.00000
 RFO step:  Lambda=-4.20332911D-02 EMin= 6.36384425D-03
 Linear search not attempted -- first point.
 Maximum step size (   0.300) exceeded in Quadratic search.
    -- Step size scaled by   0.587
 Iteration  1 RMS(Cart)=  0.12529162 RMS(Int)=  0.00299593
 Iteration  2 RMS(Cart)=  0.00604660 RMS(Int)=  0.00028020
 Iteration  3 RMS(Cart)=  0.00001047 RMS(Int)=  0.00028013
 Iteration  4 RMS(Cart)=  0.00000000 RMS(Int)=  0.00028013
 Variable       Old X    -DE/DX   Delta X   Delta X   Delta X     New X
                                 (Linear)    (Quad)   (Total)
    R1        2.12264  -0.02544   0.00000  -0.04217  -0.04217   2.08047
    R2        2.84966   0.02414   0.00000   0.03965   0.03965   2.88932
    R3        2.85177   0.02308   0.00000   0.03804   0.03804   2.88982
    R4        2.85310   0.02271   0.00000   0.03750   0.03750   2.89060
    R5        2.63992  -0.00410   0.00000  -0.00472  -0.00470   2.63522
    R6        2.63952   0.00081   0.00000   0.00110   0.00112   2.64064
    R7        2.62773  -0.00269   0.00000  -0.00316  -0.00315   2.62458
    R8        2.07216  -0.01786   0.00000  -0.02742  -0.02742   2.04474
    R9        2.62603  -0.00430   0.00000  -0.00481  -0.00482   2.62121
   R10        2.08183  -0.02915   0.00000  -0.04541  -0.04541   2.03641
   R11        2.62741  -0.00916   0.00000  -0.01061  -0.01062   2.61679
   R12        2.06904  -0.01671   0.00000  -0.02552  -0.02552   2.04351
   R13        2.62838  -0.00583   0.00000  -0.00673  -0.00675   2.62163
   R14        2.06886  -0.01670   0.00000  -0.02551  -0.02551   2.04335
   R15        2.06861  -0.01682   0.00000  -0.02567  -0.02567   2.04294
   R16        2.64488  -0.00245   0.00000  -0.00286  -0.00285   2.64202
   R17        2.63400  -0.00254   0.00000  -0.00281  -0.00280   2.63119
   R18        2.62342  -0.00523   0.00000  -0.00602  -0.00602   2.61740
   R19        2.07211  -0.01815   0.00000  -0.02786  -0.02786   2.04425
   R20        2.62982  -0.00108   0.00000  -0.00114  -0.00114   2.62868
   R21        2.07405  -0.02226   0.00000  -0.03426  -0.03426   2.03979
   R22        2.63013  -0.00475   0.00000  -0.00557  -0.00557   2.62456
   R23        2.06889  -0.01664   0.00000  -0.02541  -0.02541   2.04348
   R24        2.62508  -0.00768   0.00000  -0.00875  -0.00876   2.61632
   R25        2.06905  -0.01670   0.00000  -0.02550  -0.02550   2.04355
   R26        2.06846  -0.01665   0.00000  -0.02542  -0.02542   2.04304
   R27        2.63846   0.00000   0.00000   0.00011   0.00013   2.63858
   R28        2.63900  -0.00429   0.00000  -0.00494  -0.00493   2.63407
   R29        2.62582  -0.00475   0.00000  -0.00536  -0.00535   2.62047
   R30        2.07973  -0.02597   0.00000  -0.04033  -0.04033   2.03940
   R31        2.62787  -0.00243   0.00000  -0.00283  -0.00283   2.62503
   R32        2.07178  -0.01754   0.00000  -0.02691  -0.02691   2.04487
   R33        2.62862  -0.00533   0.00000  -0.00616  -0.00617   2.62245
   R34        2.06886  -0.01673   0.00000  -0.02555  -0.02555   2.04331
   R35        2.62749  -0.00861   0.00000  -0.00994  -0.00996   2.61753
   R36        2.06905  -0.01665   0.00000  -0.02544  -0.02544   2.04361
   R37        2.06861  -0.01682   0.00000  -0.02568  -0.02568   2.04294
    A1        1.87152  -0.01009   0.00000  -0.05082  -0.04989   1.82163
    A2        1.83236   0.00314   0.00000  -0.00298  -0.00275   1.82962
    A3        1.88139  -0.00793   0.00000  -0.04515  -0.04437   1.83702
    A4        1.99631   0.00183   0.00000   0.02359   0.02175   2.01806
    A5        1.93735   0.01524   0.00000   0.05398   0.05284   1.99018
    A6        1.93717  -0.00407   0.00000   0.00991   0.00770   1.94486
    A7        2.07665  -0.01156   0.00000  -0.02324  -0.02326   2.05339
    A8        2.12854   0.02358   0.00000   0.04745   0.04743   2.17597
    A9        2.07798  -0.01202   0.00000  -0.02420  -0.02416   2.05382
   A10        2.10090   0.00825   0.00000   0.01797   0.01800   2.11890
   A11        2.09421  -0.00474   0.00000  -0.01078  -0.01079   2.08342
   A12        2.08807  -0.00351   0.00000  -0.00720  -0.00721   2.08086
   A13        2.10276   0.00453   0.00000   0.01020   0.01020   2.11296
   A14        2.07931   0.00441   0.00000   0.01435   0.01433   2.09364
   A15        2.10104  -0.00893   0.00000  -0.02444  -0.02446   2.07658
   A16        2.09784  -0.00018   0.00000  -0.00136  -0.00137   2.09647
   A17        2.09099   0.00026   0.00000   0.00116   0.00116   2.09216
   A18        2.09435  -0.00007   0.00000   0.00020   0.00021   2.09455
   A19        2.09660   0.00242   0.00000   0.00500   0.00497   2.10157
   A20        2.09113  -0.00112   0.00000  -0.00225  -0.00223   2.08889
   A21        2.09546  -0.00130   0.00000  -0.00275  -0.00274   2.09272
   A22        2.09029  -0.00299   0.00000  -0.00761  -0.00765   2.08264
   A23        2.09661   0.00146   0.00000   0.00370   0.00372   2.10033
   A24        2.09629   0.00153   0.00000   0.00392   0.00393   2.10022
   A25        2.06113  -0.00057   0.00000  -0.00119  -0.00119   2.05994
   A26        2.14471   0.00837   0.00000   0.01681   0.01680   2.16151
   A27        2.07677  -0.00781   0.00000  -0.01575  -0.01574   2.06103
   A28        2.10361   0.00490   0.00000   0.01055   0.01056   2.11417
   A29        2.08468  -0.00168   0.00000  -0.00305  -0.00306   2.08162
   A30        2.09489  -0.00322   0.00000  -0.00751  -0.00751   2.08737
   A31        2.10121   0.00331   0.00000   0.00755   0.00755   2.10876
   A32        2.09393   0.00002   0.00000   0.00109   0.00109   2.09501
   A33        2.08805  -0.00333   0.00000  -0.00864  -0.00865   2.07940
   A34        2.09634   0.00069   0.00000   0.00083   0.00082   2.09716
   A35        2.09221  -0.00034   0.00000  -0.00041  -0.00041   2.09180
   A36        2.09463  -0.00035   0.00000  -0.00042  -0.00041   2.09422
   A37        2.09948   0.00115   0.00000   0.00242   0.00241   2.10189
   A38        2.08855  -0.00049   0.00000  -0.00097  -0.00096   2.08759
   A39        2.09516  -0.00066   0.00000  -0.00146  -0.00146   2.09370
   A40        2.08896  -0.00224   0.00000  -0.00561  -0.00563   2.08333
   A41        2.09624   0.00117   0.00000   0.00295   0.00295   2.09920
   A42        2.09798   0.00107   0.00000   0.00267   0.00267   2.10065
   A43        2.11873   0.01753   0.00000   0.03527   0.03520   2.15393
   A44        2.08390  -0.00709   0.00000  -0.01427  -0.01433   2.06957
   A45        2.08053  -0.01045   0.00000  -0.02111  -0.02111   2.05941
   A46        2.10178   0.00407   0.00000   0.00910   0.00904   2.11082
   A47        2.07792   0.00363   0.00000   0.01206   0.01195   2.08986
   A48        2.10332  -0.00764   0.00000  -0.02071  -0.02083   2.08249
   A49        2.09917   0.00717   0.00000   0.01569   0.01569   2.11486
   A50        2.09511  -0.00426   0.00000  -0.00982  -0.00983   2.08527
   A51        2.08891  -0.00290   0.00000  -0.00587  -0.00588   2.08303
   A52        2.09598   0.00219   0.00000   0.00448   0.00448   2.10046
   A53        2.09170  -0.00100   0.00000  -0.00196  -0.00197   2.08973
   A54        2.09550  -0.00119   0.00000  -0.00252  -0.00252   2.09298
   A55        2.09782  -0.00026   0.00000  -0.00129  -0.00131   2.09651
   A56        2.09120   0.00031   0.00000   0.00118   0.00119   2.09239
   A57        2.09416  -0.00006   0.00000   0.00011   0.00012   2.09428
[...]
 8347,-0.00026755,0.00679631,0.00137080,-0.00021730,-0.00033082,0.00013
 809,-0.00167938,0.00016084,0.00026438,-0.00005339,-0.00008696,0.000177
 33,-0.00010024,0.00017831,0.00007031,0.00017616,0.00025286,0.00001667,
 -0.00003061,-0.00001382,0.00005759,0.00010727,-0.00034674,0.00002961,0
 .00015586,0.00010414,-0.00020483,-0.00016808,0.00012783,-0.00001919,0.
 00003034,0.00002580,0.00003830,-0.00002224,0.00000702,0.00000576,0.000
 00114,-0.00000271,-0.00041513,-0.00003002,-0.00055046,-0.00002877,0.00
 044751,-0.00001174,0.00034244,-0.00024273,-0.00011644,0.00028315,-0.00
 036199,-0.00010821,-0.00007040,-0.00000979,0.00005644,0.00002114,0.000
 25736,0.00026601,0.00001884,-0.00001532,0.00001093,-0.00032884,0.00003
 236,-0.00020182,0.00001708,0.00001422,0.00000545,-0.00001788,0.0000036
 0,0.00001205,-0.00000354,0.00001411,0.00000293,-0.06136910,0.04267907,
 0.03552732,0.03941623,0.03327573,-0.05281849,0.07272347,0.08745284,-0.
 18463796,0.02846950,-0.07384826,0.02415637,0.00010953,0.00023401,-0.00
 104421,-0.24012833,-0.14627456,0.43593671,-0.00083526,-0.00189175,-0.0
 0182797,0.00038538,0.00063999,-0.00013625,0.00032748,0.00039987,-0.000
 26777,0.00008741,-0.00001974,-0.00039751,-0.00006403,-0.00027459,0.000
 06660,0.00012766,0.00008550,-0.00000285,-0.00003144,0.00002728,0.00001
 231,0.00000383,-0.00005897,-0.00020557,-0.00005971,0.00009626,0.000139
 20,-0.00007994,-0.00004618,0.00002938,-0.00001785,-0.00000204,0.000002
 61,-0.00000245,0.00002283,0.00000929,-0.00000146,0.00000957,0.00001588
 ,0.00034360,-0.00004136,0.00023572,0.00006734,-0.00001408,-0.00004648,
 0.00006802,-0.00013445,-0.00010466,-0.00002429,-0.00000301,-0.00003315
 ,-0.00003102,-0.00000059,0.00002573,0.00005121,-0.00003116,-0.00000211
 ,-0.00003685,-0.00000583,0.00001849,0.00000650,-0.00000903,0.00000118,
 -0.00000314,-0.00001436,-0.00000172,0.00000071,-0.00001530,-0.00000184
 ,-0.00000321,-0.00000519,0.00000220,-0.01147548,-0.00395067,0.01521111
 ,0.00161422,0.00531491,0.00244600,-0.24811572,0.00641749,0.15295512,0.
 00026801,0.00008745,-0.00102071,-0.00079047,-0.00014638,0.00065946,-0.
 00040364,0.00407770,0.00280842,0.25616589,0.00051357,0.00085693,-0.002
 01748,-0.00080090,-0.00063542,0.00012335,0.00011167,0.00021120,0.00020
 588,0.00001904,-0.00004029,-0.00006537,0.00011856,0.00001737,-0.000087
 75,-0.00000115,0.00001210,0.00007588,-0.00001921,-0.00004868,0.0000259
 5,0.00000582,-0.00004022,-0.00005598,-0.00008366,-0.00000247,0.0000177
 4,-0.00003770,-0.00005415,-0.00004103,-0.00000028,0.00000842,-0.000017
 35,-0.00002775,-0.00000572,-0.00002005,-0.00001567,0.00000334,-0.00001
 321,-0.00027635,-0.00005401,-0.00009215,0.00004142,0.00001364,0.000050
 42,-0.00006431,0.00010043,0.00010263,-0.00002205,-0.00000015,-0.000006
 77,-0.00000368,-0.00001243,-0.00004494,-0.00002129,0.00003458,-0.00001
 847,-0.00000221,-0.00000193,-0.00001508,-0.00000728,0.00002442,0.00001
 170,0.00000504,0.00000834,0.00000665,-0.00001049,0.00002028,-0.0000019
 6,-0.00000516,0.00001073,0.00000149,0.02416607,0.00441958,-0.01829790,
 0.00500489,-0.00366064,0.00192904,0.00576661,-0.06940863,0.00527646,-0
 .00000966,-0.00117328,0.00010598,0.00110672,0.00013942,-0.00093608,-0.
 02529359,0.00548704,0.02010758,-0.00899074,0.06686187,-0.00157011,0.00
 002701,-0.00217615,-0.00103127,-0.00030524,0.00063140,-0.00007372,0.00
 019852,-0.00002096,0.00008055,-0.00003503,-0.00013543,0.00008311,0.000
 00296,-0.00003795,0.00001839,0.00004182,-0.00000771,-0.00001005,-0.000
 01175,0.00000816,-0.00003623,-0.00005483,-0.00004444,-0.00003739,-0.00
 000996,0.00005870,-0.00002927,-0.00000923,0.00001041,-0.00000806,-0.00
 000221,0.00000562,0.00000006,0.00000286,-0.00000752,-0.00000104,-0.000
 00094,0.00001058,-0.00026514,-0.00020569,0.00013280,0.00016384,-0.0000
 9390,0.00005158,-0.00006143,0.00001524,0.00006041,-0.00002443,0.000028
 01,-0.00001590,-0.00002893,-0.00001193,-0.00002851,-0.00002723,0.00002
 545,-0.00005066,-0.00001374,0.00000247,-0.00000656,0.00001025,-0.00002
 188,0.00000328,0.00000119,-0.00001213,-0.00001118,0.00000444,0.0000065
 1,-0.00000623,-0.00000386,-0.00000011,-0.00000279,0.00115346,0.0025214
 3,0.00332787,0.00282623,0.00175008,0.00501384,0.15375842,0.00530900,-0
 .17166852,-0.00094339,0.00005315,-0.00024982,-0.00004090,0.00007468,-0
 .00009916,0.01689091,-0.00319504,-0.00627407,-0.17142225,-0.00990636,0
 .17132261,-0.00111949,-0.00039660,0.00178868,0.00100144,-0.00022052,0.
 00023146,0.00044813,-0.00115504,-0.00011335,0.00027816,-0.00010654,-0.
 00038437,0.00010220,-0.00030947,0.00027901,0.00018393,0.00024193,0.000
 24668,0.00000540,-0.00000449,-0.00000869,0.00009609,0.00012805,-0.0004
 6250,0.00006432,0.00023176,0.00010326,-0.00026965,-0.00021539,0.000165
 52,-0.00002869,0.00003478,0.00002097,0.00004647,-0.00001629,0.00002008
 ,0.00000356,0.00000779,0.00000109,-0.00051583,-0.00022822,-0.00019608,
 0.00008165,0.00042029,-0.00005722,0.00025891,-0.00034911,-0.00017877,0
 .00026474,-0.00031465,-0.00013259,-0.00008444,-0.00001486,0.00004653,0
 .00003359,0.00024675,0.00025289,0.00000485,-0.00001926,0.00001210,-0.0
 0029050,0.00000243,-0.00019515,0.00001140,-0.00000146,0.00000627,-0.00
 000836,-0.00000491,0.00000503,-0.00000769,0.00000802,0.00000223,-0.073
 63261,0.04128468,0.03031621,0.05993522,0.04269845,-0.05946744,0.013658
 98,-0.08940940,0.03926342,-0.20727488,0.08144959,0.05700489,0.00349078
 ,-0.00052654,0.00469841,-0.26009936,0.04813900,0.11321683,0.00410838,0
 .00116866,0.00330231,0.55601483,0.00020128,0.00063073,-0.00102229,-0.0
 0047937,-0.00027510,0.00002565,-0.00029361,0.00022548,-0.00031850,0.00
 006596,0.00012899,0.00034987,-0.00014205,0.00007405,0.00013295,-0.0001
 2527,-0.00010529,-0.00009913,0.00000203,0.00000403,-0.00002420,-0.0000
 5744,-0.00008895,0.00022445,-0.00017900,-0.00030815,0.00002777,0.00014
 410,0.00010918,0.00001304,0.00001908,-0.00001699,0.00002677,0.00002887
 ,0.00001332,0.00005510,-0.00000060,0.00000028,0.00001882,0.00015986,0.
 00016079,0.00039041,0.00002665,-0.00031760,-0.00000214,-0.00023892,0.0
 0011594,0.00004461,-0.00014075,0.00022845,0.00006242,0.00003941,0.0000
 1904,0.00000570,-0.00004736,-0.00013700,-0.00016122,-0.00002077,0.0000
 1882,-0.00001256,0.00023049,-0.00006378,0.00008796,-0.00002183,-0.0000
 2967,-0.00001322,0.00002142,-0.00002345,-0.00000123,0.00000305,-0.0000
 2367,-0.00000429,0.04004830,-0.02557304,-0.02235235,-0.00959848,-0.059
 96687,0.04108909,-0.03647589,0.04835208,0.01067019,0.14702205,-0.28854
 180,-0.01412049,-0.00014630,-0.00184843,0.00532643,-0.01786368,-0.1524
 4515,0.04793048,0.00055877,-0.00340956,0.00559279,-0.10100627,0.737407
 96,0.00020963,-0.00049828,-0.00171404,-0.00058554,0.00009490,-0.000066
 15,-0.00007087,0.00107656,0.00019276,-0.00022444,0.00001793,-0.0000002
 3,0.00006762,0.00011719,-0.00015609,-0.00003143,-0.00011167,-0.0001095
 4,-0.00000783,0.00001003,0.00002477,-0.00010255,-0.00010091,0.00020331
 ,-0.00007623,-0.00014984,-0.00001122,0.00010759,0.00009256,-0.00009049
 ,0.00001255,-0.00001807,-0.00003379,-0.00002577,0.00000544,-0.00001880
 ,-0.00000883,-0.00000890,-0.00000036,0.00031294,0.00006129,0.00004034,
 -0.00009183,-0.00014852,-0.00002800,-0.00003191,0.00015480,0.00010328,
 -0.00013216,0.00010721,0.00004819,0.00002754,-0.00002907,-0.00005823,0
 .00000063,-0.00010701,-0.00009680,-0.00000330,0.00000920,-0.00001632,0
 .00009368,0.00002919,0.00010325,0.00000798,0.00003221,0.00000681,-0.00
 000279,0.00001599,-0.00000381,0.00000018,0.00000912,-0.00000095,0.0317
 7387,-0.02278758,-0.02009103,-0.03464599,0.00090937,0.03619563,0.01508
 744,0.05056261,-0.02575550,0.02407701,0.03763758,-0.12152714,0.0044657
 2,0.00536983,0.00258230,0.14597991,-0.00324881,-0.19560074,0.00366028,
 0.00525675,0.00367280,-0.24714078,-0.19859923,0.46543086,-0.00025736,0
 .00042985,-0.00009539,-0.00005252,-0.00005243,0.00005951,-0.00001878,-
 0.00014680,-0.00002410,0.00004509,0.00000336,0.00004130,0.00004038,0.0
 0002742,0.00002146,-0.00000170,0.00000963,0.00001772,-0.00000137,0.000
 00004,-0.00000987,-0.00001927,-0.00001777,-0.00001163,-0.00003514,-0.0
 0000759,-0.00000761,-0.00000694,-0.00000884,0.00001788,-0.00000597,-0.
 00000203,0.00001474,0.00000535,0.00000862,0.00000477,0.00000130,-0.000
 00061,0.00001330,-0.00001635,0.00003747,0.00010540,0.00001895,-0.00006
 679,-0.00001361,-0.00003952,-0.00000163,-0.00001566,-0.00000011,0.0000
 4211,0.00000022,-0.00000334,0.00001373,0.00002267,-0.00000221,-0.00001
 374,-0.00003164,-0.00001086,0.00000950,-0.00000311,0.00004694,-0.00002
 970,-0.00000948,-0.00001734,-0.00002400,-0.00000811,0.00000663,-0.0000
 1251,0.00000337,0.00000115,-0.00001839,0.00000073,0.00389921,0.0004698
 3,0.00349688,-0.00025459,0.00402069,0.00255039,0.00034007,-0.00004485,
 -0.00099244,-0.25055604,0.00641099,0.15530454,-0.00085816,-0.00165300,
 -0.00244530,0.00191645,0.00541039,0.00285197,-0.00049708,-0.00029311,-
 0.00046185,-0.01015104,-0.00412061,0.01443641,0.25811669,-0.00103522,0
 .00046303,0.00047182,-0.00013818,-0.00022397,0.00018769,-0.00007449,-0
 .00015409,-0.00003559,0.00003356,-0.00000413,0.00007156,0.00003321,0.0
 0001087,0.00001911,-0.00000727,0.00000630,0.00001546,0.00000843,0.0000
 0295,-0.00000963,0.00000174,0.00000468,0.00000058,-0.00000690,0.000005
 79,0.00000401,-0.00000128,-0.00000296,0.00001470,-0.00000248,-0.000000
 13,0.00001090,0.00000369,0.00000434,0.00000355,0.00000233,-0.00000027,
 0.00000495,-0.00001260,0.00020019,0.00002516,0.00001434,-0.00004054,-0
 .00003274,0.00002590,0.00000681,-0.00002707,-0.00000108,0.00001717,-0.
 00001125,-0.00000405,0.00000127,0.00001856,0.00001814,-0.00001380,-0.0
 0002364,-0.00001205,0.00000192,0.00001590,0.00003362,-0.00003731,-0.00
 002647,-0.00000947,-0.00001610,-0.00000244,0.00000168,-0.00001715,0.00
 000852,-0.00000282,-0.00001239,0.00000438,0.00091156,-0.00352616,0.005
 35595,-0.02501515,0.00553761,0.01960923,0.00008766,-0.00134780,0.00008
 918,0.00660313,-0.06990689,0.00508605,-0.00085991,0.00053391,-0.002041
 81,0.00500226,-0.00342557,0.00218887,-0.00029780,-0.00007164,-0.000349
 14,0.02491413,0.00590455,-0.01974736,-0.00945721,0.06565339,0.00059728
 ,-0.00029246,-0.00035437,0.00004786,0.00023340,-0.00020841,0.00014297,
 0.00012905,0.00013110,-0.00005894,-0.00003778,-0.00010885,-0.00001958,
 0.00005523,-0.00010570,0.00000366,0.00000413,-0.00000354,-0.00001038,-
 0.00001761,0.00001318,0.00000677,0.00001415,0.00001339,0.00006604,-0.0
 0000371,0.00003045,-0.00000772,-0.00000371,-0.00002573,-0.00000160,0.0
 0000195,-0.00001476,-0.00001405,-0.00001301,-0.00002822,-0.00000023,-0
 .00000364,-0.00001076,0.00003554,-0.00023142,-0.00008464,-0.00000251,-
 0.00000100,0.00003411,-0.00002970,0.00008068,0.00006512,-0.00002144,0.
 00001281,-0.00000809,-0.00002353,-0.00000822,-0.00001361,-0.00001168,-
 0.00002579,-0.00001163,0.00001029,-0.00000312,-0.00001860,0.00000233,0
 .00002311,0.00003131,0.00000146,0.00000482,0.00000525,-0.00001171,0.00
 002348,-0.00000800,-0.00000085,0.00001236,0.00000230,0.00305599,0.0053
 3528,0.00361858,0.01696780,-0.00310901,-0.00628195,-0.00099733,0.00007
 102,-0.00021905,0.15545970,0.00507300,-0.17326879,-0.00290942,-0.00121
 222,-0.00211371,0.00307160,0.00193067,0.00558541,-0.00045371,-0.000363
 16,-0.00071786,-0.00002880,0.00314845,0.00407791,-0.17251702,-0.008795
 71,0.17227609,0.00018032,-0.00038510,-0.00006322,-0.00003877,0.0000222
 2,-0.00002381,0.00001909,0.00011844,-0.00002281,-0.00004676,0.00000204
 ,-0.00000406,-0.00001518,-0.00001543,-0.00002899,-0.00000455,-0.000014
 25,-0.00001229,-0.00000390,-0.00000310,0.00000547,0.00003220,-0.000000
 50,0.00001232,0.00000013,0.00002645,0.00003122,0.00000933,0.00000345,-
 0.00002755,0.00000180,0.00000014,-0.00000705,-0.00002044,0.00000245,-0
 .00000912,-0.00000334,0.00000474,-0.00000906,-0.00007365,0.00000180,-0
 .00003150,0.00002666,0.00002895,0.00000246,0.00003754,-0.00000515,-0.0
 0000942,0.00001399,-0.00003322,-0.00002146,-0.00001734,-0.00000969,0.0
 0000266,0.00001296,0.00002191,0.00001600,-0.00000255,-0.00000549,0.000
 00645,-0.00002753,0.00000127,-0.00002136,0.00000238,-0.00000172,0.0000
 0280,-0.00000720,0.00000054,0.00000287,-0.00000399,0.00000354,0.000003
 55,0.00349338,-0.00018311,0.00451204,-0.00033042,-0.00108608,0.0000562
 3,0.00906229,-0.00871854,0.00171167,-0.00080435,0.00051468,0.00707913,
 -0.00042543,-0.00017898,-0.00055969,-0.17090354,0.14761940,0.02159406,
 -0.00085599,-0.00087149,-0.00292219,-0.00982839,0.02541766,-0.00072857
 ,-0.00077001,0.00112791,-0.00000380,0.17201186,0.00097153,-0.00068252,
 -0.00054243,-0.00006462,-0.00000310,0.00000268,-0.00008734,-0.00011832
 ,-0.00016825,0.00002539,0.00004288,0.00010606,0.00003555,0.00004046,0.
 00004604,-0.00001857,0.00000236,0.00001651,0.00000787,-0.00000836,-0.0
 0001672,-0.00001597,-0.00001003,0.00000281,-0.00003518,-0.00002686,-0.
 00002498,-0.00000221,0.00000595,0.00003236,0.00000083,-0.00001250,0.00
 002174,0.00001847,0.00000234,0.00001044,0.00000523,-0.00000364,0.00001
 690,-0.00018648,-0.00007198,0.00035577,0.00006184,-0.00006480,-0.00000
 359,-0.00000232,-0.00009637,-0.00007557,0.00002507,0.00001144,0.000005
 33,0.00000009,0.00001419,0.00001404,0.00000288,0.00002665,-0.00001415,
 -0.00000565,0.00000483,0.00000256,0.00000168,-0.00003314,-0.00001929,-
 0.00000404,-0.00001756,-0.00001916,0.00001466,-0.00001538,-0.00000081,
 0.00000322,-0.00001473,-0.00000519,-0.00044230,-0.00161779,0.00571108,
 -0.00109389,0.00019032,0.00029921,0.02054446,-0.01663351,-0.00491981,0
 .00091709,0.00254126,0.00232024,-0.00017245,-0.00021555,-0.00038654,0.
 14740975,-0.26206347,-0.00895457,-0.00183734,0.00039937,-0.00134361,-0
 .00366258,0.00525659,0.00296172,-0.00012206,0.00002313,0.00003724,-0.1
 6160829,0.27280224,-0.00062029,0.00057472,0.00019811,-0.00000731,-0.00
 006814,0.00006862,0.00002849,0.00008434,0.00004983,-0.00001668,0.00000
 260,-0.00004003,0.00000344,-0.00001631,-0.00003840,0.00001173,-0.00000
 853,-0.00000154,-0.00001107,0.00000183,0.00000630,0.00001152,-0.000013
 39,-0.00001360,-0.00001221,0.00003005,0.00001210,-0.00000620,-0.000012
 29,-0.00002675,-0.00000350,0.00000237,-0.00000443,-0.00001650,0.000003
 75,-0.00001009,-0.00000480,0.00000541,-0.00000225,0.00001221,0.0001616
 0,-0.00028906,0.00002435,0.00004765,0.00003687,0.00000096,0.00000966,0
 .00002152,0.00001152,-0.00004791,-0.00000514,0.00000024,-0.00000160,-0
 .00000065,-0.00001011,0.00002229,0.00004283,0.00000371,0.00000706,-0.0
 0001582,-0.00004311,0.00002377,-0.00001878,0.00000341,0.00000039,0.000
 00005,-0.00000642,0.00000704,0.00000172,0.00000013,0.00000350,-0.00000
 096,0.00471853,0.00516593,0.00271748,0.00007868,0.00016828,-0.00106131
 ,-0.01290808,0.01783253,0.00678323,0.00689737,0.00267368,0.00198563,-0
 .00059585,-0.00033177,-0.00062161,0.02168917,-0.00904612,-0.06103031,-
 0.00249318,-0.00211984,-0.00218607,0.01377393,-0.01965590,0.00448542,0
 .00058720,-0.00090661,-0.00009906,-0.02824969,0.00655453,0.05108160,-0
 .00028923,-0.00023546,-0.00053105,-0.00003277,0.00006519,0.00003299,0.
 00006185,0.00004542,-0.00007202,0.00000189,-0.00000914,-0.00003323,0.0
 0001297,-0.00001842,-0.00000298,0.00001164,0.00000497,-0.00000370,-0.0
 0000406,0.00000521,-0.00000138,0.00000292,-0.00000084,-0.00000691,-0.0
 0000644,0.00002026,0.00001730,-0.00000677,-0.00000169,0.00000069,-0.00
 000340,-0.00000147,0.00000156,-0.00000082,0.00000160,-0.00000343,0.000
 00077,0.00000089,0.00000346,0.00000990,0.00003625,0.00004002,0.0000090
 3,-0.00000933,-0.00004590,0.00004276,-0.00002005,-0.00002456,-0.000001
 22,0.00000359,-0.00000565,-0.00000269,0.00000547,0.00001342,0.00001157
 ,-0.00001827,-0.00000884,-0.00000874,-0.00000212,0.00000631,0.00000448
 ,-0.00000679,0.00000636,-0.00000188,-0.00000582,-0.00000124,0.00000048
 ,-0.00000072,-0.00000184,0.00000068,-0.00000115,0.00000056,-0.00118934
 ,0.00040965,-0.00004242,0.00065035,0.00521787,0.00399599,-0.00139389,0
 .00249000,0.00657481,0.00964140,0.01922708,-0.01297942,0.00019960,0.00
 077268,-0.00060496,0.00053611,-0.02543574,0.01616103,-0.00029660,-0.00
 117037,0.00071933,-0.07678209,-0.04303078,0.04358983,-0.00086251,-0.00
 188535,-0.00234528,-0.00072060,-0.00068430,-0.00285160,0.07040467,-0.0
 0023061,-0.00003879,-0.00037503,-0.00009215,-0.00002352,0.00006867,-0.
 00000155,-0.00000444,-0.00008188,0.00002157,0.00001106,0.00001510,0.00
 004195,0.00002883,0.00002022,0.00000639,0.00000645,0.00000864,-0.00000
 010,0.00000154,-0.00000714,-0.00002790,-0.00002114,-0.00001040,-0.0000
 3153,-0.00002566,-0.00002383,-0.00000505,-0.00000497,0.00001579,-0.000
 00401,-0.00000550,0.00001116,0.00000855,0.00000654,0.00000540,0.000001
 16,-0.00000109,0.00001440,-0.00002912,0.00003469,0.00007694,0.00002937
 ,-0.00001646,0.00002629,-0.00004171,-0.00006173,-0.00001816,0.00001959
 ,0.00000731,0.00001479,0.00000725,0.00001618,0.00000796,-0.00002450,0.
 00002749,0.00001451,-0.00000104,0.00001478,-0.00002160,-0.00000181,-0.
 00000534,-0.00001563,-0.00000903,-0.00001367,-0.00001230,0.00001265,-0
 .00000771,0.,0.00000414,-0.00001546,-0.00000595,0.00046924,0.00016966,
 -0.00094706,0.00573466,-0.00178590,0.00083856,0.00197596,0.00248626,0.
 00153901,-0.00984081,-0.01635861,0.01839707,-0.00038898,-0.00098337,0.
 00074901,0.00372495,0.00491061,-0.00283247,0.00005294,-0.00000983,-0.0
 0008300,-0.04301468,-0.26547575,0.14102380,-0.00079996,0.00042297,-0.0
 0206925,-0.00179747,0.00034560,-0.00115459,0.04423166,0.27636897,-0.00
 046513,-0.00020350,-0.00063200,-0.00014517,-0.00002208,0.00006225,0.00
 008165,0.00014843,-0.00000924,-0.00003977,-0.00002237,-0.00005394,-0.0
 0001005,-0.00000050,-0.00004541,0.00000111,-0.00000595,-0.00001157,-0.
 00000451,-0.00000609,0.00000723,0.00002533,0.00001001,0.00002007,0.000
 03052,0.00001953,0.00003118,0.00000483,0.00000236,-0.00002057,0.000000
 69,0.00000220,-0.00001078,-0.00001718,-0.00000302,-0.00001467,-0.00000
 219,0.00000215,-0.00001088,-0.00000667,0.00000716,-0.00005381,0.000018
 14,0.00003181,-0.00001342,0.00002278,0.00001357,0.00001689,-0.00000430
 ,-0.00001043,-0.00001844,-0.00001567,-0.00000701,-0.00000102,0.0000048
 5,-0.00000521,0.00000559,-0.00000290,-0.00000493,-0.00000045,-0.000008
 29,0.00001080,0.00000437,0.00000027,-0.00000056,0.00000633,-0.00000677
 ,0.00000790,-0.00000249,-0.00000310,0.00000591,0.00000358,-0.00011691,
 -0.00104962,-0.00032112,0.00379163,0.00127483,0.00537949,0.00679100,0.
 00116498,0.00282972,0.00157275,-0.00459875,0.00624559,-0.00001374,-0.0
 0019650,0.00002374,0.00157425,0.01985595,-0.00603728,0.00011876,0.0008
 2343,-0.00056259,0.04360795,0.14116382,-0.15178842,-0.00290361,-0.0011
 9667,-0.00217890,-0.00228329,-0.00202262,-0.00202545,-0.05159723,-0.15
 518904,0.14917643||-0.00000932,-0.00000286,-0.00003501,-0.00000123,-0.
 00001065,0.00000110,-0.00000175,-0.00000004,0.00002762,0.00000934,-0.0
 0000689,-0.00000989,0.00001841,-0.00000134,-0.00000010,-0.00000662,0.0
 0001715,0.00001018,0.00000488,0.00000150,-0.00000008,-0.00000815,0.000
 00987,-0.00000432,-0.00000613,-0.00000562,0.00000533,0.00000568,-0.000
 01842,-0.00000248,0.00000245,0.00000134,0.00000150,-0.00000196,-0.0000
 0090,0.00000128,-0.00000159,-0.00000078,-0.00000133,-0.00007453,0.0000
 2410,-0.00005047,0.00000872,0.00005860,0.00006529,0.00005827,-0.000077
 45,0.00000377,0.00006050,-0.00006866,-0.00000826,0.00000111,-0.0000055
 0,-0.00000640,0.00001116,0.00006754,0.00006096,-0.00000351,0.00000630,
 -0.00000529,-0.00006983,0.00000543,-0.00005592,-0.00000430,0.00000863,
 0.00000145,-0.00000201,-0.00000387,-0.00000512,0.00000461,0.00000016,0
 .00000742,0.00000432,0.,0.00001037,0.00000204,0.00000705,-0.00001320,-
 0.00000437,-0.00000982,-0.00000342,-0.00000444,-0.00000572,-0.00000252
 ,-0.00000307,0.00000068,0.00000816,0.00000711,0.00000374,-0.00000543,0
 .00000374,-0.00000054,-0.00000174,0.00000041,0.00000629,0.00000973,-0.
 00000173,0.00000381,-0.00000045,0.00000183,-0.00000083,-0.00000125,-0.
 00000003,-0.00000227,-0.00000149|||@


 "A LITTLE BIT GOES A LONG WAY"
 R.S. MULLIKEN AS QUOTED BY K. RUEDENBERG
 Job cpu time:  0 days  0 hours  6 minutes 27.0 seconds.
 File lengths (MBytes):  RWF=    350 Int=      0 D2E=      0 Chk=      7 Scr=      1
 Normal termination of Gaussian 09 at Tue Sep 07 08:16:25 2021.
