 Entering Link 1 = b:\programy\g09w\l1.exe PID=     22132.
  
 Copyright (c) 1988,1990,1992,1993,1995,1998,2003,2009, Gaussian, Inc.
                  All Rights Reserved.
  
 This is part of the Gaussian(R) 09 program.  It is based on
 the Gaussian(R) 03 system (copyright 2003, Gaussian, Inc.),
 the Gaussian(R) 98 system (copyright 1998, Gaussian, Inc.),
 the Gaussian(R) 94 system (copyright 1995, Gaussian, Inc.),
 the Gaussian 92(TM) system (copyright 1992, Gaussian, Inc.),
 the Gaussian 90(TM) system (copyright 1990, Gaussian, Inc.),
 the Gaussian 88(TM) system (copyright 1988, Gaussian, Inc.),
 the Gaussian 86(TM) system (copyright 1986, Carnegie Mellon
 University), and the Gaussian 82(TM) system (copyright 1983,
 Carnegie Mellon University). Gaussian is a federally registered
 trademark of Gaussian, Inc.
  
 This software contains proprietary and confidential information,
 including trade secrets, belonging to Gaussian, Inc.
  
 This software is provided under written license and may be
 used, copied, transmitted, or stored only in accord with that
 written license.
  
 The following legend is applicable only to US Government
 contracts under FAR:
  
                    RESTRICTED RIGHTS LEGEND
  
 Use, reproduction and disclosure by the US Government is
 subject to restrictions as set forth in subparagraphs (a)
 and (c) of the Commercial Computer Software - Restricted
 Rights clause in FAR 52.227-19.
  
 Gaussian, Inc.
 340 Quinnipiac St., Bldg. 40, Wallingford CT 06492
  
  
 ---------------------------------------------------------------
 Warning -- This program may not be used in any manner that
 competes with the business of Gaussian, Inc. or will provide
 assistance to any competitor of Gaussian, Inc.  The licensee
 of this program is prohibited from giving any competitor of
 Gaussian, Inc. access to this program.  By using this program,
 the user acknowledges that Gaussian, Inc. is engaged in the
 business of creating and licensing software in the field of
 computational chemistry and represents and warrants to the
 licensee that it is not a competitor of Gaussian, Inc. and that
 it will not use this program in any manner prohibited above.
 ---------------------------------------------------------------
  

 Cite this work as:
 Gaussian 09, Revision A.02,
 M. J. Frisch, G. W. Trucks, H. B. Schlegel, G. E. Scuseria, 
 M. A. Robb, J. R. Cheeseman, G. Scalmani, V. Barone, B. Mennucci, 
 G. A. Petersson, H. Nakatsuji, M. Caricato, X. Li, H. P. Hratchian, 
 A. F. Izmaylov, J. Bloino, G. Zheng, J. L. Sonnenberg, M. Hada, 
 M. Ehara, K. Toyota, R. Fukuda, J. Hasegawa, M. Ishida, T. Nakajima, 
 Y. Honda, O. Kitao, H. Nakai, T. Vreven, J. A. Montgomery, Jr., 
 J. E. Peralta, F. Ogliaro, M. Bearpark, J. J. Heyd, E. Brothers, 
 K. N. Kudin, V. N. Staroverov, R. Kobayashi, J. Normand, 
 K. Raghavachari, A. Rendell, J. C. Burant, S. S. Iyengar, J. Tomasi, 
 M. Cossi, N. Rega, J. M. Millam, M. Klene, J. E. Knox, J. B. Cross, 
 V. Bakken, C. Adamo, J. Jaramillo, R. Gomperts, R. E. Stratmann, 
 O. Yazyev, A. J. Austin, R. Cammi, C. Pomelli, J. W. Ochterski, 
 R. L. Martin, K. Morokuma, V. G. Zakrzewski, G. A. Voth, 
 P. Salvador, J. J. Dannenberg, S. Dapprich, A. D. Daniels, 
 O. Farkas, J. B. Foresman, J. V. Ortiz, J. Cioslowski, 
 and D. J. Fox, Gaussian, Inc., Wallingford CT, 2009.
 
 ******************************************
 Gaussian 09:  IA32W-G09RevA.02 11-Jun-2009
                06-Sep-2021 
 ******************************************
 %nprocshared=12
 Will use up to   12 processors via shared memory.
 ----------------------------------------------
 # opt freq=noraman hf/6-311g geom=connectivity
 ----------------------------------------------
 1/18=20,19=15,38=1,57=2/1,3;
 2/9=110,12=2,17=6,18=5,40=1/2;
 3/5=4,6=6,11=9,16=1,25=1,30=1,71=1/1,2,3;
 4//1;
 5/5=2,38=5/2;
 6/7=2,8=2,9=2,10=2,28=1/1;
 7//1,2,3,16;
 1/18=20,19=15/3(2);
 2/9=110/2;
 99//99;
 2/9=110/2;
 3/5=4,6=6,11=9,16=1,25=1,30=1,71=1/1,2,3;
 4/5=5,16=3/1;
 5/5=2,38=5/2;
 7//1,2,3,16;
 1/18=20,19=15/3(-5);
 2/9=110/2;
 6/7=2,8=2,9=2,10=2,19=2,28=1/1;
 99/9=1/99;
 -----
 M0001
 -----
 Symbolic Z-matrix:
 Charge =  0 Multiplicity = 1
 C                     0.28856  -0.10334  -0.71131 
 H                     0.66555  -0.2858   -1.7534 
 C                    -1.21589   0.00797  -0.77519 
 C                    -1.98846   0.08719   0.38525 
 C                    -1.85025   0.02658  -2.01911 
 C                    -3.37266   0.17622   0.30394 
 H                    -1.48425   0.09621   1.36364 
 C                    -3.2356    0.11847  -2.09801 
 H                    -1.25652  -0.03058  -2.93901 
 C                    -3.99888   0.19062  -0.93808 
 H                    -3.96954   0.23613   1.21977 
 H                    -3.72518   0.13346  -3.07724 
 H                    -5.08944   0.26029  -1.00206 
 C                     0.71617  -1.31987   0.0723 
 C                     0.15146  -2.55684  -0.25825 
 C                     1.68763  -1.26581   1.07096 
 C                     0.54752  -3.71192   0.4024 
 H                    -0.61351  -2.60752  -1.04238 
 C                     2.08437  -2.42484   1.73061 
 H                     2.14347  -0.30433   1.33982 
 C                     1.51622  -3.64874   1.3996 
 H                     0.09663  -4.67362   0.13691 
 H                     2.84848  -2.36888   2.51277 
 H                     1.82904  -4.55961   1.91975 
 C                     0.89779   1.18994  -0.23091 
 C                     1.78274   1.87556  -1.06624 
 C                     0.59502   1.72504   1.02329 
 C                     2.35399   3.07397  -0.65215 
 H                     2.03016   1.46942  -2.05421 
 C                     1.16662   2.92282   1.43487 
 H                    -0.11379   1.19125   1.67602 
 C                     2.04808   3.59933   0.59815 
 H                     3.04617   3.60432  -1.31421 
 H                     0.92017   3.33392   2.41916 
 H                     2.49814   4.54298   0.92257 
 

 GradGradGradGradGradGradGradGradGradGradGradGradGradGradGradGradGradGrad
 Berny optimization.
 Initialization pass.
                           ----------------------------
                           !    Initial Parameters    !
                           ! (Angstroms and Degrees)  !
 --------------------------                            --------------------------
 ! Name  Definition              Value          Derivative Info.                !
 --------------------------------------------------------------------------------
 ! R1    R(1,2)                  1.1231         estimate D2E/DX2                !
 ! R2    R(1,3)                  1.5099         estimate D2E/DX2                !
 ! R3    R(1,14)                 1.5089         estimate D2E/DX2                !
 ! R4    R(1,25)                 1.5082         estimate D2E/DX2                !
 ! R5    R(3,4)                  1.3963         estimate D2E/DX2                !
 ! R6    R(3,5)                  1.3965         estimate D2E/DX2                !
 ! R7    R(4,6)                  1.3894         estimate D2E/DX2                !
 ! R8    R(4,7)                  1.1007         estimate D2E/DX2                !
 ! R9    R(5,8)                  1.3906         estimate D2E/DX2                !
 ! R10   R(5,9)                  1.0964         estimate D2E/DX2                !
 ! R11   R(6,10)                 1.391          estimate D2E/DX2                !
 ! R12   R(6,11)                 1.0948         estimate D2E/DX2                !
 ! R13   R(8,10)                 1.3904         estimate D2E/DX2                !
 ! R14   R(8,12)                 1.0949         estimate D2E/DX2                !
 ! R15   R(10,13)                1.0947         estimate D2E/DX2                !
 ! R16   R(14,15)                1.3994         estimate D2E/DX2                !
 ! R17   R(14,16)                1.3943         estimate D2E/DX2                !
 ! R18   R(15,17)                1.3884         estimate D2E/DX2                !
 ! R19   R(15,18)                1.0966         estimate D2E/DX2                !
 ! R20   R(16,19)                1.3914         estimate D2E/DX2                !
 ! R21   R(16,20)                1.0975         estimate D2E/DX2                !
 ! R22   R(17,21)                1.3917         estimate D2E/DX2                !
 ! R23   R(17,22)                1.0948         estimate D2E/DX2                !
 ! R24   R(19,21)                1.3893         estimate D2E/DX2                !
 ! R25   R(19,23)                1.0949         estimate D2E/DX2                !
 ! R26   R(21,24)                1.0946         estimate D2E/DX2                !
 ! R27   R(25,26)                1.3968         estimate D2E/DX2                !
 ! R28   R(25,27)                1.3968         estimate D2E/DX2                !
 ! R29   R(26,28)                1.3907         estimate D2E/DX2                !
 ! R30   R(26,29)                1.0965         estimate D2E/DX2                !
 ! R31   R(27,30)                1.3895         estimate D2E/DX2                !
 ! R32   R(27,31)                1.1015         estimate D2E/DX2                !
 ! R33   R(28,32)                1.3903         estimate D2E/DX2                !
 ! R34   R(28,33)                1.0949         estimate D2E/DX2                !
 ! R35   R(30,32)                1.391          estimate D2E/DX2                !
 ! R36   R(30,34)                1.0948         estimate D2E/DX2                !
 ! R37   R(32,35)                1.0947         estimate D2E/DX2                !
 ! A1    A(2,1,3)              107.8892         estimate D2E/DX2                !
 ! A2    A(2,1,14)             104.8183         estimate D2E/DX2                !
 ! A3    A(2,1,25)             107.4138         estimate D2E/DX2                !
 ! A4    A(3,1,14)             111.3321         estimate D2E/DX2                !
 ! A5    A(3,1,25)             110.6559         estimate D2E/DX2                !
 ! A6    A(14,1,25)            114.2967         estimate D2E/DX2                !
 ! A7    A(1,3,4)              121.3526         estimate D2E/DX2                !
 ! A8    A(1,3,5)              119.425          estimate D2E/DX2                !
 ! A9    A(4,3,5)              119.2218         estimate D2E/DX2                !
 ! A10   A(3,4,6)              120.4109         estimate D2E/DX2                !
 ! A11   A(3,4,7)              119.06           estimate D2E/DX2                !
 ! A12   A(6,4,7)              120.5202         estimate D2E/DX2                !
 ! A13   A(3,5,8)              120.2621         estimate D2E/DX2                !
 ! A14   A(3,5,9)              120.0472         estimate D2E/DX2                !
 ! A15   A(8,5,9)              119.6907         estimate D2E/DX2                !
 ! A16   A(4,6,10)             120.0925         estimate D2E/DX2                !
 ! A17   A(4,6,11)             119.8469         estimate D2E/DX2                !
 ! A18   A(10,6,11)            120.0606         estimate D2E/DX2                !
 ! A19   A(5,8,10)             120.1967         estimate D2E/DX2                !
 ! A20   A(5,8,12)             119.8081         estimate D2E/DX2                !
 ! A21   A(10,8,12)            119.9952         estimate D2E/DX2                !
 ! A22   A(6,10,8)             119.815          estimate D2E/DX2                !
 ! A23   A(6,10,13)            120.0886         estimate D2E/DX2                !
 ! A24   A(8,10,13)            120.0963         estimate D2E/DX2                !
 ! A25   A(1,14,15)            118.4004         estimate D2E/DX2                !
 ! A26   A(1,14,16)            122.5585         estimate D2E/DX2                !
 ! A27   A(15,14,16)           118.9883         estimate D2E/DX2                !
 ! A28   A(14,15,17)           120.5241         estimate D2E/DX2                !
 ! A29   A(14,15,18)           119.4227         estimate D2E/DX2                !
 ! A30   A(17,15,18)           120.0524         estimate D2E/DX2                !
 ! A31   A(14,16,19)           120.395          estimate D2E/DX2                !
 ! A32   A(14,16,20)           119.9222         estimate D2E/DX2                !
 ! A33   A(19,16,20)           119.6828         estimate D2E/DX2                !
 ! A34   A(15,17,21)           120.1167         estimate D2E/DX2                !
 ! A35   A(15,17,22)           119.8633         estimate D2E/DX2                !
 ! A36   A(21,17,22)           120.0201         estimate D2E/DX2                !
 ! A37   A(16,19,21)           120.2821         estimate D2E/DX2                !
 ! A38   A(16,19,23)           119.6768         estimate D2E/DX2                !
 ! A39   A(21,19,23)           120.0411         estimate D2E/DX2                !
 ! A40   A(17,21,19)           119.6931         estimate D2E/DX2                !
 ! A41   A(17,21,24)           120.1091         estimate D2E/DX2                !
 ! A42   A(19,21,24)           120.1977         estimate D2E/DX2                !
 ! A43   A(1,25,26)            119.1022         estimate D2E/DX2                !
 ! A44   A(1,25,27)            121.8003         estimate D2E/DX2                !
 ! A45   A(26,25,27)           119.0963         estimate D2E/DX2                !
 ! A46   A(25,26,28)           120.3431         estimate D2E/DX2                !
 ! A47   A(25,26,29)           120.0002         estimate D2E/DX2                !
 ! A48   A(28,26,29)           119.6567         estimate D2E/DX2                !
 ! A49   A(25,27,30)           120.4657         estimate D2E/DX2                !
 ! A50   A(25,27,31)           119.072          estimate D2E/DX2                !
 ! A51   A(30,27,31)           120.4572         estimate D2E/DX2                !
 ! A52   A(26,28,32)           120.2012         estimate D2E/DX2                !
 ! A53   A(26,28,33)           119.8064         estimate D2E/DX2                !
 ! A54   A(32,28,33)           119.9924         estimate D2E/DX2                !
 ! A55   A(27,30,32)           120.116          estimate D2E/DX2                !
 ! A56   A(27,30,34)           119.8273         estimate D2E/DX2                !
 ! A57   A(32,30,34)           120.0566         estimate D2E/DX2                !
 ! A58   A(28,32,30)           119.7777         estimate D2E/DX2                !
 ! A59   A(28,32,35)           120.1202         estimate D2E/DX2                !
 ! A60   A(30,32,35)           120.102          estimate D2E/DX2                !
 ! D1    D(2,1,3,4)            172.7644         estimate D2E/DX2                !
 ! D2    D(2,1,3,5)             -6.9611         estimate D2E/DX2                !
 ! D3    D(14,1,3,4)            58.2722         estimate D2E/DX2                !
 ! D4    D(14,1,3,5)          -121.4533         estimate D2E/DX2                !
 ! D5    D(25,1,3,4)           -69.9927         estimate D2E/DX2                !
 ! D6    D(25,1,3,5)           110.2818         estimate D2E/DX2                !
 ! D7    D(2,1,14,15)          -65.7725         estimate D2E/DX2                !
 ! D8    D(2,1,14,16)          111.5564         estimate D2E/DX2                !
 ! D9    D(3,1,14,15)           50.6143         estimate D2E/DX2                !
 ! D10   D(3,1,14,16)         -132.0567         estimate D2E/DX2                !
 ! D11   D(25,1,14,15)         176.8996         estimate D2E/DX2                !
 ! D12   D(25,1,14,16)          -5.7714         estimate D2E/DX2                !
 ! D13   D(2,1,25,26)           -1.6129         estimate D2E/DX2                !
 ! D14   D(2,1,25,27)          177.9919         estimate D2E/DX2                !
 ! D15   D(3,1,25,26)         -119.1478         estimate D2E/DX2                !
 ! D16   D(3,1,25,27)           60.457          estimate D2E/DX2                !
 ! D17   D(14,1,25,26)         114.2158         estimate D2E/DX2                !
 ! D18   D(14,1,25,27)         -66.1795         estimate D2E/DX2                !
 ! D19   D(1,3,4,6)           -179.3815         estimate D2E/DX2                !
 ! D20   D(1,3,4,7)              1.7014         estimate D2E/DX2                !
 ! D21   D(5,3,4,6)              0.3446         estimate D2E/DX2                !
 ! D22   D(5,3,4,7)           -178.5725         estimate D2E/DX2                !
 ! D23   D(1,3,5,8)            179.5175         estimate D2E/DX2                !
 ! D24   D(1,3,5,9)             -0.5276         estimate D2E/DX2                !
 ! D25   D(4,3,5,8)             -0.2139         estimate D2E/DX2                !
 ! D26   D(4,3,5,9)            179.7409         estimate D2E/DX2                !
 ! D27   D(3,4,6,10)            -0.1723         estimate D2E/DX2                !
 ! D28   D(3,4,6,11)           179.8941         estimate D2E/DX2                !
 ! D29   D(7,4,6,10)           178.7288         estimate D2E/DX2                !
 ! D30   D(7,4,6,11)            -1.2047         estimate D2E/DX2                !
 ! D31   D(3,5,8,10)            -0.0891         estimate D2E/DX2                !
 ! D32   D(3,5,8,12)           179.94           estimate D2E/DX2                !
 ! D33   D(9,5,8,10)           179.9559         estimate D2E/DX2                !
 ! D34   D(9,5,8,12)            -0.015          estimate D2E/DX2                !
 ! D35   D(4,6,10,8)            -0.1336         estimate D2E/DX2                !
 ! D36   D(4,6,10,13)          179.9714         estimate D2E/DX2                !
 ! D37   D(11,6,10,8)          179.7997         estimate D2E/DX2                !
 ! D38   D(11,6,10,13)          -0.0952         estimate D2E/DX2                !
 ! D39   D(5,8,10,6)             0.264          estimate D2E/DX2                !
 ! D40   D(5,8,10,13)         -179.841          estimate D2E/DX2                !
 ! D41   D(12,8,10,6)         -179.7652         estimate D2E/DX2                !
 ! D42   D(12,8,10,13)           0.1297         estimate D2E/DX2                !
 ! D43   D(1,14,15,17)         177.7364         estimate D2E/DX2                !
 ! D44   D(1,14,15,18)          -2.5971         estimate D2E/DX2                !
 ! D45   D(16,14,15,17)          0.3101         estimate D2E/DX2                !
 ! D46   D(16,14,15,18)        179.9765         estimate D2E/DX2                !
 ! D47   D(1,14,16,19)        -177.5402         estimate D2E/DX2                !
 ! D48   D(1,14,16,20)           2.4531         estimate D2E/DX2                !
 ! D49   D(15,14,16,19)         -0.2263         estimate D2E/DX2                !
 ! D50   D(15,14,16,20)        179.767          estimate D2E/DX2                !
 ! D51   D(14,15,17,21)         -0.2042         estimate D2E/DX2                !
 ! D52   D(14,15,17,22)        179.8373         estimate D2E/DX2                !
 ! D53   D(18,15,17,21)       -179.8686         estimate D2E/DX2                !
 ! D54   D(18,15,17,22)          0.173          estimate D2E/DX2                !
 ! D55   D(14,16,19,21)          0.0373         estimate D2E/DX2                !
 ! D56   D(14,16,19,23)        179.9806         estimate D2E/DX2                !
 ! D57   D(20,16,19,21)       -179.9561         estimate D2E/DX2                !
 ! D58   D(20,16,19,23)         -0.0128         estimate D2E/DX2                !
 ! D59   D(15,17,21,19)          0.011          estimate D2E/DX2                !
 ! D60   D(15,17,21,24)       -179.9443         estimate D2E/DX2                !
 ! D61   D(22,17,21,19)        179.9694         estimate D2E/DX2                !
 ! D62   D(22,17,21,24)          0.0141         estimate D2E/DX2                !
 ! D63   D(16,19,21,17)          0.0723         estimate D2E/DX2                !
 ! D64   D(16,19,21,24)       -179.9725         estimate D2E/DX2                !
 ! D65   D(23,19,21,17)       -179.8708         estimate D2E/DX2                !
 ! D66   D(23,19,21,24)          0.0845         estimate D2E/DX2                !
 ! D67   D(1,25,26,28)         179.6595         estimate D2E/DX2                !
 ! D68   D(1,25,26,29)          -0.3306         estimate D2E/DX2                !
 ! D69   D(27,25,26,28)          0.0439         estimate D2E/DX2                !
 ! D70   D(27,25,26,29)       -179.9462         estimate D2E/DX2                !
 ! D71   D(1,25,27,30)        -179.629          estimate D2E/DX2                !
 ! D72   D(1,25,27,31)          -0.4531         estimate D2E/DX2                !
 ! D73   D(26,25,27,30)         -0.0243         estimate D2E/DX2                !
 ! D74   D(26,25,27,31)        179.1516         estimate D2E/DX2                !
 ! D75   D(25,26,28,32)          0.0001         estimate D2E/DX2                !
 ! D76   D(25,26,28,33)       -179.9706         estimate D2E/DX2                !
 ! D77   D(29,26,28,32)        179.9903         estimate D2E/DX2                !
 ! D78   D(29,26,28,33)          0.0195         estimate D2E/DX2                !
 ! D79   D(25,27,30,32)         -0.0396         estimate D2E/DX2                !
 ! D80   D(25,27,30,34)        179.8598         estimate D2E/DX2                !
 ! D81   D(31,27,30,32)       -179.204          estimate D2E/DX2                !
 ! D82   D(31,27,30,34)          0.6953         estimate D2E/DX2                !
 ! D83   D(26,28,32,30)         -0.0642         estimate D2E/DX2                !
 ! D84   D(26,28,32,35)       -179.9719         estimate D2E/DX2                !
 ! D85   D(33,28,32,30)        179.9065         estimate D2E/DX2                !
 ! D86   D(33,28,32,35)         -0.0012         estimate D2E/DX2                !
 ! D87   D(27,30,32,28)          0.0838         estimate D2E/DX2                !
 ! D88   D(27,30,32,35)        179.9915         estimate D2E/DX2                !
 ! D89   D(34,30,32,28)       -179.8153         estimate D2E/DX2                !
 ! D90   D(34,30,32,35)          0.0924         estimate D2E/DX2                !
 --------------------------------------------------------------------------------
 Trust Radius=3.00D-01 FncErr=1.00D-07 GrdErr=1.00D-07
 Number of steps in this run= 197 maximum allowed number of steps= 210.
 GradGradGradGradGradGradGradGradGradGradGradGradGradGradGradGradGradGrad

                          Input orientation:                          
 ---------------------------------------------------------------------
 Center     Atomic      Atomic             Coordinates (Angstroms)
 Number     Number       Type             X           Y           Z
 ---------------------------------------------------------------------
      1          6           0        0.288556   -0.103343   -0.711310
      2          1           0        0.665547   -0.285801   -1.753399
      3          6           0       -1.215892    0.007975   -0.775189
      4          6           0       -1.988460    0.087186    0.385248
      5          6           0       -1.850245    0.026582   -2.019106
      6          6           0       -3.372663    0.176216    0.303938
      7          1           0       -1.484248    0.096212    1.363640
      8          6           0       -3.235597    0.118475   -2.098011
      9          1           0       -1.256525   -0.030584   -2.939014
     10          6           0       -3.998879    0.190615   -0.938082
     11          1           0       -3.969536    0.236127    1.219772
     12          1           0       -3.725176    0.133459   -3.077239
     13          1           0       -5.089437    0.260286   -1.002057
     14          6           0        0.716165   -1.319866    0.072296
     15          6           0        0.151460   -2.556838   -0.258254
     16          6           0        1.687632   -1.265806    1.070957
     17          6           0        0.547523   -3.711922    0.402397
     18          1           0       -0.613507   -2.607523   -1.042382
     19          6           0        2.084373   -2.424844    1.730611
     20          1           0        2.143467   -0.304328    1.339819
     21          6           0        1.516223   -3.648736    1.399603
     22          1           0        0.096627   -4.673624    0.136909
     23          1           0        2.848478   -2.368876    2.512768
     24          1           0        1.829042   -4.559609    1.919746
     25          6           0        0.897793    1.189944   -0.230915
     26          6           0        1.782742    1.875564   -1.066238
     27          6           0        0.595020    1.725042    1.023292
     28          6           0        2.353988    3.073971   -0.652154
     29          1           0        2.030158    1.469421   -2.054210
     30          6           0        1.166618    2.922819    1.434874
     31          1           0       -0.113793    1.191254    1.676016
     32          6           0        2.048077    3.599332    0.598152
     33          1           0        3.046168    3.604318   -1.314210
     34          1           0        0.920166    3.333915    2.419163
     35          1           0        2.498138    4.542984    0.922569
 ---------------------------------------------------------------------
                    Distance matrix (angstroms):
                    1          2          3          4          5
     1  C    0.000000
     2  H    1.123104   0.000000
     3  C    1.509913   2.140797   0.000000
     4  C    2.534470   3.428802   1.396334   0.000000
     5  C    2.510315   2.548998   1.396453   2.409086   0.000000
     6  C    3.809646   4.555572   2.417536   1.389445   2.781489
     7  H    2.736434   3.805717   2.157403   1.100710   3.403201
     8  C    3.793652   3.937146   2.416873   2.779012   1.390636
     9  H    2.712053   2.272703   2.164550   3.405924   1.096358
    10  C    4.303479   4.759053   2.793726   2.409084   2.410840
    11  H    4.687821   5.531379   3.408002   2.154827   3.876292
    12  H    4.665162   4.605082   3.407593   3.873905   2.155559
    13  H    5.398107   5.829456   3.888377   3.401564   3.403141
    14  C    1.508913   2.098813   2.492837   3.064756   3.573982
    15  C    2.498739   2.767192   2.952141   3.461822   3.712342
    16  C    2.546608   3.159439   3.668954   3.976736   4.871892
    17  C    3.785400   4.049653   4.281818   4.567792   5.058595
    18  H    2.682209   2.744433   2.697237   3.345157   3.069531
    19  C    3.818023   4.327458   4.805142   4.970741   5.962473
    20  H    2.772765   3.428206   3.981971   4.258793   5.228922
    21  C    4.304989   4.687686   5.056254   5.221956   6.043893
    22  H    4.652288   4.811436   4.946918   5.203323   5.525455
    23  H    4.698991   5.225377   5.742750   5.827053   6.953711
    24  H    5.399431   5.754229   6.115318   6.206505   7.077066
    25  C    1.508158   2.133008   2.482127   3.150586   3.478902
    26  C    2.504923   2.528204   3.544630   4.418944   4.186321
    27  C    2.538849   3.429064   3.076078   3.124747   4.256792
    28  C    3.790097   3.918118   4.707390   5.371586   5.369424
    29  H    2.703728   2.243536   3.782666   4.900083   4.140114
    30  C    3.812448   4.550978   4.365438   4.370017   5.423987
    31  H    2.745395   3.814440   2.936525   2.529708   4.245663
    32  C    4.303534   4.747151   5.043551   5.354823   5.900127
    33  H    4.659899   4.581842   5.602623   6.372272   6.105074
    34  H    4.691858   5.529688   5.082175   4.810215   6.189658
    35  H    5.398163   5.816903   6.102681   6.346055   6.925300
                    6          7          8          9         10
     6  C    0.000000
     7  H    2.166906   0.000000
     8  C    2.406550   3.879530   0.000000
     9  H    3.877828   4.310542   2.155512   0.000000
    10  C    1.391031   3.410309   1.390410   3.401936   0.000000
    11  H    1.094805   2.493378   3.400029   4.972632   2.158533
    12  H    3.399773   4.974390   1.094897   2.477954   2.157354
    13  H    2.158704   4.315186   2.158228   4.304372   1.094652
    14  C    4.360096   2.917990   4.732387   3.823839   5.053124
    15  C    4.495007   3.513510   4.691925   3.943458   5.023542
    16  C    5.317361   3.464329   6.016375   5.125788   6.204338
    17  C    5.522243   4.421986   5.935990   5.288844   6.139743
    18  H    4.144239   3.722541   3.926929   3.263633   4.393313
    19  C    6.211292   4.384683   7.030569   6.220890   7.139223
    20  H    5.633087   3.649838   6.397795   5.472047   6.569796
    21  C    6.303328   4.798828   7.000355   6.293072   7.114895
    22  H    5.965301   5.172559   6.250024   5.731505   6.449000
    23  H    7.075240   5.115630   8.028833   7.213916   8.083666
    24  H    7.217798   5.741412   7.979812   7.323957   8.043411
    25  C    4.421596   3.068057   4.660366   3.669411   5.047390
    26  C    5.598515   4.443379   5.416239   4.046953   6.023505
    27  C    4.319588   2.663133   5.195885   4.712781   5.225453
    28  C    6.488885   5.259518   6.486056   5.282404   6.982436
    29  H    6.035206   5.091016   5.436465   3.719567   6.263416
    30  C    5.424750   3.875805   6.302787   5.807332   6.306997
    31  H    3.678741   1.781808   5.013960   4.908893   4.788390
    32  C    6.417843   5.033402   6.877708   6.050473   7.109504
    33  H    7.454642   6.324741   7.226757   5.862223   7.837571
    34  H    5.733552   4.168699   6.929234   6.690881   6.734124
    35  H    7.342865   5.985626   7.847031   7.065892   8.038430
                   11         12         13         14         15
    11  H    0.000000
    12  H    4.305178   0.000000
    13  H    2.488229   2.486699   0.000000
    14  C    5.068887   5.635356   6.111966   0.000000
    15  C    5.193055   5.496607   5.996368   1.399377   0.000000
    16  C    5.855041   6.961606   7.249483   1.394271   2.406946
    17  C    6.054669   6.719433   7.037488   2.420607   1.388360
    18  H    4.946374   4.619103   5.316004   2.160694   1.096631
    19  C    6.632612   7.963115   8.132708   2.417225   2.776537
    20  H    6.138023   7.358196   7.623522   2.162203   3.405251
    21  C    6.724437   7.862530   8.042584   2.797404   2.409006
    22  H    6.466215   6.931449   7.248170   3.411114   2.154053
    23  H    7.412368   8.984586   9.070666   3.406329   3.871408
    24  H    7.557285   8.822930   8.923770   3.891979   3.401331
    25  C    5.167704   5.530784   6.107852   2.534575   3.820490
    26  C    6.403304   6.116879   7.059751   3.555927   4.791670
    27  C    4.805273   6.165354   6.209718   3.192262   4.491504
    28  C    7.179445   7.175227   7.965163   4.744796   6.059068
    29  H    6.945236   5.996270   7.297785   3.745494   4.792257
    30  C    5.800402   7.215909   7.222599   4.478828   5.824420
    31  H    3.998397   6.062545   5.726762   3.092971   4.226104
    32  C    6.921649   7.671455   8.040771   5.123380   6.498386
    33  H    8.184490   7.810648   8.801594   5.621290   6.888703
    34  H    5.911347   7.876075   7.567514   5.216040   6.516168
    35  H    7.776127   8.612317   8.922834   6.186388   7.570252
                   16         17         18         19         20
    16  C    0.000000
    17  C    2.780342   0.000000
    18  H    3.400242   2.157562   0.000000
    19  C    1.391372   2.404710   3.873166   0.000000
    20  H    1.097503   3.877821   4.310510   2.157034   0.000000
    21  C    2.411585   1.391687   3.403405   1.389342   3.403244
    22  H    3.875173   1.094834   2.482698   3.398239   4.972655
    23  H    2.154796   3.398798   4.968036   1.094878   2.476935
    24  H    3.404347   2.159447   4.307074   2.158283   4.306111
    25  C    2.889537   4.955004   4.166925   4.280449   2.500352
    26  C    3.800639   5.907847   5.083369   5.138760   3.266675
    27  C    3.184532   5.472508   4.949613   4.465426   2.572202
    28  C    4.716652   7.100967   6.421657   5.998935   3.927491
    29  H    4.167188   5.922789   4.963288   5.430755   3.831248
    30  C    4.236564   6.743076   6.315879   5.433897   3.373092
    31  H    3.106183   5.108872   4.697883   4.232148   2.728557
    32  C    4.901330   7.466218   6.949851   6.129802   3.974636
    33  H    5.590416   7.919428   7.214851   6.822520   4.810016
    34  H    4.854286   7.338257   7.045220   5.915470   3.987263
    35  H    5.866940   8.498173   8.041960   7.026717   4.878148
                   21         22         23         24         25
    21  C    0.000000
    22  H    2.158713   0.000000
    23  H    2.156868   4.304561   0.000000
    24  H    1.094575   2.488527   2.488018   0.000000
    25  C    5.143332   5.929468   4.898793   6.208859   0.000000
    26  C    6.055517   6.868945   5.653348   7.094342   1.396772
    27  C    5.465136   6.478966   4.904771   6.467092   1.396795
    28  C    7.078583   8.108238   6.315523   8.072285   2.418161
    29  H    6.195843   6.802686   6.021582   7.223709   2.164431
    30  C    6.580942   7.780459   5.656195   7.527326   2.418672
    31  H    5.114573   6.067118   4.706350   6.075067   2.158633
    32  C    7.311613   8.512503   6.318695   8.268186   2.795649
    33  H    7.893814   8.906731   7.096752   8.865076   3.408554
    34  H    7.081822   8.367053   6.020712   7.961356   3.408815
    35  H    8.264139   9.556693   7.101076   9.181462   3.890309
                   26         27         28         29         30
    26  C    0.000000
    27  C    2.408210   0.000000
    28  C    1.390672   2.778614   0.000000
    29  H    1.096474   3.405287   2.155275   0.000000
    30  C    2.780632   1.389530   2.405905   3.877083   0.000000
    31  H    3.403687   1.101542   3.880070   4.311437   2.167007
    32  C    2.410804   2.409373   1.390270   3.401745   1.390951
    33  H    2.155534   3.873463   1.094852   2.477430   3.399208
    34  H    3.875415   2.154680   3.399471   4.971869   1.094789
    35  H    3.403274   3.401881   2.158363   4.304301   2.158781
                   31         32         33         34         35
    31  H    0.000000
    32  C    3.410911   0.000000
    33  H    4.974906   2.157160   0.000000
    34  H    2.492456   2.158404   4.304774   0.000000
    35  H    4.315549   1.094660   2.486888   2.488300   0.000000
 Stoichiometry    C19H16
 Framework group  C1[X(C19H16)]
 Deg. of freedom    99
 Full point group                 C1      NOp   1
 Largest Abelian subgroup         C1      NOp   1
 Largest concise Abelian subgroup C1      NOp   1
                         Standard orientation:                         
 ---------------------------------------------------------------------
 Center     Atomic      Atomic             Coordinates (Angstroms)
 Number     Number       Type             X           Y           Z
 ---------------------------------------------------------------------
      1          6           0       -0.012884    0.012354   -0.760054
      2          1           0        0.017317    0.014974   -1.882749
      3          6           0        0.744336   -1.201976   -0.278539
      4          6           0        1.010526   -1.401614    1.077571
      5          6           0        1.193529   -2.143170   -1.207227
      6          6           0        1.720225   -2.519759    1.497853
      7          1           0        0.634779   -0.670386    1.809474
      8          6           0        1.901303   -3.262873   -0.783917
      9          1           0        0.988369   -2.002060   -2.274934
     10          6           0        2.168157   -3.451834    0.567498
     11          1           0        1.925249   -2.666236    2.563268
     12          1           0        2.249149   -3.996625   -1.518363
     13          1           0        2.727680   -4.332485    0.898635
     14          6           0        0.680591    1.288952   -0.352368
     15          6           0        2.044708    1.424449   -0.633582
     16          6           0        0.004073    2.353701    0.241454
     17          6           0        2.716040    2.598630   -0.320280
     18          1           0        2.583909    0.591316   -1.100220
     19          6           0        0.678368    3.530201    0.553044
     20          1           0       -1.066750    2.265432    0.465193
     21          6           0        2.033684    3.655750    0.274428
     22          1           0        3.783983    2.691965   -0.542649
     23          1           0        0.135472    4.359061    1.018891
     24          1           0        2.562878    4.581749    0.520549
     25          6           0       -1.461461   -0.065915   -0.347693
     26          6           0       -2.448946   -0.083745   -1.335381
     27          6           0       -1.842234   -0.129242    0.994706
     28          6           0       -3.792288   -0.162592   -0.984403
     29          1           0       -2.166652   -0.035620   -2.393799
     30          6           0       -3.185034   -0.208392    1.343155
     31          1           0       -1.062517   -0.129387    1.772805
     32          6           0       -4.162943   -0.224345    0.354123
     33          1           0       -4.559030   -0.176456   -1.765821
     34          1           0       -3.471625   -0.259864    2.398512
     35          1           0       -5.220715   -0.286843    0.628881
 ---------------------------------------------------------------------
 Rotational constants (GHZ):      0.4045379      0.3807101      0.2327987
 Standard basis: 6-311G (5D, 7F)
 There are   295 symmetry adapted basis functions of A   symmetry.
 Integral buffers will be    262144 words long.
 Raffenetti 1 integral format.
 Two-electron integral symmetry is turned on.
   295 basis functions,   574 primitive gaussians,   295 cartesian basis functions
    65 alpha electrons       65 beta electrons
       nuclear repulsion energy      1290.5187636671 Hartrees.
 NAtoms=   35 NActive=   35 NUniq=   35 SFac= 7.50D-01 NAtFMM=   80 NAOKFM=F Big=F
 One-electron integrals computed using PRISM.
 PrsmSu:  requested number of processors reduced to:  10 ShMem   1 Linda.
 NBasis=   295 RedAO= T  NBF=   295
 NBsUse=   295 1.00D-06 NBFU=   295
 Harris functional with IExCor=  205 diagonalized for initial guess.
 ExpMin= 1.03D-01 ExpMax= 4.56D+03 ExpMxC= 6.82D+02 IAcc=1 IRadAn=         1 AccDes= 0.00D+00
 HarFok:  IExCor=  205 AccDes= 0.00D+00 IRadAn=         1 IDoV= 1
 ScaDFX=  1.000000  1.000000  1.000000  1.000000
 FoFCou: FMM=F IPFlag=           0 FMFlag=      100000 FMFlg1=           0
         NFxFlg=           0 DoJE=T BraDBF=F KetDBF=T FulRan=T
         Omega=  0.000000  0.000000  1.000000  0.000000  0.000000 ICntrl=     500 IOpCl=  0
         NMat0=    1 NMatS0=    1 NMatT0=    0 NMatD0=    1 NMtDS0=    0 NMtDT0=    0
         I1Cent=           4 NGrid=           0.
 Petite list used in FoFCou.
 Initial guess orbital symmetries:
       Occupied  (A) (A) (A) (A) (A) (A) (A) (A) (A) (A) (A) (A)
                 (A) (A) (A) (A) (A) (A) (A) (A) (A) (A) (A) (A)
                 (A) (A) (A) (A) (A) (A) (A) (A) (A) (A) (A) (A)
                 (A) (A) (A) (A) (A) (A) (A) (A) (A) (A) (A) (A)
                 (A) (A) (A) (A) (A) (A) (A) (A) (A) (A) (A) (A)
                 (A) (A) (A) (A) (A)
       Virtual   (A) (A) (A) (A) (A) (A) (A) (A) (A) (A) (A) (A)
                 (A) (A) (A) (A) (A) (A) (A) (A) (A) (A) (A) (A)
                 (A) (A) (A) (A) (A) (A) (A) (A) (A) (A) (A) (A)
                 (A) (A) (A) (A) (A) (A) (A) (A) (A) (A) (A) (A)
                 (A) (A) (A) (A) (A) (A) (A) (A) (A) (A) (A) (A)
                 (A) (A) (A) (A) (A) (A) (A) (A) (A) (A) (A) (A)
                 (A) (A) (A) (A) (A) (A) (A) (A) (A) (A) (A) (A)
                 (A) (A) (A) (A) (A) (A) (A) (A) (A) (A) (A) (A)
                 (A) (A) (A) (A) (A) (A) (A) (A) (A) (A) (A) (A)
                 (A) (A) (A) (A) (A) (A) (A) (A) (A) (A) (A) (A)
                 (A) (A) (A) (A) (A) (A) (A) (A) (A) (A) (A) (A)
                 (A) (A) (A) (A) (A) (A) (A) (A) (A) (A) (A) (A)
                 (A) (A) (A) (A) (A) (A) (A) (A) (A) (A) (A) (A)
                 (A) (A) (A) (A) (A) (A) (A) (A) (A) (A) (A) (A)
                 (A) (A) (A) (A) (A) (A) (A) (A) (A) (A) (A) (A)
                 (A) (A) (A) (A) (A) (A) (A) (A) (A) (A) (A) (A)
                 (A) (A) (A) (A) (A) (A) (A) (A) (A) (A) (A) (A)
                 (A) (A) (A) (A) (A) (A) (A) (A) (A) (A) (A) (A)
                 (A) (A) (A) (A) (A) (A) (A) (A) (A) (A) (A) (A)
                 (A) (A)
 The electronic state of the initial guess is 1-A.
 Requested convergence on RMS density matrix=1.00D-08 within 128 cycles.
 Requested convergence on MAX density matrix=1.00D-06.
 Requested convergence on             energy=1.00D-06.
 No special actions if energy rises.
 Integral accuracy reduced to 1.0D-05 until final iterations.
 Initial convergence to 1.0D-05 achieved.  Increase integral accuracy.
 SCF Done:  E(RHF) =  -728.672366851     A.U. after   14 cycles
             Convg  =    0.8601D-08             -V/T =  2.0001

 **********************************************************************

            Population analysis using the SCF density.

 **********************************************************************

 Orbital symmetries:
       Occupied  (A) (A) (A) (A) (A) (A) (A) (A) (A) (A) (A) (A)
                 (A) (A) (A) (A) (A) (A) (A) (A) (A) (A) (A) (A)
                 (A) (A) (A) (A) (A) (A) (A) (A) (A) (A) (A) (A)
                 (A) (A) (A) (A) (A) (A) (A) (A) (A) (A) (A) (A)
                 (A) (A) (A) (A) (A) (A) (A) (A) (A) (A) (A) (A)
                 (A) (A) (A) (A) (A)
       Virtual   (A) (A) (A) (A) (A) (A) (A) (A) (A) (A) (A) (A)
                 (A) (A) (A) (A) (A) (A) (A) (A) (A) (A) (A) (A)
                 (A) (A) (A) (A) (A) (A) (A) (A) (A) (A) (A) (A)
                 (A) (A) (A) (A) (A) (A) (A) (A) (A) (A) (A) (A)
                 (A) (A) (A) (A) (A) (A) (A) (A) (A) (A) (A) (A)
                 (A) (A) (A) (A) (A) (A) (A) (A) (A) (A) (A) (A)
                 (A) (A) (A) (A) (A) (A) (A) (A) (A) (A) (A) (A)
                 (A) (A) (A) (A) (A) (A) (A) (A) (A) (A) (A) (A)
                 (A) (A) (A) (A) (A) (A) (A) (A) (A) (A) (A) (A)
                 (A) (A) (A) (A) (A) (A) (A) (A) (A) (A) (A) (A)
                 (A) (A) (A) (A) (A) (A) (A) (A) (A) (A) (A) (A)
                 (A) (A) (A) (A) (A) (A) (A) (A) (A) (A) (A) (A)
                 (A) (A) (A) (A) (A) (A) (A) (A) (A) (A) (A) (A)
                 (A) (A) (A) (A) (A) (A) (A) (A) (A) (A) (A) (A)
                 (A) (A) (A) (A) (A) (A) (A) (A) (A) (A) (A) (A)
                 (A) (A) (A) (A) (A) (A) (A) (A) (A) (A) (A) (A)
                 (A) (A) (A) (A) (A) (A) (A) (A) (A) (A) (A) (A)
                 (A) (A) (A) (A) (A) (A) (A) (A) (A) (A) (A) (A)
                 (A) (A) (A) (A) (A) (A) (A) (A) (A) (A) (A) (A)
                 (A) (A)
 The electronic state is 1-A.
 Alpha  occ. eigenvalues --  -11.25765 -11.25236 -11.25190 -11.24928 -11.24524
 Alpha  occ. eigenvalues --  -11.24435 -11.24420 -11.24371 -11.24223 -11.24169
 Alpha  occ. eigenvalues --  -11.24143 -11.24120 -11.24077 -11.24041 -11.24031
 Alpha  occ. eigenvalues --  -11.23976 -11.23735 -11.23645 -11.23503  -1.18613
 Alpha  occ. eigenvalues --   -1.15872  -1.15573  -1.09027  -1.02379  -1.02236
 Alpha  occ. eigenvalues --   -1.01875  -1.01485  -1.01101  -0.92921  -0.84296
 Alpha  occ. eigenvalues --   -0.83341  -0.82346  -0.81899  -0.81152  -0.77592
 Alpha  occ. eigenvalues --   -0.70864  -0.70370  -0.68984  -0.65701  -0.63892
 Alpha  occ. eigenvalues --   -0.63606  -0.62507  -0.61712  -0.61597  -0.59713
 Alpha  occ. eigenvalues --   -0.58848  -0.58486  -0.58319  -0.56824  -0.55013
 Alpha  occ. eigenvalues --   -0.51725  -0.50928  -0.50242  -0.49850  -0.49381
 Alpha  occ. eigenvalues --   -0.48442  -0.47931  -0.47512  -0.46327  -0.35006
 Alpha  occ. eigenvalues --   -0.34317  -0.33937  -0.33336  -0.32605  -0.31428
 Alpha virt. eigenvalues --    0.11519   0.12283   0.12789   0.13555   0.14960
 Alpha virt. eigenvalues --    0.15082   0.15602   0.16238   0.16479   0.16926
 Alpha virt. eigenvalues --    0.18905   0.19183   0.19229   0.21246   0.21301
 Alpha virt. eigenvalues --    0.21579   0.23576   0.23987   0.24988   0.25419
 Alpha virt. eigenvalues --    0.26927   0.31352   0.33220   0.34255   0.35772
 Alpha virt. eigenvalues --    0.37529   0.39834   0.40474   0.41527   0.43131
 Alpha virt. eigenvalues --    0.44090   0.44426   0.44896   0.45455   0.45630
 Alpha virt. eigenvalues --    0.45859   0.46752   0.47205   0.48035   0.50574
 Alpha virt. eigenvalues --    0.51096   0.51444   0.52093   0.54928   0.56032
 Alpha virt. eigenvalues --    0.57349   0.57839   0.58483   0.58955   0.59367
 Alpha virt. eigenvalues --    0.60152   0.60437   0.60626   0.61157   0.61454
 Alpha virt. eigenvalues --    0.62068   0.62247   0.62951   0.63526   0.63717
 Alpha virt. eigenvalues --    0.64282   0.64539   0.65216   0.65911   0.66403
 Alpha virt. eigenvalues --    0.67189   0.67810   0.68585   0.69882   0.72353
 Alpha virt. eigenvalues --    0.73141   0.73924   0.74303   0.75245   0.75749
 Alpha virt. eigenvalues --    0.76724   0.78874   0.79319   0.79847   0.81352
 Alpha virt. eigenvalues --    0.81511   0.82190   0.82501   0.82930   0.83242
 Alpha virt. eigenvalues --    0.83822   0.84350   0.84778   0.84864   0.85469
 Alpha virt. eigenvalues --    0.85984   0.86266   0.86437   0.87682   0.88169
 Alpha virt. eigenvalues --    0.90313   0.90759   0.92203   0.93387   0.94963
 Alpha virt. eigenvalues --    0.95976   0.96399   0.97064   0.98180   0.99663
 Alpha virt. eigenvalues --    0.99928   1.02317   1.02999   1.04664   1.06201
 Alpha virt. eigenvalues --    1.07092   1.08214   1.09213   1.10239   1.10667
 Alpha virt. eigenvalues --    1.11371   1.11746   1.12468   1.12691   1.13829
 Alpha virt. eigenvalues --    1.14951   1.16573   1.19501   1.20602   1.20963
 Alpha virt. eigenvalues --    1.23893   1.25829   1.27274   1.28336   1.28989
 Alpha virt. eigenvalues --    1.29409   1.32117   1.33022   1.46683   1.47668
 Alpha virt. eigenvalues --    1.52125   1.54108   1.57151   2.53553   2.55689
 Alpha virt. eigenvalues --    2.56120   2.57756   2.62076   2.62275   2.63917
 Alpha virt. eigenvalues --    2.66328   2.67194   2.68492   2.71938   2.74321
 Alpha virt. eigenvalues --    2.78327   2.83456   2.86550   2.91584   2.94354
 Alpha virt. eigenvalues --    2.94591   2.94747   2.96029   2.98042   2.98548
 Alpha virt. eigenvalues --    3.00013   3.02211   3.03892   3.04493   3.06438
 Alpha virt. eigenvalues --    3.08516   3.09186   3.09727   3.10116   3.13188
 Alpha virt. eigenvalues --    3.15187   3.16227   3.17696   3.18418   3.19364
 Alpha virt. eigenvalues --    3.21629   3.24131   3.25152   3.27644   3.28764
 Alpha virt. eigenvalues --    3.31334   3.33869   3.34264   3.35675   3.41049
 Alpha virt. eigenvalues --    3.41427   3.44177   3.45105   3.49922   3.52413
 Alpha virt. eigenvalues --    3.53471   3.55901   3.57495   3.58237   3.59641
 Alpha virt. eigenvalues --    3.62304   3.64155   3.65011   3.66228   3.66612
 Alpha virt. eigenvalues --    3.67659   3.69214   3.71261   3.72463   3.74079
 Alpha virt. eigenvalues --    3.76118   3.77408   3.78601   3.85481   3.87914
 Alpha virt. eigenvalues --    3.91182  24.25997  24.30049  24.31794  24.50508
 Alpha virt. eigenvalues --   24.50791  24.51025  24.53121  24.54589  24.56507
 Alpha virt. eigenvalues --   24.76272  24.77089  24.79108  24.80197  24.80664
 Alpha virt. eigenvalues --   24.82721  24.87265  25.04667  25.05787  25.07110
          Condensed to atoms (all electrons):
              1          2          3          4          5          6
     1  C    6.095830   0.473382   0.151467  -0.055069  -0.024589   0.003145
     2  H    0.473382   0.503536  -0.070675   0.005569   0.001478  -0.000265
     3  C    0.151467  -0.070675   5.388480   0.446370   0.492931  -0.058365
     4  C   -0.055069   0.005569   0.446370   5.070199  -0.072065   0.479000
     5  C   -0.024589   0.001478   0.492931  -0.072065   5.092218  -0.030616
     6  C    0.003145  -0.000265  -0.058365   0.479000  -0.030616   5.040104
     7  H    0.000287   0.000114  -0.044703   0.388988   0.004071  -0.028399
     8  C    0.006849   0.001572  -0.073534  -0.026573   0.453993  -0.078545
     9  H   -0.000043   0.002339  -0.050726   0.004326   0.400479  -0.000281
    10  C    0.001266  -0.000001  -0.018781  -0.091165  -0.086266   0.491204
    11  H   -0.000347   0.000011   0.006023  -0.038934  -0.000479   0.397220
    12  H   -0.000340  -0.000039   0.006931  -0.000684  -0.039687   0.006238
    13  H   -0.000012  -0.000001  -0.001545   0.007885   0.007485  -0.042911
    14  C    0.037635  -0.062552  -0.097965  -0.007778  -0.001674  -0.000572
    15  C   -0.085752  -0.004910  -0.006415  -0.008114   0.000635  -0.000328
    16  C   -0.028892   0.001116   0.000232   0.001664  -0.000442   0.000022
    17  C    0.008053   0.000689  -0.001537  -0.000225  -0.000047  -0.000007
    18  H   -0.002373  -0.000143   0.003919  -0.000560   0.001757  -0.000233
    19  C    0.012053  -0.000132  -0.000791   0.000051   0.000007   0.000005
    20  H   -0.011134  -0.000275   0.000401   0.000074  -0.000018   0.000000
    21  C    0.000427   0.000031   0.000126   0.000036  -0.000003   0.000002
    22  H   -0.000355   0.000004   0.000014   0.000014  -0.000005   0.000002
    23  H   -0.000361   0.000014   0.000012   0.000000   0.000000   0.000000
    24  H   -0.000014  -0.000002   0.000002   0.000000   0.000000   0.000000
    25  C    0.119091  -0.076084  -0.138939  -0.003613  -0.001905   0.001901
    26  C   -0.024866   0.006525  -0.004298   0.000728   0.000610   0.000029
    27  C   -0.070599   0.004442  -0.003282  -0.012055   0.000528  -0.000461
    28  C    0.008267   0.001466  -0.000598   0.000052  -0.000011  -0.000001
    29  H   -0.002080   0.002824   0.000164  -0.000025   0.000187   0.000001
    30  C    0.002418  -0.000225   0.001982  -0.000099   0.000045  -0.000101
    31  H    0.000907  -0.000038  -0.003660   0.002119  -0.000215   0.001155
    32  C    0.001721   0.000004  -0.000054  -0.000003  -0.000013   0.000002
    33  H   -0.000413  -0.000034   0.000020  -0.000001   0.000001   0.000000
    34  H   -0.000371   0.000012   0.000026   0.000037   0.000002  -0.000001
    35  H   -0.000026  -0.000002  -0.000003   0.000001   0.000000   0.000000
              7          8          9         10         11         12
     1  C    0.000287   0.006849  -0.000043   0.001266  -0.000347  -0.000340
     2  H    0.000114   0.001572   0.002339  -0.000001   0.000011  -0.000039
     3  C   -0.044703  -0.073534  -0.050726  -0.018781   0.006023   0.006931
     4  C    0.388988  -0.026573   0.004326  -0.091165  -0.038934  -0.000684
     5  C    0.004071   0.453993   0.400479  -0.086266  -0.000479  -0.039687
     6  C   -0.028399  -0.078545  -0.000281   0.491204   0.397220   0.006238
     7  H    0.496790   0.000012  -0.000272   0.004552  -0.003332   0.000015
     8  C    0.000012   5.059714  -0.034893   0.497515   0.005975   0.396955
     9  H   -0.000272  -0.034893   0.509821   0.005244   0.000025  -0.004207
    10  C    0.004552   0.497515   0.005244   5.034129  -0.039831  -0.040678
    11  H   -0.003332   0.005975   0.000025  -0.039831   0.514841  -0.000206
    12  H    0.000015   0.396955  -0.004207  -0.040678  -0.000206   0.518103
    13  H   -0.000172  -0.042556  -0.000185   0.399671  -0.004473  -0.004585
    14  C    0.001073  -0.000418   0.000134   0.000050   0.000023   0.000011
    15  C    0.000179  -0.000112   0.000300   0.000103   0.000017  -0.000002
    16  C   -0.000048   0.000021  -0.000036  -0.000002   0.000000   0.000000
    17  C    0.000038   0.000014  -0.000008   0.000002   0.000001   0.000000
    18  H   -0.000072   0.000118   0.000208  -0.000091   0.000005   0.000005
    19  C   -0.000082   0.000000   0.000000   0.000000   0.000000   0.000000
    20  H    0.000017   0.000000   0.000001   0.000000   0.000000   0.000000
    21  C   -0.000043   0.000000   0.000001   0.000000   0.000000   0.000000
    22  H    0.000005  -0.000001   0.000000   0.000000   0.000000   0.000000
    23  H    0.000000   0.000000   0.000000   0.000000   0.000000   0.000000
    24  H    0.000001   0.000000   0.000000   0.000000   0.000000   0.000000
    25  C   -0.002794  -0.000516   0.000372  -0.000087   0.000027   0.000025
    26  C   -0.000198  -0.000017   0.000264  -0.000008   0.000000   0.000001
    27  C   -0.001100   0.000131  -0.000006  -0.000024   0.000056   0.000000
    28  C    0.000002   0.000002   0.000007   0.000000   0.000000   0.000000
    29  H   -0.000002  -0.000002   0.000059  -0.000001   0.000000   0.000000
    30  C    0.000864   0.000001  -0.000001   0.000001   0.000002   0.000000
    31  H    0.001710  -0.000063   0.000001   0.000007  -0.000062   0.000001
    32  C   -0.000014   0.000000  -0.000002   0.000000   0.000000   0.000000
    33  H    0.000000   0.000000   0.000000   0.000000   0.000000   0.000000
    34  H   -0.000034   0.000000   0.000000   0.000000   0.000001   0.000000
    35  H    0.000000   0.000000   0.000000   0.000000   0.000000   0.000000
             13         14         15         16         17         18
     1  C   -0.000012   0.037635  -0.085752  -0.028892   0.008053  -0.002373
     2  H   -0.000001  -0.062552  -0.004910   0.001116   0.000689  -0.000143
     3  C   -0.001545  -0.097965  -0.006415   0.000232  -0.001537   0.003919
     4  C    0.007885  -0.007778  -0.008114   0.001664  -0.000225  -0.000560
     5  C    0.007485  -0.001674   0.000635  -0.000442  -0.000047   0.001757
     6  C   -0.042911  -0.000572  -0.000328   0.000022  -0.000007  -0.000233
     7  H   -0.000172   0.001073   0.000179  -0.000048   0.000038  -0.000072
     8  C   -0.042556  -0.000418  -0.000112   0.000021   0.000014   0.000118
     9  H   -0.000185   0.000134   0.000300  -0.000036  -0.000008   0.000208
    10  C    0.399671   0.000050   0.000103  -0.000002   0.000002  -0.000091
    11  H   -0.004473   0.000023   0.000017   0.000000   0.000001   0.000005
    12  H   -0.004585   0.000011  -0.000002   0.000000   0.000000   0.000005
    13  H    0.517396   0.000000   0.000000   0.000000   0.000000   0.000001
    14  C    0.000000   5.353417   0.470789   0.501887  -0.056807  -0.045683
    15  C    0.000000   0.470789   5.122390  -0.082933   0.464168   0.397636
    16  C    0.000000   0.501887  -0.082933   5.094268  -0.029944   0.004433
    17  C    0.000000  -0.056807   0.464168  -0.029944   5.060868  -0.035149
    18  H    0.000001  -0.045683   0.397636   0.004433  -0.035149   0.490883
    19  C    0.000000  -0.069481  -0.033330   0.454498  -0.074024  -0.000462
    20  H    0.000000  -0.034712   0.004939   0.393715  -0.000423  -0.000198
    21  C    0.000000  -0.020496  -0.085061  -0.090285   0.480320   0.005234
    22  H    0.000000   0.006154  -0.038443  -0.000443   0.397148  -0.003897
    23  H    0.000000   0.006488  -0.000408  -0.036821   0.006012   0.000017
    24  H    0.000000  -0.001457   0.007442   0.007678  -0.043252  -0.000173
    25  C   -0.000003  -0.066329   0.011416  -0.012497  -0.000880   0.000833
    26  C    0.000000  -0.000657  -0.000259   0.000861   0.000009  -0.000005
    27  C    0.000000   0.006603   0.000765  -0.017868  -0.000021  -0.000041
    28  C    0.000000  -0.000772   0.000005   0.000363   0.000000   0.000000
    29  H    0.000000   0.000503   0.000012   0.000143  -0.000001  -0.000002
    30  C    0.000000   0.000827   0.000016  -0.001452   0.000000   0.000000
    31  H    0.000000   0.001287   0.000028   0.001531  -0.000043   0.000021
    32  C    0.000000  -0.000069   0.000000   0.000127   0.000000   0.000000
    33  H    0.000000   0.000024   0.000000  -0.000007   0.000000   0.000000
    34  H    0.000000   0.000017   0.000000   0.000006   0.000000   0.000000
    35  H    0.000000   0.000002   0.000000  -0.000003   0.000000   0.000000
             19         20         21         22         23         24
     1  C    0.012053  -0.011134   0.000427  -0.000355  -0.000361  -0.000014
     2  H   -0.000132  -0.000275   0.000031   0.000004   0.000014  -0.000002
     3  C   -0.000791   0.000401   0.000126   0.000014   0.000012   0.000002
     4  C    0.000051   0.000074   0.000036   0.000014   0.000000   0.000000
     5  C    0.000007  -0.000018  -0.000003  -0.000005   0.000000   0.000000
     6  C    0.000005   0.000000   0.000002   0.000002   0.000000   0.000000
     7  H   -0.000082   0.000017  -0.000043   0.000005   0.000000   0.000001
     8  C    0.000000   0.000000   0.000000  -0.000001   0.000000   0.000000
     9  H    0.000000   0.000001   0.000001   0.000000   0.000000   0.000000
    10  C    0.000000   0.000000   0.000000   0.000000   0.000000   0.000000
    11  H    0.000000   0.000000   0.000000   0.000000   0.000000   0.000000
    12  H    0.000000   0.000000   0.000000   0.000000   0.000000   0.000000
    13  H    0.000000   0.000000   0.000000   0.000000   0.000000   0.000000
    14  C   -0.069481  -0.034712  -0.020496   0.006154   0.006488  -0.001457
    15  C   -0.033330   0.004939  -0.085061  -0.038443  -0.000408   0.007442
    16  C    0.454498   0.393715  -0.090285  -0.000443  -0.036821   0.007678
    17  C   -0.074024  -0.000423   0.480320   0.397148   0.006012  -0.043252
    18  H   -0.000462  -0.000198   0.005234  -0.003897   0.000017  -0.000173
    19  C    5.078268  -0.036265   0.496438   0.006001   0.395577  -0.042118
    20  H   -0.036265   0.477044   0.005014   0.000017  -0.003500  -0.000170
    21  C    0.496438   0.005014   5.042522  -0.040826  -0.041232   0.399485
    22  H    0.006001   0.000017  -0.040826   0.517603  -0.000213  -0.004406
    23  H    0.395577  -0.003500  -0.041232  -0.000213   0.517798  -0.004467
    24  H   -0.042118  -0.000170   0.399485  -0.004406  -0.004467   0.519367
    25  C   -0.001496   0.000753   0.000119   0.000012   0.000058   0.000001
    26  C   -0.000117  -0.001145  -0.000004   0.000000   0.000004   0.000000
    27  C   -0.000907  -0.001132  -0.000019   0.000000   0.000028   0.000001
    28  C    0.000004  -0.000124   0.000000   0.000000   0.000000   0.000000
    29  H    0.000005   0.000080   0.000000   0.000000   0.000000   0.000000
    30  C   -0.000040   0.000403   0.000000   0.000000  -0.000001   0.000000
    31  H    0.000092   0.000005   0.000001  -0.000001   0.000000   0.000000
    32  C    0.000004   0.000092   0.000000   0.000000  -0.000001   0.000000
    33  H    0.000000   0.000010   0.000000   0.000000   0.000000   0.000000
    34  H   -0.000002   0.000040   0.000000   0.000000   0.000000   0.000000
    35  H    0.000000   0.000009   0.000000   0.000000   0.000000   0.000000
             25         26         27         28         29         30
     1  C    0.119091  -0.024866  -0.070599   0.008267  -0.002080   0.002418
     2  H   -0.076084   0.006525   0.004442   0.001466   0.002824  -0.000225
     3  C   -0.138939  -0.004298  -0.003282  -0.000598   0.000164   0.001982
     4  C   -0.003613   0.000728  -0.012055   0.000052  -0.000025  -0.000099
     5  C   -0.001905   0.000610   0.000528  -0.000011   0.000187   0.000045
     6  C    0.001901   0.000029  -0.000461  -0.000001   0.000001  -0.000101
     7  H   -0.002794  -0.000198  -0.001100   0.000002  -0.000002   0.000864
     8  C   -0.000516  -0.000017   0.000131   0.000002  -0.000002   0.000001
     9  H    0.000372   0.000264  -0.000006   0.000007   0.000059  -0.000001
    10  C   -0.000087  -0.000008  -0.000024   0.000000  -0.000001   0.000001
    11  H    0.000027   0.000000   0.000056   0.000000   0.000000   0.000002
    12  H    0.000025   0.000001   0.000000   0.000000   0.000000   0.000000
    13  H   -0.000003   0.000000   0.000000   0.000000   0.000000   0.000000
    14  C   -0.066329  -0.000657   0.006603  -0.000772   0.000503   0.000827
    15  C    0.011416  -0.000259   0.000765   0.000005   0.000012   0.000016
    16  C   -0.012497   0.000861  -0.017868   0.000363   0.000143  -0.001452
    17  C   -0.000880   0.000009  -0.000021   0.000000  -0.000001   0.000000
    18  H    0.000833  -0.000005  -0.000041   0.000000  -0.000002   0.000000
    19  C   -0.001496  -0.000117  -0.000907   0.000004   0.000005  -0.000040
    20  H    0.000753  -0.001145  -0.001132  -0.000124   0.000080   0.000403
    21  C    0.000119  -0.000004  -0.000019   0.000000   0.000000   0.000000
    22  H    0.000012   0.000000   0.000000   0.000000   0.000000   0.000000
    23  H    0.000058   0.000004   0.000028   0.000000   0.000000  -0.000001
    24  H    0.000001   0.000000   0.000001   0.000000   0.000000   0.000000
    25  C    5.391816   0.499553   0.450927  -0.076897  -0.045471  -0.064428
    26  C    0.499553   5.046692  -0.062969   0.468818   0.394329  -0.034141
    27  C    0.450927  -0.062969   5.098953  -0.029610   0.004766   0.480216
    28  C   -0.076897   0.468818  -0.029610   5.046823  -0.033766  -0.077289
    29  H   -0.045471   0.394329   0.004766  -0.033766   0.506464  -0.000289
    30  C   -0.064428  -0.034141   0.480216  -0.077289  -0.000289   5.046840
    31  H   -0.047964   0.004617   0.386257  -0.000136  -0.000269  -0.026989
    32  C   -0.016027  -0.088913  -0.093612   0.499588   0.005067   0.490205
    33  H    0.007034  -0.039477  -0.000631   0.396375  -0.004075   0.006278
    34  H    0.005971  -0.000374  -0.038515   0.005899   0.000025   0.396978
    35  H   -0.001675   0.007557   0.007980  -0.042541  -0.000179  -0.042933
             31         32         33         34         35
     1  C    0.000907   0.001721  -0.000413  -0.000371  -0.000026
     2  H   -0.000038   0.000004  -0.000034   0.000012  -0.000002
     3  C   -0.003660  -0.000054   0.000020   0.000026  -0.000003
     4  C    0.002119  -0.000003  -0.000001   0.000037   0.000001
     5  C   -0.000215  -0.000013   0.000001   0.000002   0.000000
     6  C    0.001155   0.000002   0.000000  -0.000001   0.000000
     7  H    0.001710  -0.000014   0.000000  -0.000034   0.000000
     8  C   -0.000063   0.000000   0.000000   0.000000   0.000000
     9  H    0.000001  -0.000002   0.000000   0.000000   0.000000
    10  C    0.000007   0.000000   0.000000   0.000000   0.000000
    11  H   -0.000062   0.000000   0.000000   0.000001   0.000000
    12  H    0.000001   0.000000   0.000000   0.000000   0.000000
    13  H    0.000000   0.000000   0.000000   0.000000   0.000000
    14  C    0.001287  -0.000069   0.000024   0.000017   0.000002
    15  C    0.000028   0.000000   0.000000   0.000000   0.000000
    16  C    0.001531   0.000127  -0.000007   0.000006  -0.000003
    17  C   -0.000043   0.000000   0.000000   0.000000   0.000000
    18  H    0.000021   0.000000   0.000000   0.000000   0.000000
    19  C    0.000092   0.000004   0.000000  -0.000002   0.000000
    20  H    0.000005   0.000092   0.000010   0.000040   0.000009
    21  C    0.000001   0.000000   0.000000   0.000000   0.000000
    22  H   -0.000001   0.000000   0.000000   0.000000   0.000000
    23  H    0.000000  -0.000001   0.000000   0.000000   0.000000
    24  H    0.000000   0.000000   0.000000   0.000000   0.000000
    25  C   -0.047964  -0.016027   0.007034   0.005971  -0.001675
    26  C    0.004617  -0.088913  -0.039477  -0.000374   0.007557
    27  C    0.386257  -0.093612  -0.000631  -0.038515   0.007980
    28  C   -0.000136   0.499588   0.396375   0.005899  -0.042541
    29  H   -0.000269   0.005067  -0.004075   0.000025  -0.000179
    30  C   -0.026989   0.490205   0.006278   0.396978  -0.042933
    31  H    0.497382   0.004645   0.000017  -0.003394  -0.000171
    32  C    0.004645   5.033784  -0.041071  -0.039804   0.399431
    33  H    0.000017  -0.041071   0.517981  -0.000206  -0.004555
    34  H   -0.003394  -0.039804  -0.000206   0.514435  -0.004363
    35  H   -0.000171   0.399431  -0.004555  -0.004363   0.516876
 Mulliken atomic charges:
              1
     1  C   -0.615164
     2  H    0.210250
     3  C    0.076773
     4  C   -0.090148
     5  C   -0.198391
     6  C   -0.178946
     7  H    0.182545
     8  C   -0.165644
     9  H    0.167080
    10  C   -0.156810
    11  H    0.163437
    12  H    0.162143
    13  H    0.164003
    14  C    0.080497
    15  C   -0.134773
    16  C   -0.160888
    17  C   -0.174951
    18  H    0.184013
    19  C   -0.183756
    20  H    0.206481
    21  C   -0.151787
    22  H    0.161613
    23  H    0.160995
    24  H    0.162084
    25  C    0.067694
    26  C   -0.173148
    27  C   -0.108800
    28  C   -0.165926
    29  H    0.171531
    30  C   -0.179086
    31  H    0.181226
    32  C   -0.155088
    33  H    0.162731
    34  H    0.163616
    35  H    0.164594
 Sum of Mulliken atomic charges =   0.00000
 Mulliken charges with hydrogens summed into heavy atoms:
              1
     1  C   -0.404914
     3  C    0.076773
     4  C    0.092396
     5  C   -0.031311
     6  C   -0.015510
     8  C   -0.003501
    10  C    0.007194
    14  C    0.080497
    15  C    0.049241
    16  C    0.045593
    17  C   -0.013338
    19  C   -0.022762
    21  C    0.010298
    25  C    0.067694
    26  C   -0.001616
    27  C    0.072425
    28  C   -0.003195
    30  C   -0.015470
    32  C    0.009506
 Sum of Mulliken charges with hydrogens summed into heavy atoms =   0.00000
 Electronic spatial extent (au):  <R**2>=           4932.7070
 Charge=              0.0000 electrons
 Dipole moment (field-independent basis, Debye):
    X=             -0.0928    Y=             -0.1641    Z=             -0.0192  Tot=              0.1895
 Quadrupole moment (field-independent basis, Debye-Ang):
   XX=           -107.7708   YY=           -113.3158   ZZ=           -106.6686
   XY=             -2.7306   XZ=             -1.0700   YZ=              2.6196
 Traceless Quadrupole moment (field-independent basis, Debye-Ang):
   XX=              1.4809   YY=             -4.0641   ZZ=              2.5831
   XY=             -2.7306   XZ=             -1.0700   YZ=              2.6196
 Octapole moment (field-independent basis, Debye-Ang**2):
  XXX=            -28.2832  YYY=              8.2583  ZZZ=              0.6693  XYY=             37.3610
  XXY=              2.0950  XXZ=             -3.4535  XZZ=             -9.8356  YZZ=            -17.9642
  YYZ=             12.3150  XYZ=             -1.4464
 Hexadecapole moment (field-independent basis, Debye-Ang**3):
 XXXX=          -3058.9968 YYYY=          -2908.4470 ZZZZ=           -671.9217 XXXY=             60.8997
 XXXZ=            -16.7700 YYYX=            -63.9500 YYYZ=             76.3276 ZZZX=              6.6525
 ZZZY=             -2.9550 XXYY=          -1018.1077 XXZZ=           -628.9959 YYZZ=           -633.0789
 XXYZ=            -11.3868 YYXZ=              9.9195 ZZXY=            -33.2494
 N-N= 1.290518763667D+03 E-N=-4.277109262579D+03  KE= 7.285998935054D+02
 PrsmSu:  requested number of processors reduced to:  10 ShMem   1 Linda.
 Calling FoFJK, ICntrl=      2127 FMM=F ISym2X=0 I1Cent= 0 IOpClX= 0 NMat=1 NMatS=1 NMatT=0.
 ***** Axes restored to original set *****
 -------------------------------------------------------------------
 Center     Atomic                   Forces (Hartrees/Bohr)
 Number     Number              X              Y              Z
 -------------------------------------------------------------------
      1        6           0.007854460   -0.002392911   -0.021739414
      2        1          -0.010479385    0.007664274    0.021855657
      3        6          -0.010241220   -0.000455105   -0.010144009
      4        6           0.003111092   -0.000241792    0.010944639
      5        6           0.003443652    0.000050142   -0.004737327
      6        6          -0.004327104    0.000952197    0.011596405
      7        1          -0.017396194   -0.006433706   -0.020708769
      8        6          -0.008245336    0.000504361   -0.010895365
      9        1          -0.008957420    0.000827483    0.015094434
     10        6          -0.013376958    0.000867233   -0.003015487
     11        1           0.009048309   -0.000893353   -0.014056213
     12        1           0.007258801   -0.000293575    0.014985806
     13        1           0.016743802   -0.001125613    0.000958811
     14        6           0.006349452   -0.011202762    0.007787540
     15        6          -0.005652960   -0.003034554   -0.005516226
     16        6           0.005563690    0.010578871    0.002533018
     17        6          -0.006134562   -0.010034499   -0.004816709
     18        1           0.012762579   -0.000084442    0.013534788
     19        6           0.008233397   -0.002834373    0.009407264
     20        1          -0.007528629   -0.020208256   -0.005018374
     21        6           0.005304070   -0.009968726    0.007853912
     22        1           0.006914143    0.014621271    0.003992347
     23        1          -0.011645589   -0.000929752   -0.011911751
     24        1          -0.004779021    0.013882347   -0.007828188
     25        6           0.008741302    0.009141177   -0.005404920
     26        6           0.001356890   -0.002832270   -0.005120179
     27        6          -0.008746478   -0.003111425    0.008347968
     28        6           0.008743015    0.008249039   -0.006479972
     29        1          -0.004291880    0.006083475    0.016199042
     30        6          -0.004211461    0.002604122    0.011491284
     31        1           0.021585823    0.016941913   -0.011368167
     32        6           0.006680231    0.011738331    0.002059007
     33        1          -0.010567235   -0.007939317    0.010174183
     34        1           0.003814342   -0.006218611   -0.015026015
     35        1          -0.006927618   -0.014471193   -0.005029018
 -------------------------------------------------------------------
 Cartesian Forces:  Max     0.021855657 RMS     0.009557800

 GradGradGradGradGradGradGradGradGradGradGradGradGradGradGradGradGradGrad
 Berny optimization.
 Internal  Forces:  Max     0.028835928 RMS     0.007792352
 Search for a local minimum.
 Step number   1 out of a maximum of  197
 All quantities printed in internal units (Hartrees-Bohrs-Radians)
 Mixed Optimization -- RFO/linear search
 Second derivative matrix not updated -- first step.
     Eigenvalues ---    0.00635   0.00648   0.00658   0.01533   0.01538
     Eigenvalues ---    0.01538   0.02136   0.02142   0.02146   0.02170
     Eigenvalues ---    0.02172   0.02173   0.02181   0.02184   0.02184
     Eigenvalues ---    0.02200   0.02201   0.02202   0.02210   0.02211
     Eigenvalues ---    0.02212   0.02214   0.02214   0.02215   0.02215
     Eigenvalues ---    0.02217   0.02219   0.02219   0.02219   0.02226
     Eigenvalues ---    0.04552   0.06389   0.06640   0.15997   0.15998
     Eigenvalues ---    0.16000   0.16000   0.16000   0.16000   0.16000
     Eigenvalues ---    0.16000   0.16000   0.16000   0.16000   0.16000
     Eigenvalues ---    0.16000   0.16000   0.16000   0.18866   0.19350
     Eigenvalues ---    0.22000   0.22000   0.22000   0.22000   0.22000
     Eigenvalues ---    0.22000   0.23467   0.23477   0.23478   0.24972
     Eigenvalues ---    0.24999   0.25000   0.31251   0.31359   0.31460
     Eigenvalues ---    0.31536   0.33512   0.33604   0.33960   0.34057
     Eigenvalues ---    0.34075   0.34088   0.34253   0.34255   0.34258
     Eigenvalues ---    0.34260   0.34263   0.34265   0.34280   0.34281
     Eigenvalues ---    0.34289   0.42375   0.42463   0.42484   0.42549
     Eigenvalues ---    0.42572   0.42620   0.46308   0.46385   0.46435
     Eigenvalues ---    0.46735   0.46751   0.46807   0.47201   0.47205
     Eigenvalues ---    0.47212   0.47327   0.47335   0.474551000.00000
     Eigenvalues --- 1000.000001000.000001000.000001000.000001000.00000
     Eigenvalues --- 1000.000001000.000001000.000001000.000001000.00000
     Eigenvalues --- 1000.000001000.000001000.000001000.000001000.00000
     Eigenvalues --- 1000.000001000.000001000.000001000.000001000.00000
     Eigenvalues --- 1000.000001000.000001000.000001000.000001000.00000
     Eigenvalues --- 1000.000001000.000001000.000001000.000001000.00000
     Eigenvalues --- 1000.000001000.000001000.000001000.000001000.00000
     Eigenvalues --- 1000.000001000.000001000.000001000.000001000.00000
     Eigenvalues --- 1000.000001000.000001000.000001000.000001000.00000
     Eigenvalues --- 1000.000001000.000001000.000001000.000001000.00000
     Eigenvalues --- 1000.000001000.000001000.000001000.000001000.00000
     Eigenvalues --- 1000.000001000.000001000.000001000.000001000.00000
     Eigenvalues --- 1000.000001000.000001000.000001000.000001000.00000
     Eigenvalues --- 1000.000001000.000001000.000001000.000001000.00000
     Eigenvalues --- 1000.000001000.000001000.000001000.000001000.00000
     Eigenvalues --- 1000.000001000.000001000.000001000.000001000.00000
     Eigenvalues --- 1000.000001000.000001000.000001000.000001000.00000
     Eigenvalues --- 1000.000001000.00000
 RFO step:  Lambda=-4.19284818D-02 EMin= 6.34822331D-03
 Linear search not attempted -- first point.
 Maximum step size (   0.300) exceeded in Quadratic search.
    -- Step size scaled by   0.590
 Iteration  1 RMS(Cart)=  0.12544068 RMS(Int)=  0.00302526
 Iteration  2 RMS(Cart)=  0.00611139 RMS(Int)=  0.00028097
 Iteration  3 RMS(Cart)=  0.00001065 RMS(Int)=  0.00028091
 Iteration  4 RMS(Cart)=  0.00000000 RMS(Int)=  0.00028091
 Variable       Old X    -DE/DX   Delta X   Delta X   Delta X     New X
                                 (Linear)    (Quad)   (Total)
    R1        2.12236  -0.02504   0.00000  -0.04172  -0.04172   2.08064
    R2        2.85332   0.02282   0.00000   0.03790   0.03790   2.89122
    R3        2.85143   0.02335   0.00000   0.03868   0.03868   2.89011
    R4        2.85001   0.02379   0.00000   0.03932   0.03932   2.88933
    R5        2.63869  -0.00009   0.00000   0.00000   0.00002   2.63871
    R6        2.63891  -0.00429   0.00000  -0.00497  -0.00496   2.63396
    R7        2.62567  -0.00471   0.00000  -0.00534  -0.00533   2.62034
    R8        2.08004  -0.02643   0.00000  -0.04129  -0.04129   2.03875
    R9        2.62792  -0.00235   0.00000  -0.00274  -0.00275   2.62517
   R10        2.07182  -0.01756   0.00000  -0.02709  -0.02709   2.04473
   R11        2.62867  -0.00532   0.00000  -0.00618  -0.00620   2.62247
   R12        2.06888  -0.01674   0.00000  -0.02570  -0.02570   2.04318
   R13        2.62749  -0.00875   0.00000  -0.01015  -0.01017   2.61733
   R14        2.06906  -0.01665   0.00000  -0.02558  -0.02558   2.04348
   R15        2.06859  -0.01681   0.00000  -0.02580  -0.02580   2.04279
   R16        2.64444  -0.00223   0.00000  -0.00259  -0.00259   2.64185
   R17        2.63479  -0.00241   0.00000  -0.00267  -0.00266   2.63213
   R18        2.62362  -0.00492   0.00000  -0.00569  -0.00569   2.61794
   R19        2.07233  -0.01858   0.00000  -0.02868  -0.02868   2.04366
   R20        2.62931  -0.00120   0.00000  -0.00130  -0.00130   2.62801
   R21        2.07398  -0.02206   0.00000  -0.03414  -0.03414   2.03984
   R22        2.62991  -0.00491   0.00000  -0.00579  -0.00579   2.62411
   R23        2.06894  -0.01666   0.00000  -0.02558  -0.02558   2.04335
   R24        2.62548  -0.00764   0.00000  -0.00878  -0.00879   2.61669
   R25        2.06902  -0.01668   0.00000  -0.02562  -0.02562   2.04340
   R26        2.06845  -0.01664   0.00000  -0.02553  -0.02553   2.04292
   R27        2.63952  -0.00421   0.00000  -0.00487  -0.00485   2.63467
   R28        2.63956   0.00080   0.00000   0.00108   0.00110   2.64066
   R29        2.62799  -0.00259   0.00000  -0.00305  -0.00305   2.62494
   R30        2.07204  -0.01782   0.00000  -0.02749  -0.02749   2.04454
   R31        2.62583  -0.00448   0.00000  -0.00504  -0.00504   2.62079
   R32        2.08161  -0.02884   0.00000  -0.04516  -0.04516   2.03645
   R33        2.62723  -0.00914   0.00000  -0.01063  -0.01064   2.61659
   R34        2.06897  -0.01668   0.00000  -0.02561  -0.02561   2.04336
   R35        2.62852  -0.00564   0.00000  -0.00654  -0.00656   2.62195
   R36        2.06885  -0.01670   0.00000  -0.02565  -0.02565   2.04320
   R37        2.06861  -0.01681   0.00000  -0.02581  -0.02581   2.04280
    A1        1.88302  -0.00846   0.00000  -0.04746  -0.04666   1.83636
    A2        1.82942   0.00364   0.00000  -0.00066  -0.00041   1.82902
    A3        1.87472  -0.01003   0.00000  -0.05135  -0.05043   1.82429
    A4        1.94311  -0.00347   0.00000   0.01150   0.00933   1.95244
    A5        1.93131   0.01532   0.00000   0.05425   0.05310   1.98441
    A6        1.99485   0.00111   0.00000   0.02215   0.02026   2.01511
    A7        2.11800   0.01830   0.00000   0.03705   0.03698   2.15498
    A8        2.08436  -0.00765   0.00000  -0.01546  -0.01551   2.06884
    A9        2.08081  -0.01066   0.00000  -0.02165  -0.02165   2.05916
   A10        2.10157   0.00416   0.00000   0.00933   0.00928   2.11084
   A11        2.07799   0.00370   0.00000   0.01237   0.01226   2.09025
   A12        2.10347  -0.00781   0.00000  -0.02129  -0.02140   2.08208
   A13        2.09897   0.00733   0.00000   0.01613   0.01614   2.11511
   A14        2.09522  -0.00435   0.00000  -0.01008  -0.01009   2.08513
   A15        2.08900  -0.00298   0.00000  -0.00606  -0.00607   2.08292
   A16        2.09601   0.00224   0.00000   0.00462   0.00461   2.10062
   A17        2.09172  -0.00102   0.00000  -0.00202  -0.00203   2.08970
   A18        2.09545  -0.00122   0.00000  -0.00259  -0.00259   2.09286
   A19        2.09783  -0.00029   0.00000  -0.00137  -0.00139   2.09644
   A20        2.09105   0.00036   0.00000   0.00130   0.00131   2.09236
   A21        2.09431  -0.00007   0.00000   0.00007   0.00008   2.09439
   A22        2.09117  -0.00277   0.00000  -0.00698  -0.00702   2.08415
   A23        2.09594   0.00141   0.00000   0.00357   0.00358   2.09952
   A24        2.09608   0.00136   0.00000   0.00342   0.00343   2.09950
   A25        2.06648   0.00031   0.00000   0.00055   0.00053   2.06701
   A26        2.13905   0.00760   0.00000   0.01530   0.01529   2.15434
   A27        2.07674  -0.00793   0.00000  -0.01606  -0.01605   2.06069
   A28        2.10354   0.00475   0.00000   0.01035   0.01036   2.11390
   A29        2.08432  -0.00136   0.00000  -0.00221  -0.00221   2.08211
   A30        2.09531  -0.00339   0.00000  -0.00815  -0.00815   2.08716
   A31        2.10129   0.00347   0.00000   0.00796   0.00796   2.10925
   A32        2.09304  -0.00009   0.00000   0.00085   0.00085   2.09389
   A33        2.08886  -0.00339   0.00000  -0.00881  -0.00881   2.08005
   A34        2.09643   0.00082   0.00000   0.00114   0.00113   2.09756
   A35        2.09201  -0.00041   0.00000  -0.00056  -0.00056   2.09145
   A36        2.09475  -0.00041   0.00000  -0.00058  -0.00058   2.09417
   A37        2.09932   0.00113   0.00000   0.00232   0.00231   2.10163
   A38        2.08875  -0.00048   0.00000  -0.00093  -0.00092   2.08783
   A39        2.09511  -0.00064   0.00000  -0.00139  -0.00139   2.09372
   A40        2.08904  -0.00225   0.00000  -0.00571  -0.00573   2.08331
   A41        2.09630   0.00117   0.00000   0.00300   0.00301   2.09931
   A42        2.09785   0.00108   0.00000   0.00271   0.00272   2.10057
   A43        2.07873  -0.01119   0.00000  -0.02261  -0.02263   2.05609
   A44        2.12582   0.02306   0.00000   0.04668   0.04666   2.17247
   A45        2.07862  -0.01187   0.00000  -0.02404  -0.02401   2.05462
   A46        2.10038   0.00817   0.00000   0.01790   0.01793   2.11831
   A47        2.09440  -0.00470   0.00000  -0.01074  -0.01076   2.08364
   A48        2.08840  -0.00347   0.00000  -0.00716  -0.00718   2.08123
   A49        2.10252   0.00450   0.00000   0.01017   0.01016   2.11268
   A50        2.07820   0.00442   0.00000   0.01449   0.01446   2.09265
   A51        2.10237  -0.00891   0.00000  -0.02450  -0.02453   2.07785
   A52        2.09791  -0.00023   0.00000  -0.00143  -0.00144   2.09646
   A53        2.09102   0.00028   0.00000   0.00120   0.00120   2.09222
   A54        2.09426  -0.00005   0.00000   0.00024   0.00024   2.09450
   A55        2.09642   0.00239   0.00000   0.00496   0.00493   2.10135
   A56        2.09138  -0.00111   0.00000  -0.00225  -0.00224   2.08914
   A57        2.09538  -0.00127   0.00000  -0.00270  -0.00269   2.09269
[...]
 0001440,0.00055007,0.00054944,0.00035610,0.00005940,0.00006854,0.00013
 987,-0.00016833,0.00002251,-0.00012051,-0.00016323,0.00006241,0.000025
 47,-0.00001400,-0.00010960,0.00002277,0.00009390,-0.00003325,-0.000085
 67,-0.00002899,-0.00000491,0.00001520,-0.00003317,-0.00007335,0.000075
 60,0.00000409,0.00000065,-0.00001435,0.00001372,0.00000776,0.00003343,
 0.00003027,0.00000397,0.00000793,-0.00047856,-0.00100143,-0.00089684,0
 .00012689,-0.00030837,0.00030099,-0.00017921,-0.00026558,-0.00021872,0
 .00001720,-0.00002512,-0.00006935,-0.00000042,0.00001734,0.00004157,0.
 00001895,0.00006689,0.00009336,0.00009581,0.00000421,0.00009081,-0.000
 00323,0.00003054,0.00000405,0.00001108,-0.00001041,0.00001789,0.000007
 56,-0.00002100,0.00001052,-0.00000028,0.00002372,0.00000482,-0.0169981
 2,-0.02416442,0.00405705,0.00753170,0.00752990,-0.00618107,-0.01638391
 ,-0.08396785,-0.12384668,0.02940132,-0.01261061,-0.01358148,-0.0005196
 8,0.00079312,-0.00021068,-0.21472025,0.24090965,0.43308058,-0.00131650
 ,0.00034702,-0.00186881,-0.00008656,-0.00016120,-0.00008169,-0.0000119
 3,-0.00158339,-0.00141994,-0.00033782,-0.00094825,-0.00056251,0.000371
 65,-0.00060257,0.00014288,0.00023012,-0.00021218,0.00008111,0.00003283
 ,0.00028246,-0.00001210,-0.00016484,0.00006192,0.00006011,0.00000716,0
 .00006036,0.00001831,-0.00011578,0.00024670,-0.00018315,0.00000606,0.0
 0000893,0.00000684,-0.00001608,-0.00000356,-0.00000252,-0.00000693,0.0
 0000529,-0.00000537,0.00030704,0.00029848,0.00037462,-0.00004173,0.000
 13087,-0.00014175,0.00021952,0.00029432,0.00012600,0.00000155,-0.00001
 074,0.00003461,-0.00000948,-0.00001538,-0.00000734,-0.00000126,-0.0000
 4416,-0.00009918,-0.00031410,-0.00008092,-0.00002590,-0.00001442,-0.00
 001281,-0.00001003,-0.00001101,0.00000273,-0.00000808,-0.00001380,0.00
 001536,-0.00000303,-0.00000444,-0.00001807,-0.00000068,-0.00829269,-0.
 00509851,0.00408662,0.00203754,0.00054439,0.00348081,-0.31956878,-0.04
 389485,0.11575065,0.00062571,0.00023650,-0.00069862,-0.00049228,-0.000
 18004,0.00019902,-0.00941018,0.00144346,0.00879449,0.33553636,0.000839
 53,-0.00024928,0.00212363,0.00002056,0.00055212,0.00018085,-0.00049082
 ,-0.00145246,-0.00105129,-0.00032598,-0.00046206,-0.00024774,-0.000301
 81,-0.00009536,-0.00030413,-0.00046306,0.00007444,0.00000128,-0.000002
 30,-0.00025598,0.00004432,0.00037632,-0.00007526,-0.00010057,-0.000005
 56,0.00004969,0.00015342,0.00003600,-0.00017162,0.00027174,0.00001834,
 0.00002530,-0.00001701,0.00004054,0.00000093,0.00004858,0.00005096,0.0
 0001135,0.00003281,-0.00017118,-0.00037359,-0.00021081,0.00002624,-0.0
 0008926,0.00008304,-0.00011070,-0.00008341,-0.00009189,-0.00000558,0.0
 0000817,-0.00005414,0.00000619,-0.00000025,0.00000141,0.00000530,-0.00
 001068,0.00007553,0.00020170,0.00008085,0.00000371,0.00001103,0.000026
 78,0.00001879,0.00000753,0.00000553,0.00000640,0.00000047,0.00000002,-
 0.00001255,-0.00000087,0.00001755,-0.00000334,0.02371522,0.00972101,-0
 .00994374,0.00017138,-0.00161478,-0.00608863,-0.04426524,-0.07387996,0
 .00907254,0.00030587,-0.00109654,-0.00020909,0.00120152,0.00019069,-0.
 00050297,-0.02979398,0.00082625,0.01306174,0.05211276,0.07167365,-0.00
 097337,0.00220007,-0.00256578,-0.00017240,-0.00031495,0.00001095,0.000
 13945,-0.00064980,-0.00005394,-0.00027291,0.00001353,0.00051518,-0.000
 20065,0.00044640,-0.00027513,-0.00014714,-0.00006850,0.00004657,0.0000
 2516,0.00013275,-0.00005718,-0.00020254,0.00015436,-0.00013050,0.00005
 324,-0.00008892,-0.00006022,0.00005166,-0.00009330,0.00003270,0.000052
 76,0.00004031,-0.00003023,0.00001015,-0.00003268,0.00000052,0.00003626
 ,0.00000249,-0.00000533,0.00019377,0.00042698,0.00044642,-0.00005844,0
 .00011459,-0.00013456,0.00007179,0.00016694,0.00013745,-0.00001860,-0.
 00000979,0.00001651,0.00001934,-0.00001196,-0.00003562,-0.00002924,-0.
 00006231,-0.00004031,-0.00010353,-0.00006216,-0.00004687,0.00000018,0.
 00001244,-0.00000507,-0.00000642,0.00000503,-0.00000809,-0.00000883,0.
 00001483,-0.00001376,0.00000435,-0.00000983,-0.00000753,0.02066188,0.0
 0455478,-0.00261575,0.00391602,-0.00617163,0.00289446,0.11375741,0.008
 72100,-0.10367395,-0.00076551,-0.00039040,-0.00082986,0.00094285,0.000
 28464,-0.00044844,-0.00891640,-0.00312247,0.00827437,-0.12694340,-0.00
 462679,0.09639944,-0.00033700,0.00206737,0.00017881,0.00006866,-0.0001
 2923,-0.00089588,0.00024350,-0.00024499,0.00050438,0.00034242,-0.00005
 868,-0.00020634,-0.00039667,-0.00017560,-0.00011241,-0.00027127,0.0001
 3228,-0.00014736,0.00002166,0.00002483,-0.00001985,0.00039324,-0.00000
 908,-0.00014321,-0.00001598,0.00003775,0.00006028,-0.00007175,-0.00012
 595,0.00032951,-0.00001989,0.00000074,0.00001608,-0.00001279,0.0000016
 7,-0.00002478,-0.00002143,-0.00000268,-0.00000043,0.00082541,0.0004482
 1,-0.00026465,0.00029857,-0.00033763,0.00003863,0.00020265,0.00005646,
 -0.00009175,-0.00019606,0.00007719,-0.00024500,0.00000417,0.00001321,-
 0.00000306,0.00002607,-0.00043022,-0.00004718,-0.00030136,-0.00017004,
 -0.00027185,0.00008602,0.00015941,0.00024856,-0.00003273,-0.00001435,0
 .00002345,0.00002782,-0.00002757,0.00001725,0.00000240,-0.00001764,-0.
 00000142,-0.06657591,0.02541607,0.04731846,0.08132513,0.03573809,-0.01
 596119,-0.02802621,-0.08892887,-0.03241263,-0.18091416,0.00379349,0.05
 516721,0.00015131,-0.00549827,0.00151925,-0.31845896,-0.01232596,0.119
 09975,0.00159895,-0.00392411,0.00146971,0.66575273,0.00112711,-0.00110
 772,0.00018559,-0.00029545,-0.00010867,0.00045207,0.00008108,-0.000127
 63,-0.00027092,-0.00016021,0.00003523,-0.00007525,0.00004550,0.0000271
 3,0.00011893,0.00009747,-0.00002912,0.00001647,0.00000142,-0.00001297,
 -0.00000206,-0.00009072,0.00002920,0.00008045,0.00005518,-0.00004781,-
 0.00000103,-0.00006494,0.00005653,-0.00006687,-0.00002313,-0.00001121,
 0.00000521,-0.00003684,-0.00000786,-0.00002358,-0.00001477,-0.00000569
 ,-0.00000331,-0.00106911,-0.00011157,-0.00025965,-0.00002819,-0.000028
 56,0.00027789,-0.00000700,-0.00027222,-0.00006862,0.00011752,-0.000051
 71,0.00004698,-0.00002077,0.00002831,-0.00000070,-0.00000820,0.0001922
 9,0.00005948,0.00005686,-0.00001052,0.00002881,-0.00000825,-0.00014030
 ,-0.00006727,0.00003035,-0.00003575,0.00000483,0.00000088,-0.00003251,
 0.00004778,0.00000879,-0.00000227,0.00001149,0.02639168,-0.00993241,-0
 .01665112,-0.01889815,-0.04905770,-0.02495788,-0.03403407,0.02212665,0
 .02558097,0.07380007,-0.23740449,-0.13011455,-0.00497114,-0.00186385,-
 0.00378580,-0.08281996,-0.15338507,0.00445100,-0.00409547,-0.00291821,
 -0.00453351,0.15604956,0.69505833,0.00029921,-0.00130704,-0.00075814,-
 0.00034101,-0.00018354,0.00070035,-0.00008860,-0.00002540,-0.00043075,
 -0.00034758,0.00004996,0.00010062,0.00024124,0.00018035,0.00010551,0.0
 0022474,-0.00009987,0.00010018,-0.00000964,-0.00000980,-0.00000135,-0.
 00029648,0.00003460,0.00011914,0.00001292,-0.00004543,-0.00005991,0.00
 000355,0.00010339,-0.00023595,-0.00000272,-0.00000614,-0.00000453,-0.0
 0000049,-0.00000335,0.00000920,0.00000677,0.00000001,-0.00000518,-0.00
 087666,-0.00014338,0.00015269,-0.00022544,0.00027844,0.00013683,-0.000
 16756,-0.00032000,0.00008972,0.00019442,-0.00008580,0.00021685,-0.0000
 0461,0.00000686,0.00000172,-0.00005798,0.00036223,-0.00000788,0.000147
 40,-0.00004327,0.00005682,-0.00004787,-0.00021876,-0.00019669,0.000034
 80,-0.00000929,-0.00001101,-0.00001368,-0.00002180,0.00004568,0.000006
 17,-0.00000196,0.00000335,0.04784177,-0.01503202,-0.04279022,-0.049808
 83,-0.05406488,0.00398887,0.00056662,0.05498218,0.04206520,0.09618744,
 -0.09182943,-0.18987972,0.00189579,-0.00334605,0.00608238,0.07861844,-
 0.03368922,-0.14542326,0.00121505,-0.00486035,0.00554539,-0.17453158,0
 .21974473,0.39801612,-0.00059519,0.00033804,0.00044337,-0.00000457,-0.
 00004770,-0.00004754,0.00010544,-0.00023902,-0.00008888,-0.00009151,0.
 00002108,-0.00004026,-0.00005777,-0.00001878,0.00004673,0.00002359,0.0
 0001167,0.00000042,0.00000669,0.00000687,-0.00000253,-0.00000030,-0.00
 000367,0.00002440,0.00001616,-0.00000456,0.00001001,-0.00002488,0.0000
 0737,-0.00001380,-0.00001433,-0.00000178,0.00000996,-0.00001909,0.0000
 1034,-0.00001002,-0.00001490,0.00000107,-0.00000005,-0.00012343,0.0000
 6710,-0.00012162,0.00005564,-0.00005788,0.00005467,0.00003432,-0.00001
 497,0.00005063,0.00001169,-0.00001665,-0.00000666,-0.00001157,0.000011
 55,-0.00000018,-0.00000890,-0.00000292,-0.00002196,-0.00001875,0.00001
 152,-0.00004445,0.00001127,-0.00002603,0.00000004,-0.00000266,-0.00002
 248,0.00000160,0.00000096,-0.00000444,0.00001826,0.00000212,-0.0000159
 8,0.00000710,0.00184074,-0.00433537,0.00140190,-0.01020011,0.00149182,
 0.00948445,0.00066168,0.00016129,-0.00076127,-0.31261134,-0.04829796,0
 .11552970,0.00009490,0.00072338,-0.00245634,0.00220015,0.00078003,0.00
 398687,-0.00030782,0.00024499,-0.00037475,-0.00719541,-0.00665178,0.00
 301785,0.32674804,-0.00114064,0.00017862,0.00066593,0.00004258,0.00008
 074,-0.00002411,-0.00000291,-0.00043993,-0.00003307,-0.00005899,0.0000
 2853,-0.00001665,-0.00007083,0.00000837,-0.00001569,-0.00002392,0.0000
 3771,0.00000069,0.00000209,-0.00001784,-0.00000301,0.00004051,0.000013
 10,0.00001006,0.00000772,-0.00000403,0.,-0.00003806,-0.00001422,0.0000
 2964,-0.00001424,-0.00000179,0.00000726,-0.00000770,0.00000299,-0.0000
 0707,-0.00000783,-0.00000250,-0.00000122,-0.00011820,0.00005523,-0.000
 09938,0.00003330,-0.00006186,0.00003731,0.00003945,-0.00003273,0.00002
 406,0.00001288,-0.00000543,-0.00001492,-0.00001182,0.00001012,0.000008
 46,0.00001586,-0.00001245,-0.00000654,-0.00003564,0.00000172,-0.000012
 17,0.00002202,-0.00002400,0.00001592,-0.00000345,-0.00001240,0.0000047
 9,-0.00000307,-0.00000909,0.00002062,-0.00000429,-0.00000789,0.0000061
 5,-0.00371670,-0.00284163,-0.00479903,-0.02962236,0.00107453,0.0135270
 4,0.00029230,-0.00116182,-0.00030692,-0.04814531,-0.07558862,0.0103948
 2,0.00176392,-0.00005245,0.00203180,0.00031754,-0.00140813,-0.00607679
 ,0.00018417,-0.00018411,0.00051871,0.02427048,0.00956796,-0.01081152,0
 .05434469,0.07068475,-0.00043449,0.00000145,0.00011246,0.00001597,0.00
 000122,-0.00004938,0.00004017,0.00001849,-0.00010024,-0.00003499,0.000
 01408,0.00002568,0.00001545,0.00000655,0.00004818,0.00003274,-0.000007
 09,0.00002117,-0.00000073,-0.00000426,-0.00000241,-0.00004878,0.000006
 59,0.00000746,-0.00000020,-0.00000956,-0.00001594,-0.00000001,0.000021
 08,-0.00004036,0.00000162,-0.00000381,-0.00000474,-0.00000542,-0.00000
 061,0.00000097,0.00000275,-0.00000194,-0.00000228,0.00008244,0.0000817
 5,0.00001882,0.00002374,-0.00000897,-0.00003772,-0.00001691,0.00002015
 ,-0.00001471,-0.00001522,0.00000173,-0.00000998,-0.00000141,-0.0000053
 3,-0.00000452,-0.00000973,-0.00000635,0.00002992,0.00003598,-0.0000165
 6,0.00000240,-0.00000900,0.00002547,0.00000128,-0.00000305,0.00000272,
 -0.00000008,0.00000544,0.00000686,-0.00002007,0.00000345,0.00000684,-0
 .00000345,0.00148625,-0.00466843,0.00559214,-0.00865764,-0.00351726,0.
 00833612,-0.00078063,-0.00031763,-0.00070130,0.11567459,0.01052734,-0.
 10579731,-0.00184095,0.00253926,-0.00268403,0.00373548,-0.00628342,0.0
 0293222,-0.00035944,0.00049817,-0.00077064,0.02105415,0.00610013,-0.00
 245725,-0.12858963,-0.00714058,0.09846254,0.00047676,-0.00031995,-0.00
 052579,-0.00004754,-0.00013297,-0.00009373,0.00007326,0.00006646,0.000
 01538,0.00002449,0.00001475,0.00002962,-0.00002450,0.00000710,-0.00000
 021,-0.00002495,0.00001079,0.00000533,0.00000260,-0.00000958,-0.000002
 77,0.00000577,0.00001406,-0.00000892,0.00000021,-0.00000923,-0.0000097
 5,-0.00002524,0.00000585,0.00001207,-0.00000155,-0.00000606,-0.0000038
 6,-0.00000458,-0.00000454,-0.00000431,0.00000026,-0.00000546,-0.000002
 43,-0.00004284,-0.00004026,-0.00002150,-0.00000941,-0.00002287,-0.0000
 0036,0.00000785,0.00003131,0.00001121,0.00000815,-0.00000646,-0.000001
 99,-0.00000468,0.00000102,0.00000331,0.00001268,-0.00000100,0.00001291
 ,0.00000416,-0.00000874,0.00002854,-0.00000093,-0.00000093,-0.00000212
 ,0.00000165,-0.00000077,-0.00000071,-0.00000417,0.00000543,-0.00000480
 ,-0.00000248,0.00000211,0.00000079,0.00010558,-0.00517602,0.00164124,-
 0.00089518,-0.00073914,-0.00049625,0.01208322,-0.01497615,-0.01225136,
 -0.00379906,-0.00359918,0.00477105,-0.00016776,0.00031667,-0.00039639,
 -0.12088026,0.07908541,0.08458585,0.00022458,0.00173545,-0.00178594,-0
 .00659330,0.02489937,0.02098227,-0.00059648,0.00111658,0.00095399,0.11
 993971,0.00087222,-0.00039347,-0.00072259,-0.00015971,-0.00037654,-0.0
 0009727,0.00030926,0.00001181,0.00004159,-0.00009710,0.00004334,0.0000
 0016,-0.00003918,0.00003416,-0.00000487,0.00000962,0.00001102,0.000019
 07,0.00001601,-0.00002100,-0.00000876,-0.00000349,-0.00000006,0.000019
 18,0.00001138,-0.00001426,0.00002567,-0.00005340,0.00002415,-0.0000003
 1,-0.00002645,-0.00001958,0.00000844,-0.00001287,0.00000006,-0.0000111
 9,-0.00001688,-0.00000667,-0.00000379,-0.00018139,0.00002886,-0.000223
 07,0.00005542,-0.00009855,0.00010572,-0.00001245,-0.00010907,0.0000500
 9,0.00000543,-0.00001145,-0.00000348,0.00000667,0.00002386,0.00001146,
 -0.00001477,0.00000622,-0.00001353,0.00001274,0.00001744,-0.00007016,0
 .00001001,-0.00002774,0.00001265,0.00000471,-0.00001885,0.00000371,0.0
 0001871,-0.00001787,0.00002341,0.00000704,-0.00001106,0.00000486,-0.00
 534043,-0.00184010,-0.00320258,-0.00075211,-0.00017003,0.00085836,0.01
 601624,-0.01375079,-0.01980148,-0.00321914,0.00260405,-0.00195177,0.00
 033272,-0.00029070,0.00037873,0.07908357,-0.20224108,-0.13177774,0.000
 67557,-0.00004299,0.00251746,-0.00627019,0.00905610,0.00536378,-0.0001
 7925,0.00018429,0.00026159,-0.08286526,0.20754794,0.00044920,0.0001931
 7,-0.00023215,-0.00000448,-0.00006730,-0.00006081,0.00005210,-0.000072
 19,0.00001416,0.00002459,0.00000641,-0.00003543,-0.00007430,-0.0000135
 4,0.00000287,-0.00003168,0.00002597,-0.00001372,0.00000929,0.00000557,
 -0.00000915,0.00004211,0.00002026,0.00000325,0.00002025,-0.00001727,-0
 .00000163,-0.00004353,0.00000227,0.00004206,-0.00000910,-0.00000603,0.
 00000260,-0.00002023,-0.00000546,-0.00002367,-0.00001499,-0.00000832,-
 0.00000252,-0.00012796,-0.00005274,-0.00002777,-0.00000535,-0.00002375
 ,0.00004005,0.00002639,0.00002047,0.00004678,0.00001722,-0.00001354,0.
 00000436,-0.00000528,0.00000611,-0.00000443,-0.00001002,0.00000017,-0.
 00002010,-0.00000093,-0.00000570,-0.00002048,-0.00000195,-0.00001787,-
 0.00000695,0.00000462,-0.00001328,-0.00000366,0.00000453,0.00000368,0.
 00000351,0.00000201,-0.00001062,0.00000381,0.00139972,-0.00375475,0.00
 572760,-0.00061865,0.00080525,-0.00016156,0.00576442,-0.00300730,0.000
 66905,0.00502596,-0.00168351,0.00526972,-0.00039706,0.00038398,-0.0008
 2813,0.08434664,-0.13170483,-0.17061023,-0.00222202,0.00204988,-0.0026
 2028,0.00301312,-0.01142759,-0.00263161,0.00016268,-0.00044353,-0.0004
 3363,-0.09502415,0.14629622,0.16855827,-0.00009918,0.00032135,-0.00037
 544,0.00001563,-0.00010234,-0.00010999,0.00004395,-0.00003299,-0.00001
 584,-0.00003243,-0.00001910,-0.00004945,0.00000082,-0.00002521,0.00003
 560,0.00003725,-0.00000858,-0.00001327,0.00000392,0.00002425,-0.000002
 04,0.00000056,-0.00000486,0.00001825,0.00001045,0.00000131,0.00000482,
 -0.00000284,0.00001258,-0.00000843,-0.00000626,0.,0.00000778,-0.000010
 92,0.00000276,-0.00001135,-0.00001274,-0.00000010,-0.00000082,0.000008
 41,0.00006747,0.00000261,0.00000443,-0.00000135,0.00000747,0.00002101,
 0.00001229,0.00003670,0.00000315,-0.00000313,0.00000457,-0.00000290,0.
 00000256,-0.00000172,-0.00000983,-0.00000746,-0.00002003,-0.00002082,0
 .00000378,-0.00002374,-0.00000023,-0.00000806,-0.00000015,-0.00000080,
 -0.00000740,-0.00000178,0.00000379,0.00000118,0.00000321,0.00000235,-0
 .00000797,0.00000193,-0.00077511,0.00085549,0.00039365,0.00085097,0.00
 079541,0.00474380,-0.00345978,-0.00147517,0.00584859,0.01213352,0.0152
 6739,0.00504870,0.00032440,0.00065144,0.00016745,-0.00912974,-0.029846
 19,-0.00960400,-0.00066063,-0.00126669,-0.00042590,-0.14192984,-0.1294
 6472,-0.02467571,0.00008562,0.00051986,-0.00235599,0.00015401,0.001796
 77,-0.00175318,0.14244978,0.00016912,-0.00023954,0.00039406,-0.0000149
 1,0.00004497,0.00008749,0.00003928,-0.00007291,0.00001771,-0.00003538,
 0.00000479,-0.00004252,-0.00002676,-0.00002891,-0.00000763,0.00001430,
 0.00000388,-0.00000930,0.00000631,0.00001012,0.00000137,0.00001590,-0.
 00001350,0.00001798,0.00000958,0.00000201,0.00001983,-0.00001661,0.000
 00446,0.00000269,-0.00001149,-0.00000419,0.00000901,-0.00000744,0.0000
 0712,-0.00000716,-0.00001332,0.00000131,0.00000087,-0.00011224,-0.0000
 2909,-0.00009647,0.00002629,-0.00003124,0.00005863,0.00001720,-0.00003
 767,0.00003822,0.00001142,-0.00000856,0.00000751,0.00000214,0.00001179
 ,0.00000258,-0.00001467,0.00001018,-0.00004036,-0.00002349,0.00001722,
 -0.00005156,0.00000633,-0.00002540,-0.00000219,0.00000156,-0.00001507,
 -0.00000013,0.00000502,-0.00000907,0.00002242,0.00000257,-0.00001503,0
 .00000555,0.00092561,0.00048762,0.00030823,0.00131015,0.00030711,-0.00
 561892,-0.00204734,0.00312536,-0.00229056,-0.01575797,-0.01361178,-0.0
 0230853,-0.00060456,-0.00089903,-0.00017136,0.00144230,0.00026679,-0.0
 0363979,0.00001082,-0.00020856,-0.00007833,-0.12959575,-0.27947189,-0.
 06494821,0.00170840,-0.00004574,0.00185032,0.00061221,-0.00013144,0.00
 252974,0.14194542,0.29059388,-0.00038097,0.00049704,-0.00062122,0.0000
 8875,-0.00004518,-0.00005463,0.00005203,-0.00002113,0.00001967,-0.0000
 4308,0.00001593,0.00002559,-0.00002323,0.00003891,0.00000724,-0.000015
 44,0.00000003,0.00000351,0.00000275,-0.00000298,-0.00000845,-0.0000003
 9,0.00000728,0.00000059,0.00001209,-0.00001103,0.00000002,-0.00000383,
 -0.00000533,0.00000189,-0.00000151,0.00000215,0.00000073,-0.00000736,-
 0.00000165,-0.00000543,-0.00000264,-0.00000111,0.00000023,0.00001949,0
 .00011860,0.00006881,-0.00002337,0.00003267,-0.00001416,-0.00001878,0.
 00000628,0.00001307,-0.00000055,0.00000757,0.00001195,0.00000447,0.000
 00179,-0.00000417,-0.00000458,0.00000321,0.00000148,0.00002471,-0.0000
 1098,0.00000266,-0.00000049,-0.00000085,-0.00000668,-0.00000036,-0.000
 00242,-0.00000380,0.00000086,0.00000543,-0.00000366,0.00000212,-0.0000
 0286,0.00000148,0.00035317,0.00019365,-0.00105336,0.00508065,-0.005349
 70,0.00276560,0.00551304,-0.00253391,0.00457677,-0.01302123,-0.0193030
 2,0.00088845,-0.00060108,-0.00088594,-0.00029442,0.00835159,0.01321530
 ,0.00839061,0.00028444,0.00059719,0.00010911,-0.02467804,-0.06490309,-
 0.07264316,-0.00167070,0.00250892,-0.00244131,-0.00241622,0.00189044,-
 0.00264017,0.02312369,0.07393879,0.06290518||-0.00001226,0.00000029,-0
 .00000379,-0.00000074,0.00000168,0.00000433,0.00000421,0.00000052,-0.0
 0000294,0.00000399,-0.00000094,0.00000029,-0.00000256,0.00000244,-0.00
 000329,-0.00000293,-0.00000248,-0.00000011,0.00000066,0.00000177,0.000
 00032,0.00000302,-0.00000222,-0.00000546,-0.00000011,0.00000039,0.0000
 0152,-0.00000063,0.00000081,0.00000543,0.00000056,0.00000048,-0.000000
 63,0.00000051,0.,0.00000140,0.00000141,-0.00000004,0.00000030,0.000005
 80,-0.00001593,-0.00002417,-0.00001411,0.00003858,0.00000269,0.0000090
 0,-0.00001966,0.00003493,0.00001596,-0.00001924,0.00003255,0.00000101,
 -0.00000255,-0.00000102,-0.00000810,0.00003982,-0.00000156,-0.00000014
 ,0.00000016,-0.00000324,-0.00000550,-0.00002505,-0.00003401,-0.0000014
 2,0.00000283,-0.00000317,0.00000039,-0.00000363,-0.00000109,-0.0000002
 4,0.00000314,0.00000367,0.00003263,-0.00001009,-0.00001416,-0.00003034
 ,-0.00001588,-0.00000396,-0.00000339,0.00002861,0.00001079,0.00000590,
 0.00002256,0.00001933,0.00000172,0.00000197,0.00000055,-0.00002280,-0.
 00001913,0.00000603,-0.00000134,-0.00000303,-0.00000106,0.00002095,-0.
 00000502,-0.00002041,-0.00000179,-0.00000198,-0.00000081,0.00000287,0.
 00000069,-0.00000064,-0.00000219,0.00000010,0.00000137|||@


 FIREWORKS ENDED
 AND SPECTATORS GONE AWAY....
 AH, HOW VAST AND DARK
                     SHIKI
 Job cpu time:  0 days  0 hours  6 minutes 20.0 seconds.
 File lengths (MBytes):  RWF=    350 Int=      0 D2E=      0 Chk=      7 Scr=      1
 Normal termination of Gaussian 09 at Tue Sep 07 00:08:26 2021.
