 Entering Link 1 = b:\programy\g09w\l1.exe PID=      2112.
  
 Copyright (c) 1988,1990,1992,1993,1995,1998,2003,2009, Gaussian, Inc.
                  All Rights Reserved.
  
 This is part of the Gaussian(R) 09 program.  It is based on
 the Gaussian(R) 03 system (copyright 2003, Gaussian, Inc.),
 the Gaussian(R) 98 system (copyright 1998, Gaussian, Inc.),
 the Gaussian(R) 94 system (copyright 1995, Gaussian, Inc.),
 the Gaussian 92(TM) system (copyright 1992, Gaussian, Inc.),
 the Gaussian 90(TM) system (copyright 1990, Gaussian, Inc.),
 the Gaussian 88(TM) system (copyright 1988, Gaussian, Inc.),
 the Gaussian 86(TM) system (copyright 1986, Carnegie Mellon
 University), and the Gaussian 82(TM) system (copyright 1983,
 Carnegie Mellon University). Gaussian is a federally registered
 trademark of Gaussian, Inc.
  
 This software contains proprietary and confidential information,
 including trade secrets, belonging to Gaussian, Inc.
  
 This software is provided under written license and may be
 used, copied, transmitted, or stored only in accord with that
 written license.
  
 The following legend is applicable only to US Government
 contracts under FAR:
  
                    RESTRICTED RIGHTS LEGEND
  
 Use, reproduction and disclosure by the US Government is
 subject to restrictions as set forth in subparagraphs (a)
 and (c) of the Commercial Computer Software - Restricted
 Rights clause in FAR 52.227-19.
  
 Gaussian, Inc.
 340 Quinnipiac St., Bldg. 40, Wallingford CT 06492
  
  
 ---------------------------------------------------------------
 Warning -- This program may not be used in any manner that
 competes with the business of Gaussian, Inc. or will provide
 assistance to any competitor of Gaussian, Inc.  The licensee
 of this program is prohibited from giving any competitor of
 Gaussian, Inc. access to this program.  By using this program,
 the user acknowledges that Gaussian, Inc. is engaged in the
 business of creating and licensing software in the field of
 computational chemistry and represents and warrants to the
 licensee that it is not a competitor of Gaussian, Inc. and that
 it will not use this program in any manner prohibited above.
 ---------------------------------------------------------------
  

 Cite this work as:
 Gaussian 09, Revision A.02,
 M. J. Frisch, G. W. Trucks, H. B. Schlegel, G. E. Scuseria, 
 M. A. Robb, J. R. Cheeseman, G. Scalmani, V. Barone, B. Mennucci, 
 G. A. Petersson, H. Nakatsuji, M. Caricato, X. Li, H. P. Hratchian, 
 A. F. Izmaylov, J. Bloino, G. Zheng, J. L. Sonnenberg, M. Hada, 
 M. Ehara, K. Toyota, R. Fukuda, J. Hasegawa, M. Ishida, T. Nakajima, 
 Y. Honda, O. Kitao, H. Nakai, T. Vreven, J. A. Montgomery, Jr., 
 J. E. Peralta, F. Ogliaro, M. Bearpark, J. J. Heyd, E. Brothers, 
 K. N. Kudin, V. N. Staroverov, R. Kobayashi, J. Normand, 
 K. Raghavachari, A. Rendell, J. C. Burant, S. S. Iyengar, J. Tomasi, 
 M. Cossi, N. Rega, J. M. Millam, M. Klene, J. E. Knox, J. B. Cross, 
 V. Bakken, C. Adamo, J. Jaramillo, R. Gomperts, R. E. Stratmann, 
 O. Yazyev, A. J. Austin, R. Cammi, C. Pomelli, J. W. Ochterski, 
 R. L. Martin, K. Morokuma, V. G. Zakrzewski, G. A. Voth, 
 P. Salvador, J. J. Dannenberg, S. Dapprich, A. D. Daniels, 
 O. Farkas, J. B. Foresman, J. V. Ortiz, J. Cioslowski, 
 and D. J. Fox, Gaussian, Inc., Wallingford CT, 2009.
 
 ******************************************
 Gaussian 09:  IA32W-G09RevA.02 11-Jun-2009
                07-Sep-2021 
 ******************************************
 %nprocshared=12
 Will use up to   12 processors via shared memory.
 ----------------------------------------------
 # opt freq=noraman hf/6-311g geom=connectivity
 ----------------------------------------------
 1/18=20,19=15,38=1,57=2/1,3;
 2/9=110,12=2,17=6,18=5,40=1/2;
 3/5=4,6=6,11=9,16=1,25=1,30=1,71=1/1,2,3;
 4//1;
 5/5=2,38=5/2;
 6/7=2,8=2,9=2,10=2,28=1/1;
 7//1,2,3,16;
 1/18=20,19=15/3(2);
 2/9=110/2;
 99//99;
 2/9=110/2;
 3/5=4,6=6,11=9,16=1,25=1,30=1,71=1/1,2,3;
 4/5=5,16=3/1;
 5/5=2,38=5/2;
 7//1,2,3,16;
 1/18=20,19=15/3(-5);
 2/9=110/2;
 6/7=2,8=2,9=2,10=2,19=2,28=1/1;
 99/9=1/99;
 -----
 M0001
 -----
 Symbolic Z-matrix:
 Charge =  0 Multiplicity = 1
 C                     0.7597   -0.14312  -0.06423 
 H                     1.86631  -0.32769  -0.11484 
 C                     0.32708  -0.30261   1.37355 
 C                    -0.97333   0.00488   1.77875 
 C                     1.24505  -0.76323   2.31952 
 C                    -1.34793  -0.13839   3.10901 
 H                    -1.70127   0.34475   1.02625 
 C                     0.86727  -0.90738   3.65005 
 H                     2.26793  -1.01404   2.01508 
 C                    -0.4276   -0.59318   4.04749 
 H                    -2.36965   0.10641   3.41685 
 H                     1.59295  -1.26876   4.38568 
 H                    -0.72256  -0.70499   5.09567 
 C                     0.58518   1.27786  -0.54045 
 C                     0.02215   1.58609  -1.77833 
 C                     1.06109   2.31771   0.26567 
 C                    -0.06818   2.90844  -2.20118 
 H                    -0.35327   0.782    -2.42371 
 C                     0.96837   3.63692  -0.15748 
 H                     1.50506   2.08379   1.24086 
 C                     0.40314   3.93589  -1.39342 
 H                    -0.5121    3.13703  -3.17554 
 H                     1.34181   4.44223   0.48328 
 H                     0.3311    4.97579  -1.72731 
 C                     0.08744  -1.17446  -0.93558 
 C                     0.87326  -2.10909  -1.6137 
 C                    -1.30139  -1.22478  -1.07565 
 C                     0.27844  -3.07506  -2.41809 
 H                     1.96483  -2.08393  -1.51327 
 C                    -1.89354  -2.19065  -1.87996 
 H                    -1.92095  -0.49701  -0.52807 
 C                    -1.10451  -3.1173   -2.55362 
 H                     0.90265  -3.80406  -2.94512 
 H                    -2.98323  -2.22181  -1.98101 
 H                    -1.5713   -3.87825  -3.18714 
 

 GradGradGradGradGradGradGradGradGradGradGradGradGradGradGradGradGradGrad
 Berny optimization.
 Initialization pass.
                           ----------------------------
                           !    Initial Parameters    !
                           ! (Angstroms and Degrees)  !
 --------------------------                            --------------------------
 ! Name  Definition              Value          Derivative Info.                !
 --------------------------------------------------------------------------------
 ! R1    R(1,2)                  1.123          estimate D2E/DX2                !
 ! R2    R(1,3)                  1.5099         estimate D2E/DX2                !
 ! R3    R(1,14)                 1.5088         estimate D2E/DX2                !
 ! R4    R(1,25)                 1.5083         estimate D2E/DX2                !
 ! R5    R(3,4)                  1.3964         estimate D2E/DX2                !
 ! R6    R(3,5)                  1.3963         estimate D2E/DX2                !
 ! R7    R(4,6)                  1.3894         estimate D2E/DX2                !
 ! R8    R(4,7)                  1.1008         estimate D2E/DX2                !
 ! R9    R(5,8)                  1.3906         estimate D2E/DX2                !
 ! R10   R(5,9)                  1.0963         estimate D2E/DX2                !
 ! R11   R(6,10)                 1.3909         estimate D2E/DX2                !
 ! R12   R(6,11)                 1.0948         estimate D2E/DX2                !
 ! R13   R(8,10)                 1.3905         estimate D2E/DX2                !
 ! R14   R(8,12)                 1.0947         estimate D2E/DX2                !
 ! R15   R(10,13)                1.0946         estimate D2E/DX2                !
 ! R16   R(14,15)                1.3944         estimate D2E/DX2                !
 ! R17   R(14,16)                1.3991         estimate D2E/DX2                !
 ! R18   R(15,17)                1.3912         estimate D2E/DX2                !
 ! R19   R(15,18)                1.0973         estimate D2E/DX2                !
 ! R20   R(16,19)                1.3885         estimate D2E/DX2                !
 ! R21   R(16,20)                1.0967         estimate D2E/DX2                !
 ! R22   R(17,21)                1.3893         estimate D2E/DX2                !
 ! R23   R(17,22)                1.0949         estimate D2E/DX2                !
 ! R24   R(19,21)                1.3916         estimate D2E/DX2                !
 ! R25   R(19,23)                1.0948         estimate D2E/DX2                !
 ! R26   R(21,24)                1.0946         estimate D2E/DX2                !
 ! R27   R(25,26)                1.3967         estimate D2E/DX2                !
 ! R28   R(25,27)                1.3968         estimate D2E/DX2                !
 ! R29   R(26,28)                1.3907         estimate D2E/DX2                !
 ! R30   R(26,29)                1.0965         estimate D2E/DX2                !
 ! R31   R(27,30)                1.3894         estimate D2E/DX2                !
 ! R32   R(27,31)                1.1015         estimate D2E/DX2                !
 ! R33   R(28,32)                1.3902         estimate D2E/DX2                !
 ! R34   R(28,33)                1.0949         estimate D2E/DX2                !
 ! R35   R(30,32)                1.3911         estimate D2E/DX2                !
 ! R36   R(30,34)                1.0948         estimate D2E/DX2                !
 ! R37   R(32,35)                1.0947         estimate D2E/DX2                !
 ! A1    A(2,1,3)              107.9314         estimate D2E/DX2                !
 ! A2    A(2,1,14)             104.7464         estimate D2E/DX2                !
 ! A3    A(2,1,25)             107.5043         estimate D2E/DX2                !
 ! A4    A(3,1,14)             111.5244         estimate D2E/DX2                !
 ! A5    A(3,1,25)             110.4985         estimate D2E/DX2                !
 ! A6    A(14,1,25)            114.2116         estimate D2E/DX2                !
 ! A7    A(1,3,4)              121.3252         estimate D2E/DX2                !
 ! A8    A(1,3,5)              119.446          estimate D2E/DX2                !
 ! A9    A(4,3,5)              119.2286         estimate D2E/DX2                !
 ! A10   A(3,4,6)              120.4121         estimate D2E/DX2                !
 ! A11   A(3,4,7)              119.0442         estimate D2E/DX2                !
 ! A12   A(6,4,7)              120.5347         estimate D2E/DX2                !
 ! A13   A(3,5,8)              120.2521         estimate D2E/DX2                !
 ! A14   A(3,5,9)              120.0481         estimate D2E/DX2                !
 ! A15   A(8,5,9)              119.6998         estimate D2E/DX2                !
 ! A16   A(4,6,10)             120.0877         estimate D2E/DX2                !
 ! A17   A(4,6,11)             119.8526         estimate D2E/DX2                !
 ! A18   A(10,6,11)            120.0596         estimate D2E/DX2                !
 ! A19   A(5,8,10)             120.202          estimate D2E/DX2                !
 ! A20   A(5,8,12)             119.8078         estimate D2E/DX2                !
 ! A21   A(10,8,12)            119.9902         estimate D2E/DX2                !
 ! A22   A(6,10,8)             119.8163         estimate D2E/DX2                !
 ! A23   A(6,10,13)            120.0796         estimate D2E/DX2                !
 ! A24   A(8,10,13)            120.1041         estimate D2E/DX2                !
 ! A25   A(1,14,15)            122.3501         estimate D2E/DX2                !
 ! A26   A(1,14,16)            118.6047         estimate D2E/DX2                !
 ! A27   A(15,14,16)           118.9818         estimate D2E/DX2                !
 ! A28   A(14,15,17)           120.407          estimate D2E/DX2                !
 ! A29   A(14,15,18)           119.8875         estimate D2E/DX2                !
 ! A30   A(17,15,18)           119.7055         estimate D2E/DX2                !
 ! A31   A(14,16,19)           120.5185         estimate D2E/DX2                !
 ! A32   A(14,16,20)           119.4377         estimate D2E/DX2                !
 ! A33   A(19,16,20)           120.043          estimate D2E/DX2                !
 ! A34   A(15,17,21)           120.2761         estimate D2E/DX2                !
 ! A35   A(15,17,22)           119.6864         estimate D2E/DX2                !
 ! A36   A(21,17,22)           120.0374         estimate D2E/DX2                !
 ! A37   A(16,19,21)           120.1272         estimate D2E/DX2                !
 ! A38   A(16,19,23)           119.8503         estimate D2E/DX2                !
 ! A39   A(21,19,23)           120.0225         estimate D2E/DX2                !
 ! A40   A(17,21,19)           119.6888         estimate D2E/DX2                !
 ! A41   A(17,21,24)           120.193          estimate D2E/DX2                !
 ! A42   A(19,21,24)           120.1182         estimate D2E/DX2                !
 ! A43   A(1,25,26)            119.1619         estimate D2E/DX2                !
 ! A44   A(1,25,27)            121.7185         estimate D2E/DX2                !
 ! A45   A(26,25,27)           119.1184         estimate D2E/DX2                !
 ! A46   A(25,26,28)           120.3297         estimate D2E/DX2                !
 ! A47   A(25,26,29)           120.0179         estimate D2E/DX2                !
 ! A48   A(28,26,29)           119.6523         estimate D2E/DX2                !
 ! A49   A(25,27,30)           120.4542         estimate D2E/DX2                !
 ! A50   A(25,27,31)           119.052          estimate D2E/DX2                !
 ! A51   A(30,27,31)           120.4881         estimate D2E/DX2                !
 ! A52   A(26,28,32)           120.1978         estimate D2E/DX2                !
 ! A53   A(26,28,33)           119.8044         estimate D2E/DX2                !
 ! A54   A(32,28,33)           119.9978         estimate D2E/DX2                !
 ! A55   A(27,30,32)           120.1119         estimate D2E/DX2                !
 ! A56   A(27,30,34)           119.8281         estimate D2E/DX2                !
 ! A57   A(32,30,34)           120.0599         estimate D2E/DX2                !
 ! A58   A(28,32,30)           119.7879         estimate D2E/DX2                !
 ! A59   A(28,32,35)           120.115          estimate D2E/DX2                !
 ! A60   A(30,32,35)           120.097          estimate D2E/DX2                !
 ! D1    D(2,1,3,4)            173.1122         estimate D2E/DX2                !
 ! D2    D(2,1,3,5)             -6.7117         estimate D2E/DX2                !
 ! D3    D(14,1,3,4)            58.5791         estimate D2E/DX2                !
 ! D4    D(14,1,3,5)          -121.2448         estimate D2E/DX2                !
 ! D5    D(25,1,3,4)           -69.5986         estimate D2E/DX2                !
 ! D6    D(25,1,3,5)           110.5775         estimate D2E/DX2                !
 ! D7    D(2,1,14,15)          108.4083         estimate D2E/DX2                !
 ! D8    D(2,1,14,16)          -68.6629         estimate D2E/DX2                !
 ! D9    D(3,1,14,15)         -135.1017         estimate D2E/DX2                !
 ! D10   D(3,1,14,16)           47.8271         estimate D2E/DX2                !
 ! D11   D(25,1,14,15)          -8.9385         estimate D2E/DX2                !
 ! D12   D(25,1,14,16)         173.9903         estimate D2E/DX2                !
 ! D13   D(2,1,25,26)           -0.3034         estimate D2E/DX2                !
 ! D14   D(2,1,25,27)          179.2876         estimate D2E/DX2                !
 ! D15   D(3,1,25,26)         -117.8556         estimate D2E/DX2                !
 ! D16   D(3,1,25,27)           61.7354         estimate D2E/DX2                !
 ! D17   D(14,1,25,26)         115.4473         estimate D2E/DX2                !
 ! D18   D(14,1,25,27)         -64.9617         estimate D2E/DX2                !
 ! D19   D(1,3,4,6)           -179.4612         estimate D2E/DX2                !
 ! D20   D(1,3,4,7)              1.6255         estimate D2E/DX2                !
 ! D21   D(5,3,4,6)              0.3631         estimate D2E/DX2                !
 ! D22   D(5,3,4,7)           -178.5503         estimate D2E/DX2                !
 ! D23   D(1,3,5,8)            179.5452         estimate D2E/DX2                !
 ! D24   D(1,3,5,9)             -0.5202         estimate D2E/DX2                !
 ! D25   D(4,3,5,8)             -0.2824         estimate D2E/DX2                !
 ! D26   D(4,3,5,9)            179.6522         estimate D2E/DX2                !
 ! D27   D(3,4,6,10)            -0.1386         estimate D2E/DX2                !
 ! D28   D(3,4,6,11)           179.9318         estimate D2E/DX2                !
 ! D29   D(7,4,6,10)           178.7585         estimate D2E/DX2                !
 ! D30   D(7,4,6,11)            -1.1712         estimate D2E/DX2                !
 ! D31   D(3,5,8,10)            -0.0224         estimate D2E/DX2                !
 ! D32   D(3,5,8,12)          -179.9778         estimate D2E/DX2                !
 ! D33   D(9,5,8,10)          -179.9573         estimate D2E/DX2                !
 ! D34   D(9,5,8,12)             0.0874         estimate D2E/DX2                !
 ! D35   D(4,6,10,8)            -0.1696         estimate D2E/DX2                !
 ! D36   D(4,6,10,13)          179.9356         estimate D2E/DX2                !
 ! D37   D(11,6,10,8)          179.7598         estimate D2E/DX2                !
 ! D38   D(11,6,10,13)          -0.1349         estimate D2E/DX2                !
 ! D39   D(5,8,10,6)             0.2499         estimate D2E/DX2                !
 ! D40   D(5,8,10,13)         -179.8553         estimate D2E/DX2                !
 ! D41   D(12,8,10,6)         -179.7948         estimate D2E/DX2                !
 ! D42   D(12,8,10,13)           0.1            estimate D2E/DX2                !
 ! D43   D(1,14,15,17)        -177.2844         estimate D2E/DX2                !
 ! D44   D(1,14,15,18)           2.7719         estimate D2E/DX2                !
 ! D45   D(16,14,15,17)         -0.2238         estimate D2E/DX2                !
 ! D46   D(16,14,15,18)        179.8325         estimate D2E/DX2                !
 ! D47   D(1,14,16,19)         177.481          estimate D2E/DX2                !
 ! D48   D(1,14,16,20)          -2.8476         estimate D2E/DX2                !
 ! D49   D(15,14,16,19)          0.3093         estimate D2E/DX2                !
 ! D50   D(15,14,16,20)        179.9808         estimate D2E/DX2                !
 ! D51   D(14,15,17,21)          0.0418         estimate D2E/DX2                !
 ! D52   D(14,15,17,22)        179.9773         estimate D2E/DX2                !
 ! D53   D(18,15,17,21)        179.9856         estimate D2E/DX2                !
 ! D54   D(18,15,17,22)         -0.0789         estimate D2E/DX2                !
 ! D55   D(14,16,19,21)         -0.2123         estimate D2E/DX2                !
 ! D56   D(14,16,19,23)        179.8335         estimate D2E/DX2                !
 ! D57   D(20,16,19,21)       -179.8818         estimate D2E/DX2                !
 ! D58   D(20,16,19,23)          0.164          estimate D2E/DX2                !
 ! D59   D(15,17,21,19)          0.059          estimate D2E/DX2                !
 ! D60   D(15,17,21,24)       -179.9808         estimate D2E/DX2                !
 ! D61   D(22,17,21,19)       -179.8763         estimate D2E/DX2                !
 ! D62   D(22,17,21,24)          0.0839         estimate D2E/DX2                !
 ! D63   D(16,19,21,17)          0.026          estimate D2E/DX2                !
 ! D64   D(16,19,21,24)       -179.9342         estimate D2E/DX2                !
 ! D65   D(23,19,21,17)        179.9801         estimate D2E/DX2                !
 ! D66   D(23,19,21,24)          0.0199         estimate D2E/DX2                !
 ! D67   D(1,25,26,28)         179.6664         estimate D2E/DX2                !
 ! D68   D(1,25,26,29)          -0.3197         estimate D2E/DX2                !
 ! D69   D(27,25,26,28)          0.0647         estimate D2E/DX2                !
 ! D70   D(27,25,26,29)       -179.9215         estimate D2E/DX2                !
 ! D71   D(1,25,27,30)        -179.6631         estimate D2E/DX2                !
 ! D72   D(1,25,27,31)          -0.53           estimate D2E/DX2                !
 ! D73   D(26,25,27,30)         -0.0719         estimate D2E/DX2                !
 ! D74   D(26,25,27,31)        179.0611         estimate D2E/DX2                !
 ! D75   D(25,26,28,32)          0.0185         estimate D2E/DX2                !
 ! D76   D(25,26,28,33)       -179.95           estimate D2E/DX2                !
 ! D77   D(29,26,28,32)       -179.9953         estimate D2E/DX2                !
 ! D78   D(29,26,28,33)          0.0361         estimate D2E/DX2                !
 ! D79   D(25,27,30,32)         -0.0041         estimate D2E/DX2                !
 ! D80   D(25,27,30,34)        179.892          estimate D2E/DX2                !
 ! D81   D(31,27,30,32)       -179.1246         estimate D2E/DX2                !
 ! D82   D(31,27,30,34)          0.7715         estimate D2E/DX2                !
 ! D83   D(26,28,32,30)         -0.0952         estimate D2E/DX2                !
 ! D84   D(26,28,32,35)       -179.9998         estimate D2E/DX2                !
 ! D85   D(33,28,32,30)        179.8734         estimate D2E/DX2                !
 ! D86   D(33,28,32,35)         -0.0313         estimate D2E/DX2                !
 ! D87   D(27,30,32,28)          0.0879         estimate D2E/DX2                !
 ! D88   D(27,30,32,35)        179.9926         estimate D2E/DX2                !
 ! D89   D(34,30,32,28)       -179.808          estimate D2E/DX2                !
 ! D90   D(34,30,32,35)          0.0967         estimate D2E/DX2                !
 --------------------------------------------------------------------------------
 Trust Radius=3.00D-01 FncErr=1.00D-07 GrdErr=1.00D-07
 Number of steps in this run= 197 maximum allowed number of steps= 210.
 GradGradGradGradGradGradGradGradGradGradGradGradGradGradGradGradGradGrad

                          Input orientation:                          
 ---------------------------------------------------------------------
 Center     Atomic      Atomic             Coordinates (Angstroms)
 Number     Number       Type             X           Y           Z
 ---------------------------------------------------------------------
      1          6           0        0.759695   -0.143117   -0.064234
      2          1           0        1.866306   -0.327692   -0.114845
      3          6           0        0.327081   -0.302613    1.373545
      4          6           0       -0.973330    0.004879    1.778749
      5          6           0        1.245048   -0.763232    2.319520
      6          6           0       -1.347932   -0.138387    3.109006
      7          1           0       -1.701272    0.344754    1.026246
      8          6           0        0.867268   -0.907380    3.650050
      9          1           0        2.267931   -1.014042    2.015079
     10          6           0       -0.427595   -0.593176    4.047491
     11          1           0       -2.369650    0.106414    3.416845
     12          1           0        1.592952   -1.268758    4.385683
     13          1           0       -0.722564   -0.704993    5.095671
     14          6           0        0.585179    1.277858   -0.540446
     15          6           0        0.022154    1.586095   -1.778335
     16          6           0        1.061092    2.317709    0.265669
     17          6           0       -0.068178    2.908443   -2.201181
     18          1           0       -0.353266    0.782002   -2.423708
     19          6           0        0.968373    3.636915   -0.157479
     20          1           0        1.505064    2.083789    1.240864
     21          6           0        0.403140    3.935892   -1.393422
     22          1           0       -0.512102    3.137027   -3.175545
     23          1           0        1.341805    4.442232    0.483283
     24          1           0        0.331103    4.975787   -1.727309
     25          6           0        0.087438   -1.174461   -0.935579
     26          6           0        0.873260   -2.109093   -1.613698
     27          6           0       -1.301394   -1.224781   -1.075647
     28          6           0        0.278435   -3.075059   -2.418089
     29          1           0        1.964831   -2.083932   -1.513266
     30          6           0       -1.893536   -2.190654   -1.879960
     31          1           0       -1.920953   -0.497010   -0.528066
     32          6           0       -1.104512   -3.117304   -2.553617
     33          1           0        0.902654   -3.804058   -2.945124
     34          1           0       -2.983225   -2.221806   -1.981009
     35          1           0       -1.571300   -3.878247   -3.187143
 ---------------------------------------------------------------------
                    Distance matrix (angstroms):
                    1          2          3          4          5
     1  C    0.000000
     2  H    1.123040   0.000000
     3  C    1.509901   2.141295   0.000000
     4  C    2.534140   3.429262   1.396357   0.000000
     5  C    2.510457   2.549861   1.396317   2.409072   0.000000
     6  C    3.809405   4.556356   2.417533   1.389401   2.781594
     7  H    2.735603   3.805507   2.157294   1.100761   3.403086
     8  C    3.793623   3.938089   2.416613   2.778811   1.390613
     9  H    2.712347   2.273533   2.164392   3.405852   1.096303
    10  C    4.303312   4.759990   2.793556   2.408877   2.410920
    11  H    4.687535   5.532144   3.408041   2.154850   3.876396
    12  H    4.665098   4.605983   3.407174   3.873507   2.155370
    13  H    5.397908   5.830444   3.888172   3.401290   3.403219
    14  C    1.508776   2.097669   2.495569   3.070519   3.575036
    15  C    2.544068   3.135391   3.687078   4.017969   4.879264
    16  C    2.501068   2.791292   2.938069   3.431831   3.707337
    17  C    3.816272   4.309014   4.821387   5.008975   5.970134
    18  H    2.767968   3.389509   4.007293   4.318454   5.238375
    19  C    3.786936   4.065245   4.274947   4.550920   5.057012
    20  H    2.686627   2.789926   2.664613   3.279273   3.055592
    21  C    4.304903   4.685485   5.062294   5.235476   6.047853
    22  H    4.696495   5.198941   5.764509   5.879465   6.963859
    23  H    4.654466   4.835808   4.933132   5.169931   5.520687
    24  H    5.399323   5.751851   6.121832   6.221248   7.081559
    25  C    1.508259   2.134244   2.479840   3.143827   3.479202
    26  C    2.505753   2.531026   3.533454   4.403120   4.173700
    27  C    2.537921   3.429612   3.082348   3.125262   4.269023
    28  C    3.790584   3.921006   4.697372   5.354099   5.359461
    29  H    2.705330   2.247146   3.766829   4.881934   4.117352
    30  C    3.811680   4.552216   4.368196   4.365008   5.433588
    31  H    2.743402   3.813497   2.950860   2.543870   4.266519
    32  C    4.303265   4.749243   5.039300   5.341781   5.899962
    33  H    4.660735   4.585218   5.589481   6.351558   6.089362
    34  H    4.690888   5.530659   5.088661   4.809738   6.204860
    35  H    5.397898   5.819158   6.098269   6.332165   6.925206
                    6          7          8          9         10
     6  C    0.000000
     7  H    2.167063   0.000000
     8  C    2.406490   3.879380   0.000000
     9  H    3.877876   4.310301   2.155543   0.000000
    10  C    1.390902   3.410263   1.390451   3.402013   0.000000
    11  H    1.094806   2.493692   3.399972   4.972679   2.158407
    12  H    3.399477   4.974048   1.094699   2.477951   2.157173
    13  H    2.158464   4.315097   2.158320   4.304488   1.094618
    14  C    4.365909   2.924562   4.734458   3.822979   5.057237
    15  C    5.360697   3.518067   6.033158   5.118028   6.236325
    16  C    4.463224   3.478747   4.678975   3.951894   4.999162
    17  C    6.254521   4.433484   7.047870   6.214511   7.171919
    18  H    5.696262   3.729676   6.421390   5.458872   6.616121
    19  C    5.503462   4.400742   5.929428   5.295306   6.125697
    20  H    4.070333   3.653888   3.893335   3.282976   4.333414
    21  C    6.319641   4.814521   7.007804   6.292629   7.127841
    22  H    7.136002   5.183238   8.052865   7.204341   8.129809
    23  H    5.925469   5.132685   6.234737   5.742389   6.417920
    24  H    7.236289   5.758392   7.988437   7.323581   8.058368
    25  C    4.415021   3.058800   4.659127   3.672420   5.043228
    26  C    5.578648   4.429321   5.399185   4.038845   6.003273
    27  C    4.323626   2.653544   5.209228   4.726212   5.235360
    28  C    6.466675   5.241927   6.470538   5.278149   6.961461
    29  H    6.010403   5.078183   5.408211   3.699426   6.234427
    30  C    5.422109   3.861514   6.312673   5.820099   6.311545
    31  H    3.699359   1.781211   5.039766   4.927643   4.814051
    32  C    6.403007   5.015714   6.874385   6.055582   7.099583
    33  H    7.426626   6.305938   7.203355   5.852502   7.808713
    34  H    5.737863   4.156226   6.947147   6.708357   6.747333
    35  H    7.326523   5.966848   7.843461   7.071526   8.027434
                   11         12         13         14         15
    11  H    0.000000
    12  H    4.304876   0.000000
    13  H    2.487917   2.486670   0.000000
    14  C    5.075771   5.636275   6.116183   0.000000
    15  C    5.907629   6.972281   7.283930   1.394409   0.000000
    16  C    5.156523   5.488181   5.970517   1.399144   2.406782
    17  C    6.686581   7.974656   8.168793   2.417380   1.391246
    18  H    6.215648   7.373004   7.673890   2.161765   1.097275
    19  C    6.031801   6.715359   7.021895   2.420465   2.779995
    20  H    4.863982   4.597519   5.253491   2.160735   3.400336
    21  C    6.744771   7.867788   8.056882   2.797472   2.411401
    22  H    7.489640   9.000797   9.122413   3.406505   2.154766
    23  H    6.417165   6.921503   7.213159   3.410831   3.874779
    24  H    7.580712   8.829229   8.940611   3.892028   3.404125
    25  C    5.159605   5.530940   6.103481   2.533328   2.887069
    26  C    6.382108   6.100548   7.038024   3.564590   3.795510
    27  C    4.805803   6.181044   6.220160   3.179434   3.185368
    28  C    7.154060   7.161144   7.942027   4.750528   4.711827
    29  H    6.920357   5.966607   7.266472   3.761842   4.160931
    30  C    5.793044   7.229369   7.227572   4.468658   4.236039
    31  H    4.015940   6.089996   5.753765   3.070995   3.110975
    32  C    6.902127   7.671201   8.029741   5.121071   4.898204
    33  H    8.153185   7.787489   8.769260   5.631087   5.584838
    34  H    5.910492   7.898384   7.582263   5.201575   4.855254
    35  H    7.754196   8.612179   8.910382   6.183917   5.863691
                   16         17         18         19         20
    16  C    0.000000
    17  C    2.776610   0.000000
    18  H    3.404637   2.156976   0.000000
    19  C    1.388508   2.404543   3.877248   0.000000
    20  H    1.096739   3.873347   4.310119   2.157684   0.000000
    21  C    2.409149   1.389340   3.403037   1.391557   3.403525
    22  H    3.871456   1.094853   2.477222   3.398590   4.968192
    23  H    2.154009   3.398074   4.972036   1.094789   2.482506
    24  H    3.401503   2.158215   4.305946   2.159412   4.307191
    25  C    3.819195   4.277391   2.497298   4.952861   4.166865
    26  C    4.812886   5.138785   3.243288   5.928426   5.111552
    27  C    4.464269   4.457711   2.596804   5.443433   4.918238
    28  C    6.074294   5.997456   3.908452   7.115965   6.442535
    29  H    4.832784   5.434166   3.796849   5.963152   5.016624
    30  C    5.801628   5.425487   3.391869   6.716995   6.289745
    31  H    4.176751   4.222464   2.772539   5.057161   4.639745
    32  C    6.494427   6.124364   3.973139   7.460416   6.946895
    33  H    6.914501   6.823022   4.783425   7.946280   7.249285
    34  H    6.481609   5.904696   4.016906   7.298288   7.004524
    35  H    7.565796   7.020731   4.876922   8.491553   8.038479
                   21         22         23         24         25
    21  C    0.000000
    22  H    2.156807   0.000000
    23  H    2.158586   4.304364   0.000000
    24  H    1.094556   2.487855   2.488557   0.000000
    25  C    5.140526   4.895490   5.927382   6.205785   0.000000
    26  C    6.067238   5.646270   6.894688   7.106502   1.396745
    27  C    5.444168   4.904887   6.444517   6.444902   1.396784
    28  C    7.086531   6.307828   8.127630   8.080599   2.417971
    29  H    6.220251   6.013050   6.853115   7.249450   2.164593
    30  C    6.560946   5.654298   7.749034   7.505345   2.418420
    31  H    5.079456   4.711712   6.005375   6.038332   2.158389
    32  C    7.305248   6.313034   8.506105   8.260866   2.795251
    33  H    7.909748   7.087544   8.941371   8.882310   3.408464
    34  H    7.051949   6.020835   8.317934   7.928082   3.408640
    35  H    8.256914   7.094794   9.549272   9.173014   3.889911
                   26         27         28         29         30
    26  C    0.000000
    27  C    2.408449   0.000000
    28  C    1.390666   2.778766   0.000000
    29  H    1.096470   3.405566   2.155219   0.000000
    30  C    2.780774   1.389411   2.406078   3.877222   0.000000
    31  H    3.403680   1.101521   3.880184   4.311410   2.167210
    32  C    2.410710   2.409316   1.390214   3.401625   1.391061
    33  H    2.155566   3.873686   1.094923   2.477351   3.399459
    34  H    3.875577   2.154599   3.399633   4.972027   1.094808
    35  H    3.403162   3.401786   2.158258   4.304144   2.158827
                   31         32         33         34         35
    31  H    0.000000
    32  C    3.411067   0.000000
    33  H    4.975087   2.157227   0.000000
    34  H    2.492867   2.158555   4.305008   0.000000
    35  H    4.315752   1.094660   2.486871   2.488391   0.000000
 Stoichiometry    C19H16
 Framework group  C1[X(C19H16)]
 Deg. of freedom    99
 Full point group                 C1      NOp   1
 Largest Abelian subgroup         C1      NOp   1
 Largest concise Abelian subgroup C1      NOp   1
                         Standard orientation:                         
 ---------------------------------------------------------------------
 Center     Atomic      Atomic             Coordinates (Angstroms)
 Number     Number       Type             X           Y           Z
 ---------------------------------------------------------------------
      1          6           0       -0.010724    0.012866   -0.761193
      2          1           0        0.017824    0.017581   -1.883860
      3          6           0        0.761657   -1.192627   -0.281594
      4          6           0        1.025149   -1.393405    1.074898
      5          6           0        1.225950   -2.124923   -1.211625
      6          6           0        1.747404   -2.503773    1.494262
      7          1           0        0.637091   -0.669321    1.807557
      8          6           0        1.947190   -3.236343   -0.789293
      9          1           0        1.021822   -1.983534   -2.279437
     10          6           0        2.211297   -3.426441    0.562545
     11          1           0        1.949685   -2.651594    2.560016
     12          1           0        2.308043   -3.962494   -1.524722
     13          1           0        2.781206   -4.300628    0.892986
     14          6           0        0.663384    1.299941   -0.354474
     15          6           0       -0.043704    2.375441    0.181906
     16          6           0        2.037275    1.437115   -0.580767
     17          6           0        0.609965    3.564054    0.490903
     18          1           0       -1.122174    2.285053    0.362860
     19          6           0        2.688056    2.623657   -0.270030
     20          1           0        2.600805    0.595832   -1.002089
     21          6           0        1.975208    3.691352    0.266913
     22          1           0        0.043154    4.401162    0.911236
     23          1           0        3.763966    2.718112   -0.449079
     24          1           0        2.488165    4.627003    0.510808
     25          6           0       -1.456898   -0.086440   -0.344584
     26          6           0       -2.446246   -0.144767   -1.328803
     27          6           0       -1.832420   -0.130090    1.000066
     28          6           0       -3.786739   -0.243598   -0.972063
     29          1           0       -2.167943   -0.112927   -2.388888
     30          6           0       -3.172319   -0.228697    1.354195
     31          1           0       -1.050292   -0.099761    1.775117
     32          6           0       -4.152358   -0.284731    0.368581
     33          1           0       -4.555156   -0.289564   -1.750701
     34          1           0       -3.455022   -0.263928    2.411287
     35          1           0       -5.207929   -0.362540    0.647859
 ---------------------------------------------------------------------
 Rotational constants (GHZ):      0.4039684      0.3821719      0.2325701
 Standard basis: 6-311G (5D, 7F)
 There are   295 symmetry adapted basis functions of A   symmetry.
 Integral buffers will be    262144 words long.
 Raffenetti 1 integral format.
 Two-electron integral symmetry is turned on.
   295 basis functions,   574 primitive gaussians,   295 cartesian basis functions
    65 alpha electrons       65 beta electrons
       nuclear repulsion energy      1290.7344183186 Hartrees.
 NAtoms=   35 NActive=   35 NUniq=   35 SFac= 7.50D-01 NAtFMM=   80 NAOKFM=F Big=F
 One-electron integrals computed using PRISM.
 PrsmSu:  requested number of processors reduced to:  10 ShMem   1 Linda.
 NBasis=   295 RedAO= T  NBF=   295
 NBsUse=   295 1.00D-06 NBFU=   295
 Harris functional with IExCor=  205 diagonalized for initial guess.
 ExpMin= 1.03D-01 ExpMax= 4.56D+03 ExpMxC= 6.82D+02 IAcc=1 IRadAn=         1 AccDes= 0.00D+00
 HarFok:  IExCor=  205 AccDes= 0.00D+00 IRadAn=         1 IDoV= 1
 ScaDFX=  1.000000  1.000000  1.000000  1.000000
 FoFCou: FMM=F IPFlag=           0 FMFlag=      100000 FMFlg1=           0
         NFxFlg=           0 DoJE=T BraDBF=F KetDBF=T FulRan=T
         Omega=  0.000000  0.000000  1.000000  0.000000  0.000000 ICntrl=     500 IOpCl=  0
         NMat0=    1 NMatS0=    1 NMatT0=    0 NMatD0=    1 NMtDS0=    0 NMtDT0=    0
         I1Cent=           4 NGrid=           0.
 Petite list used in FoFCou.
 Initial guess orbital symmetries:
       Occupied  (A) (A) (A) (A) (A) (A) (A) (A) (A) (A) (A) (A)
                 (A) (A) (A) (A) (A) (A) (A) (A) (A) (A) (A) (A)
                 (A) (A) (A) (A) (A) (A) (A) (A) (A) (A) (A) (A)
                 (A) (A) (A) (A) (A) (A) (A) (A) (A) (A) (A) (A)
                 (A) (A) (A) (A) (A) (A) (A) (A) (A) (A) (A) (A)
                 (A) (A) (A) (A) (A)
       Virtual   (A) (A) (A) (A) (A) (A) (A) (A) (A) (A) (A) (A)
                 (A) (A) (A) (A) (A) (A) (A) (A) (A) (A) (A) (A)
                 (A) (A) (A) (A) (A) (A) (A) (A) (A) (A) (A) (A)
                 (A) (A) (A) (A) (A) (A) (A) (A) (A) (A) (A) (A)
                 (A) (A) (A) (A) (A) (A) (A) (A) (A) (A) (A) (A)
                 (A) (A) (A) (A) (A) (A) (A) (A) (A) (A) (A) (A)
                 (A) (A) (A) (A) (A) (A) (A) (A) (A) (A) (A) (A)
                 (A) (A) (A) (A) (A) (A) (A) (A) (A) (A) (A) (A)
                 (A) (A) (A) (A) (A) (A) (A) (A) (A) (A) (A) (A)
                 (A) (A) (A) (A) (A) (A) (A) (A) (A) (A) (A) (A)
                 (A) (A) (A) (A) (A) (A) (A) (A) (A) (A) (A) (A)
                 (A) (A) (A) (A) (A) (A) (A) (A) (A) (A) (A) (A)
                 (A) (A) (A) (A) (A) (A) (A) (A) (A) (A) (A) (A)
                 (A) (A) (A) (A) (A) (A) (A) (A) (A) (A) (A) (A)
                 (A) (A) (A) (A) (A) (A) (A) (A) (A) (A) (A) (A)
                 (A) (A) (A) (A) (A) (A) (A) (A) (A) (A) (A) (A)
                 (A) (A) (A) (A) (A) (A) (A) (A) (A) (A) (A) (A)
                 (A) (A) (A) (A) (A) (A) (A) (A) (A) (A) (A) (A)
                 (A) (A) (A) (A) (A) (A) (A) (A) (A) (A) (A) (A)
                 (A) (A)
 The electronic state of the initial guess is 1-A.
 Requested convergence on RMS density matrix=1.00D-08 within 128 cycles.
 Requested convergence on MAX density matrix=1.00D-06.
 Requested convergence on             energy=1.00D-06.
 No special actions if energy rises.
 Integral accuracy reduced to 1.0D-05 until final iterations.
 Initial convergence to 1.0D-05 achieved.  Increase integral accuracy.
 SCF Done:  E(RHF) =  -728.672431225     A.U. after   14 cycles
             Convg  =    0.8787D-08             -V/T =  2.0001

 **********************************************************************

            Population analysis using the SCF density.

 **********************************************************************

 Orbital symmetries:
       Occupied  (A) (A) (A) (A) (A) (A) (A) (A) (A) (A) (A) (A)
                 (A) (A) (A) (A) (A) (A) (A) (A) (A) (A) (A) (A)
                 (A) (A) (A) (A) (A) (A) (A) (A) (A) (A) (A) (A)
                 (A) (A) (A) (A) (A) (A) (A) (A) (A) (A) (A) (A)
                 (A) (A) (A) (A) (A) (A) (A) (A) (A) (A) (A) (A)
                 (A) (A) (A) (A) (A)
       Virtual   (A) (A) (A) (A) (A) (A) (A) (A) (A) (A) (A) (A)
                 (A) (A) (A) (A) (A) (A) (A) (A) (A) (A) (A) (A)
                 (A) (A) (A) (A) (A) (A) (A) (A) (A) (A) (A) (A)
                 (A) (A) (A) (A) (A) (A) (A) (A) (A) (A) (A) (A)
                 (A) (A) (A) (A) (A) (A) (A) (A) (A) (A) (A) (A)
                 (A) (A) (A) (A) (A) (A) (A) (A) (A) (A) (A) (A)
                 (A) (A) (A) (A) (A) (A) (A) (A) (A) (A) (A) (A)
                 (A) (A) (A) (A) (A) (A) (A) (A) (A) (A) (A) (A)
                 (A) (A) (A) (A) (A) (A) (A) (A) (A) (A) (A) (A)
                 (A) (A) (A) (A) (A) (A) (A) (A) (A) (A) (A) (A)
                 (A) (A) (A) (A) (A) (A) (A) (A) (A) (A) (A) (A)
                 (A) (A) (A) (A) (A) (A) (A) (A) (A) (A) (A) (A)
                 (A) (A) (A) (A) (A) (A) (A) (A) (A) (A) (A) (A)
                 (A) (A) (A) (A) (A) (A) (A) (A) (A) (A) (A) (A)
                 (A) (A) (A) (A) (A) (A) (A) (A) (A) (A) (A) (A)
                 (A) (A) (A) (A) (A) (A) (A) (A) (A) (A) (A) (A)
                 (A) (A) (A) (A) (A) (A) (A) (A) (A) (A) (A) (A)
                 (A) (A) (A) (A) (A) (A) (A) (A) (A) (A) (A) (A)
                 (A) (A) (A) (A) (A) (A) (A) (A) (A) (A) (A) (A)
                 (A) (A)
 The electronic state is 1-A.
 Alpha  occ. eigenvalues --  -11.25759 -11.25230 -11.25184 -11.24915 -11.24521
 Alpha  occ. eigenvalues --  -11.24435 -11.24420 -11.24373 -11.24222 -11.24167
 Alpha  occ. eigenvalues --  -11.24141 -11.24123 -11.24075 -11.24036 -11.24027
 Alpha  occ. eigenvalues --  -11.23967 -11.23730 -11.23627 -11.23499  -1.18617
 Alpha  occ. eigenvalues --   -1.15874  -1.15571  -1.09028  -1.02377  -1.02240
 Alpha  occ. eigenvalues --   -1.01877  -1.01487  -1.01085  -0.92919  -0.84279
 Alpha  occ. eigenvalues --   -0.83364  -0.82325  -0.81924  -0.81128  -0.77584
 Alpha  occ. eigenvalues --   -0.70872  -0.70366  -0.68984  -0.65678  -0.63903
 Alpha  occ. eigenvalues --   -0.63614  -0.62517  -0.61701  -0.61576  -0.59724
 Alpha  occ. eigenvalues --   -0.58849  -0.58492  -0.58315  -0.56749  -0.55100
 Alpha  occ. eigenvalues --   -0.51724  -0.50913  -0.50221  -0.49863  -0.49378
 Alpha  occ. eigenvalues --   -0.48418  -0.47962  -0.47500  -0.46313  -0.35026
 Alpha  occ. eigenvalues --   -0.34320  -0.33969  -0.33325  -0.32520  -0.31471
 Alpha virt. eigenvalues --    0.11544   0.12295   0.12732   0.13494   0.14999
 Alpha virt. eigenvalues --    0.15135   0.15655   0.16238   0.16486   0.16914
 Alpha virt. eigenvalues --    0.18903   0.19188   0.19234   0.21234   0.21293
 Alpha virt. eigenvalues --    0.21595   0.23560   0.24019   0.24930   0.25402
 Alpha virt. eigenvalues --    0.26775   0.31550   0.33134   0.34236   0.35773
 Alpha virt. eigenvalues --    0.37594   0.39773   0.40569   0.41489   0.43089
 Alpha virt. eigenvalues --    0.44095   0.44429   0.44946   0.45442   0.45601
 Alpha virt. eigenvalues --    0.45874   0.46749   0.47242   0.47932   0.50606
 Alpha virt. eigenvalues --    0.51057   0.51419   0.52228   0.54972   0.56091
 Alpha virt. eigenvalues --    0.57308   0.57833   0.58517   0.58869   0.59345
 Alpha virt. eigenvalues --    0.60247   0.60460   0.60630   0.61132   0.61474
 Alpha virt. eigenvalues --    0.62043   0.62199   0.62959   0.63354   0.63666
 Alpha virt. eigenvalues --    0.64250   0.64587   0.65226   0.65942   0.66394
 Alpha virt. eigenvalues --    0.67241   0.67824   0.68584   0.69830   0.72351
 Alpha virt. eigenvalues --    0.73107   0.73905   0.74520   0.75329   0.75743
 Alpha virt. eigenvalues --    0.76805   0.78850   0.79415   0.79952   0.81241
 Alpha virt. eigenvalues --    0.81504   0.82225   0.82493   0.82893   0.83316
 Alpha virt. eigenvalues --    0.83837   0.84371   0.84858   0.84986   0.85475
 Alpha virt. eigenvalues --    0.85921   0.86195   0.86508   0.87766   0.88138
 Alpha virt. eigenvalues --    0.90188   0.90873   0.92139   0.93497   0.95075
 Alpha virt. eigenvalues --    0.95920   0.96335   0.97020   0.98245   0.99742
 Alpha virt. eigenvalues --    1.00086   1.02344   1.03071   1.04850   1.06216
 Alpha virt. eigenvalues --    1.07139   1.08106   1.09370   1.10096   1.10941
 Alpha virt. eigenvalues --    1.11550   1.11722   1.12405   1.12797   1.13792
 Alpha virt. eigenvalues --    1.15008   1.16497   1.19817   1.20538   1.21222
 Alpha virt. eigenvalues --    1.23686   1.25630   1.27362   1.28018   1.29103
 Alpha virt. eigenvalues --    1.29460   1.31937   1.32794   1.46924   1.47775
 Alpha virt. eigenvalues --    1.51965   1.54232   1.56876   2.53503   2.55706
 Alpha virt. eigenvalues --    2.56033   2.57746   2.62082   2.62357   2.63878
 Alpha virt. eigenvalues --    2.66457   2.67069   2.68452   2.72117   2.74284
 Alpha virt. eigenvalues --    2.78345   2.83385   2.86700   2.91799   2.94352
 Alpha virt. eigenvalues --    2.94620   2.94748   2.96021   2.98136   2.98586
 Alpha virt. eigenvalues --    2.99931   3.02270   3.03932   3.04388   3.06537
 Alpha virt. eigenvalues --    3.08474   3.09293   3.09848   3.10057   3.13200
 Alpha virt. eigenvalues --    3.15115   3.16138   3.17737   3.18401   3.19432
 Alpha virt. eigenvalues --    3.21634   3.24081   3.25013   3.27691   3.28781
 Alpha virt. eigenvalues --    3.31465   3.33878   3.34362   3.35720   3.40843
 Alpha virt. eigenvalues --    3.41262   3.44156   3.45033   3.49954   3.52594
 Alpha virt. eigenvalues --    3.53522   3.55982   3.57642   3.58347   3.59510
 Alpha virt. eigenvalues --    3.62412   3.64035   3.65096   3.66253   3.66833
 Alpha virt. eigenvalues --    3.67693   3.69219   3.71263   3.72238   3.74363
 Alpha virt. eigenvalues --    3.76442   3.77557   3.78451   3.85626   3.88089
 Alpha virt. eigenvalues --    3.91052  24.26089  24.30019  24.31728  24.50540
 Alpha virt. eigenvalues --   24.50777  24.51041  24.53020  24.54614  24.56481
 Alpha virt. eigenvalues --   24.76167  24.77061  24.79107  24.80208  24.80751
 Alpha virt. eigenvalues --   24.82840  24.87489  25.04649  25.05791  25.07118
          Condensed to atoms (all electrons):
              1          2          3          4          5          6
     1  C    6.112637   0.472478   0.148037  -0.056461  -0.024580   0.003320
     2  H    0.472478   0.502250  -0.070375   0.005420   0.001791  -0.000260
     3  C    0.148037  -0.070375   5.392685   0.448361   0.492277  -0.058126
     4  C   -0.056461   0.005420   0.448361   5.067963  -0.072177   0.478788
     5  C   -0.024580   0.001791   0.492277  -0.072177   5.091426  -0.030684
     6  C    0.003320  -0.000260  -0.058126   0.478788  -0.030684   5.040918
     7  H    0.000095   0.000103  -0.044500   0.388608   0.004111  -0.028552
     8  C    0.006849   0.001549  -0.074006  -0.026400   0.454636  -0.078708
     9  H   -0.000129   0.002390  -0.050613   0.004338   0.400369  -0.000280
    10  C    0.001275   0.000000  -0.018769  -0.091396  -0.086439   0.491108
    11  H   -0.000350   0.000011   0.006016  -0.038878  -0.000475   0.397231
    12  H   -0.000340  -0.000039   0.006928  -0.000686  -0.039679   0.006247
    13  H   -0.000012  -0.000001  -0.001550   0.007899   0.007488  -0.042928
    14  C    0.032938  -0.062324  -0.093371  -0.006741  -0.001408  -0.000535
    15  C   -0.031593   0.000683   0.001647   0.001642  -0.000445   0.000018
    16  C   -0.085522  -0.004714  -0.007348  -0.009243   0.000557  -0.000351
    17  C    0.012285  -0.000112  -0.000822   0.000050   0.000007   0.000004
    18  H   -0.011404  -0.000272   0.000434   0.000054  -0.000017   0.000000
    19  C    0.008508   0.000595  -0.001661  -0.000315  -0.000049  -0.000010
    20  H   -0.003359  -0.000137   0.004118  -0.000626   0.001542  -0.000265
    21  C    0.000367   0.000035   0.000130   0.000033  -0.000003   0.000002
    22  H   -0.000363   0.000014   0.000012   0.000000   0.000000   0.000000
    23  H   -0.000355   0.000005   0.000016   0.000014  -0.000004   0.000002
    24  H   -0.000014  -0.000002   0.000002   0.000000   0.000000   0.000000
    25  C    0.117160  -0.075086  -0.142006  -0.003241  -0.002192   0.001896
    26  C   -0.024024   0.006384  -0.004560   0.000750   0.000625   0.000029
    27  C   -0.072413   0.004440  -0.003155  -0.011697   0.000520  -0.000380
    28  C    0.008190   0.001454  -0.000584   0.000056  -0.000012  -0.000001
    29  H   -0.002031   0.002834   0.000153  -0.000025   0.000215   0.000001
    30  C    0.002721  -0.000224   0.001968  -0.000101   0.000042  -0.000101
    31  H    0.000641  -0.000019  -0.003746   0.001830  -0.000212   0.001133
    32  C    0.001685   0.000006  -0.000063  -0.000006  -0.000013   0.000002
    33  H   -0.000407  -0.000034   0.000021  -0.000001   0.000001   0.000000
    34  H   -0.000372   0.000011   0.000028   0.000039   0.000002   0.000000
    35  H   -0.000026  -0.000002  -0.000002   0.000001   0.000000   0.000000
              7          8          9         10         11         12
     1  C    0.000095   0.006849  -0.000129   0.001275  -0.000350  -0.000340
     2  H    0.000103   0.001549   0.002390   0.000000   0.000011  -0.000039
     3  C   -0.044500  -0.074006  -0.050613  -0.018769   0.006016   0.006928
     4  C    0.388608  -0.026400   0.004338  -0.091396  -0.038878  -0.000686
     5  C    0.004111   0.454636   0.400369  -0.086439  -0.000475  -0.039679
     6  C   -0.028552  -0.078708  -0.000280   0.491108   0.397231   0.006247
     7  H    0.497361   0.000025  -0.000273   0.004558  -0.003321   0.000014
     8  C    0.000025   5.058868  -0.034766   0.497975   0.005965   0.396953
     9  H   -0.000273  -0.034766   0.509495   0.005228   0.000025  -0.004202
    10  C    0.004558   0.497975   0.005228   5.034096  -0.039834  -0.040698
    11  H   -0.003321   0.005965   0.000025  -0.039834   0.514751  -0.000205
    12  H    0.000014   0.396953  -0.004202  -0.040698  -0.000205   0.518110
    13  H   -0.000173  -0.042553  -0.000184   0.399662  -0.004471  -0.004586
    14  C    0.001157  -0.000426   0.000153   0.000038   0.000025   0.000011
    15  C   -0.000189   0.000020  -0.000033  -0.000002   0.000000   0.000000
    16  C    0.000360  -0.000093   0.000285   0.000116   0.000016  -0.000002
    17  C   -0.000112   0.000000   0.000000   0.000000   0.000000   0.000000
    18  H    0.000025   0.000000   0.000001   0.000000   0.000000   0.000000
    19  C    0.000075   0.000014  -0.000008   0.000002   0.000001   0.000000
    20  H   -0.000054   0.000119   0.000201  -0.000083   0.000005   0.000007
    21  C   -0.000039   0.000000   0.000001   0.000000   0.000000   0.000000
    22  H    0.000000   0.000000   0.000000   0.000000   0.000000   0.000000
    23  H    0.000005  -0.000001   0.000000   0.000000   0.000000   0.000000
    24  H    0.000001   0.000000   0.000000   0.000000   0.000000   0.000000
    25  C   -0.002879  -0.000518   0.000346  -0.000088   0.000028   0.000025
    26  C   -0.000199  -0.000017   0.000274  -0.000009   0.000000   0.000001
    27  C   -0.000892   0.000125  -0.000008  -0.000025   0.000056   0.000000
    28  C   -0.000001   0.000002   0.000006   0.000000   0.000000   0.000000
    29  H   -0.000002  -0.000002   0.000068  -0.000001   0.000000   0.000000
    30  C    0.000888   0.000001  -0.000001   0.000001   0.000002   0.000000
    31  H    0.001509  -0.000056   0.000001   0.000002  -0.000057   0.000001
    32  C   -0.000015   0.000000  -0.000002   0.000000   0.000000   0.000000
    33  H    0.000000   0.000000   0.000000   0.000000   0.000000   0.000000
    34  H   -0.000033   0.000000   0.000000   0.000000   0.000001   0.000000
    35  H    0.000000   0.000000   0.000000   0.000000   0.000000   0.000000
             13         14         15         16         17         18
     1  C   -0.000012   0.032938  -0.031593  -0.085522   0.012285  -0.011404
     2  H   -0.000001  -0.062324   0.000683  -0.004714  -0.000112  -0.000272
     3  C   -0.001550  -0.093371   0.001647  -0.007348  -0.000822   0.000434
     4  C    0.007899  -0.006741   0.001642  -0.009243   0.000050   0.000054
     5  C    0.007488  -0.001408  -0.000445   0.000557   0.000007  -0.000017
     6  C   -0.042928  -0.000535   0.000018  -0.000351   0.000004   0.000000
     7  H   -0.000173   0.001157  -0.000189   0.000360  -0.000112   0.000025
     8  C   -0.042553  -0.000426   0.000020  -0.000093   0.000000   0.000000
     9  H   -0.000184   0.000153  -0.000033   0.000285   0.000000   0.000001
    10  C    0.399662   0.000038  -0.000002   0.000116   0.000000   0.000000
    11  H   -0.004471   0.000025   0.000000   0.000016   0.000000   0.000000
    12  H   -0.004586   0.000011   0.000000  -0.000002   0.000000   0.000000
    13  H    0.517391   0.000001   0.000000   0.000000   0.000000   0.000000
    14  C    0.000001   5.351503   0.499895   0.471832  -0.068620  -0.034895
    15  C    0.000000   0.499895   5.097841  -0.084017   0.454235   0.394124
    16  C    0.000000   0.471832  -0.084017   5.125438  -0.033344   0.004979
    17  C    0.000000  -0.068620   0.454235  -0.033344   5.078669  -0.036442
    18  H    0.000000  -0.034895   0.394124   0.004979  -0.036442   0.477595
    19  C    0.000000  -0.056872  -0.030261   0.463200  -0.073785  -0.000443
    20  H    0.000001  -0.044756   0.004496   0.397441  -0.000472  -0.000195
    21  C    0.000000  -0.020725  -0.089782  -0.085135   0.495294   0.005051
    22  H    0.000000   0.006481  -0.036857  -0.000406   0.395646  -0.003533
    23  H    0.000000   0.006144  -0.000433  -0.038266   0.005993   0.000017
    24  H    0.000000  -0.001453   0.007658   0.007450  -0.042161  -0.000170
    25  C   -0.000003  -0.065043  -0.012683   0.011462  -0.001645   0.001134
    26  C    0.000000  -0.000416   0.000880  -0.000287  -0.000112  -0.001034
    27  C    0.000000   0.006721  -0.018498   0.000874  -0.000974  -0.000962
    28  C    0.000000  -0.000760   0.000341   0.000005   0.000005  -0.000127
    29  H    0.000000   0.000493   0.000132   0.000012   0.000004   0.000093
    30  C    0.000000   0.000715  -0.001435   0.000015  -0.000040   0.000239
    31  H    0.000000   0.001484   0.001701   0.000005   0.000124   0.000054
    32  C    0.000000  -0.000066   0.000144   0.000000   0.000004   0.000109
    33  H    0.000000   0.000023  -0.000008   0.000000   0.000000   0.000011
    34  H    0.000000   0.000020   0.000002   0.000000  -0.000002   0.000037
    35  H    0.000000   0.000002  -0.000003   0.000000   0.000000   0.000010
             19         20         21         22         23         24
     1  C    0.008508  -0.003359   0.000367  -0.000363  -0.000355  -0.000014
     2  H    0.000595  -0.000137   0.000035   0.000014   0.000005  -0.000002
     3  C   -0.001661   0.004118   0.000130   0.000012   0.000016   0.000002
     4  C   -0.000315  -0.000626   0.000033   0.000000   0.000014   0.000000
     5  C   -0.000049   0.001542  -0.000003   0.000000  -0.000004   0.000000
     6  C   -0.000010  -0.000265   0.000002   0.000000   0.000002   0.000000
     7  H    0.000075  -0.000054  -0.000039   0.000000   0.000005   0.000001
     8  C    0.000014   0.000119   0.000000   0.000000  -0.000001   0.000000
     9  H   -0.000008   0.000201   0.000001   0.000000   0.000000   0.000000
    10  C    0.000002  -0.000083   0.000000   0.000000   0.000000   0.000000
    11  H    0.000001   0.000005   0.000000   0.000000   0.000000   0.000000
    12  H    0.000000   0.000007   0.000000   0.000000   0.000000   0.000000
    13  H    0.000000   0.000001   0.000000   0.000000   0.000000   0.000000
    14  C   -0.056872  -0.044756  -0.020725   0.006481   0.006144  -0.001453
    15  C   -0.030261   0.004496  -0.089782  -0.036857  -0.000433   0.007658
    16  C    0.463200   0.397441  -0.085135  -0.000406  -0.038266   0.007450
    17  C   -0.073785  -0.000472   0.495294   0.395646   0.005993  -0.042161
    18  H   -0.000443  -0.000195   0.005051  -0.003533   0.000017  -0.000170
    19  C    5.062743  -0.035168   0.480633   0.006010   0.397056  -0.043196
    20  H   -0.035168   0.489282   0.005228   0.000017  -0.003857  -0.000173
    21  C    0.480633   0.005228   5.042868  -0.041255  -0.040846   0.399484
    22  H    0.006010   0.000017  -0.041255   0.517815  -0.000213  -0.004465
    23  H    0.397056  -0.003857  -0.040846  -0.000213   0.517550  -0.004405
    24  H   -0.043196  -0.000173   0.399484  -0.004465  -0.004405   0.519391
    25  C   -0.000882   0.000804   0.000124   0.000058   0.000012   0.000001
    26  C    0.000009  -0.000006  -0.000004   0.000004   0.000000   0.000000
    27  C   -0.000023  -0.000040  -0.000015   0.000025   0.000000   0.000001
    28  C    0.000000   0.000000   0.000000   0.000000   0.000000   0.000000
    29  H    0.000000  -0.000001   0.000000   0.000000   0.000000   0.000000
    30  C    0.000000   0.000000   0.000000  -0.000001   0.000000   0.000000
    31  H   -0.000058   0.000022   0.000000   0.000001  -0.000001   0.000000
    32  C    0.000000   0.000000   0.000000  -0.000001   0.000000   0.000000
    33  H    0.000000   0.000000   0.000000   0.000000   0.000000   0.000000
    34  H    0.000000   0.000000   0.000000   0.000000   0.000000   0.000000
    35  H    0.000000   0.000000   0.000000   0.000000   0.000000   0.000000
             25         26         27         28         29         30
     1  C    0.117160  -0.024024  -0.072413   0.008190  -0.002031   0.002721
     2  H   -0.075086   0.006384   0.004440   0.001454   0.002834  -0.000224
     3  C   -0.142006  -0.004560  -0.003155  -0.000584   0.000153   0.001968
     4  C   -0.003241   0.000750  -0.011697   0.000056  -0.000025  -0.000101
     5  C   -0.002192   0.000625   0.000520  -0.000012   0.000215   0.000042
     6  C    0.001896   0.000029  -0.000380  -0.000001   0.000001  -0.000101
     7  H   -0.002879  -0.000199  -0.000892  -0.000001  -0.000002   0.000888
     8  C   -0.000518  -0.000017   0.000125   0.000002  -0.000002   0.000001
     9  H    0.000346   0.000274  -0.000008   0.000006   0.000068  -0.000001
    10  C   -0.000088  -0.000009  -0.000025   0.000000  -0.000001   0.000001
    11  H    0.000028   0.000000   0.000056   0.000000   0.000000   0.000002
    12  H    0.000025   0.000001   0.000000   0.000000   0.000000   0.000000
    13  H   -0.000003   0.000000   0.000000   0.000000   0.000000   0.000000
    14  C   -0.065043  -0.000416   0.006721  -0.000760   0.000493   0.000715
    15  C   -0.012683   0.000880  -0.018498   0.000341   0.000132  -0.001435
    16  C    0.011462  -0.000287   0.000874   0.000005   0.000012   0.000015
    17  C   -0.001645  -0.000112  -0.000974   0.000005   0.000004  -0.000040
    18  H    0.001134  -0.001034  -0.000962  -0.000127   0.000093   0.000239
    19  C   -0.000882   0.000009  -0.000023   0.000000   0.000000   0.000000
    20  H    0.000804  -0.000006  -0.000040   0.000000  -0.000001   0.000000
    21  C    0.000124  -0.000004  -0.000015   0.000000   0.000000   0.000000
    22  H    0.000058   0.000004   0.000025   0.000000   0.000000  -0.000001
    23  H    0.000012   0.000000   0.000000   0.000000   0.000000   0.000000
    24  H    0.000001   0.000000   0.000001   0.000000   0.000000   0.000000
    25  C    5.395247   0.498162   0.451163  -0.076707  -0.045824  -0.063578
    26  C    0.498162   5.049807  -0.063609   0.467889   0.394695  -0.033857
    27  C    0.451163  -0.063609   5.096352  -0.029487   0.004759   0.480261
    28  C   -0.076707   0.467889  -0.029487   5.047679  -0.033774  -0.077408
    29  H   -0.045824   0.394695   0.004759  -0.033774   0.506618  -0.000286
    30  C   -0.063578  -0.033857   0.480261  -0.077408  -0.000286   5.046258
    31  H   -0.047328   0.004599   0.386313  -0.000121  -0.000271  -0.027203
    32  C   -0.016168  -0.088987  -0.093517   0.499768   0.005070   0.490292
    33  H    0.007003  -0.039428  -0.000633   0.396348  -0.004073   0.006267
    34  H    0.005978  -0.000380  -0.038560   0.005900   0.000025   0.397011
    35  H   -0.001681   0.007570   0.007985  -0.042548  -0.000178  -0.042973
             31         32         33         34         35
     1  C    0.000641   0.001685  -0.000407  -0.000372  -0.000026
     2  H   -0.000019   0.000006  -0.000034   0.000011  -0.000002
     3  C   -0.003746  -0.000063   0.000021   0.000028  -0.000002
     4  C    0.001830  -0.000006  -0.000001   0.000039   0.000001
     5  C   -0.000212  -0.000013   0.000001   0.000002   0.000000
     6  C    0.001133   0.000002   0.000000   0.000000   0.000000
     7  H    0.001509  -0.000015   0.000000  -0.000033   0.000000
     8  C   -0.000056   0.000000   0.000000   0.000000   0.000000
     9  H    0.000001  -0.000002   0.000000   0.000000   0.000000
    10  C    0.000002   0.000000   0.000000   0.000000   0.000000
    11  H   -0.000057   0.000000   0.000000   0.000001   0.000000
    12  H    0.000001   0.000000   0.000000   0.000000   0.000000
    13  H    0.000000   0.000000   0.000000   0.000000   0.000000
    14  C    0.001484  -0.000066   0.000023   0.000020   0.000002
    15  C    0.001701   0.000144  -0.000008   0.000002  -0.000003
    16  C    0.000005   0.000000   0.000000   0.000000   0.000000
    17  C    0.000124   0.000004   0.000000  -0.000002   0.000000
    18  H    0.000054   0.000109   0.000011   0.000037   0.000010
    19  C   -0.000058   0.000000   0.000000   0.000000   0.000000
    20  H    0.000022   0.000000   0.000000   0.000000   0.000000
    21  C    0.000000   0.000000   0.000000   0.000000   0.000000
    22  H    0.000001  -0.000001   0.000000   0.000000   0.000000
    23  H   -0.000001   0.000000   0.000000   0.000000   0.000000
    24  H    0.000000   0.000000   0.000000   0.000000   0.000000
    25  C   -0.047328  -0.016168   0.007003   0.005978  -0.001681
    26  C    0.004599  -0.088987  -0.039428  -0.000380   0.007570
    27  C    0.386313  -0.093517  -0.000633  -0.038560   0.007985
    28  C   -0.000121   0.499768   0.396348   0.005900  -0.042548
    29  H   -0.000271   0.005070  -0.004073   0.000025  -0.000178
    30  C   -0.027203   0.490292   0.006267   0.397011  -0.042973
    31  H    0.497258   0.004627   0.000016  -0.003387  -0.000170
    32  C    0.004627   5.033583  -0.041012  -0.039793   0.399450
    33  H    0.000016  -0.041012   0.517938  -0.000206  -0.004555
    34  H   -0.003387  -0.039793  -0.000206   0.514382  -0.004370
    35  H   -0.000170   0.399450  -0.004555  -0.004370   0.516921
 Mulliken atomic charges:
              1
     1  C   -0.615430
     2  H    0.211147
     3  C    0.072425
     4  C   -0.087851
     5  C   -0.197219
     6  C   -0.179517
     7  H    0.182339
     8  C   -0.165555
     9  H    0.167317
    10  C   -0.156717
    11  H    0.163459
    12  H    0.162141
    13  H    0.164019
    14  C    0.078776
    15  C   -0.159220
    16  C   -0.135315
    17  C   -0.183675
    18  H    0.205528
    19  C   -0.176114
    20  H    0.185906
    21  C   -0.151445
    22  H    0.161011
    23  H    0.161566
    24  H    0.162051
    25  C    0.066950
    26  C   -0.174753
    27  C   -0.104706
    28  C   -0.166117
    29  H    0.171297
    30  C   -0.179474
    31  H    0.181308
    32  C   -0.155098
    33  H    0.162729
    34  H    0.163668
    35  H    0.164569
 Sum of Mulliken atomic charges =   0.00000
 Mulliken charges with hydrogens summed into heavy atoms:
              1
     1  C   -0.404283
     3  C    0.072425
     4  C    0.094488
     5  C   -0.029903
     6  C   -0.016058
     8  C   -0.003414
    10  C    0.007302
    14  C    0.078776
    15  C    0.046308
    16  C    0.050591
    17  C   -0.022664
    19  C   -0.014548
    21  C    0.010605
    25  C    0.066950
    26  C   -0.003456
    27  C    0.076602
    28  C   -0.003388
    30  C   -0.015805
    32  C    0.009471
 Sum of Mulliken charges with hydrogens summed into heavy atoms =   0.00000
 Electronic spatial extent (au):  <R**2>=           4931.5646
 Charge=              0.0000 electrons
 Dipole moment (field-independent basis, Debye):
    X=             -0.0932    Y=             -0.1685    Z=             -0.0183  Tot=              0.1935
 Quadrupole moment (field-independent basis, Debye-Ang):
   XX=           -107.5849   YY=           -113.2711   ZZ=           -106.9138
   XY=             -2.7689   XZ=             -0.8690   YZ=              2.6308
 Traceless Quadrupole moment (field-independent basis, Debye-Ang):
   XX=              1.6717   YY=             -4.0145   ZZ=              2.3428
   XY=             -2.7689   XZ=             -0.8690   YZ=              2.6308
 Octapole moment (field-independent basis, Debye-Ang**2):
  XXX=            -27.6242  YYY=             10.8165  ZZZ=              0.8124  XYY=             36.5285
  XXY=              0.3193  XXZ=             -2.6064  XZZ=             -9.9611  YZZ=            -18.9066
  YYZ=             11.6716  XYZ=             -1.5168
 Hexadecapole moment (field-independent basis, Debye-Ang**3):
 XXXX=          -3054.8595 YYYY=          -2917.7410 ZZZZ=           -663.3160 XXXY=             63.6445
 XXXZ=            -14.0181 YYYX=            -67.3802 YYYZ=             73.5046 ZZZX=              6.5536
 ZZZY=             -2.2994 XXYY=          -1016.2803 XXZZ=           -627.4995 YYZZ=           -637.4084
 XXYZ=             -7.7884 YYXZ=             10.1265 ZZXY=            -32.9207
 N-N= 1.290734418319D+03 E-N=-4.277546547817D+03  KE= 7.286027237997D+02
 PrsmSu:  requested number of processors reduced to:  10 ShMem   1 Linda.
 Calling FoFJK, ICntrl=      2127 FMM=F ISym2X=0 I1Cent= 0 IOpClX= 0 NMat=1 NMatS=1 NMatT=0.
 ***** Axes restored to original set *****
 -------------------------------------------------------------------
 Center     Atomic                   Forces (Hartrees/Bohr)
 Number     Number              X              Y              Z
 -------------------------------------------------------------------
      1        6           0.022568002   -0.005155363   -0.001172302
      2        1          -0.025095436   -0.000035562    0.003072766
      3        6           0.006122481   -0.003375611    0.012488794
      4        6          -0.008849096    0.004010788   -0.006080549
      5        6           0.005278788   -0.001587791   -0.001997010
      6        6          -0.012090884    0.003066541    0.000711124
      7        1           0.015401543   -0.001719668    0.023280324
      8        6           0.007017469   -0.004374783    0.010856720
      9        1          -0.016455865    0.004309415    0.004280770
     10        6          -0.001489456   -0.002175648    0.013527026
     11        1           0.015641822   -0.003765216   -0.004626973
     12        1          -0.011084635    0.005493639   -0.010952370
     13        1           0.004585583    0.001737340   -0.016052505
     14        6          -0.001559224    0.013363462   -0.006560412
     15        6          -0.003552115   -0.008693781   -0.007544193
     16        6           0.004004554    0.000779697    0.007777467
     17        6          -0.004556422    0.005744512   -0.010487524
     18        1           0.007900496    0.016973407    0.011313183
     19        6           0.005213880    0.007806903    0.008498711
     20        1          -0.007605477    0.005062448   -0.016504549
     21        6          -0.001955138    0.012245004   -0.005905505
     22        1           0.006755300   -0.003419372    0.014848368
     23        1          -0.005617078   -0.012233171   -0.009763275
     24        1           0.000984900   -0.015793949    0.005085643
     25        6           0.004589599   -0.010308612   -0.008003171
     26        6           0.005910013    0.000900132    0.000642591
     27        6          -0.008998727    0.005840082    0.006198141
     28        6           0.005660662   -0.010075636   -0.007412414
     29        1          -0.017768948    0.000165262   -0.001344945
     30        6          -0.012424920    0.001663459    0.000389911
     31        1           0.011046657   -0.019360510   -0.019449487
     32        6          -0.003739508   -0.010190434   -0.008353270
     33        1          -0.009677376    0.011046664    0.008002024
     34        1           0.016646309    0.000403376    0.001485333
     35        1           0.007192249    0.011652975    0.009751560
 -------------------------------------------------------------------
 Cartesian Forces:  Max     0.025095436 RMS     0.009550446

 GradGradGradGradGradGradGradGradGradGradGradGradGradGradGradGradGradGrad
 Berny optimization.
 Internal  Forces:  Max     0.028673299 RMS     0.007784722
 Search for a local minimum.
 Step number   1 out of a maximum of  197
 All quantities printed in internal units (Hartrees-Bohrs-Radians)
 Mixed Optimization -- RFO/linear search
 Second derivative matrix not updated -- first step.
     Eigenvalues ---    0.00635   0.00650   0.00657   0.01533   0.01538
     Eigenvalues ---    0.01540   0.02137   0.02142   0.02147   0.02170
     Eigenvalues ---    0.02172   0.02173   0.02182   0.02184   0.02185
     Eigenvalues ---    0.02200   0.02202   0.02203   0.02211   0.02212
     Eigenvalues ---    0.02212   0.02214   0.02215   0.02215   0.02215
     Eigenvalues ---    0.02217   0.02219   0.02220   0.02220   0.02226
     Eigenvalues ---    0.04559   0.06400   0.06626   0.15997   0.15998
     Eigenvalues ---    0.16000   0.16000   0.16000   0.16000   0.16000
     Eigenvalues ---    0.16000   0.16000   0.16000   0.16000   0.16000
     Eigenvalues ---    0.16000   0.16000   0.16000   0.18863   0.19337
     Eigenvalues ---    0.22000   0.22000   0.22000   0.22000   0.22000
     Eigenvalues ---    0.22000   0.23465   0.23477   0.23478   0.24966
     Eigenvalues ---    0.24999   0.25000   0.31258   0.31360   0.31474
     Eigenvalues ---    0.31526   0.33514   0.33598   0.33985   0.34045
     Eigenvalues ---    0.34076   0.34094   0.34250   0.34258   0.34263
     Eigenvalues ---    0.34263   0.34265   0.34275   0.34280   0.34284
     Eigenvalues ---    0.34291   0.42392   0.42462   0.42492   0.42556
     Eigenvalues ---    0.42577   0.42618   0.46326   0.46389   0.46444
     Eigenvalues ---    0.46731   0.46760   0.46808   0.47206   0.47211
     Eigenvalues ---    0.47216   0.47340   0.47342   0.474421000.00000
     Eigenvalues --- 1000.000001000.000001000.000001000.000001000.00000
     Eigenvalues --- 1000.000001000.000001000.000001000.000001000.00000
     Eigenvalues --- 1000.000001000.000001000.000001000.000001000.00000
     Eigenvalues --- 1000.000001000.000001000.000001000.000001000.00000
     Eigenvalues --- 1000.000001000.000001000.000001000.000001000.00000
     Eigenvalues --- 1000.000001000.000001000.000001000.000001000.00000
     Eigenvalues --- 1000.000001000.000001000.000001000.000001000.00000
     Eigenvalues --- 1000.000001000.000001000.000001000.000001000.00000
     Eigenvalues --- 1000.000001000.000001000.000001000.000001000.00000
     Eigenvalues --- 1000.000001000.000001000.000001000.000001000.00000
     Eigenvalues --- 1000.000001000.000001000.000001000.000001000.00000
     Eigenvalues --- 1000.000001000.000001000.000001000.000001000.00000
     Eigenvalues --- 1000.000001000.000001000.000001000.000001000.00000
     Eigenvalues --- 1000.000001000.000001000.000001000.000001000.00000
     Eigenvalues --- 1000.000001000.000001000.000001000.000001000.00000
     Eigenvalues --- 1000.000001000.000001000.000001000.000001000.00000
     Eigenvalues --- 1000.000001000.000001000.000001000.000001000.00000
     Eigenvalues --- 1000.000001000.00000
 RFO step:  Lambda=-4.18400270D-02 EMin= 6.34973803D-03
 Linear search not attempted -- first point.
 Maximum step size (   0.300) exceeded in Quadratic search.
    -- Step size scaled by   0.592
 Iteration  1 RMS(Cart)=  0.12553368 RMS(Int)=  0.00303669
 Iteration  2 RMS(Cart)=  0.00614268 RMS(Int)=  0.00028158
 Iteration  3 RMS(Cart)=  0.00001074 RMS(Int)=  0.00028151
 Iteration  4 RMS(Cart)=  0.00000000 RMS(Int)=  0.00028151
 Variable       Old X    -DE/DX   Delta X   Delta X   Delta X     New X
                                 (Linear)    (Quad)   (Total)
    R1        2.12224  -0.02486   0.00000  -0.04153  -0.04153   2.08071
    R2        2.85330   0.02288   0.00000   0.03811   0.03811   2.89141
    R3        2.85117   0.02348   0.00000   0.03898   0.03898   2.89016
    R4        2.85020   0.02364   0.00000   0.03919   0.03919   2.88938
    R5        2.63873  -0.00009   0.00000   0.00000   0.00002   2.63876
    R6        2.63866  -0.00417   0.00000  -0.00484  -0.00483   2.63383
    R7        2.62559  -0.00468   0.00000  -0.00531  -0.00531   2.62028
    R8        2.08014  -0.02663   0.00000  -0.04173  -0.04173   2.03841
    R9        2.62788  -0.00228   0.00000  -0.00268  -0.00269   2.62519
   R10        2.07171  -0.01753   0.00000  -0.02711  -0.02711   2.04460
   R11        2.62842  -0.00518   0.00000  -0.00602  -0.00604   2.62239
   R12        2.06888  -0.01674   0.00000  -0.02578  -0.02578   2.04311
   R13        2.62757  -0.00884   0.00000  -0.01028  -0.01030   2.61727
   R14        2.06868  -0.01652   0.00000  -0.02543  -0.02543   2.04325
   R15        2.06853  -0.01678   0.00000  -0.02583  -0.02583   2.04270
   R16        2.63505  -0.00221   0.00000  -0.00244  -0.00244   2.63262
   R17        2.64400  -0.00208   0.00000  -0.00241  -0.00240   2.64159
   R18        2.62907  -0.00136   0.00000  -0.00149  -0.00149   2.62758
   R19        2.07355  -0.02180   0.00000  -0.03380  -0.03380   2.03974
   R20        2.62390  -0.00476   0.00000  -0.00552  -0.00552   2.61838
   R21        2.07254  -0.01883   0.00000  -0.02917  -0.02917   2.04337
   R22        2.62547  -0.00744   0.00000  -0.00858  -0.00859   2.61688
   R23        2.06897  -0.01667   0.00000  -0.02567  -0.02567   2.04331
   R24        2.62966  -0.00498   0.00000  -0.00589  -0.00590   2.62376
   R25        2.06885  -0.01663   0.00000  -0.02560  -0.02560   2.04325
   R26        2.06841  -0.01662   0.00000  -0.02557  -0.02557   2.04284
   R27        2.63947  -0.00434   0.00000  -0.00505  -0.00503   2.63444
   R28        2.63954   0.00078   0.00000   0.00106   0.00108   2.64062
   R29        2.62798  -0.00246   0.00000  -0.00292  -0.00292   2.62506
   R30        2.07203  -0.01781   0.00000  -0.02756  -0.02756   2.04447
   R31        2.62561  -0.00447   0.00000  -0.00505  -0.00505   2.62056
   R32        2.08157  -0.02867   0.00000  -0.04503  -0.04503   2.03655
   R33        2.62712  -0.00910   0.00000  -0.01061  -0.01062   2.61650
   R34        2.06910  -0.01672   0.00000  -0.02576  -0.02576   2.04334
   R35        2.62872  -0.00563   0.00000  -0.00655  -0.00657   2.62215
   R36        2.06889  -0.01672   0.00000  -0.02574  -0.02574   2.04315
   R37        2.06861  -0.01681   0.00000  -0.02587  -0.02587   2.04273
    A1        1.88376  -0.00871   0.00000  -0.04854  -0.04773   1.83603
    A2        1.82817   0.00384   0.00000   0.00032   0.00058   1.82875
    A3        1.87630  -0.00998   0.00000  -0.05152  -0.05061   1.82570
    A4        1.94647  -0.00316   0.00000   0.01232   0.01015   1.95662
    A5        1.92856   0.01534   0.00000   0.05436   0.05320   1.98176
    A6        1.99337   0.00077   0.00000   0.02146   0.01955   2.01292
    A7        2.11752   0.01871   0.00000   0.03798   0.03792   2.15544
    A8        2.08473  -0.00797   0.00000  -0.01614  -0.01619   2.06854
    A9        2.08093  -0.01074   0.00000  -0.02189  -0.02188   2.05905
   A10        2.10159   0.00416   0.00000   0.00936   0.00931   2.11089
   A11        2.07771   0.00379   0.00000   0.01267   0.01257   2.09028
   A12        2.10373  -0.00790   0.00000  -0.02163  -0.02173   2.08200
   A13        2.09879   0.00743   0.00000   0.01640   0.01641   2.11520
   A14        2.09523  -0.00439   0.00000  -0.01018  -0.01019   2.08504
   A15        2.08916  -0.00304   0.00000  -0.00623  -0.00624   2.08291
   A16        2.09593   0.00228   0.00000   0.00473   0.00472   2.10065
   A17        2.09182  -0.00105   0.00000  -0.00211  -0.00211   2.08971
   A18        2.09544  -0.00123   0.00000  -0.00262  -0.00262   2.09281
   A19        2.09792  -0.00033   0.00000  -0.00148  -0.00150   2.09642
   A20        2.09104   0.00038   0.00000   0.00135   0.00136   2.09240
   A21        2.09422  -0.00004   0.00000   0.00012   0.00013   2.09436
   A22        2.09119  -0.00279   0.00000  -0.00704  -0.00708   2.08411
   A23        2.09578   0.00145   0.00000   0.00369   0.00370   2.09948
   A24        2.09621   0.00134   0.00000   0.00336   0.00337   2.09958
   A25        2.13541   0.00719   0.00000   0.01449   0.01448   2.14989
   A26        2.07004   0.00074   0.00000   0.00139   0.00137   2.07142
   A27        2.07662  -0.00795   0.00000  -0.01614  -0.01613   2.06049
   A28        2.10150   0.00352   0.00000   0.00809   0.00809   2.10959
   A29        2.09243  -0.00011   0.00000   0.00079   0.00079   2.09322
   A30        2.08926  -0.00341   0.00000  -0.00888  -0.00888   2.08037
   A31        2.10344   0.00468   0.00000   0.01025   0.01026   2.11371
   A32        2.08458  -0.00124   0.00000  -0.00191  -0.00191   2.08267
   A33        2.09515  -0.00344   0.00000  -0.00835  -0.00836   2.08679
   A34        2.09921   0.00111   0.00000   0.00225   0.00224   2.10146
   A35        2.08892  -0.00049   0.00000  -0.00094  -0.00094   2.08798
   A36        2.09505  -0.00062   0.00000  -0.00131  -0.00131   2.09374
   A37        2.09661   0.00086   0.00000   0.00123   0.00122   2.09783
   A38        2.09178  -0.00042   0.00000  -0.00060  -0.00059   2.09119
   A39        2.09479  -0.00043   0.00000  -0.00063  -0.00063   2.09416
   A40        2.08896  -0.00222   0.00000  -0.00569  -0.00570   2.08326
   A41        2.09776   0.00107   0.00000   0.00274   0.00274   2.10051
   A42        2.09646   0.00115   0.00000   0.00295   0.00296   2.09941
   A43        2.07977  -0.01098   0.00000  -0.02224  -0.02227   2.05750
   A44        2.12439   0.02278   0.00000   0.04625   0.04623   2.17062
   A45        2.07901  -0.01179   0.00000  -0.02397  -0.02394   2.05507
   A46        2.10015   0.00811   0.00000   0.01783   0.01785   2.11800
   A47        2.09471  -0.00471   0.00000  -0.01083  -0.01084   2.08387
   A48        2.08833  -0.00340   0.00000  -0.00700  -0.00702   2.08131
   A49        2.10232   0.00451   0.00000   0.01020   0.01019   2.11251
   A50        2.07785   0.00438   0.00000   0.01443   0.01440   2.09225
   A51        2.10291  -0.00887   0.00000  -0.02445  -0.02448   2.07843
   A52        2.09785  -0.00022   0.00000  -0.00139  -0.00140   2.09645
   A53        2.09098   0.00029   0.00000   0.00122   0.00122   2.09221
   A54        2.09436  -0.00007   0.00000   0.00017   0.00018   2.09453
   A55        2.09635   0.00237   0.00000   0.00493   0.00491   2.10126
   A56        2.09140  -0.00109   0.00000  -0.00218  -0.00218   2.08922
   A57        2.09544  -0.00128   0.00000  -0.00274  -0.00273   2.09271
[...]
 55007,0.00006377,0.00002190,-0.00001823,0.00036320,-0.00007612,-0.0003
 9348,-0.00010026,0.00001525,-0.00000383,-0.00033103,0.00036276,-0.0000
 6212,0.00000132,-0.00000204,0.00000228,0.00001438,0.00000321,-0.000002
 24,-0.00000229,0.00001077,0.00000367,-0.00021648,-0.00127154,-0.001787
 93,-0.00015821,-0.00039053,-0.00049228,0.00039155,0.00010821,-0.000045
 94,0.00029371,0.00050878,0.00008562,0.00011722,0.00004597,0.00043256,0
 .00006788,-0.00018966,0.00029087,0.00001716,0.00000043,-0.00004001,-0.
 00030396,-0.00011533,-0.00018514,0.00003255,-0.00002678,-0.00002013,-0
 .00002534,-0.00001596,0.00004265,0.00001556,0.00001937,0.00001025,-0.0
 8143583,-0.00817527,0.05625292,0.01131342,-0.04630297,-0.07555388,0.01
 148384,-0.10081788,-0.21844345,0.07903297,0.05716347,0.02317876,-0.000
 18376,-0.00021326,-0.00108130,-0.15174899,0.21758241,0.56513892,-0.000
 27684,0.00202748,-0.00025006,0.00010427,-0.00007878,-0.00009485,-0.000
 13652,-0.00054839,-0.00008880,0.00061922,-0.00004543,-0.00006050,-0.00
 004683,0.00066130,-0.00041393,0.00013304,0.00002711,-0.00032794,-0.000
 04990,-0.00003714,-0.00000459,-0.00011691,0.00014719,-0.00004280,-0.00
 004846,-0.00007420,0.00002869,0.00005663,-0.00026421,0.00011131,-0.000
 03317,0.00005008,0.00004420,-0.00000216,-0.00003255,0.00002731,-0.0000
 0752,0.00000042,0.00005139,0.00024004,0.00008180,0.00010318,0.00007076
 ,0.00001143,-0.00001838,-0.00002409,0.00004884,-0.00003919,0.00000956,
 -0.00004900,-0.00002313,-0.00005206,0.00000610,0.00005672,-0.00000724,
 0.00000250,-0.00002218,-0.00003482,0.00000408,0.00001220,0.00000947,0.
 00002054,0.00001208,-0.00000996,0.00001347,-0.00000663,-0.00000062,0.0
 0000605,0.00000003,-0.00000751,0.00000490,0.00000290,-0.01207014,0.010
 10302,0.02653451,-0.00335112,-0.00571002,0.00188497,-0.16979919,0.0375
 2839,0.14073228,-0.00054843,-0.00050810,-0.00100319,-0.00086413,0.0005
 4108,0.00118886,0.01159268,-0.00562591,-0.01193978,0.17283275,0.001926
 94,-0.00198463,0.00179250,0.00033039,0.00053052,0.00020232,-0.00104468
 ,-0.00069722,-0.00088544,-0.00043325,-0.00024944,-0.00035893,-0.000180
 27,-0.00014795,-0.00029225,0.00013590,0.00010468,-0.00036072,-0.000036
 54,-0.00029436,-0.00002979,-0.00021659,-0.00010832,0.00037621,0.000179
 33,0.00001470,0.00003302,0.00017158,-0.00021101,0.00007000,-0.00000143
 ,0.00001082,-0.00000165,0.00003393,-0.00000493,0.00004738,0.00002158,-
 0.00000303,0.00004392,-0.00041518,-0.00034271,-0.00038649,-0.00012757,
 -0.00008291,-0.00018248,0.00005868,-0.00016345,0.00006377,0.00007696,-
 0.00001873,0.00004043,-0.00002043,0.00008119,0.00023789,-0.00004775,0.
 00003049,-0.00001349,0.00001404,-0.00000087,0.00000370,0.00002110,0.00
 001264,0.00001813,-0.00000911,-0.00000276,0.00000097,0.00000620,-0.000
 00015,0.00001199,0.00000687,0.00001915,0.00000022,-0.00974839,0.009807
 57,0.01298522,-0.00547174,0.00298005,-0.00301480,0.03771911,-0.0803477
 8,-0.06839465,-0.00036365,-0.00088689,0.00043447,-0.00050524,0.0001735
 4,0.00068743,0.01637212,-0.00101948,-0.02061658,-0.03631079,0.07429389
 ,-0.00126228,0.00166785,-0.00186941,-0.00006391,-0.00014187,-0.0001583
 4,-0.00193912,-0.00122931,-0.00068514,-0.00055396,-0.00074025,-0.00065
 455,-0.00021167,-0.00044290,0.00019564,-0.00002526,-0.00023238,0.00011
 338,0.00005823,0.00026405,0.00006405,0.00008883,0.00008760,-0.00014516
 ,0.00002356,0.00002893,0.00003038,-0.00002816,0.00022291,-0.00010052,-
 0.00000320,0.00002254,0.00002348,0.00000158,-0.00001287,-0.00000753,-0
 .00000299,0.00000738,0.00000963,0.00042452,0.00017002,0.00048241,0.000
 16904,0.00024136,0.00028568,-0.00008136,0.00019420,-0.00007799,-0.0001
 0338,-0.00002331,-0.00004305,0.00003198,-0.00006031,-0.00030937,0.0000
 2502,-0.00002191,0.00000294,-0.00002010,-0.00001097,-0.00000965,-0.000
 00568,-0.00000177,-0.00001479,0.00000349,0.00002080,-0.00001481,-0.000
 00318,0.00000782,-0.00001280,-0.00000770,-0.00001550,-0.00000605,0.000
 67512,-0.00289960,0.00107360,0.00160877,-0.00256440,0.00368662,0.14273
 786,-0.06882376,-0.24696457,-0.00096111,0.00029530,0.00013468,-0.00000
 488,-0.00006250,-0.00005947,0.01586013,-0.00345366,-0.01088078,-0.1545
 7495,0.08097749,0.25647253,-0.00153411,-0.00180828,0.00024590,0.001014
 92,-0.00050752,-0.00012610,-0.00051926,0.00023206,-0.00029681,0.000283
 21,0.00003341,-0.00040016,0.00011492,0.00014470,0.00041055,-0.00001734
 ,-0.00018561,0.00032305,0.00000157,-0.00002050,-0.00001546,0.00029987,
 -0.00001333,-0.00034029,-0.00009752,-0.00003892,0.00000404,-0.00025097
 ,0.00025678,-0.00007170,-0.00000839,-0.00000617,-0.00000691,0.00000791
 ,-0.00000837,-0.00000660,-0.00000772,0.00000084,0.00000573,0.00044566,
 -0.00030322,-0.00131947,0.00001420,-0.00039335,-0.00022825,0.00038482,
 0.00025713,-0.00018851,0.00021276,0.00047794,0.00001253,0.00005745,-0.
 00004513,0.00027282,0.00013232,-0.00021426,0.00032476,0.00000947,0.000
 01006,-0.00000955,-0.00031785,-0.00017500,-0.00018161,0.00004492,-0.00
 003773,-0.00000777,-0.00003458,-0.00001017,0.00004229,0.00000506,0.000
 00009,0.00000964,-0.08210446,-0.00397835,0.04891526,-0.00109330,-0.069
 26384,-0.08125770,0.07793726,0.05893479,0.02421560,-0.30832156,-0.0738
 3242,0.07313637,0.00270452,-0.00309382,0.00083666,-0.21584155,-0.01667
 375,0.07816632,0.00159389,-0.00487577,-0.00036343,0.64788390,-0.000107
 77,-0.00075126,0.00095693,0.00021251,-0.00009840,-0.00010048,-0.000167
 12,-0.00006196,0.00005230,-0.00007469,0.00005182,-0.00006010,0.0000678
 5,-0.00005820,-0.00001510,-0.00001883,0.00001029,0.00001302,-0.0000053
 0,-0.00000833,0.00000263,0.00003426,0.00000152,0.00002276,-0.00000745,
 -0.00003526,0.00004682,0.00003702,0.00001447,-0.00005161,0.00000902,-0
 .00000960,-0.00001867,-0.00001377,0.00000348,-0.00004022,0.00000197,-0
 .00000421,-0.00001605,-0.00006276,0.00005617,-0.00076667,-0.00014593,-
 0.00010350,0.00000135,0.00013665,-0.00018493,0.00008944,0.00006961,0.0
 0003706,0.00003588,0.00001148,0.00000351,0.00001170,-0.00004477,-0.000
 01013,0.00003368,0.00001224,0.00002313,-0.00001445,-0.00002044,-0.0000
 5492,0.00000003,0.00001661,-0.00003096,0.00001008,-0.00000791,-0.00003
 118,0.00001460,0.00000639,-0.00000451,0.00000832,-0.00572875,-0.003883
 87,0.00783197,-0.03038040,-0.01744006,-0.01210267,0.01959062,0.0001561
 0,-0.02684001,-0.12488929,-0.15940149,-0.00249059,-0.00361338,0.001643
 12,-0.00672721,0.03444826,-0.13992894,-0.09571301,-0.00454859,0.001346
 02,-0.00595151,0.18985116,0.50735150,0.00048880,0.00137848,0.00008321,
 -0.00057617,0.00003399,-0.00025622,0.00014034,-0.00035768,0.00026594,-
 0.00023468,0.00002295,0.00014344,0.00000054,-0.00007823,-0.00032089,-0
 .00001138,0.00013009,-0.00019324,-0.00001670,0.00002449,0.00001409,-0.
 00016724,0.00003152,0.00024042,0.00004318,0.00000210,0.00000899,0.0002
 0928,-0.00016044,-0.00001484,0.00001925,-0.00000696,-0.00001763,-0.000
 01630,0.00000836,-0.00002284,0.00000315,-0.00000186,-0.00002037,-0.000
 21847,0.00042512,0.00036460,-0.00013034,-0.00004393,0.00010906,-0.0000
 4899,-0.00027328,0.00020687,-0.00013041,-0.00025192,-0.00003928,-0.000
 19796,-0.00007634,-0.00031561,-0.00009859,0.00010036,-0.00015300,0.000
 00360,0.00001775,0.00000161,0.00015748,0.00000652,0.00012172,0.0000126
 1,-0.00004682,0.00002701,0.00001633,-0.00002598,-0.00001370,-0.0000064
 2,-0.00001696,0.00000298,0.04805376,0.00762890,-0.03331290,-0.02992733
 ,0.01673285,0.05478994,-0.02639594,-0.05609837,-0.04192661,0.00954886,
 -0.03990151,-0.14053220,0.00029103,-0.00694000,0.00002058,0.14141399,-
 0.05764556,-0.26142726,-0.00005813,-0.00598266,0.00128781,-0.11235296,
 0.27579600,0.60357594,0.00032579,-0.00009401,-0.00050446,-0.00002875,0
 .00005197,0.00002285,-0.00008369,-0.00002497,-0.00002479,0.00003864,0.
 00000445,-0.00001103,0.00002319,0.00000507,0.00001643,0.00001343,-0.00
 000466,0.00001917,-0.00000533,-0.00001014,-0.00000405,0.00001518,0.000
 01030,-0.00002671,-0.00001744,-0.00000183,-0.00000842,-0.00001443,0.00
 001900,-0.00000933,-0.00000589,-0.00000152,-0.00000067,0.00000102,-0.0
 0000312,-0.00000130,-0.00000447,-0.00000193,0.00000322,0.00002003,0.00
 005709,0.00008428,-0.00001083,0.00001865,-0.00001654,-0.00004226,0.000
 00329,0.00000220,0.00002537,-0.00001921,0.00000699,-0.00000331,-0.0000
 2128,0.00002611,-0.00000492,0.00000892,-0.00001506,-0.00000225,-0.0000
 0423,-0.00000246,0.00001448,0.00001934,0.00000053,-0.00001464,0.000010
 03,-0.00000078,0.00000356,0.00000465,-0.00000195,-0.00000047,0.0000090
 3,0.00000112,0.00158787,-0.00456979,-0.00005284,0.01133159,-0.00590250
 ,-0.01147159,-0.00042675,-0.00048087,-0.00099377,-0.16976833,0.0403146
 9,0.13903702,0.00012447,0.00226480,-0.00106899,-0.00344004,-0.00576404
 ,0.00168325,-0.00020888,0.00043451,-0.00023381,-0.01137302,0.01172965,
 0.02699707,0.17256013,0.00084576,-0.00003368,-0.00067957,0.00001032,0.
 00007221,0.00004092,-0.00012445,-0.00038964,-0.00006762,-0.00000158,0.
 00002916,-0.00004338,-0.00000533,0.00001819,-0.00007562,0.00001678,0.0
 0003822,-0.00002986,-0.00000739,-0.00001375,-0.00000047,-0.00000792,0.
 00000614,0.00005536,0.00000255,-0.00000234,0.00000813,0.00004165,-0.00
 003354,-0.00002420,0.00001147,-0.00000292,-0.00001069,-0.00000361,0.00
 000510,-0.00000627,0.00000160,-0.00000131,-0.00000793,-0.00003777,0.00
 005714,-0.00015527,-0.00000129,-0.00004515,0.00004303,0.00001782,-0.00
 006721,0.00002740,-0.00002316,-0.00000352,0.00001182,0.00000614,0.0000
 1155,-0.00004569,-0.00001630,-0.00000173,0.00001275,0.00001531,0.00000
 730,-0.00000581,-0.00000439,-0.00003444,0.00002267,0.00002115,-0.00001
 911,0.00000141,0.00000069,-0.00001291,-0.00000226,0.00000463,-0.000011
 17,-0.00000426,-0.00485829,0.00144325,-0.00578068,0.01682652,-0.000817
 03,-0.02037592,-0.00050968,-0.00091871,0.00037855,0.04016460,-0.082971
 33,-0.07232611,0.00156521,-0.00193925,0.00287695,-0.00546835,0.0031956
 8,-0.00280359,0.00047313,-0.00060051,0.00046009,-0.01083327,0.00948541
 ,0.01300949,-0.03994268,0.07522014,0.00084661,0.00015104,-0.00059617,-
 0.00006864,-0.00001123,-0.00001665,-0.00022905,-0.00022068,0.00003865,
 0.00001140,0.00003937,-0.00010511,0.00006346,-0.00003248,-0.00004258,0
 .00000146,0.00001012,0.00003084,-0.00000405,0.00000402,0.00000551,0.00
 002650,-0.00000913,-0.00000108,-0.00000295,-0.00000913,0.00001597,-0.0
 0000623,0.00001829,-0.00003149,0.00001169,-0.00000568,-0.00001204,0.00
 000056,0.00001333,-0.00002125,0.00000372,0.00000071,-0.00001389,-0.000
 04564,0.00013268,-0.00012656,0.00002781,-0.00002886,0.00004284,0.00000
 024,-0.00007844,0.00006553,-0.00001102,-0.00000093,-0.00001329,-0.0000
 3270,0.00002138,-0.00002286,-0.00001766,-0.00001132,0.00000295,0.00000
 711,0.00001045,-0.00001103,-0.00000795,-0.00002031,0.00000851,0.000011
 01,-0.00000823,0.00000556,-0.00000420,-0.00002142,-0.00000579,0.000000
 44,-0.00001569,0.00000241,-0.00034963,-0.00626617,0.00155847,0.0167054
 3,-0.00372902,-0.01130446,-0.00102130,0.00025139,0.00014394,0.13884611
 ,-0.07237450,-0.24125325,-0.00201824,0.00230384,-0.00082582,0.00208415
 ,-0.00253576,0.00397027,-0.00022665,0.00051319,-0.00045316,-0.00101228
 ,-0.00354057,0.00180348,-0.15269569,0.08280603,0.24811044,-0.00037164,
 0.00022166,0.00045211,-0.00008500,-0.00011259,-0.00007341,-0.00004566,
 -0.00008586,0.00011504,-0.00002608,0.00002894,-0.00002599,0.00002191,-
 0.00000194,-0.00006831,0.00000621,0.00002503,-0.00001591,-0.00001267,0
 .00000431,0.00000938,0.00000448,0.00000808,0.00003812,-0.00000345,-0.0
 0002005,0.00002136,0.00004779,-0.00000327,-0.00003573,0.00000736,-0.00
 001118,-0.00001497,-0.00001572,0.00000535,-0.00002691,0.00000078,-0.00
 000612,-0.00001983,-0.00004041,0.00001110,-0.00018150,0.00003486,-0.00
 004469,0.00002833,0.00004282,-0.00006838,0.00002950,-0.00001731,0.0000
 1186,-0.00002392,-0.00004425,0.00002048,-0.00001171,-0.00000601,-0.000
 01443,0.00001319,0.00000347,0.00001258,0.00000021,-0.00000992,-0.00002
 273,-0.00000174,0.00000607,-0.00000845,0.00001381,-0.00000905,-0.00001
 612,0.00000219,-0.00000173,-0.00001464,0.00000425,0.00257797,-0.003454
 28,0.00021099,0.00071002,0.00074395,-0.00030687,-0.00477821,-0.0018081
 8,0.00543684,0.00106256,-0.00057313,0.00517373,-0.00033304,0.00031777,
 -0.00030582,-0.30849102,-0.12026529,0.04344276,0.00011517,0.00157782,-
 0.00185941,-0.01198565,-0.01155435,-0.00129211,-0.00083676,-0.00043365
 ,0.00000507,0.32238692,-0.00086443,-0.00021073,0.00040140,-0.00012247,
 -0.00027965,-0.00019975,-0.00004140,0.00001591,0.00027097,0.00005387,0
 .00003340,-0.00008709,0.00001016,0.00003645,-0.00000680,0.00001420,-0.
 00000729,0.00002604,-0.00001503,-0.00001857,0.00000708,0.00001834,-0.0
 0001252,-0.00001335,0.00001873,-0.00001543,0.00000951,0.00000406,0.000
 02632,-0.00003428,0.00000768,-0.00001717,-0.00002054,0.00000027,0.0000
 0276,-0.00000502,-0.00000015,-0.00000192,-0.00001122,-0.00012445,0.000
 11506,-0.00016870,-0.00000234,-0.00011322,-0.00002509,0.00003216,-0.00
 010906,0.00006493,-0.00000013,0.00000768,-0.00001101,-0.00005054,0.000
 03774,-0.00000276,-0.00000583,-0.00000382,-0.00000309,0.00001502,0.000
 01451,0.00001372,0.00000326,-0.00002368,0.00001118,0.00000775,-0.00002
 455,0.00001886,-0.00000084,-0.00001390,0.00000237,-0.00000114,-0.00000
 750,0.00000572,-0.00291182,0.00156392,-0.00668402,0.00078297,-0.000693
 91,-0.00025635,-0.02428157,-0.00458852,0.00548855,-0.00090421,0.004299
 08,-0.00514459,0.00030813,-0.00062221,0.00056379,-0.12036322,-0.113888
 86,0.00822229,0.00226724,-0.00191968,0.00216963,0.01097112,0.00943786,
 -0.00342074,0.00050393,0.00015895,-0.00005851,0.13326020,0.10877426,-0
 .00089486,-0.00006433,0.00043334,-0.00014824,-0.00013752,-0.00012030,-
 0.00000193,0.00003095,0.00012898,0.00001763,0.00001317,0.00002507,0.00
 001742,0.00000764,-0.00004583,0.00001905,0.00001710,-0.00002658,-0.000
 01112,-0.00000744,0.00000370,-0.00000361,0.00001937,0.00001701,-0.0000
 1314,-0.00001230,0.00000320,0.00003700,0.00000130,-0.00003312,-0.00000
 268,-0.00000847,-0.00000873,-0.00000920,-0.00000102,-0.00001524,-0.000
 00399,-0.00000650,-0.00000780,-0.00003569,-0.00002502,-0.00011637,0.00
 002997,0.00000989,0.00002389,0.00000929,-0.00004643,-0.00000169,0.0000
 0210,-0.00000199,0.00000843,0.00000718,-0.00001180,0.00000764,-0.00000
 877,-0.00001052,0.00001093,0.00000639,0.00000422,-0.00000323,-0.000005
 15,-0.00000792,-0.00000202,0.00000081,0.00000398,-0.00000005,-0.000004
 40,-0.00000601,0.00000209,0.00000169,-0.00000304,-0.00000048,0.0005045
 0,-0.00678543,-0.00014716,-0.00018640,-0.00030196,-0.00124288,-0.02257
 546,-0.01116728,0.00836954,0.00479737,-0.00531818,-0.00128841,-0.00031
 085,0.00055078,-0.00033137,0.04366739,0.00816735,-0.07134826,-0.001072
 24,0.00283114,-0.00063513,0.02673716,0.01341068,0.00237798,0.00121211,
 0.00062449,-0.00016804,-0.04972578,-0.00394878,0.06488105,-0.00011252,
 0.00036381,-0.00029689,-0.00000740,-0.00000064,0.00007080,0.00000052,-
 0.00004126,0.00004755,0.00004100,0.00001263,-0.00002868,0.00001372,0.0
 0003399,-0.00002616,0.00001133,0.00000261,-0.00001791,-0.00000903,-0.0
 0000418,0.00000049,0.00000045,0.00000299,0.00000512,-0.00000195,-0.000
 01096,0.00001044,0.00000472,-0.00000836,-0.00000703,0.00000224,0.00000
 016,-0.00000262,-0.00000157,0.00000140,-0.00000642,0.00000135,-0.00000
 071,-0.00000252,0.00005752,0.00006123,-0.00000317,0.00001350,-0.000013
 99,-0.00001443,0.00001429,0.00001696,-0.00000940,-0.00000053,0.0000100
 5,-0.00000613,-0.00001454,-0.00000290,0.00001711,0.00001139,0.00000049
 ,0.00000607,-0.00000230,0.00000509,0.00000523,-0.00000860,-0.00000388,
 -0.00000107,0.00000286,0.00000034,0.00000224,-0.00000429,-0.00000351,-
 0.00000100,0.00000002,-0.00000563,0.00000201,-0.00109988,0.00038472,0.
 00055245,-0.00378926,-0.00441707,0.00363748,-0.00051105,-0.00138005,0.
 00540024,-0.00367338,-0.02381303,-0.02321786,-0.00049506,-0.00105963,-
 0.00105777,0.01186113,0.01630324,0.01543891,0.00031902,0.00072133,0.00
 060140,-0.09964135,-0.07484382,-0.05551914,0.00020773,0.00225377,-0.00
 089890,0.00008519,0.00141052,-0.00205357,0.09672471,0.00030801,-0.0005
 9099,0.00039597,0.00012560,0.00002091,-0.00000662,-0.00001624,-0.00006
 034,0.00001229,-0.00003762,0.00001636,-0.00003020,-0.00001718,-0.00003
 372,-0.00002408,-0.00001297,0.00000659,0.00001495,0.00000561,0.0000078
 4,0.00000709,0.00000501,-0.00002012,0.00001702,0.00001699,-0.00000119,
 0.00001025,0.00000806,0.00000499,-0.00001219,0.00000877,-0.00000700,-0
 .00000795,-0.00000047,0.00000843,-0.00000440,0.00000467,0.00000147,-0.
 00001036,-0.00009069,-0.00002345,-0.00014762,0.00000815,-0.00004643,0.
 00002513,0.00003006,-0.00005955,0.00004289,-0.00002745,0.00002149,-0.0
 0002100,-0.00002782,0.00003624,-0.00004004,-0.00000430,-0.00001111,0.0
 0000978,0.00000673,0.00000835,0.00000286,-0.00000925,-0.00002210,0.000
 00299,0.00001513,-0.00001760,0.00000908,-0.00000368,-0.00001277,0.0000
 0025,-0.00000057,-0.00001377,0.00000126,0.00046909,0.00010884,0.000950
 79,-0.00477642,0.00422149,-0.00204926,-0.00102934,0.00501348,-0.004202
 33,-0.00114639,-0.00481298,-0.01144661,-0.00012128,-0.00048287,-0.0004
 2995,-0.00631772,-0.00138528,-0.00352840,-0.00019307,-0.00031843,-0.00
 014920,-0.07485130,-0.20751976,-0.14401973,0.00137742,-0.00182919,0.00
 270221,0.00227020,-0.00195173,0.00217986,0.08402427,0.20974388,-0.0002
 4053,0.00056187,-0.00025643,-0.00014340,-0.00006052,-0.00000752,-0.000
 04053,-0.00004207,0.00005053,-0.00003007,0.00000439,-0.00005941,0.0000
 2860,-0.00002761,-0.00000085,-0.00002403,-0.00000335,0.00002673,0.0000
 0235,0.00002335,0.00000678,0.00001554,-0.00001093,0.00000732,0.0000013
 1,-0.00000425,0.00001562,-0.00000100,0.00001294,-0.00000620,0.00001023
 ,-0.00000282,-0.00000496,-0.00000670,0.00000772,-0.00001608,0.00000384
 ,0.00000026,-0.00001401,0.00003967,0.00008462,0.00001407,0.00003644,-0
 .00000720,0.00002930,0.00001033,0.00000014,0.00000427,-0.00001892,0.00
 000386,-0.00001913,-0.00001953,0.00001262,-0.00002263,0.00000580,-0.00
 000488,0.00000625,-0.00000041,0.00000502,-0.00000133,-0.00000579,-0.00
 000956,-0.00000161,0.00000342,-0.00000033,0.00000580,-0.00000541,-0.00
 000800,-0.00000261,-0.00000169,-0.00001069,0.00000256,0.00056808,0.000
 83981,-0.00034980,0.00313693,-0.00231632,0.00349295,0.00591898,-0.0038
 7510,-0.00026176,0.00486092,0.00515931,0.00789674,0.00011409,0.0002220
 0,0.00010888,-0.01262077,-0.02045057,-0.01094923,-0.00052268,-0.000851
 46,-0.00076057,-0.05547315,-0.14388927,-0.18687906,-0.00196810,0.00206
 612,-0.00078086,-0.00100695,0.00282565,-0.00075015,0.05737317,0.159745
 25,0.18947640||-0.00000220,0.00000815,0.00001985,-0.00000245,0.0000006
 5,-0.00000418,0.00000211,-0.00000199,-0.00000330,0.00000171,-0.0000000
 2,-0.00000384,0.00000111,-0.00000518,0.00000287,-0.00000209,-0.0000024
 8,0.00000479,-0.00000076,-0.00000090,-0.00000267,0.00000663,-0.0000002
 2,-0.00000507,-0.00000024,-0.00000059,-0.00000133,-0.00000532,0.000005
 47,-0.00000195,-0.00000009,0.00000124,0.00000116,-0.00000052,-0.000000
 47,0.00000039,-0.00000054,0.00000018,0.00000016,0.00004688,0.00001002,
 0.00002726,-0.00003660,0.00005890,-0.00004139,-0.00002922,-0.00007051,
 0.00000250,-0.00002705,-0.00007066,0.00000846,0.00000414,-0.00000158,0
 .00000059,-0.00003467,0.00005167,-0.00004165,0.00000604,0.00000385,0.0
 0000299,0.00006430,0.00001881,0.00003643,0.00000219,0.00000565,-0.0000
 0178,0.00000391,-0.00000554,0.00000556,-0.00000661,-0.00000136,-0.0000
 0445,0.00004456,0.00000162,-0.00004662,-0.00000403,0.00002243,0.000051
 04,-0.00003477,-0.00003487,-0.00000650,-0.00003555,-0.00002793,-0.0000
 1900,0.00000175,-0.00000226,-0.00000337,-0.00000796,0.00003247,0.00004
 010,0.00000161,0.00000372,0.00000908,0.00004347,0.00000320,-0.00002495
 ,0.00000272,0.00000150,0.00000085,0.00000007,-0.00000187,-0.00000305,-
 0.00000255,-0.00000111,0.00000100|||@


 THEORY:  SUPPOSITION WHICH HAS SCIENTIFIC BASIS,
          BUT NOT EXPERIMENTALLY PROVEN.
 FACT:    A THEORY WHICH HAS BEEN PROVEN BY ENOUGH 
          MONEY TO PAY FOR THE EXPERIMENTS.

                          --  THE WIZARD OF ID
 Job cpu time:  0 days  0 hours  6 minutes 28.0 seconds.
 File lengths (MBytes):  RWF=    350 Int=      0 D2E=      0 Chk=      7 Scr=      1
 Normal termination of Gaussian 09 at Tue Sep 07 02:40:42 2021.
