 Entering Link 1 = b:\programy\g09w\l1.exe PID=      1320.
  
 Copyright (c) 1988,1990,1992,1993,1995,1998,2003,2009, Gaussian, Inc.
                  All Rights Reserved.
  
 This is part of the Gaussian(R) 09 program.  It is based on
 the Gaussian(R) 03 system (copyright 2003, Gaussian, Inc.),
 the Gaussian(R) 98 system (copyright 1998, Gaussian, Inc.),
 the Gaussian(R) 94 system (copyright 1995, Gaussian, Inc.),
 the Gaussian 92(TM) system (copyright 1992, Gaussian, Inc.),
 the Gaussian 90(TM) system (copyright 1990, Gaussian, Inc.),
 the Gaussian 88(TM) system (copyright 1988, Gaussian, Inc.),
 the Gaussian 86(TM) system (copyright 1986, Carnegie Mellon
 University), and the Gaussian 82(TM) system (copyright 1983,
 Carnegie Mellon University). Gaussian is a federally registered
 trademark of Gaussian, Inc.
  
 This software contains proprietary and confidential information,
 including trade secrets, belonging to Gaussian, Inc.
  
 This software is provided under written license and may be
 used, copied, transmitted, or stored only in accord with that
 written license.
  
 The following legend is applicable only to US Government
 contracts under FAR:
  
                    RESTRICTED RIGHTS LEGEND
  
 Use, reproduction and disclosure by the US Government is
 subject to restrictions as set forth in subparagraphs (a)
 and (c) of the Commercial Computer Software - Restricted
 Rights clause in FAR 52.227-19.
  
 Gaussian, Inc.
 340 Quinnipiac St., Bldg. 40, Wallingford CT 06492
  
  
 ---------------------------------------------------------------
 Warning -- This program may not be used in any manner that
 competes with the business of Gaussian, Inc. or will provide
 assistance to any competitor of Gaussian, Inc.  The licensee
 of this program is prohibited from giving any competitor of
 Gaussian, Inc. access to this program.  By using this program,
 the user acknowledges that Gaussian, Inc. is engaged in the
 business of creating and licensing software in the field of
 computational chemistry and represents and warrants to the
 licensee that it is not a competitor of Gaussian, Inc. and that
 it will not use this program in any manner prohibited above.
 ---------------------------------------------------------------
  

 Cite this work as:
 Gaussian 09, Revision A.02,
 M. J. Frisch, G. W. Trucks, H. B. Schlegel, G. E. Scuseria, 
 M. A. Robb, J. R. Cheeseman, G. Scalmani, V. Barone, B. Mennucci, 
 G. A. Petersson, H. Nakatsuji, M. Caricato, X. Li, H. P. Hratchian, 
 A. F. Izmaylov, J. Bloino, G. Zheng, J. L. Sonnenberg, M. Hada, 
 M. Ehara, K. Toyota, R. Fukuda, J. Hasegawa, M. Ishida, T. Nakajima, 
 Y. Honda, O. Kitao, H. Nakai, T. Vreven, J. A. Montgomery, Jr., 
 J. E. Peralta, F. Ogliaro, M. Bearpark, J. J. Heyd, E. Brothers, 
 K. N. Kudin, V. N. Staroverov, R. Kobayashi, J. Normand, 
 K. Raghavachari, A. Rendell, J. C. Burant, S. S. Iyengar, J. Tomasi, 
 M. Cossi, N. Rega, J. M. Millam, M. Klene, J. E. Knox, J. B. Cross, 
 V. Bakken, C. Adamo, J. Jaramillo, R. Gomperts, R. E. Stratmann, 
 O. Yazyev, A. J. Austin, R. Cammi, C. Pomelli, J. W. Ochterski, 
 R. L. Martin, K. Morokuma, V. G. Zakrzewski, G. A. Voth, 
 P. Salvador, J. J. Dannenberg, S. Dapprich, A. D. Daniels, 
 O. Farkas, J. B. Foresman, J. V. Ortiz, J. Cioslowski, 
 and D. J. Fox, Gaussian, Inc., Wallingford CT, 2009.
 
 ******************************************
 Gaussian 09:  IA32W-G09RevA.02 11-Jun-2009
                06-Sep-2021 
 ******************************************
 %nprocshared=12
 Will use up to   12 processors via shared memory.
 ----------------------------------------------
 # opt freq=noraman hf/6-311g geom=connectivity
 ----------------------------------------------
 1/18=20,19=15,38=1,57=2/1,3;
 2/9=110,12=2,17=6,18=5,40=1/2;
 3/5=4,6=6,11=9,16=1,25=1,30=1,71=1/1,2,3;
 4//1;
 5/5=2,38=5/2;
 6/7=2,8=2,9=2,10=2,28=1/1;
 7//1,2,3,16;
 1/18=20,19=15/3(2);
 2/9=110/2;
 99//99;
 2/9=110/2;
 3/5=4,6=6,11=9,16=1,25=1,30=1,71=1/1,2,3;
 4/5=5,16=3/1;
 5/5=2,38=5/2;
 7//1,2,3,16;
 1/18=20,19=15/3(-5);
 2/9=110/2;
 6/7=2,8=2,9=2,10=2,19=2,28=1/1;
 99/9=1/99;
 -----
 M0001
 -----
 Symbolic Z-matrix:
 Charge =  0 Multiplicity = 1
 C                     0.        0.       -0.77444 
 H                     0.        0.       -1.89912 
 C                     0.723     1.25228  -0.34054 
 C                     0.90998   1.57612   1.00416 
 C                     1.22131   2.11537  -1.31984 
 C                     1.58074   2.73792   1.3655 
 H                     0.51529   0.89251   1.77698 
 C                     1.89242   3.27777  -0.95774 
 H                     1.08375   1.87711  -2.38133 
 C                     2.07366   3.59169   0.38471 
 H                     1.72026   2.97958   2.42409 
 H                     2.27889   3.94714  -1.7332 
 H                     2.60226   4.50725   0.6684 
 C                    -1.446     0.       -0.34054 
 C                    -2.44262   0.       -1.31984 
 C                    -1.81995   0.        1.00416 
 C                    -3.78485   0.       -0.95774 
 H                    -2.1675    0.       -2.38133 
 C                    -3.16148   0.        1.3655 
 H                    -1.03058   0.        1.77698 
 C                    -4.14732   0.        0.38471 
 H                    -4.55777   0.       -1.7332 
 H                    -3.44052   0.        2.42409 
 H                    -5.20452   0.        0.6684 
 C                     0.723    -1.25228  -0.34054 
 C                     0.90998  -1.57612   1.00416 
 C                     1.22131  -2.11537  -1.31984 
 C                     1.58074  -2.73792   1.3655 
 H                     0.51529  -0.89251   1.77698 
 C                     1.89242  -3.27777  -0.95774 
 H                     1.08375  -1.87711  -2.38133 
 C                     2.07366  -3.59169   0.38471 
 H                     1.72026  -2.97958   2.42409 
 H                     2.27889  -3.94714  -1.7332 
 H                     2.60226  -4.50725   0.6684 
 

 GradGradGradGradGradGradGradGradGradGradGradGradGradGradGradGradGradGrad
 Berny optimization.
 Initialization pass.
                           ----------------------------
                           !    Initial Parameters    !
                           ! (Angstroms and Degrees)  !
 --------------------------                            --------------------------
 ! Name  Definition              Value          Derivative Info.                !
 --------------------------------------------------------------------------------
 ! R1    R(1,2)                  1.1247         estimate D2E/DX2                !
 ! R2    R(1,3)                  1.5097         estimate D2E/DX2                !
 ! R3    R(1,14)                 1.5097         estimate D2E/DX2                !
 ! R4    R(1,25)                 1.5097         estimate D2E/DX2                !
 ! R5    R(3,4)                  1.3957         estimate D2E/DX2                !
 ! R6    R(3,5)                  1.3972         estimate D2E/DX2                !
 ! R7    R(4,6)                  1.3893         estimate D2E/DX2                !
 ! R8    R(4,7)                  1.1047         estimate D2E/DX2                !
 ! R9    R(5,8)                  1.3902         estimate D2E/DX2                !
 ! R10   R(5,9)                  1.0966         estimate D2E/DX2                !
 ! R11   R(6,10)                 1.3906         estimate D2E/DX2                !
 ! R12   R(6,11)                 1.0947         estimate D2E/DX2                !
 ! R13   R(8,10)                 1.3905         estimate D2E/DX2                !
 ! R14   R(8,12)                 1.0949         estimate D2E/DX2                !
 ! R15   R(10,13)                1.0946         estimate D2E/DX2                !
 ! R16   R(14,15)                1.3972         estimate D2E/DX2                !
 ! R17   R(14,16)                1.3957         estimate D2E/DX2                !
 ! R18   R(15,17)                1.3902         estimate D2E/DX2                !
 ! R19   R(15,18)                1.0966         estimate D2E/DX2                !
 ! R20   R(16,19)                1.3893         estimate D2E/DX2                !
 ! R21   R(16,20)                1.1047         estimate D2E/DX2                !
 ! R22   R(17,21)                1.3905         estimate D2E/DX2                !
 ! R23   R(17,22)                1.0949         estimate D2E/DX2                !
 ! R24   R(19,21)                1.3906         estimate D2E/DX2                !
 ! R25   R(19,23)                1.0947         estimate D2E/DX2                !
 ! R26   R(21,24)                1.0946         estimate D2E/DX2                !
 ! R27   R(25,26)                1.3957         estimate D2E/DX2                !
 ! R28   R(25,27)                1.3972         estimate D2E/DX2                !
 ! R29   R(26,28)                1.3893         estimate D2E/DX2                !
 ! R30   R(26,29)                1.1047         estimate D2E/DX2                !
 ! R31   R(27,30)                1.3902         estimate D2E/DX2                !
 ! R32   R(27,31)                1.0966         estimate D2E/DX2                !
 ! R33   R(28,32)                1.3906         estimate D2E/DX2                !
 ! R34   R(28,33)                1.0947         estimate D2E/DX2                !
 ! R35   R(30,32)                1.3905         estimate D2E/DX2                !
 ! R36   R(30,34)                1.0949         estimate D2E/DX2                !
 ! R37   R(32,35)                1.0946         estimate D2E/DX2                !
 ! A1    A(2,1,3)              106.703          estimate D2E/DX2                !
 ! A2    A(2,1,14)             106.703          estimate D2E/DX2                !
 ! A3    A(2,1,25)             106.703          estimate D2E/DX2                !
 ! A4    A(3,1,14)             112.0919         estimate D2E/DX2                !
 ! A5    A(3,1,25)             112.0919         estimate D2E/DX2                !
 ! A6    A(14,1,25)            112.0919         estimate D2E/DX2                !
 ! A7    A(1,3,4)              122.2435         estimate D2E/DX2                !
 ! A8    A(1,3,5)              118.7989         estimate D2E/DX2                !
 ! A9    A(4,3,5)              118.9576         estimate D2E/DX2                !
 ! A10   A(3,4,6)              120.6151         estimate D2E/DX2                !
 ! A11   A(3,4,7)              118.8524         estimate D2E/DX2                !
 ! A12   A(6,4,7)              120.5325         estimate D2E/DX2                !
 ! A13   A(3,5,8)              120.4042         estimate D2E/DX2                !
 ! A14   A(3,5,9)              119.9681         estimate D2E/DX2                !
 ! A15   A(8,5,9)              119.6277         estimate D2E/DX2                !
 ! A16   A(4,6,10)             120.0727         estimate D2E/DX2                !
 ! A17   A(4,6,11)             119.8414         estimate D2E/DX2                !
 ! A18   A(10,6,11)            120.0858         estimate D2E/DX2                !
 ! A19   A(5,8,10)             120.2079         estimate D2E/DX2                !
 ! A20   A(5,8,12)             119.8082         estimate D2E/DX2                !
 ! A21   A(10,8,12)            119.9839         estimate D2E/DX2                !
 ! A22   A(6,10,8)             119.7426         estimate D2E/DX2                !
 ! A23   A(6,10,13)            120.126          estimate D2E/DX2                !
 ! A24   A(8,10,13)            120.1314         estimate D2E/DX2                !
 ! A25   A(1,14,15)            118.7989         estimate D2E/DX2                !
 ! A26   A(1,14,16)            122.2435         estimate D2E/DX2                !
 ! A27   A(15,14,16)           118.9576         estimate D2E/DX2                !
 ! A28   A(14,15,17)           120.4042         estimate D2E/DX2                !
 ! A29   A(14,15,18)           119.9681         estimate D2E/DX2                !
 ! A30   A(17,15,18)           119.6277         estimate D2E/DX2                !
 ! A31   A(14,16,19)           120.6151         estimate D2E/DX2                !
 ! A32   A(14,16,20)           118.8524         estimate D2E/DX2                !
 ! A33   A(19,16,20)           120.5325         estimate D2E/DX2                !
 ! A34   A(15,17,21)           120.2079         estimate D2E/DX2                !
 ! A35   A(15,17,22)           119.8082         estimate D2E/DX2                !
 ! A36   A(21,17,22)           119.9839         estimate D2E/DX2                !
 ! A37   A(16,19,21)           120.0727         estimate D2E/DX2                !
 ! A38   A(16,19,23)           119.8414         estimate D2E/DX2                !
 ! A39   A(21,19,23)           120.0858         estimate D2E/DX2                !
 ! A40   A(17,21,19)           119.7426         estimate D2E/DX2                !
 ! A41   A(17,21,24)           120.1314         estimate D2E/DX2                !
 ! A42   A(19,21,24)           120.126          estimate D2E/DX2                !
 ! A43   A(1,25,26)            122.2435         estimate D2E/DX2                !
 ! A44   A(1,25,27)            118.7989         estimate D2E/DX2                !
 ! A45   A(26,25,27)           118.9576         estimate D2E/DX2                !
 ! A46   A(25,26,28)           120.6151         estimate D2E/DX2                !
 ! A47   A(25,26,29)           118.8524         estimate D2E/DX2                !
 ! A48   A(28,26,29)           120.5325         estimate D2E/DX2                !
 ! A49   A(25,27,30)           120.4042         estimate D2E/DX2                !
 ! A50   A(25,27,31)           119.9681         estimate D2E/DX2                !
 ! A51   A(30,27,31)           119.6277         estimate D2E/DX2                !
 ! A52   A(26,28,32)           120.0727         estimate D2E/DX2                !
 ! A53   A(26,28,33)           119.8414         estimate D2E/DX2                !
 ! A54   A(32,28,33)           120.0858         estimate D2E/DX2                !
 ! A55   A(27,30,32)           120.2079         estimate D2E/DX2                !
 ! A56   A(27,30,34)           119.8082         estimate D2E/DX2                !
 ! A57   A(32,30,34)           119.9839         estimate D2E/DX2                !
 ! A58   A(28,32,30)           119.7426         estimate D2E/DX2                !
 ! A59   A(28,32,35)           120.126          estimate D2E/DX2                !
 ! A60   A(30,32,35)           120.1314         estimate D2E/DX2                !
 ! D1    D(2,1,3,4)            180.0            estimate D2E/DX2                !
 ! D2    D(2,1,3,5)              0.0            estimate D2E/DX2                !
 ! D3    D(14,1,3,4)            63.5355         estimate D2E/DX2                !
 ! D4    D(14,1,3,5)          -116.4645         estimate D2E/DX2                !
 ! D5    D(25,1,3,4)           -63.5355         estimate D2E/DX2                !
 ! D6    D(25,1,3,5)           116.4645         estimate D2E/DX2                !
 ! D7    D(2,1,14,15)            0.0            estimate D2E/DX2                !
 ! D8    D(2,1,14,16)          180.0            estimate D2E/DX2                !
 ! D9    D(3,1,14,15)          116.4645         estimate D2E/DX2                !
 ! D10   D(3,1,14,16)          -63.5355         estimate D2E/DX2                !
 ! D11   D(25,1,14,15)        -116.4645         estimate D2E/DX2                !
 ! D12   D(25,1,14,16)          63.5355         estimate D2E/DX2                !
 ! D13   D(2,1,25,26)          180.0            estimate D2E/DX2                !
 ! D14   D(2,1,25,27)            0.0            estimate D2E/DX2                !
 ! D15   D(3,1,25,26)           63.5355         estimate D2E/DX2                !
 ! D16   D(3,1,25,27)         -116.4645         estimate D2E/DX2                !
 ! D17   D(14,1,25,26)         -63.5355         estimate D2E/DX2                !
 ! D18   D(14,1,25,27)         116.4645         estimate D2E/DX2                !
 ! D19   D(1,3,4,6)           -180.0            estimate D2E/DX2                !
 ! D20   D(1,3,4,7)              0.0            estimate D2E/DX2                !
 ! D21   D(5,3,4,6)              0.0            estimate D2E/DX2                !
 ! D22   D(5,3,4,7)            180.0            estimate D2E/DX2                !
 ! D23   D(1,3,5,8)            180.0            estimate D2E/DX2                !
 ! D24   D(1,3,5,9)              0.0            estimate D2E/DX2                !
 ! D25   D(4,3,5,8)              0.0            estimate D2E/DX2                !
 ! D26   D(4,3,5,9)            180.0            estimate D2E/DX2                !
 ! D27   D(3,4,6,10)             0.0            estimate D2E/DX2                !
 ! D28   D(3,4,6,11)           180.0            estimate D2E/DX2                !
 ! D29   D(7,4,6,10)           180.0            estimate D2E/DX2                !
 ! D30   D(7,4,6,11)             0.0            estimate D2E/DX2                !
 ! D31   D(3,5,8,10)             0.0            estimate D2E/DX2                !
 ! D32   D(3,5,8,12)           180.0            estimate D2E/DX2                !
 ! D33   D(9,5,8,10)           180.0            estimate D2E/DX2                !
 ! D34   D(9,5,8,12)             0.0            estimate D2E/DX2                !
 ! D35   D(4,6,10,8)             0.0            estimate D2E/DX2                !
 ! D36   D(4,6,10,13)         -180.0            estimate D2E/DX2                !
 ! D37   D(11,6,10,8)          180.0            estimate D2E/DX2                !
 ! D38   D(11,6,10,13)           0.0            estimate D2E/DX2                !
 ! D39   D(5,8,10,6)             0.0            estimate D2E/DX2                !
 ! D40   D(5,8,10,13)          180.0            estimate D2E/DX2                !
 ! D41   D(12,8,10,6)         -180.0            estimate D2E/DX2                !
 ! D42   D(12,8,10,13)           0.0            estimate D2E/DX2                !
 ! D43   D(1,14,15,17)         180.0            estimate D2E/DX2                !
 ! D44   D(1,14,15,18)           0.0            estimate D2E/DX2                !
 ! D45   D(16,14,15,17)          0.0            estimate D2E/DX2                !
 ! D46   D(16,14,15,18)        180.0            estimate D2E/DX2                !
 ! D47   D(1,14,16,19)         180.0            estimate D2E/DX2                !
 ! D48   D(1,14,16,20)           0.0            estimate D2E/DX2                !
 ! D49   D(15,14,16,19)          0.0            estimate D2E/DX2                !
 ! D50   D(15,14,16,20)        180.0            estimate D2E/DX2                !
 ! D51   D(14,15,17,21)          0.0            estimate D2E/DX2                !
 ! D52   D(14,15,17,22)        180.0            estimate D2E/DX2                !
 ! D53   D(18,15,17,21)        180.0            estimate D2E/DX2                !
 ! D54   D(18,15,17,22)          0.0            estimate D2E/DX2                !
 ! D55   D(14,16,19,21)          0.0            estimate D2E/DX2                !
 ! D56   D(14,16,19,23)        180.0            estimate D2E/DX2                !
 ! D57   D(20,16,19,21)        180.0            estimate D2E/DX2                !
 ! D58   D(20,16,19,23)          0.0            estimate D2E/DX2                !
 ! D59   D(15,17,21,19)          0.0            estimate D2E/DX2                !
 ! D60   D(15,17,21,24)        180.0            estimate D2E/DX2                !
 ! D61   D(22,17,21,19)        180.0            estimate D2E/DX2                !
 ! D62   D(22,17,21,24)          0.0            estimate D2E/DX2                !
 ! D63   D(16,19,21,17)          0.0            estimate D2E/DX2                !
 ! D64   D(16,19,21,24)        180.0            estimate D2E/DX2                !
 ! D65   D(23,19,21,17)        180.0            estimate D2E/DX2                !
 ! D66   D(23,19,21,24)          0.0            estimate D2E/DX2                !
 ! D67   D(1,25,26,28)         180.0            estimate D2E/DX2                !
 ! D68   D(1,25,26,29)           0.0            estimate D2E/DX2                !
 ! D69   D(27,25,26,28)          0.0            estimate D2E/DX2                !
 ! D70   D(27,25,26,29)       -180.0            estimate D2E/DX2                !
 ! D71   D(1,25,27,30)         180.0            estimate D2E/DX2                !
 ! D72   D(1,25,27,31)           0.0            estimate D2E/DX2                !
 ! D73   D(26,25,27,30)          0.0            estimate D2E/DX2                !
 ! D74   D(26,25,27,31)       -180.0            estimate D2E/DX2                !
 ! D75   D(25,26,28,32)          0.0            estimate D2E/DX2                !
 ! D76   D(25,26,28,33)        180.0            estimate D2E/DX2                !
 ! D77   D(29,26,28,32)        180.0            estimate D2E/DX2                !
 ! D78   D(29,26,28,33)          0.0            estimate D2E/DX2                !
 ! D79   D(25,27,30,32)          0.0            estimate D2E/DX2                !
 ! D80   D(25,27,30,34)        180.0            estimate D2E/DX2                !
 ! D81   D(31,27,30,32)        180.0            estimate D2E/DX2                !
 ! D82   D(31,27,30,34)          0.0            estimate D2E/DX2                !
 ! D83   D(26,28,32,30)          0.0            estimate D2E/DX2                !
 ! D84   D(26,28,32,35)        180.0            estimate D2E/DX2                !
 ! D85   D(33,28,32,30)        180.0            estimate D2E/DX2                !
 ! D86   D(33,28,32,35)          0.0            estimate D2E/DX2                !
 ! D87   D(27,30,32,28)          0.0            estimate D2E/DX2                !
 ! D88   D(27,30,32,35)        180.0            estimate D2E/DX2                !
 ! D89   D(34,30,32,28)        180.0            estimate D2E/DX2                !
 ! D90   D(34,30,32,35)          0.0            estimate D2E/DX2                !
 --------------------------------------------------------------------------------
 Trust Radius=3.00D-01 FncErr=1.00D-07 GrdErr=1.00D-07
 Number of steps in this run= 197 maximum allowed number of steps= 210.
 GradGradGradGradGradGradGradGradGradGradGradGradGradGradGradGradGradGrad

                          Input orientation:                          
 ---------------------------------------------------------------------
 Center     Atomic      Atomic             Coordinates (Angstroms)
 Number     Number       Type             X           Y           Z
 ---------------------------------------------------------------------
      1          6           0        0.000000    0.000000   -0.774444
      2          1           0        0.000000    0.000000   -1.899122
      3          6           0        0.723002    1.252277   -0.340540
      4          6           0        0.909975    1.576123    1.004165
      5          6           0        1.221308    2.115368   -1.319843
      6          6           0        1.580740    2.737923    1.365498
      7          1           0        0.515290    0.892508    1.776983
      8          6           0        1.892424    3.277774   -0.957738
      9          1           0        1.083752    1.877113   -2.381333
     10          6           0        2.073662    3.591688    0.384709
     11          1           0        1.720259    2.979577    2.424088
     12          1           0        2.278885    3.947145   -1.733204
     13          1           0        2.602261    4.507248    0.668404
     14          6           0       -1.446005    0.000000   -0.340540
     15          6           0       -2.442616    0.000000   -1.319843
     16          6           0       -1.819950    0.000000    1.004165
     17          6           0       -3.784848    0.000000   -0.957738
     18          1           0       -2.167503    0.000000   -2.381333
     19          6           0       -3.161481    0.000000    1.365498
     20          1           0       -1.030580    0.000000    1.776983
     21          6           0       -4.147324    0.000000    0.384709
     22          1           0       -4.557770    0.000000   -1.733204
     23          1           0       -3.440519    0.000000    2.424088
     24          1           0       -5.204522    0.000000    0.668404
     25          6           0        0.723002   -1.252277   -0.340540
     26          6           0        0.909975   -1.576123    1.004165
     27          6           0        1.221308   -2.115368   -1.319843
     28          6           0        1.580740   -2.737923    1.365498
     29          1           0        0.515290   -0.892508    1.776983
     30          6           0        1.892424   -3.277774   -0.957738
     31          1           0        1.083752   -1.877113   -2.381333
     32          6           0        2.073662   -3.591688    0.384709
     33          1           0        1.720259   -2.979577    2.424088
     34          1           0        2.278885   -3.947145   -1.733204
     35          1           0        2.602261   -4.507248    0.668404
 ---------------------------------------------------------------------
                    Distance matrix (angstroms):
                    1          2          3          4          5
     1  C    0.000000
     2  H    1.124679   0.000000
     3  C    1.509703   2.126055   0.000000
     4  C    2.544733   3.426557   1.395731   0.000000
     5  C    2.502765   2.510366   1.397236   2.405977   0.000000
     6  C    3.817632   4.544525   2.419385   1.389340   2.779896
     7  H    2.751703   3.817832   2.157888   1.104696   3.403553
     8  C    3.789283   3.900163   2.418909   2.776668   1.390218
     9  H    2.698178   2.220495   2.164577   3.403291   1.096562
    10  C    4.306266   4.734573   2.796982   2.408401   2.410711
    11  H    4.697635   5.525153   3.408996   2.154629   3.874639
    12  H    4.657520   4.560789   3.409193   3.871543   2.155167
    13  H    5.400820   5.803382   3.891583   3.401186   3.403124
    14  C    1.509703   2.126055   2.504554   3.137361   3.542368
    15  C    2.502765   2.510366   3.542368   4.373219   4.230735
    16  C    2.544733   3.426557   3.137361   3.152246   4.373219
    17  C    3.789283   3.900163   4.719094   5.326780   5.446788
    18  H    2.698178   2.220495   3.753406   4.839073   4.133471
    19  C    3.817632   4.544525   4.423570   4.380808   5.558298
    20  H    2.751703   3.817832   3.021117   2.616708   4.374484
    21  C    4.306266   4.734573   5.080774   5.333307   6.016850
    22  H    4.657520   4.560789   5.603059   6.314554   6.167933
    23  H    4.697635   5.525153   5.152308   4.840159   6.342273
    24  H    5.400820   5.803382   6.141801   6.323288   7.051184
    25  C    1.509703   2.126055   2.504554   3.137361   3.542368
    26  C    2.544733   3.426557   3.137361   3.152246   4.373219
    27  C    2.502765   2.510366   3.542368   4.373219   4.230735
    28  C    3.817632   4.544525   4.423570   4.380808   5.558298
    29  H    2.751703   3.817832   3.021117   2.616708   4.374484
    30  C    3.789283   3.900163   4.719094   5.326780   5.446787
    31  H    2.698178   2.220495   3.753406   4.839073   4.133471
    32  C    4.306266   4.734573   5.080774   5.333307   6.016850
    33  H    4.697635   5.525153   5.152308   4.840159   6.342273
    34  H    4.657520   4.560789   5.603059   6.314554   6.167933
    35  H    5.400820   5.803382   6.141801   6.323288   7.051184
                    6          7          8          9         10
     6  C    0.000000
     7  H    2.170267   0.000000
     8  C    2.405413   3.881326   0.000000
     9  H    3.876433   4.310938   2.154629   0.000000
    10  C    1.390623   3.413579   1.390523   3.401570   0.000000
    11  H    1.094749   2.495306   3.399311   4.971181   2.158388
    12  H    3.398761   4.976192   1.094877   2.476580   2.157318
    13  H    2.158694   4.318651   2.158660   4.303996   1.094601
    14  C    4.423570   3.021117   4.719094   3.753406   5.080774
    15  C    5.558298   4.374484   5.446788   4.133471   6.016850
    16  C    4.380808   2.616708   5.326780   4.839073   5.333307
    17  C    6.456252   5.173631   6.555548   5.408644   7.001751
    18  H    5.965257   5.028473   5.408644   3.754225   6.207954
    19  C    5.475846   3.805855   6.456252   5.965257   6.424086
    20  H    3.805855   1.785016   5.173631   5.028473   4.947218
    21  C    6.424086   4.947218   7.001751   6.207954   7.183375
    22  H    7.401317   6.233291   7.276686   5.980835   7.833369
    23  H    5.816346   4.106548   7.114832   6.861825   6.889519
    24  H    7.349963   5.894215   7.984659   7.236493   8.121125
    25  C    4.423570   3.021117   4.719094   3.753406   5.080774
    26  C    4.380808   2.616708   5.326780   4.839073   5.333307
    27  C    5.558298   4.374484   5.446787   4.133471   6.016850
    28  C    5.475846   3.805855   6.456252   5.965257   6.424086
    29  H    3.805855   1.785016   5.173631   5.028473   4.947218
    30  C    6.456252   5.173631   6.555548   5.408644   7.001751
    31  H    5.965257   5.028473   5.408644   3.754225   6.207954
    32  C    6.424086   4.947218   7.001751   6.207954   7.183375
    33  H    5.816346   4.106548   7.114832   6.861825   6.889519
    34  H    7.401317   6.233291   7.276686   5.980835   7.833369
    35  H    7.349963   5.894215   7.984659   7.236493   8.121125
                   11         12         13         14         15
    11  H    0.000000
    12  H    4.304803   0.000000
    13  H    2.488802   2.487169   0.000000
    14  C    5.152308   5.603059   6.141801   0.000000
    15  C    6.342273   6.167933   7.051184   1.397236   0.000000
    16  C    4.840159   6.314554   6.323288   1.395731   2.405977
    17  C    7.114832   7.276686   7.984659   2.418909   1.390218
    18  H    6.861825   5.980835   7.236493   2.164577   1.096562
    19  C    5.816346   7.401317   7.349963   2.419385   2.779896
    20  H    4.106548   6.233291   5.894215   2.157888   3.403553
    21  C    6.889519   7.833369   8.121125   2.796982   2.410711
    22  H    8.097815   7.894289   8.794831   3.409193   2.155167
    23  H    5.959153   8.097815   7.740343   3.408996   3.874639
    24  H    7.740343   8.794831   9.014497   3.891583   3.403124
    25  C    5.152308   5.603059   6.141801   2.504554   3.542368
    26  C    4.840159   6.314554   6.323288   3.137361   4.373219
    27  C    6.342273   6.167933   7.051184   3.542368   4.230735
    28  C    5.816346   7.401317   7.349963   4.423570   5.558298
    29  H    4.106548   6.233291   5.894215   3.021117   4.374484
    30  C    7.114832   7.276686   7.984659   4.719094   5.446788
    31  H    6.861825   5.980835   7.236493   3.753406   4.133471
    32  C    6.889519   7.833369   8.121125   5.080774   6.016850
    33  H    5.959153   8.097815   7.740343   5.152308   6.342273
    34  H    8.097815   7.894289   8.794831   5.603059   6.167933
    35  H    7.740343   8.794831   9.014497   6.141801   7.051184
                   16         17         18         19         20
    16  C    0.000000
    17  C    2.776668   0.000000
    18  H    3.403291   2.154629   0.000000
    19  C    1.389340   2.405413   3.876433   0.000000
    20  H    1.104696   3.881326   4.310938   2.170267   0.000000
    21  C    2.408401   1.390523   3.401570   1.390623   3.413579
    22  H    3.871543   1.094877   2.476580   3.398761   4.976192
    23  H    2.154629   3.399311   4.971181   1.094749   2.495306
    24  H    3.401186   2.158660   4.303996   2.158694   4.318651
    25  C    3.137361   4.719094   3.753406   4.423570   3.021117
    26  C    3.152246   5.326780   4.839073   4.380808   2.616708
    27  C    4.373219   5.446788   4.133471   5.558298   4.374484
    28  C    4.380808   6.456252   5.965257   5.475846   3.805855
    29  H    2.616708   5.173631   5.028473   3.805855   1.785016
    30  C    5.326780   6.555548   5.408644   6.456252   5.173631
    31  H    4.839073   5.408644   3.754225   5.965257   5.028473
    32  C    5.333307   7.001751   6.207954   6.424086   4.947218
    33  H    4.840159   7.114832   6.861825   5.816346   4.106548
    34  H    6.314554   7.276686   5.980835   7.401317   6.233291
    35  H    6.323288   7.984659   7.236493   7.349963   5.894215
                   21         22         23         24         25
    21  C    0.000000
    22  H    2.157318   0.000000
    23  H    2.158388   4.304803   0.000000
    24  H    1.094601   2.487169   2.488802   0.000000
    25  C    5.080774   5.603059   5.152308   6.141801   0.000000
    26  C    5.333307   6.314554   4.840159   6.323288   1.395731
    27  C    6.016850   6.167933   6.342273   7.051184   1.397236
    28  C    6.424086   7.401317   5.816346   7.349963   2.419385
    29  H    4.947218   6.233291   4.106548   5.894215   2.157888
    30  C    7.001751   7.276686   7.114832   7.984659   2.418909
    31  H    6.207954   5.980835   6.861825   7.236493   2.164577
    32  C    7.183375   7.833369   6.889519   8.121125   2.796982
    33  H    6.889519   8.097815   5.959153   7.740343   3.408996
    34  H    7.833369   7.894289   8.097815   8.794831   3.409193
    35  H    8.121125   8.794831   7.740343   9.014497   3.891583
                   26         27         28         29         30
    26  C    0.000000
    27  C    2.405977   0.000000
    28  C    1.389340   2.779896   0.000000
    29  H    1.104696   3.403553   2.170267   0.000000
    30  C    2.776668   1.390218   2.405413   3.881326   0.000000
    31  H    3.403291   1.096562   3.876433   4.310938   2.154629
    32  C    2.408401   2.410711   1.390623   3.413579   1.390523
    33  H    2.154629   3.874639   1.094749   2.495306   3.399311
    34  H    3.871543   2.155167   3.398761   4.976192   1.094877
    35  H    3.401186   3.403124   2.158694   4.318651   2.158660
                   31         32         33         34         35
    31  H    0.000000
    32  C    3.401570   0.000000
    33  H    4.971181   2.158388   0.000000
    34  H    2.476580   2.157318   4.304803   0.000000
    35  H    4.303996   1.094601   2.488802   2.487169   0.000000
 Stoichiometry    C19H16
 Framework group  C3V[C3(CH),3SGV(C6H5)]
 Deg. of freedom    23
 Full point group                 C3V     NOp   6
 Largest Abelian subgroup         CS      NOp   2
 Largest concise Abelian subgroup CS      NOp   2
                         Standard orientation:                         
 ---------------------------------------------------------------------
 Center     Atomic      Atomic             Coordinates (Angstroms)
 Number     Number       Type             X           Y           Z
 ---------------------------------------------------------------------
      1          6           0        0.000000    0.000000    0.760378
      2          1           0        0.000000    0.000000    1.885057
      3          6           0        0.000000    1.446005    0.326475
      4          6           0        0.000000    1.819950   -1.018230
      5          6           0        0.000000    2.442616    1.305778
      6          6           0        0.000000    3.161481   -1.379563
      7          1           0        0.000000    1.030580   -1.791048
      8          6           0        0.000000    3.784848    0.943673
      9          1           0        0.000000    2.167503    2.367268
     10          6           0        0.000000    4.147324   -0.398774
     11          1           0        0.000000    3.440519   -2.438153
     12          1           0        0.000000    4.557770    1.719139
     13          1           0        0.000000    5.204522   -0.682469
     14          6           0        1.252277   -0.723002    0.326475
     15          6           0        2.115368   -1.221308    1.305778
     16          6           0        1.576123   -0.909975   -1.018230
     17          6           0        3.277774   -1.892424    0.943673
     18          1           0        1.877113   -1.083751    2.367268
     19          6           0        2.737923   -1.580740   -1.379563
     20          1           0        0.892508   -0.515290   -1.791048
     21          6           0        3.591688   -2.073662   -0.398774
     22          1           0        3.947145   -2.278885    1.719139
     23          1           0        2.979577   -1.720259   -2.438153
     24          1           0        4.507248   -2.602261   -0.682469
     25          6           0       -1.252277   -0.723002    0.326475
     26          6           0       -1.576123   -0.909975   -1.018230
     27          6           0       -2.115368   -1.221308    1.305778
     28          6           0       -2.737923   -1.580740   -1.379563
     29          1           0       -0.892508   -0.515290   -1.791048
     30          6           0       -3.277774   -1.892424    0.943673
     31          1           0       -1.877113   -1.083751    2.367268
     32          6           0       -3.591688   -2.073662   -0.398774
     33          1           0       -2.979577   -1.720259   -2.438153
     34          1           0       -3.947145   -2.278885    1.719139
     35          1           0       -4.507248   -2.602261   -0.682469
 ---------------------------------------------------------------------
 Rotational constants (GHZ):      0.3813342      0.3813342      0.2404341
 Standard basis: 6-311G (5D, 7F)
 There are   181 symmetry adapted basis functions of A'  symmetry.
 There are   114 symmetry adapted basis functions of A"  symmetry.
 Integral buffers will be    262144 words long.
 Raffenetti 1 integral format.
 Two-electron integral symmetry is turned on.
   295 basis functions,   574 primitive gaussians,   295 cartesian basis functions
    65 alpha electrons       65 beta electrons
       nuclear repulsion energy      1288.1149928762 Hartrees.
 NAtoms=   35 NActive=   35 NUniq=   13 SFac= 3.00D+00 NAtFMM=   80 NAOKFM=F Big=F
 One-electron integrals computed using PRISM.
 PrsmSu:  requested number of processors reduced to:  10 ShMem   1 Linda.
 NBasis=   295 RedAO= T  NBF=   181   114
 NBsUse=   295 1.00D-06 NBFU=   181   114
 Harris functional with IExCor=  205 diagonalized for initial guess.
 ExpMin= 1.03D-01 ExpMax= 4.56D+03 ExpMxC= 6.82D+02 IAcc=1 IRadAn=         1 AccDes= 0.00D+00
 HarFok:  IExCor=  205 AccDes= 0.00D+00 IRadAn=         1 IDoV= 1
 ScaDFX=  1.000000  1.000000  1.000000  1.000000
 FoFCou: FMM=F IPFlag=           0 FMFlag=      100000 FMFlg1=           0
         NFxFlg=           0 DoJE=T BraDBF=F KetDBF=T FulRan=T
         Omega=  0.000000  0.000000  1.000000  0.000000  0.000000 ICntrl=     500 IOpCl=  0
         NMat0=    1 NMatS0=    1 NMatT0=    0 NMatD0=    1 NMtDS0=    0 NMtDT0=    0
         I1Cent=           4 NGrid=           0.
 Petite list used in FoFCou.
 Initial guess orbital symmetries:
       Occupied  (E) (E) (A1) (A1) (E) (E) (E) (E) (A1) (A1) (E)
                 (E) (E) (E) (A1) (E) (E) (A1) (A1) (A1) (E) (E)
                 (A1) (A1) (E) (E) (E) (E) (A1) (A1) (E) (E) (E)
                 (E) (A1) (E) (E) (A1) (A1) (E) (E) (A1) (E) (E)
                 (A1) (E) (E) (E) (E) (A1) (A1) (E) (E) (A2) (E)
                 (E) (E) (E) (A1) (E) (E) (A2) (E) (E) (A2)
       Virtual   (E) (E) (E) (E) (A2) (A2) (A1) (A1) (E) (E) (E)
                 (E) (A2) (A1) (E) (E) (A1) (A1) (E) (E) (E) (E)
                 (A1) (A1) (E) (E) (E) (E) (A1) (A1) (E) (E) (A1)
                 (E) (E) (E) (E) (E) (E) (A1) (A1) (E) (E) (A1)
                 (E) (E) (A1) (A1) (E) (E) (A2) (E) (E) (A1) (E)
                 (E) (A1) (E) (E) (E) (E) (E) (E) (A1) (E) (E)
                 (A2) (E) (E) (A1) (E) (E) (A2) (A1) (E) (E) (E)
                 (E) (A1) (A1) (E) (E) (A2) (E) (E) (E) (E) (A1)
                 (A1) (E) (E) (A1) (E) (E) (A1) (A2) (E) (E) (E)
                 (E) (A1) (A1) (E) (E) (A1) (A2) (E) (E) (A1) (E)
                 (E) (A1) (E) (E) (E) (E) (A1) (E) (E) (E) (E)
                 (A1) (A1) (E) (E) (A1) (E) (E) (E) (E) (A1) (E)
                 (E) (A1) (A1) (E) (E) (A1) (A1) (E) (E) (A1) (E)
                 (E) (A1) (E) (E) (A1) (E) (E) (A1) (E) (E) (A2)
                 (E) (E) (E) (E) (A2) (A1) (A2) (E) (E) (A1) (A1)
                 (E) (E) (E) (E) (E) (E) (A2) (E) (E) (A2) (A1)
                 (E) (E) (A1) (E) (E) (E) (E) (A2) (E) (E) (A1)
                 (E) (E) (A1) (E) (E) (A1) (E) (E) (E) (E) (A1)
                 (E) (E) (A1) (A1) (E) (E) (A1) (E) (E) (A1) (E)
                 (E) (A1) (A1) (E) (E) (A1) (E) (E) (A1) (E) (E)
                 (A1) (E) (E) (A1) (E) (E) (A1) (A1) (E) (E)
 The electronic state of the initial guess is 1-A1.
 Requested convergence on RMS density matrix=1.00D-08 within 128 cycles.
 Requested convergence on MAX density matrix=1.00D-06.
 Requested convergence on             energy=1.00D-06.
 No special actions if energy rises.
 Integral accuracy reduced to 1.0D-05 until final iterations.
 Initial convergence to 1.0D-05 achieved.  Increase integral accuracy.
 SCF Done:  E(RHF) =  -728.661935621     A.U. after   14 cycles
             Convg  =    0.5586D-08             -V/T =  2.0001

 **********************************************************************

            Population analysis using the SCF density.

 **********************************************************************

 Orbital symmetries:
       Occupied  (A1) (E) (E) (A1) (E) (E) (A1) (E) (E) (A1) (E)
                 (E) (A1) (E) (E) (A1) (E) (E) (A1) (A1) (E) (E)
                 (A1) (A1) (E) (E) (E) (E) (A1) (A1) (E) (E) (E)
                 (E) (A1) (E) (E) (A1) (A1) (E) (E) (A1) (E) (E)
                 (A1) (E) (E) (E) (E) (A1) (A1) (E) (E) (A2) (E)
                 (E) (A1) (E) (E) (E) (E) (E) (E) (A2) (A2)
       Virtual   (E) (E) (E) (E) (A1) (A1) (A2) (E) (E) (A2) (A1)
                 (E) (E) (A1) (E) (E) (A1) (E) (E) (A1) (E) (E)
                 (A1) (E) (E) (A2) (E) (E) (A1) (A1) (E) (E) (A1)
                 (E) (E) (E) (E) (A1) (E) (E) (A1) (E) (E) (A1)
                 (E) (E) (A1) (A1) (E) (E) (A2) (E) (E) (E) (E)
                 (A1) (A1) (E) (E) (E) (E) (E) (E) (A1) (A2) (E)
                 (E) (E) (E) (A1) (A2) (E) (E) (E) (E) (A1) (E)
                 (E) (A2) (E) (E) (A1) (A1) (E) (E) (E) (E) (A1)
                 (A1) (E) (E) (E) (E) (A1) (A1) (A2) (E) (E) (A1)
                 (E) (E) (A2) (A1) (E) (E) (E) (E) (A1) (A1) (E)
                 (E) (E) (E) (A1) (A1) (E) (E) (E) (E) (A1) (E)
                 (E) (A1) (E) (E) (A1) (E) (E) (E) (E) (A1) (E)
                 (E) (A1) (A1) (E) (E) (A1) (A1) (E) (E) (A1) (E)
                 (E) (A1) (A1) (E) (E) (E) (E) (A1) (A1) (E) (E)
                 (A2) (E) (E) (E) (E) (A2) (E) (E) (A1) (A2) (E)
                 (E) (A1) (E) (E) (E) (E) (A2) (E) (E) (A2) (A1)
                 (E) (E) (A1) (E) (E) (E) (E) (A2) (A1) (E) (E)
                 (E) (E) (A1) (E) (E) (A1) (E) (E) (E) (E) (A1)
                 (E) (E) (A1) (A1) (E) (E) (E) (E) (A1) (A1) (E)
                 (E) (A1) (A1) (E) (E) (A1) (E) (E) (A1) (E) (E)
                 (A1) (A1) (E) (E) (E) (E) (A1) (A1) (E) (E)
 The electronic state is 1-A1.
 Alpha  occ. eigenvalues --  -11.25911 -11.25314 -11.25314 -11.25308 -11.24434
 Alpha  occ. eigenvalues --  -11.24434 -11.24434 -11.24317 -11.24317 -11.24317
 Alpha  occ. eigenvalues --  -11.24169 -11.24169 -11.24168 -11.24084 -11.24084
 Alpha  occ. eigenvalues --  -11.24084 -11.23986 -11.23986 -11.23986  -1.18653
 Alpha  occ. eigenvalues --   -1.15800  -1.15800  -1.09068  -1.02576  -1.01968
 Alpha  occ. eigenvalues --   -1.01968  -1.01540  -1.01540  -0.93059  -0.85057
 Alpha  occ. eigenvalues --   -0.82362  -0.82362  -0.81931  -0.81931  -0.78034
 Alpha  occ. eigenvalues --   -0.70464  -0.70464  -0.69869  -0.66396  -0.63076
 Alpha  occ. eigenvalues --   -0.63076  -0.62914  -0.62306  -0.62306  -0.59922
 Alpha  occ. eigenvalues --   -0.58649  -0.58649  -0.57963  -0.57963  -0.53386
 Alpha  occ. eigenvalues --   -0.52145  -0.51251  -0.51251  -0.49543  -0.48622
 Alpha  occ. eigenvalues --   -0.48622  -0.48113  -0.47197  -0.47197  -0.34397
 Alpha  occ. eigenvalues --   -0.34397  -0.33775  -0.33775  -0.33415  -0.31076
 Alpha virt. eigenvalues --    0.12122   0.12122   0.12787   0.12787   0.14081
 Alpha virt. eigenvalues --    0.15510   0.15692   0.16375   0.16375   0.16680
 Alpha virt. eigenvalues --    0.18461   0.19285   0.19285   0.21243   0.21592
 Alpha virt. eigenvalues --    0.21592   0.23777   0.24506   0.24506   0.28413
 Alpha virt. eigenvalues --    0.30980   0.30980   0.33861   0.33993   0.33993
 Alpha virt. eigenvalues --    0.38185   0.39426   0.39426   0.40121   0.43671
 Alpha virt. eigenvalues --    0.44508   0.44508   0.44809   0.45915   0.45915
 Alpha virt. eigenvalues --    0.46988   0.46988   0.48784   0.50138   0.50138
 Alpha virt. eigenvalues --    0.50771   0.52407   0.52407   0.55400   0.57110
 Alpha virt. eigenvalues --    0.57110   0.57363   0.58299   0.58678   0.58678
 Alpha virt. eigenvalues --    0.58967   0.60510   0.60510   0.61959   0.61959
 Alpha virt. eigenvalues --    0.62012   0.62150   0.63136   0.63136   0.63899
 Alpha virt. eigenvalues --    0.63899   0.65380   0.65380   0.65722   0.65990
 Alpha virt. eigenvalues --    0.66930   0.66930   0.68941   0.68941   0.70500
 Alpha virt. eigenvalues --    0.71460   0.74288   0.74288   0.75595   0.75595
 Alpha virt. eigenvalues --    0.76031   0.78743   0.78743   0.79603   0.81304
 Alpha virt. eigenvalues --    0.81304   0.81934   0.82767   0.82797   0.82797
 Alpha virt. eigenvalues --    0.83475   0.83475   0.84089   0.84264   0.86391
 Alpha virt. eigenvalues --    0.86391   0.86736   0.86736   0.86976   0.88615
 Alpha virt. eigenvalues --    0.89535   0.90397   0.90397   0.95748   0.96687
 Alpha virt. eigenvalues --    0.96687   0.96859   0.97602   0.97999   0.97999
 Alpha virt. eigenvalues --    1.00685   1.00685   1.02856   1.06064   1.06215
 Alpha virt. eigenvalues --    1.06215   1.07653   1.07653   1.08068   1.11062
 Alpha virt. eigenvalues --    1.11896   1.11896   1.12624   1.12624   1.12998
 Alpha virt. eigenvalues --    1.14538   1.14538   1.15107   1.22647   1.22647
 Alpha virt. eigenvalues --    1.25061   1.25909   1.25909   1.27805   1.27805
 Alpha virt. eigenvalues --    1.31097   1.38616   1.38616   1.38912   1.43646
 Alpha virt. eigenvalues --    1.52654   1.52654   1.55435   2.45108   2.55199
 Alpha virt. eigenvalues --    2.55199   2.56984   2.62124   2.62124   2.63063
 Alpha virt. eigenvalues --    2.66398   2.67288   2.67288   2.77812   2.77812
 Alpha virt. eigenvalues --    2.78238   2.83354   2.89156   2.89156   2.93997
 Alpha virt. eigenvalues --    2.94069   2.94069   2.96562   2.96562   2.98228
 Alpha virt. eigenvalues --    3.00825   3.00825   3.04220   3.04747   3.08417
 Alpha virt. eigenvalues --    3.08417   3.09151   3.09752   3.09752   3.13037
 Alpha virt. eigenvalues --    3.13037   3.15939   3.16628   3.16628   3.19336
 Alpha virt. eigenvalues --    3.22840   3.24357   3.24357   3.29214   3.30396
 Alpha virt. eigenvalues --    3.30396   3.33692   3.33692   3.34689   3.43644
 Alpha virt. eigenvalues --    3.44334   3.44334   3.48434   3.48434   3.51037
 Alpha virt. eigenvalues --    3.52847   3.52847   3.59335   3.59741   3.59741
 Alpha virt. eigenvalues --    3.62703   3.62703   3.63240   3.65543   3.65543
 Alpha virt. eigenvalues --    3.66488   3.68446   3.71027   3.71027   3.74561
 Alpha virt. eigenvalues --    3.74561   3.76275   3.80821   3.84784   3.84784
 Alpha virt. eigenvalues --    3.98399  24.23879  24.30679  24.30679  24.50330
 Alpha virt. eigenvalues --   24.50778  24.50778  24.53765  24.54620  24.54620
 Alpha virt. eigenvalues --   24.76560  24.78585  24.78784  24.78784  24.81057
 Alpha virt. eigenvalues --   24.81057  24.82942  25.04358  25.06490  25.06490
          Condensed to atoms (all electrons):
              1          2          3          4          5          6
     1  C    5.768598   0.437396   0.198717  -0.052313  -0.022219   0.001661
     2  H    0.437396   0.507871  -0.063917   0.005139   0.003093  -0.000298
     3  C    0.198717  -0.063917   5.405078   0.425862   0.505763  -0.055325
     4  C   -0.052313   0.005139   0.425862   5.081498  -0.063329   0.483073
     5  C   -0.022219   0.003093   0.505763  -0.063329   5.045740  -0.035105
     6  C    0.001661  -0.000298  -0.055325   0.483073  -0.035105   5.037137
     7  H    0.002862   0.000005  -0.059168   0.385204   0.004153  -0.021667
     8  C    0.007761   0.001718  -0.075484  -0.028280   0.470069  -0.078037
     9  H   -0.000732   0.003401  -0.045969   0.004568   0.393492  -0.000175
    10  C    0.001290   0.000000  -0.021434  -0.093003  -0.085282   0.494687
    11  H   -0.000298   0.000012   0.005987  -0.038167  -0.000516   0.396534
    12  H   -0.000377  -0.000043   0.007517  -0.000735  -0.040192   0.006424
    13  H   -0.000011  -0.000002  -0.001591   0.008351   0.007562  -0.043052
    14  C    0.198717  -0.063917  -0.155079  -0.004014  -0.002693   0.001909
    15  C   -0.022219   0.003093  -0.002693   0.000214   0.000718   0.000034
    16  C   -0.052313   0.005139  -0.004014  -0.009809   0.000214  -0.000313
    17  C    0.007761   0.001718  -0.000557   0.000095  -0.000027  -0.000001
    18  H   -0.000732   0.003401   0.000302  -0.000040   0.000141   0.000000
    19  C    0.001661  -0.000298   0.001909  -0.000313   0.000034  -0.000066
    20  H    0.002862   0.000005  -0.001993  -0.000418  -0.000326   0.000933
    21  C    0.001290   0.000000  -0.000057  -0.000017  -0.000008   0.000001
    22  H   -0.000377  -0.000043   0.000018   0.000000   0.000001   0.000000
    23  H   -0.000298   0.000012   0.000018   0.000030   0.000001  -0.000001
    24  H   -0.000011  -0.000002  -0.000002   0.000001   0.000000   0.000000
    25  C    0.198717  -0.063917  -0.155079  -0.004014  -0.002693   0.001909
    26  C   -0.052313   0.005139  -0.004014  -0.009809   0.000214  -0.000313
    27  C   -0.022219   0.003093  -0.002693   0.000214   0.000718   0.000034
    28  C    0.001661  -0.000298   0.001909  -0.000313   0.000034  -0.000066
    29  H    0.002862   0.000005  -0.001993  -0.000418  -0.000326   0.000933
    30  C    0.007761   0.001718  -0.000557   0.000095  -0.000027  -0.000001
    31  H   -0.000732   0.003401   0.000302  -0.000040   0.000141   0.000000
    32  C    0.001290   0.000000  -0.000057  -0.000017  -0.000008   0.000001
    33  H   -0.000298   0.000012   0.000018   0.000030   0.000001  -0.000001
    34  H   -0.000377  -0.000043   0.000018   0.000000   0.000001   0.000000
    35  H   -0.000011  -0.000002  -0.000002   0.000001   0.000000   0.000000
              7          8          9         10         11         12
     1  C    0.002862   0.007761  -0.000732   0.001290  -0.000298  -0.000377
     2  H    0.000005   0.001718   0.003401   0.000000   0.000012  -0.000043
     3  C   -0.059168  -0.075484  -0.045969  -0.021434   0.005987   0.007517
     4  C    0.385204  -0.028280   0.004568  -0.093003  -0.038167  -0.000735
     5  C    0.004153   0.470069   0.393492  -0.085282  -0.000516  -0.040192
     6  C   -0.021667  -0.078037  -0.000175   0.494687   0.396534   0.006424
     7  H    0.530316   0.000083  -0.000303   0.004619  -0.003438   0.000022
     8  C    0.000083   5.043823  -0.033444   0.499767   0.005947   0.397011
     9  H   -0.000303  -0.033444   0.511765   0.005132   0.000027  -0.004161
    10  C    0.004619   0.499767   0.005132   5.031861  -0.039227  -0.041411
    11  H   -0.003438   0.005947   0.000027  -0.039227   0.515312  -0.000208
    12  H    0.000022   0.397011  -0.004161  -0.041411  -0.000208   0.518830
    13  H   -0.000208  -0.042987  -0.000190   0.399276  -0.004425  -0.004664
    14  C   -0.001993  -0.000557   0.000302  -0.000057   0.000018   0.000018
    15  C   -0.000326  -0.000027   0.000141  -0.000008   0.000001   0.000001
    16  C   -0.000418   0.000095  -0.000040  -0.000017   0.000030   0.000000
    17  C   -0.000016   0.000002   0.000001   0.000000   0.000000   0.000000
    18  H    0.000001   0.000001   0.000027   0.000000   0.000000   0.000000
    19  C    0.000933  -0.000001   0.000000   0.000001  -0.000001   0.000000
    20  H   -0.002481  -0.000016   0.000001  -0.000010  -0.000027   0.000000
    21  C   -0.000010   0.000000   0.000000   0.000000   0.000000   0.000000
    22  H    0.000000   0.000000   0.000000   0.000000   0.000000   0.000000
    23  H   -0.000027   0.000000   0.000000   0.000000   0.000000   0.000000
    24  H    0.000000   0.000000   0.000000   0.000000   0.000000   0.000000
    25  C   -0.001993  -0.000557   0.000302  -0.000057   0.000018   0.000018
    26  C   -0.000418   0.000095  -0.000040  -0.000017   0.000030   0.000000
    27  C   -0.000326  -0.000027   0.000141  -0.000008   0.000001   0.000001
    28  C    0.000933  -0.000001   0.000000   0.000001  -0.000001   0.000000
    29  H   -0.002481  -0.000016   0.000001  -0.000010  -0.000027   0.000000
    30  C   -0.000016   0.000002   0.000001   0.000000   0.000000   0.000000
    31  H    0.000001   0.000001   0.000027   0.000000   0.000000   0.000000
    32  C   -0.000010   0.000000   0.000000   0.000000   0.000000   0.000000
    33  H   -0.000027   0.000000   0.000000   0.000000   0.000000   0.000000
    34  H    0.000000   0.000000   0.000000   0.000000   0.000000   0.000000
    35  H    0.000000   0.000000   0.000000   0.000000   0.000000   0.000000
             13         14         15         16         17         18
     1  C   -0.000011   0.198717  -0.022219  -0.052313   0.007761  -0.000732
     2  H   -0.000002  -0.063917   0.003093   0.005139   0.001718   0.003401
     3  C   -0.001591  -0.155079  -0.002693  -0.004014  -0.000557   0.000302
     4  C    0.008351  -0.004014   0.000214  -0.009809   0.000095  -0.000040
     5  C    0.007562  -0.002693   0.000718   0.000214  -0.000027   0.000141
     6  C   -0.043052   0.001909   0.000034  -0.000313  -0.000001   0.000000
     7  H   -0.000208  -0.001993  -0.000326  -0.000418  -0.000016   0.000001
     8  C   -0.042987  -0.000557  -0.000027   0.000095   0.000002   0.000001
     9  H   -0.000190   0.000302   0.000141  -0.000040   0.000001   0.000027
    10  C    0.399276  -0.000057  -0.000008  -0.000017   0.000000   0.000000
    11  H   -0.004425   0.000018   0.000001   0.000030   0.000000   0.000000
    12  H   -0.004664   0.000018   0.000001   0.000000   0.000000   0.000000
    13  H    0.518080  -0.000002   0.000000   0.000001   0.000000   0.000000
    14  C   -0.000002   5.405078   0.505763   0.425862  -0.075484  -0.045969
    15  C    0.000000   0.505763   5.045740  -0.063329   0.470069   0.393492
    16  C    0.000001   0.425862  -0.063329   5.081498  -0.028280   0.004568
    17  C    0.000000  -0.075484   0.470069  -0.028280   5.043823  -0.033444
    18  H    0.000000  -0.045969   0.393492   0.004568  -0.033444   0.511765
    19  C    0.000000  -0.055325  -0.035105   0.483073  -0.078037  -0.000175
    20  H    0.000000  -0.059168   0.004153   0.385204   0.000083  -0.000303
    21  C    0.000000  -0.021434  -0.085282  -0.093003   0.499767   0.005132
    22  H    0.000000   0.007517  -0.040192  -0.000735   0.397011  -0.004161
    23  H    0.000000   0.005987  -0.000516  -0.038167   0.005947   0.000027
    24  H    0.000000  -0.001591   0.007562   0.008351  -0.042987  -0.000190
    25  C   -0.000002  -0.155079  -0.002693  -0.004014  -0.000557   0.000302
    26  C    0.000001  -0.004014   0.000214  -0.009809   0.000095  -0.000040
    27  C    0.000000  -0.002693   0.000718   0.000214  -0.000027   0.000141
    28  C    0.000000   0.001909   0.000034  -0.000313  -0.000001   0.000000
    29  H    0.000000  -0.001993  -0.000326  -0.000418  -0.000016   0.000001
    30  C    0.000000  -0.000557  -0.000027   0.000095   0.000002   0.000001
    31  H    0.000000   0.000302   0.000141  -0.000040   0.000001   0.000027
    32  C    0.000000  -0.000057  -0.000008  -0.000017   0.000000   0.000000
    33  H    0.000000   0.000018   0.000001   0.000030   0.000000   0.000000
    34  H    0.000000   0.000018   0.000001   0.000000   0.000000   0.000000
    35  H    0.000000  -0.000002   0.000000   0.000001   0.000000   0.000000
             19         20         21         22         23         24
     1  C    0.001661   0.002862   0.001290  -0.000377  -0.000298  -0.000011
     2  H   -0.000298   0.000005   0.000000  -0.000043   0.000012  -0.000002
     3  C    0.001909  -0.001993  -0.000057   0.000018   0.000018  -0.000002
     4  C   -0.000313  -0.000418  -0.000017   0.000000   0.000030   0.000001
     5  C    0.000034  -0.000326  -0.000008   0.000001   0.000001   0.000000
     6  C   -0.000066   0.000933   0.000001   0.000000  -0.000001   0.000000
     7  H    0.000933  -0.002481  -0.000010   0.000000  -0.000027   0.000000
     8  C   -0.000001  -0.000016   0.000000   0.000000   0.000000   0.000000
     9  H    0.000000   0.000001   0.000000   0.000000   0.000000   0.000000
    10  C    0.000001  -0.000010   0.000000   0.000000   0.000000   0.000000
    11  H   -0.000001  -0.000027   0.000000   0.000000   0.000000   0.000000
    12  H    0.000000   0.000000   0.000000   0.000000   0.000000   0.000000
    13  H    0.000000   0.000000   0.000000   0.000000   0.000000   0.000000
    14  C   -0.055325  -0.059168  -0.021434   0.007517   0.005987  -0.001591
    15  C   -0.035105   0.004153  -0.085282  -0.040192  -0.000516   0.007562
    16  C    0.483073   0.385204  -0.093003  -0.000735  -0.038167   0.008351
    17  C   -0.078037   0.000083   0.499767   0.397011   0.005947  -0.042987
    18  H   -0.000175  -0.000303   0.005132  -0.004161   0.000027  -0.000190
    19  C    5.037137  -0.021667   0.494687   0.006424   0.396534  -0.043052
    20  H   -0.021667   0.530316   0.004619   0.000022  -0.003438  -0.000208
    21  C    0.494687   0.004619   5.031861  -0.041411  -0.039227   0.399276
    22  H    0.006424   0.000022  -0.041411   0.518830  -0.000208  -0.004664
    23  H    0.396534  -0.003438  -0.039227  -0.000208   0.515312  -0.004425
    24  H   -0.043052  -0.000208   0.399276  -0.004664  -0.004425   0.518080
    25  C    0.001909  -0.001993  -0.000057   0.000018   0.000018  -0.000002
    26  C   -0.000313  -0.000418  -0.000017   0.000000   0.000030   0.000001
    27  C    0.000034  -0.000326  -0.000008   0.000001   0.000001   0.000000
    28  C   -0.000066   0.000933   0.000001   0.000000  -0.000001   0.000000
    29  H    0.000933  -0.002481  -0.000010   0.000000  -0.000027   0.000000
    30  C   -0.000001  -0.000016   0.000000   0.000000   0.000000   0.000000
    31  H    0.000000   0.000001   0.000000   0.000000   0.000000   0.000000
    32  C    0.000001  -0.000010   0.000000   0.000000   0.000000   0.000000
    33  H   -0.000001  -0.000027   0.000000   0.000000   0.000000   0.000000
    34  H    0.000000   0.000000   0.000000   0.000000   0.000000   0.000000
    35  H    0.000000   0.000000   0.000000   0.000000   0.000000   0.000000
             25         26         27         28         29         30
     1  C    0.198717  -0.052313  -0.022219   0.001661   0.002862   0.007761
     2  H   -0.063917   0.005139   0.003093  -0.000298   0.000005   0.001718
     3  C   -0.155079  -0.004014  -0.002693   0.001909  -0.001993  -0.000557
     4  C   -0.004014  -0.009809   0.000214  -0.000313  -0.000418   0.000095
     5  C   -0.002693   0.000214   0.000718   0.000034  -0.000326  -0.000027
     6  C    0.001909  -0.000313   0.000034  -0.000066   0.000933  -0.000001
     7  H   -0.001993  -0.000418  -0.000326   0.000933  -0.002481  -0.000016
     8  C   -0.000557   0.000095  -0.000027  -0.000001  -0.000016   0.000002
     9  H    0.000302  -0.000040   0.000141   0.000000   0.000001   0.000001
    10  C   -0.000057  -0.000017  -0.000008   0.000001  -0.000010   0.000000
    11  H    0.000018   0.000030   0.000001  -0.000001  -0.000027   0.000000
    12  H    0.000018   0.000000   0.000001   0.000000   0.000000   0.000000
    13  H   -0.000002   0.000001   0.000000   0.000000   0.000000   0.000000
    14  C   -0.155079  -0.004014  -0.002693   0.001909  -0.001993  -0.000557
    15  C   -0.002693   0.000214   0.000718   0.000034  -0.000326  -0.000027
    16  C   -0.004014  -0.009809   0.000214  -0.000313  -0.000418   0.000095
    17  C   -0.000557   0.000095  -0.000027  -0.000001  -0.000016   0.000002
    18  H    0.000302  -0.000040   0.000141   0.000000   0.000001   0.000001
    19  C    0.001909  -0.000313   0.000034  -0.000066   0.000933  -0.000001
    20  H   -0.001993  -0.000418  -0.000326   0.000933  -0.002481  -0.000016
    21  C   -0.000057  -0.000017  -0.000008   0.000001  -0.000010   0.000000
    22  H    0.000018   0.000000   0.000001   0.000000   0.000000   0.000000
    23  H    0.000018   0.000030   0.000001  -0.000001  -0.000027   0.000000
    24  H   -0.000002   0.000001   0.000000   0.000000   0.000000   0.000000
    25  C    5.405078   0.425862   0.505763  -0.055325  -0.059168  -0.075484
    26  C    0.425862   5.081498  -0.063329   0.483073   0.385204  -0.028280
    27  C    0.505763  -0.063329   5.045740  -0.035105   0.004153   0.470069
    28  C   -0.055325   0.483073  -0.035105   5.037137  -0.021667  -0.078037
    29  H   -0.059168   0.385204   0.004153  -0.021667   0.530316   0.000083
    30  C   -0.075484  -0.028280   0.470069  -0.078037   0.000083   5.043823
    31  H   -0.045969   0.004568   0.393492  -0.000175  -0.000303  -0.033444
    32  C   -0.021434  -0.093003  -0.085282   0.494687   0.004619   0.499767
    33  H    0.005987  -0.038167  -0.000516   0.396534  -0.003438   0.005947
    34  H    0.007517  -0.000735  -0.040192   0.006424   0.000022   0.397011
    35  H   -0.001591   0.008351   0.007562  -0.043052  -0.000208  -0.042987
             31         32         33         34         35
     1  C   -0.000732   0.001290  -0.000298  -0.000377  -0.000011
     2  H    0.003401   0.000000   0.000012  -0.000043  -0.000002
     3  C    0.000302  -0.000057   0.000018   0.000018  -0.000002
     4  C   -0.000040  -0.000017   0.000030   0.000000   0.000001
     5  C    0.000141  -0.000008   0.000001   0.000001   0.000000
     6  C    0.000000   0.000001  -0.000001   0.000000   0.000000
     7  H    0.000001  -0.000010  -0.000027   0.000000   0.000000
     8  C    0.000001   0.000000   0.000000   0.000000   0.000000
     9  H    0.000027   0.000000   0.000000   0.000000   0.000000
    10  C    0.000000   0.000000   0.000000   0.000000   0.000000
    11  H    0.000000   0.000000   0.000000   0.000000   0.000000
    12  H    0.000000   0.000000   0.000000   0.000000   0.000000
    13  H    0.000000   0.000000   0.000000   0.000000   0.000000
    14  C    0.000302  -0.000057   0.000018   0.000018  -0.000002
    15  C    0.000141  -0.000008   0.000001   0.000001   0.000000
    16  C   -0.000040  -0.000017   0.000030   0.000000   0.000001
    17  C    0.000001   0.000000   0.000000   0.000000   0.000000
    18  H    0.000027   0.000000   0.000000   0.000000   0.000000
    19  C    0.000000   0.000001  -0.000001   0.000000   0.000000
    20  H    0.000001  -0.000010  -0.000027   0.000000   0.000000
    21  C    0.000000   0.000000   0.000000   0.000000   0.000000
    22  H    0.000000   0.000000   0.000000   0.000000   0.000000
    23  H    0.000000   0.000000   0.000000   0.000000   0.000000
    24  H    0.000000   0.000000   0.000000   0.000000   0.000000
    25  C   -0.045969  -0.021434   0.005987   0.007517  -0.001591
    26  C    0.004568  -0.093003  -0.038167  -0.000735   0.008351
    27  C    0.393492  -0.085282  -0.000516  -0.040192   0.007562
    28  C   -0.000175   0.494687   0.396534   0.006424  -0.043052
    29  H   -0.000303   0.004619  -0.003438   0.000022  -0.000208
    30  C   -0.033444   0.499767   0.005947   0.397011  -0.042987
    31  H    0.511765   0.005132   0.000027  -0.004161  -0.000190
    32  C    0.005132   5.031861  -0.039227  -0.041411   0.399276
    33  H    0.000027  -0.039227   0.515312  -0.000208  -0.004425
    34  H   -0.004161  -0.041411  -0.000208   0.518830  -0.004664
    35  H   -0.000190   0.399276  -0.004425  -0.004664   0.518080
 Mulliken atomic charges:
              1
     1  C   -0.615017
     2  H    0.207406
     3  C    0.098262
     4  C   -0.089320
     5  C   -0.179340
     6  C   -0.190849
     7  H    0.166193
     8  C   -0.166940
     9  H    0.165727
    10  C   -0.156090
    11  H    0.162417
    12  H    0.161949
    13  H    0.163863
    14  C    0.098262
    15  C   -0.179340
    16  C   -0.089320
    17  C   -0.166940
    18  H    0.165727
    19  C   -0.190849
    20  H    0.166193
    21  C   -0.156090
    22  H    0.161949
    23  H    0.162417
    24  H    0.163863
    25  C    0.098262
    26  C   -0.089320
    27  C   -0.179340
    28  C   -0.190849
    29  H    0.166193
    30  C   -0.166940
    31  H    0.165727
    32  C   -0.156090
    33  H    0.162417
    34  H    0.161949
    35  H    0.163863
 Sum of Mulliken atomic charges =   0.00000
 Mulliken charges with hydrogens summed into heavy atoms:
              1
     1  C   -0.407611
     3  C    0.098262
     4  C    0.076873
     5  C   -0.013614
     6  C   -0.028432
     8  C   -0.004991
    10  C    0.007773
    14  C    0.098262
    15  C   -0.013614
    16  C    0.076873
    17  C   -0.004991
    19  C   -0.028432
    21  C    0.007773
    25  C    0.098262
    26  C    0.076873
    27  C   -0.013614
    28  C   -0.028432
    30  C   -0.004991
    32  C    0.007773
 Sum of Mulliken charges with hydrogens summed into heavy atoms =   0.00000
 Electronic spatial extent (au):  <R**2>=           4937.1109
 Charge=              0.0000 electrons
 Dipole moment (field-independent basis, Debye):
    X=              0.0000    Y=              0.0000    Z=              0.0939  Tot=              0.0939
 Quadrupole moment (field-independent basis, Debye-Ang):
   XX=           -113.6367   YY=           -113.6367   ZZ=           -100.1384
   XY=              0.0000   XZ=              0.0000   YZ=              0.0000
 Traceless Quadrupole moment (field-independent basis, Debye-Ang):
   XX=             -4.4994   YY=             -4.4994   ZZ=              8.9989
   XY=              0.0000   XZ=              0.0000   YZ=              0.0000
 Octapole moment (field-independent basis, Debye-Ang**2):
  XXX=              0.0000  YYY=             54.0263  ZZZ=             -0.1211  XYY=              0.0000
  XXY=            -54.0263  XXZ=              0.4681  XZZ=              0.0000  YZZ=              0.0000
  YYZ=              0.4681  XYZ=              0.0000
 Hexadecapole moment (field-independent basis, Debye-Ang**3):
 XXXX=          -2948.1823 YYYY=          -2948.1823 ZZZZ=           -846.7951 XXXY=              0.0000
 XXXZ=              0.0000 YYYX=              0.0000 YYYZ=             -1.5666 ZZZX=              0.0000
 ZZZY=              0.0000 XXYY=           -982.7274 XXZZ=           -617.2263 YYZZ=           -617.2263
 XXYZ=              1.5666 YYXZ=              0.0000 ZZXY=              0.0000
 N-N= 1.288114992876D+03 E-N=-4.272132188532D+03  KE= 7.285913820635D+02
 Symmetry A'   KE= 4.907567537338D+02
 Symmetry A"   KE= 2.378346283297D+02
 PrsmSu:  requested number of processors reduced to:  10 ShMem   1 Linda.
 Calling FoFJK, ICntrl=      2127 FMM=F ISym2X=1 I1Cent= 0 IOpClX= 0 NMat=1 NMatS=1 NMatT=0.
 ***** Axes restored to original set *****
 -------------------------------------------------------------------
 Center     Atomic                   Forces (Hartrees/Bohr)
 Number     Number              X              Y              Z
 -------------------------------------------------------------------
      1        6           0.000000000    0.000000000   -0.024036071
      2        1           0.000000000    0.000000000    0.028900408
      3        6           0.006596005    0.011424615   -0.005065908
      4        6          -0.004278242   -0.007410132    0.011923759
      5        6          -0.000726444   -0.001258238   -0.006102635
      6        6           0.000603965    0.001046098    0.012154293
      7        1           0.016047205    0.027794574   -0.017246071
      8        6           0.005316444    0.009208352   -0.007889100
      9        1           0.002024130    0.003505895    0.017415389
     10        6           0.006687290    0.011582726    0.001828900
     11        1          -0.002087305   -0.003615318   -0.016192355
     12        1          -0.005845369   -0.010124477    0.011913394
     13        1          -0.008123595   -0.014070479   -0.004361111
     14        6          -0.013192009    0.000000000   -0.005065908
     15        6           0.001452888    0.000000000   -0.006102635
     16        6           0.008556484    0.000000000    0.011923759
     17        6          -0.010632889    0.000000000   -0.007889100
     18        1          -0.004048259    0.000000000    0.017415389
     19        6          -0.001207930    0.000000000    0.012154293
     20        1          -0.032094409    0.000000000   -0.017246071
     21        6          -0.013374580    0.000000000    0.001828900
     22        1           0.011690739    0.000000000    0.011913394
     23        1           0.004174610    0.000000000   -0.016192355
     24        1           0.016247190    0.000000000   -0.004361111
     25        6           0.006596005   -0.011424615   -0.005065908
     26        6          -0.004278242    0.007410132    0.011923759
     27        6          -0.000726444    0.001258238   -0.006102635
     28        6           0.000603965   -0.001046098    0.012154293
     29        1           0.016047205   -0.027794574   -0.017246071
     30        6           0.005316444   -0.009208352   -0.007889100
     31        1           0.002024130   -0.003505895    0.017415389
     32        6           0.006687290   -0.011582726    0.001828900
     33        1          -0.002087305    0.003615318   -0.016192355
     34        1          -0.005845369    0.010124477    0.011913394
     35        1          -0.008123595    0.014070479   -0.004361111
 -------------------------------------------------------------------
 Cartesian Forces:  Max     0.032094409 RMS     0.010583687

 GradGradGradGradGradGradGradGradGradGradGradGradGradGradGradGradGradGrad
 Berny optimization.
 Internal  Forces:  Max     0.035337486 RMS     0.010586540
 Search for a local minimum.
 Step number   1 out of a maximum of  197
 All quantities printed in internal units (Hartrees-Bohrs-Radians)
 Mixed Optimization -- RFO/linear search
 Second derivative matrix not updated -- first step.
     Eigenvalues ---    0.00638   0.00638   0.00638   0.01531   0.01531
     Eigenvalues ---    0.01531   0.02145   0.02145   0.02145   0.02171
     Eigenvalues ---    0.02171   0.02171   0.02187   0.02187   0.02187
     Eigenvalues ---    0.02204   0.02204   0.02204   0.02213   0.02213
     Eigenvalues ---    0.02213   0.02216   0.02216   0.02216   0.02217
     Eigenvalues ---    0.02217   0.02217   0.02222   0.02222   0.02222
     Eigenvalues ---    0.04554   0.06509   0.06509   0.16000   0.16000
     Eigenvalues ---    0.16000   0.16000   0.16000   0.16000   0.16000
     Eigenvalues ---    0.16000   0.16000   0.16000   0.16000   0.16000
     Eigenvalues ---    0.16000   0.16000   0.16000   0.19113   0.19113
     Eigenvalues ---    0.22000   0.22000   0.22000   0.22000   0.22000
     Eigenvalues ---    0.22000   0.23477   0.23477   0.23477   0.25000
     Eigenvalues ---    0.25000   0.25000   0.31094   0.31380   0.31380
     Eigenvalues ---    0.31380   0.33168   0.33168   0.33168   0.34065
     Eigenvalues ---    0.34065   0.34065   0.34255   0.34255   0.34255
     Eigenvalues ---    0.34270   0.34270   0.34270   0.34286   0.34286
     Eigenvalues ---    0.34286   0.42481   0.42481   0.42481   0.42594
     Eigenvalues ---    0.42594   0.42594   0.46423   0.46423   0.46423
     Eigenvalues ---    0.46777   0.46777   0.46777   0.47238   0.47238
     Eigenvalues ---    0.47238   0.47370   0.47370   0.473701000.00000
     Eigenvalues --- 1000.000001000.000001000.000001000.000001000.00000
     Eigenvalues --- 1000.000001000.000001000.000001000.000001000.00000
     Eigenvalues --- 1000.000001000.000001000.000001000.000001000.00000
     Eigenvalues --- 1000.000001000.000001000.000001000.000001000.00000
     Eigenvalues --- 1000.000001000.000001000.000001000.000001000.00000
     Eigenvalues --- 1000.000001000.000001000.000001000.000001000.00000
     Eigenvalues --- 1000.000001000.000001000.000001000.000001000.00000
     Eigenvalues --- 1000.000001000.000001000.000001000.000001000.00000
     Eigenvalues --- 1000.000001000.000001000.000001000.000001000.00000
     Eigenvalues --- 1000.000001000.000001000.000001000.000001000.00000
     Eigenvalues --- 1000.000001000.000001000.000001000.000001000.00000
     Eigenvalues --- 1000.000001000.000001000.000001000.000001000.00000
     Eigenvalues --- 1000.000001000.000001000.000001000.000001000.00000
     Eigenvalues --- 1000.000001000.000001000.000001000.000001000.00000
     Eigenvalues --- 1000.000001000.000001000.000001000.000001000.00000
     Eigenvalues --- 1000.000001000.000001000.000001000.000001000.00000
     Eigenvalues --- 1000.000001000.000001000.000001000.000001000.00000
     Eigenvalues --- 1000.000001000.00000
 RFO step:  Lambda=-7.23250068D-02 EMin= 6.37598782D-03
 Linear search not attempted -- first point.
 Maximum step size (   0.300) exceeded in Quadratic search.
    -- Step size scaled by   0.525
 Iteration  1 RMS(Cart)=  0.16583459 RMS(Int)=  0.00451816
 Iteration  2 RMS(Cart)=  0.00947928 RMS(Int)=  0.00044032
 Iteration  3 RMS(Cart)=  0.00000970 RMS(Int)=  0.00044030
 Iteration  4 RMS(Cart)=  0.00000000 RMS(Int)=  0.00044030
 ClnCor:  largest displacement from symmetrization is 3.27D-08 for atom    11.
 Variable       Old X    -DE/DX   Delta X   Delta X   Delta X     New X
                                 (Linear)    (Quad)   (Total)
    R1        2.12533  -0.02890   0.00000  -0.03960  -0.03960   2.08574
    R2        2.85292   0.03059   0.00000   0.04161   0.04161   2.89453
    R3        2.85292   0.03059   0.00000   0.04161   0.04161   2.89453
    R4        2.85292   0.03059   0.00000   0.04161   0.04161   2.89453
    R5        2.63755   0.00346   0.00000   0.00364   0.00366   2.64121
    R6        2.64039  -0.00283   0.00000  -0.00266  -0.00264   2.63776
    R7        2.62547  -0.00402   0.00000  -0.00375  -0.00376   2.62171
    R8        2.08757  -0.03500   0.00000  -0.04549  -0.04549   2.04208
    R9        2.62713  -0.00330   0.00000  -0.00329  -0.00329   2.62384
   R10        2.07220  -0.01787   0.00000  -0.02273  -0.02273   2.04947
   R11        2.62790  -0.00712   0.00000  -0.00700  -0.00702   2.62088
   R12        2.06878  -0.01672   0.00000  -0.02116  -0.02116   2.04762
   R13        2.62771  -0.01020   0.00000  -0.01007  -0.01009   2.61762
   R14        2.06902  -0.01669   0.00000  -0.02113  -0.02113   2.04789
   R15        2.06850  -0.01682   0.00000  -0.02128  -0.02128   2.04722
   R16        2.64039  -0.00283   0.00000  -0.00266  -0.00264   2.63776
   R17        2.63755   0.00346   0.00000   0.00364   0.00366   2.64121
   R18        2.62713  -0.00330   0.00000  -0.00329  -0.00329   2.62384
   R19        2.07220  -0.01787   0.00000  -0.02273  -0.02273   2.04947
   R20        2.62547  -0.00402   0.00000  -0.00375  -0.00376   2.62171
   R21        2.08757  -0.03500   0.00000  -0.04549  -0.04549   2.04208
   R22        2.62771  -0.01020   0.00000  -0.01007  -0.01009   2.61762
   R23        2.06902  -0.01669   0.00000  -0.02113  -0.02113   2.04789
   R24        2.62790  -0.00712   0.00000  -0.00700  -0.00702   2.62088
   R25        2.06878  -0.01672   0.00000  -0.02116  -0.02116   2.04762
   R26        2.06850  -0.01682   0.00000  -0.02128  -0.02128   2.04722
   R27        2.63755   0.00346   0.00000   0.00364   0.00366   2.64121
   R28        2.64039  -0.00283   0.00000  -0.00266  -0.00264   2.63776
   R29        2.62547  -0.00402   0.00000  -0.00375  -0.00376   2.62171
   R30        2.08757  -0.03500   0.00000  -0.04549  -0.04549   2.04208
   R31        2.62713  -0.00330   0.00000  -0.00329  -0.00329   2.62384
   R32        2.07220  -0.01787   0.00000  -0.02273  -0.02273   2.04947
   R33        2.62790  -0.00712   0.00000  -0.00700  -0.00702   2.62088
   R34        2.06878  -0.01672   0.00000  -0.02116  -0.02116   2.04762
   R35        2.62771  -0.01020   0.00000  -0.01007  -0.01009   2.61762
   R36        2.06902  -0.01669   0.00000  -0.02113  -0.02113   2.04789
   R37        2.06850  -0.01682   0.00000  -0.02128  -0.02128   2.04722
    A1        1.86232  -0.00975   0.00000  -0.04345  -0.04245   1.81986
    A2        1.86232  -0.00975   0.00000  -0.04345  -0.04245   1.81986
    A3        1.86232  -0.00975   0.00000  -0.04345  -0.04245   1.81986
    A4        1.95637   0.00869   0.00000   0.03873   0.03562   1.99200
    A5        1.95637   0.00869   0.00000   0.03873   0.03562   1.99200
    A6        1.95637   0.00869   0.00000   0.03873   0.03562   1.99200
    A7        2.13355   0.03534   0.00000   0.05744   0.05742   2.19098
    A8        2.07343  -0.02009   0.00000  -0.03286  -0.03288   2.04055
    A9        2.07620  -0.01525   0.00000  -0.02458  -0.02454   2.05166
   A10        2.10513   0.00511   0.00000   0.00943   0.00944   2.11457
   A11        2.07437   0.00802   0.00000   0.01918   0.01918   2.09355
   A12        2.10369  -0.01313   0.00000  -0.02861  -0.02862   2.07507
   A13        2.10145   0.01023   0.00000   0.01799   0.01802   2.11947
   A14        2.09384  -0.00558   0.00000  -0.01005  -0.01007   2.08377
   A15        2.08790  -0.00465   0.00000  -0.00794  -0.00796   2.07994
   A16        2.09566   0.00341   0.00000   0.00567   0.00564   2.10130
   A17        2.09163  -0.00161   0.00000  -0.00262  -0.00261   2.08902
   A18        2.09589  -0.00180   0.00000  -0.00305  -0.00303   2.09286
   A19        2.09802   0.00003   0.00000  -0.00104  -0.00104   2.09698
   A20        2.09105   0.00012   0.00000   0.00082   0.00083   2.09187
   A21        2.09411  -0.00015   0.00000   0.00022   0.00022   2.09433
   A22        2.08990  -0.00353   0.00000  -0.00747  -0.00751   2.08239
   A23        2.09659   0.00177   0.00000   0.00374   0.00376   2.10035
   A24        2.09669   0.00177   0.00000   0.00373   0.00375   2.10044
   A25        2.07343  -0.02009   0.00000  -0.03286  -0.03288   2.04055
   A26        2.13355   0.03534   0.00000   0.05744   0.05742   2.19098
   A27        2.07620  -0.01525   0.00000  -0.02458  -0.02454   2.05166
   A28        2.10145   0.01023   0.00000   0.01799   0.01802   2.11947
   A29        2.09384  -0.00558   0.00000  -0.01005  -0.01007   2.08377
   A30        2.08790  -0.00465   0.00000  -0.00794  -0.00796   2.07994
   A31        2.10513   0.00511   0.00000   0.00943   0.00944   2.11457
   A32        2.07437   0.00802   0.00000   0.01918   0.01918   2.09355
   A33        2.10369  -0.01313   0.00000  -0.02861  -0.02862   2.07507
   A34        2.09802   0.00003   0.00000  -0.00104  -0.00104   2.09698
   A35        2.09105   0.00012   0.00000   0.00082   0.00083   2.09187
   A36        2.09411  -0.00015   0.00000   0.00022   0.00022   2.09433
   A37        2.09566   0.00341   0.00000   0.00567   0.00564   2.10130
   A38        2.09163  -0.00161   0.00000  -0.00262  -0.00261   2.08902
   A39        2.09589  -0.00180   0.00000  -0.00305  -0.00303   2.09286
   A40        2.08990  -0.00353   0.00000  -0.00747  -0.00751   2.08239
   A41        2.09669   0.00177   0.00000   0.00373   0.00375   2.10044
   A42        2.09659   0.00177   0.00000   0.00374   0.00376   2.10035
   A43        2.13355   0.03534   0.00000   0.05744   0.05742   2.19098
   A44        2.07343  -0.02009   0.00000  -0.03286  -0.03288   2.04055
   A45        2.07620  -0.01525   0.00000  -0.02458  -0.02454   2.05166
   A46        2.10513   0.00511   0.00000   0.00943   0.00944   2.11457
   A47        2.07437   0.00802   0.00000   0.01918   0.01918   2.09355
   A48        2.10369  -0.01313   0.00000  -0.02861  -0.02862   2.07507
   A49        2.10145   0.01023   0.00000   0.01799   0.01802   2.11947
   A50        2.09384  -0.00558   0.00000  -0.01005  -0.01007   2.08377
[...]
 737,0.00248168,-0.00027731,-0.00050911,0.00097580,-0.26088511,0.629208
 08,0.00151079,-0.00261678,-0.00432571,-0.00019359,0.00033531,0.0003695
 7,0.00019475,0.00023183,-0.00004356,0.00003348,0.00027839,-0.00016911,
 -0.00030285,-0.00023183,-0.00005902,-0.00023365,-0.00030220,0.00009146
 ,0.00005898,-0.00009873,0.00001826,0.00014618,0.00021357,0.00026485,-0
 .00002571,0.00000350,0.00003562,0.00004842,0.00006922,-0.00032735,-0.0
 0001013,0.00001569,0.00001197,0.00002274,-0.00001310,-0.00000336,0.000
 00883,0.00000485,0.00000202,-0.00029815,-0.00005275,-0.00004356,0.0003
 5220,0.00014636,-0.00005902,-0.00025783,0.00011020,-0.00016911,-0.0002
 5805,-0.00001981,0.00026485,0.00000982,0.00002402,0.00003562,0.0003785
 4,0.00005125,0.00009146,0.00005601,-0.00010045,0.00001826,-0.00008416,
 -0.00000732,-0.00032735,-0.00000002,-0.00002625,-0.00000336,-0.0000085
 2,0.00001662,0.00001197,-0.00000862,-0.00000522,0.00000202,0.00761428,
 -0.01318832,0.08097140,-0.02664224,0.04614572,-0.04934230,0.00427054,-
 0.00739679,-0.17003393,0.03382849,-0.05859266,-0.06575431,-0.00058413,
 0.00101174,0.00010127,-0.02394625,0.04147612,0.80613913,-0.00331158,-0
 .00246443,0.00106368,0.00007216,0.00067211,0.00025362,0.00055188,-0.00
 032783,-0.00017713,-0.00013416,-0.00019217,-0.00005608,-0.00013011,-0.
 00004541,-0.00005866,-0.00000499,0.00008502,-0.00002280,0.00003263,-0.
 00001438,-0.00000288,-0.00010590,-0.00001391,-0.00002571,0.00012640,-0
 .00005197,0.00004726,-0.00002684,-0.00006016,0.00005355,-0.00000051,-0
 .00001747,-0.00000471,-0.00000317,-0.00003066,0.00000466,0.00001008,-0
 .00000934,0.00000210,-0.00008765,0.00050762,0.00023013,-0.00004397,-0.
 00006206,0.00008384,-0.00016386,0.00003612,0.00006878,-0.00011104,-0.0
 0008362,0.00001589,-0.00005438,0.00015634,-0.00008610,0.00010550,-0.00
 005810,0.00001270,0.00000762,0.00000989,-0.00001642,-0.00004291,0.0000
 1351,-0.00009556,-0.00000840,0.00000754,0.00000281,-0.00000203,0.00000
 687,-0.00000663,0.00000896,0.00001278,-0.00001113,0.00664211,-0.001515
 05,0.01163120,0.00516536,0.00459121,0.00203345,-0.06061025,0.02241990,
 -0.04404941,-0.00097524,0.00006277,0.00031872,0.00009516,-0.00020948,0
 .00054737,0.00263680,0.00461203,-0.01848271,0.04985339,-0.00246444,-0.
 00046589,-0.00184235,0.00067211,-0.00070392,-0.00043928,0.00013838,-0.
 00019145,-0.00016346,0.00001897,-0.00007377,-0.00004704,-0.00001233,0.
 00001807,-0.00006294,0.00000568,0.00008996,-0.00000151,-0.00000455,0.0
 0001021,0.00002063,-0.00008659,-0.00005473,-0.00000350,0.00005197,-0.0
 0011464,0.00007213,0.00000423,-0.00001598,0.00007943,0.00000599,0.0000
 0409,0.00001038,0.00000452,0.00000495,-0.00000593,0.00001213,0.0000069
 7,0.00001164,0.00004141,0.00044808,0.00007167,-0.00009514,-0.00006806,
 0.00001933,-0.00017502,-0.00004407,0.00002505,-0.00001094,-0.00004960,
 0.00002052,0.00005240,0.00006614,-0.00000486,0.00002123,-0.00002053,0.
 00001899,0.00000006,0.00003522,0.00001281,-0.00005088,0.00000010,-0.00
 000666,-0.00002764,0.00001018,-0.00000700,-0.00001659,0.00000561,0.000
 00927,-0.00000869,0.00000810,0.00000400,-0.00151505,0.00839154,-0.0201
 4583,0.00459121,-0.00013611,-0.00352205,0.02241990,-0.08649852,0.07629
 581,0.00006277,-0.00104773,-0.00055205,-0.00020948,0.00033705,-0.00094
 807,0.00461203,-0.00268871,0.03201299,-0.03157955,0.08631831,-0.001168
 22,0.00202345,-0.00039668,0.00049836,-0.00086319,0.00197122,-0.0000533
 9,-0.00011226,0.00055628,0.00019350,0.00015004,-0.00013616,-0.00005751
 ,-0.00005624,-0.00020129,0.00003971,0.00002408,0.00011327,-0.00007264,
 0.00003423,0.00008495,-0.00007602,-0.00003069,0.00003562,0.00004726,-0
 .00007213,0.00011884,0.00000239,-0.00002164,0.00003718,0.00000567,0.00
 002971,0.00001664,0.00000094,-0.00000568,-0.00000008,0.00000213,0.0000
 0646,0.00001352,0.00012392,-0.00000989,0.00055628,0.00007746,0.0000216
 8,-0.00020129,-0.00022669,-0.00009256,-0.00013616,0.00006459,0.0000504
 9,0.00003562,0.00003884,-0.00007699,0.00011884,-0.00004071,-0.00002235
 ,0.00011327,0.00000668,0.00008002,0.00008495,0.00001755,-0.00001289,0.
 00003718,0.00000445,-0.00000366,-0.00000008,-0.00002856,0.00000994,0.0
 0001664,-0.00000666,0.00000139,0.00001352,-0.00669077,0.01158876,-0.02
 048616,0.00221301,-0.00383305,-0.00224066,-0.04307434,0.07460695,-0.33
 985699,0.00041747,-0.00072308,0.00078060,-0.00027347,0.00047367,-0.001
 23354,0.00151560,-0.00262510,-0.00204710,0.04737557,-0.08205690,0.3595
 6529,-0.00054632,-0.00032657,0.00050685,0.00003262,0.00003029,-0.00000
 357,-0.00025158,-0.00009873,-0.00020686,-0.00004714,0.00015156,0.00010
 483,-0.00003913,0.00002290,0.00005458,-0.00000317,-0.00006527,-0.00003
 793,0.00003001,0.00002803,-0.00010010,0.00007467,0.00004225,0.00004842
 ,-0.00002684,-0.00000423,0.00000239,0.00005871,0.00005836,-0.00006216,
 -0.00001273,0.00002848,0.00002080,0.00000566,0.00002119,-0.00000693,-0
 .00000092,0.00002061,-0.00000230,0.00004804,0.00038195,-0.00027811,-0.
 00004745,0.00003194,0.00010468,-0.00008299,-0.00009142,-0.00008908,-0.
 00005335,-0.00004467,0.00003574,0.00000553,0.00004147,-0.00001993,0.00
 007778,-0.00001951,0.00000860,0.00009166,0.00003529,0.00004409,-0.0000
 6327,0.00001206,-0.00005175,-0.00002168,-0.00001056,-0.00000130,-0.000
 01861,0.00000001,0.00001132,-0.00000555,0.00000479,0.00000127,-0.00630
 168,-0.00178713,0.01081069,-0.00617346,0.02736676,0.00720716,0.0080930
 8,0.00338050,-0.02367525,-0.12599474,0.07341643,0.07256490,0.00537868,
 0.00640757,-0.00098079,-0.10916463,0.04436575,-0.05478221,0.00496041,0
 .00655072,-0.00049416,0.34160788,-0.00032656,-0.00016924,-0.00087789,0
 .00003029,-0.00000235,0.00000619,0.00055494,-0.00011548,0.00044056,-0.
 00011211,-0.00011771,0.00004234,0.00002713,-0.00007912,-0.00015239,0.0
 0002722,0.00012673,0.00001196,0.00007089,0.00005510,0.00000688,-0.0001
 1859,-0.00005195,-0.00006922,0.00006016,-0.00001598,0.00002164,-0.0000
 5836,-0.00010392,0.00009565,-0.00000338,-0.00003505,-0.00002508,-0.000
 02634,-0.00002782,0.00000550,0.00000212,-0.00002021,-0.00000014,-0.000
 27172,-0.00041510,0.00039942,0.00002771,-0.00007079,-0.00012346,0.0001
 7226,-0.00008187,-0.00006962,0.00011616,0.00007608,-0.00007654,-0.0000
 2291,-0.00004835,0.00000875,-0.00011201,0.00004578,0.00003883,-0.00000
 756,-0.00000655,0.00009013,0.00012878,0.00001805,0.00010166,0.00003697
 ,-0.00000048,0.00000876,0.00003187,-0.00002918,-0.00003055,0.00002328,
 -0.00001558,0.00000192,-0.00178713,-0.00423808,-0.01872466,0.02736676,
 -0.03777387,-0.01248317,0.00338050,0.00418962,0.04100673,0.07341643,-0
 .21076873,-0.12568609,0.00640757,-0.00202014,0.00169878,0.04436575,-0.
 16039379,0.09488557,0.00655072,-0.00260371,0.00085591,-0.28964970,0.67
 606654,-0.00006216,0.00010767,-0.00040474,0.00029962,-0.00051897,0.000
 63711,-0.00027872,-0.00058746,0.00071390,0.00008208,-0.00022948,0.0000
 0927,0.00037695,0.00034871,-0.00009289,0.00044062,0.00046521,-0.000052
 89,-0.00021329,0.00018975,0.00009645,-0.00028936,-0.00040984,-0.000327
 35,0.00005355,-0.00007943,0.00003718,-0.00006216,-0.00009565,0.0005658
 7,0.00003164,0.00001509,0.00000495,-0.00003136,0.00002279,-0.00000119,
 -0.00001503,0.00000715,0.00001267,0.00064812,-0.00005235,0.00071390,-0
 .00049046,-0.00015209,-0.00009289,0.00015769,-0.00018582,0.00000927,0.
 00049961,0.00004567,-0.00032735,0.00004202,-0.00008609,0.00003718,-0.0
 0062319,-0.00014899,-0.00005289,-0.00005769,0.00027959,0.00009645,0.00
 011392,0.00000601,0.00056587,-0.00000405,0.00003855,-0.00000119,-0.000
 02888,-0.00001986,0.00000495,0.00000132,0.00001659,0.00001267,0.010492
 21,-0.01817304,-0.10874359,0.04283096,-0.07418539,0.08009195,-0.059455
 59,0.10298010,0.02339172,0.02755309,-0.04772335,-0.27452789,-0.0013894
 6,0.00240662,0.00091414,-0.00980889,0.01698950,-0.34861980,-0.00010814
 ,0.00018730,0.00182248,0.01190975,-0.02062829,0.74487945,0.00005489,-0
 .00009677,-0.00076108,-0.00021499,0.00015116,-0.00010165,-0.00006175,-
 0.00013619,0.00001356,0.00001609,-0.00001476,-0.00006615,0.00003094,0.
 00004748,-0.00000689,0.00000735,0.00001549,0.00000725,-0.00001432,-0.0
 0002903,0.00003128,-0.00001038,-0.00003190,-0.00001013,-0.00000051,-0.
 00000599,0.00000567,-0.00001273,0.00000338,0.00003164,0.00001286,0.000
 00025,0.00000072,0.00000279,0.00000310,-0.00000188,0.00000301,-0.00000
 107,0.00000309,0.00008546,0.00003087,-0.00003222,-0.00004043,-0.000004
 30,0.00001565,-0.00009606,-0.00000386,0.00002066,-0.00000832,-0.000008
 92,0.00001866,0.00000791,0.00001261,0.00002289,0.00000918,-0.00000810,
 -0.00000876,0.00000341,0.00003092,-0.00003646,-0.00004034,-0.00001254,
 -0.00000275,-0.00000684,0.00000218,0.00000062,-0.00002172,0.00001972,0
 .00001641,-0.00000620,0.00000591,0.00000060,0.00512175,0.00663256,-0.0
 0010660,0.00296864,0.00470037,-0.01825485,-0.00096396,0.00011192,0.000
 36627,-0.06209368,0.02307008,-0.04420130,-0.00358454,-0.00282126,0.000
 27212,0.00574808,0.00501354,0.00196384,-0.00086532,-0.00053468,-0.0000
 4473,0.00736116,-0.00316902,0.01292400,0.04990929,-0.00009678,0.000166
 64,0.00131823,0.00015116,-0.00038953,0.00017607,0.00011586,0.00014626,
 0.00002937,-0.00006861,-0.00008531,0.00001434,-0.00004550,-0.00006536,
 -0.00001409,-0.00000704,0.00000491,0.00000593,0.00004116,0.00000232,0.
 00002404,-0.00000774,0.00001525,-0.00001569,0.00001747,0.00000409,-0.0
 0002971,-0.00002848,-0.00003505,-0.00001509,-0.00000025,-0.00003325,-0
 .00001936,-0.00000339,-0.00000989,0.00000037,0.00000059,-0.00000900,-0
 .00000248,-0.00022117,-0.00000094,0.00000294,0.00008868,0.00000601,-0.
 00000107,0.00004999,0.00002684,0.00006446,-0.00003309,0.00001319,0.000
 00093,-0.00001085,-0.00000433,-0.00001976,0.00001444,0.00000308,-0.000
 00331,-0.00003927,-0.00001541,-0.00001507,0.00001932,-0.00000745,-0.00
 003494,0.00000866,-0.00000025,0.00000181,0.00002022,0.00000134,-0.0000
 1030,0.00000425,0.00000021,-0.00000392,0.00663256,-0.00253687,0.000184
 63,0.00470037,-0.00245887,0.03161832,0.00011192,-0.00109319,-0.0006344
 0,0.02307008,-0.08873272,0.07655890,-0.00282126,-0.00032683,-0.0004713
 2,0.00501354,-0.00004106,-0.00340147,-0.00053468,-0.00024793,0.0000774
 7,-0.00316902,0.01102043,-0.02238503,-0.03016230,0.08473771,0.00016154
 ,-0.00027978,-0.00023599,-0.00005583,0.00009670,-0.00002265,-0.0001493
 4,-0.00005057,-0.00004662,0.00003032,0.00005668,0.00000811,0.00001884,
 0.00005380,0.00002174,0.00000484,-0.00001005,-0.00001916,-0.00001520,-
 0.00001533,-0.00002430,0.00000860,-0.00001141,0.00001197,-0.00000471,-
 0.00001038,0.00001664,0.00002080,0.00002508,0.00000495,0.00000072,0.00
 001936,0.00001916,0.00000627,0.00001051,-0.00000568,0.00000402,0.00001
 473,0.00000185,0.00011846,0.00010404,-0.00004662,-0.00005601,0.0000105
 9,0.00002174,-0.00006425,0.00000208,0.00000811,0.00000558,-0.00001315,
 0.00001197,0.00001134,-0.00000111,0.00001664,0.00000628,-0.00000922,-0
 .00001916,0.00002087,0.00000550,-0.00002430,-0.00003212,-0.00000547,0.
 00000495,-0.00001224,-0.00000017,-0.00000568,-0.00001712,0.00000906,0.
 00001916,-0.00001477,0.00000389,0.00000185,-0.00037567,0.00065068,0.00
 169691,0.00164231,-0.00284457,-0.00171340,0.00033860,-0.00058647,0.000
 91353,-0.04437408,0.07685816,-0.34294222,-0.00031530,0.00054612,0.0013
 8142,0.00220955,-0.00382705,-0.00204164,-0.00004317,0.00007478,-0.0001
 1089,-0.00691845,0.01198310,-0.01849742,0.04775446,-0.08271315,0.36152
 661,-0.00033018,0.00011633,0.00069080,-0.00001308,-0.00004461,-0.00003
 001,-0.00008480,0.00007260,-0.00011148,0.00002475,0.00005908,-0.000005
 18,0.00000233,0.00002503,0.00003121,-0.00002812,-0.00003615,-0.0000009
 3,0.00001130,-0.00002311,0.00000273,0.00001704,0.00001257,0.00002274,-
 0.00000317,-0.00000452,0.00000094,0.00000566,0.00002634,-0.00003136,0.
 00000279,0.00000339,0.00000627,0.00001012,0.00000406,-0.00000281,0.000
 00616,0.00000244,0.00000071,0.00013506,0.00019743,-0.00005103,-0.00009
 074,-0.00002267,0.00003920,0.00000038,-0.00001876,0.00002010,0.0000199
 8,-0.00002421,-0.00002272,0.00001423,0.00002061,-0.00000539,-0.0000344
 6,-0.00001570,-0.00002035,-0.00000126,0.00001879,-0.00001898,-0.000017
 22,-0.00000798,0.00003541,-0.00001778,0.00001204,-0.00000669,-0.000006
 59,0.00000232,0.00000597,-0.00000876,0.00000772,0.00000148,0.00520802,
 0.00605847,-0.00136980,-0.00084084,-0.00029638,-0.00062426,0.00018903,
 0.00936646,0.01537829,0.00678228,0.00381330,-0.00149880,-0.00098770,-0
 .00057418,0.00007197,-0.08671495,0.06558648,0.07393757,-0.00344445,-0.
 00268405,-0.00033575,0.00742040,-0.00295636,-0.00645042,0.00002373,-0.
 00020341,-0.00026042,0.07623312,0.00011634,-0.00046451,-0.00119650,-0.
 00004461,0.00003844,0.00005198,0.00032436,-0.00002084,0.00012329,-0.00
 003284,-0.00002290,-0.00002022,-0.00007640,-0.00009210,-0.00006329,-0.
 00001936,-0.00000453,0.00002404,0.00001153,0.00000123,0.00002034,-0.00
 002252,0.00002670,0.00001310,0.00003066,0.00000495,0.00000568,-0.00002
 119,-0.00002782,-0.00002279,-0.00000310,-0.00000989,-0.00001051,-0.000
 00406,-0.00002708,0.00000935,-0.00000089,-0.00001463,-0.00000212,-0.00
 005434,-0.00024069,0.00015819,0.00007877,0.00000096,-0.00005868,0.0000
 7315,0.00000147,-0.00000563,0.00001087,0.00002376,-0.00001314,-0.00001
 457,-0.00001246,0.00000202,-0.00003249,0.00000182,0.00001282,-0.000015
 85,0.00001380,0.00000781,0.00003954,-0.00000494,0.00001576,0.00002017,
 0.00000082,0.00000711,0.00000880,-0.00000050,-0.00001068,0.00001106,0.
 00000029,-0.00000167,0.00605847,-0.00178770,0.00237257,-0.00029638,-0.
 00049862,0.00108125,0.00936646,-0.01062642,-0.02663598,0.00381330,0.00
 237906,0.00259599,-0.00057418,-0.00032469,-0.00012466,0.06558648,-0.16
 244769,-0.12806362,-0.00268405,-0.00034517,0.00058153,-0.00295636,0.01
 083411,0.01117245,-0.00020341,0.00025860,0.00045106,-0.07581931,0.1637
 8172,-0.00015820,0.00027401,0.00020747,0.00002782,-0.00004820,-0.00002
 200,0.00003813,0.00003373,-0.00000595,0.00001427,-0.00001943,-0.000019
 92,-0.00000412,-0.00001630,-0.00001320,0.00000056,-0.00000017,0.000014
 67,-0.00001625,0.00001067,0.00002332,-0.00000431,0.00000552,-0.0000033
 6,0.00000466,0.00000593,-0.00000008,-0.00000693,-0.00000550,-0.0000011
 9,-0.00000188,-0.00000037,-0.00000568,-0.00000281,-0.00000935,0.000006
 74,-0.00000360,-0.00000978,-0.00000120,-0.00004827,-0.00001615,-0.0000
 0595,0.00001618,-0.00000458,-0.00001320,0.00000969,-0.00002207,-0.0000
 1992,-0.00000262,0.00000649,-0.00000336,-0.00000747,-0.00000107,-0.000
 00008,-0.00000013,-0.00000057,0.00001467,-0.00000111,0.00001940,0.0000
 2332,0.00000823,0.00000325,-0.00000119,0.00000950,-0.00000224,0.000006
 74,0.00000126,0.00000145,-0.00000568,0.00001027,-0.00000177,-0.0000012
 0,-0.00111929,0.00193866,0.00095978,-0.00056642,0.00098106,0.00007264,
 -0.00457289,0.00792048,0.00968843,-0.00176978,0.00306535,-0.00508184,0
 .00005667,-0.00009815,-0.00002195,0.07398632,-0.12814807,-0.24499255,0
 .00031597,-0.00054727,0.00127367,0.01335964,-0.02313957,-0.01806513,0.
 00057893,-0.00100274,-0.00114715,-0.07979756,0.13821343,0.25586459,-0.
 00092558,-0.00056982,-0.00001607,-0.00000023,0.00001041,-0.00000544,0.
 00009822,-0.00007493,-0.00001595,-0.00002720,0.00001477,-0.00001116,-0
 .00002919,-0.00000898,0.00001652,-0.00003205,0.00000115,-0.00001254,0.
 00003274,-0.00003403,-0.00002742,-0.00000523,0.00001798,0.00000883,0.0
 0001008,-0.00001213,0.00000213,-0.00000092,-0.00000212,-0.00001503,0.0
 0000301,-0.00000059,0.00000402,0.00000616,0.00000089,-0.00000360,0.000
 00947,0.00000318,-0.00000002,0.00008113,0.00017242,0.00000630,-0.00005
 852,-0.00001760,-0.00000423,-0.00002687,0.00000302,0.00008367,0.000011
 56,-0.00002149,-0.00000021,0.00000654,0.00001138,0.00000453,-0.0000087
 6,-0.00002785,-0.00002690,-0.00000304,0.00001349,-0.00003309,-0.000025
 23,-0.00000657,0.00001370,-0.00001010,0.00000695,-0.00000667,-0.000005
 79,0.00000615,0.00001075,-0.00001179,0.00000910,0.00000039,-0.00046618
 ,-0.00079762,0.00023482,0.00626358,0.00409099,0.00200926,0.00713853,0.
 00331625,-0.00092821,-0.00034404,0.00930866,-0.00515909,-0.00034374,0.
 00041353,-0.00013992,0.00249544,0.00466600,0.00168335,-0.00014170,0.00
 020989,-0.00000147,-0.12639105,0.13582426,-0.02908828,-0.00332445,-0.0
 0260743,0.00034528,-0.00348228,-0.00267404,-0.00035445,0.11950746,-0.0
 0056983,-0.00026759,0.00002783,0.00001041,-0.00001225,0.00000942,0.000
 16255,0.00002485,0.00000193,0.00000321,-0.00003714,-0.00009018,-0.0000
 3453,-0.00004317,-0.00000465,-0.00001440,0.00000665,0.00003830,-0.0000
 0717,0.00000881,0.00005404,-0.00001180,0.00001359,-0.00000485,0.000009
 34,0.00000697,-0.00000646,-0.00002061,-0.00002021,-0.00000715,0.000001
 07,-0.00000900,-0.00001473,-0.00000244,-0.00001463,0.00000978,-0.00000
 318,-0.00001888,-0.00000043,-0.00006506,0.00004193,0.00001478,0.000007
 95,-0.00001384,-0.00001663,0.00001458,-0.00003747,-0.00003543,0.000008
 28,-0.00000320,-0.00001007,-0.00001008,0.00001051,-0.00000508,-0.00001
 230,-0.00001664,0.00003002,-0.00001337,0.00004460,0.00005076,0.0000119
 2,0.00000410,0.00000944,0.00001028,0.00000163,0.00000801,0.00000449,-0
 .00000020,-0.00001085,0.00001545,0.00000238,-0.00000020,-0.00079762,0.
 00045483,-0.00040672,0.00409099,0.00153972,-0.00348014,0.00331625,0.00
 330926,0.00160771,0.00930866,-0.01109275,0.00893581,0.00041353,-0.0008
 2124,0.00024235,0.00466600,-0.00289239,-0.00291565,0.00020989,-0.00038
 406,0.00000255,0.13582426,-0.28322740,0.05038237,-0.00260743,-0.000313
 65,-0.00059805,-0.00267404,-0.00039456,0.00061393,-0.15124525,0.294150
 43,-0.00004212,0.00007295,0.00006026,0.00004889,-0.00008468,0.00010224
 ,-0.00005032,0.00000038,0.00002439,0.00003484,0.00001741,-0.00005658,0
 .00000664,0.00001841,-0.00001172,0.00000675,0.00000518,0.00002502,-0.0
 0001321,0.00000730,0.00003552,-0.00000815,-0.00001638,0.00000202,0.000
 00210,-0.00001164,0.00001352,-0.00000230,0.00000014,0.00001267,0.00000
 309,0.00000248,0.00000185,0.00000071,0.00000212,-0.00000120,-0.0000000
 2,0.00000043,0.00000394,0.00002483,0.00004377,0.00002439,-0.00001926,0
 .00000345,-0.00001172,-0.00003249,-0.00002147,-0.00005658,0.00001827,-
 0.00000113,0.00000202,0.00000903,-0.00000764,0.00001352,-0.00000787,-0
 .00000326,0.00002502,0.00000029,0.00001509,0.00003552,0.00000103,0.000
 00206,0.00001267,-0.00000219,0.00000044,-0.00000120,-0.00000370,-0.000
 00144,0.00000185,-0.00000036,0.00000024,0.00000394,0.00019324,-0.00033
 470,-0.00129455,0.00168329,-0.00291554,-0.00384584,-0.00056377,0.00097
 648,-0.00605114,0.01474656,-0.02554179,0.01085870,0.00066315,-0.001148
 61,0.00021390,-0.01820997,0.03154060,-0.00006762,-0.00081404,0.0014099
 6,-0.00031875,-0.02908482,0.05037638,-0.08481018,-0.00041284,0.0007150
 6,0.00121556,0.00039854,-0.00069028,0.00127574,0.03142619,-0.05443176,
 0.08256284||0.,0.,0.00001699,0.,0.,0.00002276,0.00000423,0.00000733,0.
 00002804,-0.00002383,-0.00004127,-0.00003316,0.00001187,0.00002056,-0.
 00000123,0.00001106,0.00001916,-0.00001836,-0.00000759,-0.00001315,0.0
 0002697,-0.00000735,-0.00001273,0.00000047,-0.00000013,-0.00000023,-0.
 00001446,-0.00001433,-0.00002482,0.00000287,-0.00000093,-0.00000160,0.
 00002100,0.00000946,0.00001639,-0.00002015,0.00000890,0.00001542,-0.00
 000523,-0.00000846,0.,0.00002804,-0.00002374,0.,-0.00000123,0.00004765
 ,0.,-0.00003316,0.00001470,0.,0.00000047,0.00000026,0.,-0.00001446,-0.
 00002212,0.,-0.00001836,0.00001518,0.,0.00002697,0.00002866,0.,0.00000
 287,-0.00001893,0.,-0.00002015,0.00000185,0.,0.00002100,-0.00001781,0.
 ,-0.00000523,0.00000423,-0.00000733,0.00002804,-0.00002383,0.00004127,
 -0.00003316,0.00001187,-0.00002056,-0.00000123,0.00001106,-0.00001916,
 -0.00001836,-0.00000759,0.00001315,0.00002697,-0.00000735,0.00001273,0
 .00000047,-0.00000013,0.00000023,-0.00001446,-0.00001433,0.00002482,0.
 00000287,-0.00000093,0.00000160,0.00002100,0.00000946,-0.00001639,-0.0
 0002015,0.00000890,-0.00001542,-0.00000523|||@


 DEMOCRATS BUY MOST OF THE BOOKS THAT HAVE BEEN
 BANNED; REPUBLICANS FORM CENSORSHIP COMMITTEES AND
 READ THEM AS A GROUP.
 Job cpu time:  0 days  0 hours  3 minutes 12.0 seconds.
 File lengths (MBytes):  RWF=    179 Int=      0 D2E=      0 Chk=      7 Scr=      1
 Normal termination of Gaussian 09 at Mon Sep 06 11:48:33 2021.
