 Entering Link 1 = b:\programy\g09w\l1.exe PID=      4268.
  
 Copyright (c) 1988,1990,1992,1993,1995,1998,2003,2009, Gaussian, Inc.
                  All Rights Reserved.
  
 This is part of the Gaussian(R) 09 program.  It is based on
 the Gaussian(R) 03 system (copyright 2003, Gaussian, Inc.),
 the Gaussian(R) 98 system (copyright 1998, Gaussian, Inc.),
 the Gaussian(R) 94 system (copyright 1995, Gaussian, Inc.),
 the Gaussian 92(TM) system (copyright 1992, Gaussian, Inc.),
 the Gaussian 90(TM) system (copyright 1990, Gaussian, Inc.),
 the Gaussian 88(TM) system (copyright 1988, Gaussian, Inc.),
 the Gaussian 86(TM) system (copyright 1986, Carnegie Mellon
 University), and the Gaussian 82(TM) system (copyright 1983,
 Carnegie Mellon University). Gaussian is a federally registered
 trademark of Gaussian, Inc.
  
 This software contains proprietary and confidential information,
 including trade secrets, belonging to Gaussian, Inc.
  
 This software is provided under written license and may be
 used, copied, transmitted, or stored only in accord with that
 written license.
  
 The following legend is applicable only to US Government
 contracts under FAR:
  
                    RESTRICTED RIGHTS LEGEND
  
 Use, reproduction and disclosure by the US Government is
 subject to restrictions as set forth in subparagraphs (a)
 and (c) of the Commercial Computer Software - Restricted
 Rights clause in FAR 52.227-19.
  
 Gaussian, Inc.
 340 Quinnipiac St., Bldg. 40, Wallingford CT 06492
  
  
 ---------------------------------------------------------------
 Warning -- This program may not be used in any manner that
 competes with the business of Gaussian, Inc. or will provide
 assistance to any competitor of Gaussian, Inc.  The licensee
 of this program is prohibited from giving any competitor of
 Gaussian, Inc. access to this program.  By using this program,
 the user acknowledges that Gaussian, Inc. is engaged in the
 business of creating and licensing software in the field of
 computational chemistry and represents and warrants to the
 licensee that it is not a competitor of Gaussian, Inc. and that
 it will not use this program in any manner prohibited above.
 ---------------------------------------------------------------
  

 Cite this work as:
 Gaussian 09, Revision A.02,
 M. J. Frisch, G. W. Trucks, H. B. Schlegel, G. E. Scuseria, 
 M. A. Robb, J. R. Cheeseman, G. Scalmani, V. Barone, B. Mennucci, 
 G. A. Petersson, H. Nakatsuji, M. Caricato, X. Li, H. P. Hratchian, 
 A. F. Izmaylov, J. Bloino, G. Zheng, J. L. Sonnenberg, M. Hada, 
 M. Ehara, K. Toyota, R. Fukuda, J. Hasegawa, M. Ishida, T. Nakajima, 
 Y. Honda, O. Kitao, H. Nakai, T. Vreven, J. A. Montgomery, Jr., 
 J. E. Peralta, F. Ogliaro, M. Bearpark, J. J. Heyd, E. Brothers, 
 K. N. Kudin, V. N. Staroverov, R. Kobayashi, J. Normand, 
 K. Raghavachari, A. Rendell, J. C. Burant, S. S. Iyengar, J. Tomasi, 
 M. Cossi, N. Rega, J. M. Millam, M. Klene, J. E. Knox, J. B. Cross, 
 V. Bakken, C. Adamo, J. Jaramillo, R. Gomperts, R. E. Stratmann, 
 O. Yazyev, A. J. Austin, R. Cammi, C. Pomelli, J. W. Ochterski, 
 R. L. Martin, K. Morokuma, V. G. Zakrzewski, G. A. Voth, 
 P. Salvador, J. J. Dannenberg, S. Dapprich, A. D. Daniels, 
 O. Farkas, J. B. Foresman, J. V. Ortiz, J. Cioslowski, 
 and D. J. Fox, Gaussian, Inc., Wallingford CT, 2009.
 
 ******************************************
 Gaussian 09:  IA32W-G09RevA.02 11-Jun-2009
                06-Sep-2021 
 ******************************************
 %nprocshared=12
 Will use up to   12 processors via shared memory.
 ----------------------------------------------
 # opt freq=noraman hf/6-311g geom=connectivity
 ----------------------------------------------
 1/18=20,19=15,38=1,57=2/1,3;
 2/9=110,12=2,17=6,18=5,40=1/2;
 3/5=4,6=6,11=9,16=1,25=1,30=1,71=1/1,2,3;
 4//1;
 5/5=2,38=5/2;
 6/7=2,8=2,9=2,10=2,28=1/1;
 7//1,2,3,16;
 1/18=20,19=15/3(2);
 2/9=110/2;
 99//99;
 2/9=110/2;
 3/5=4,6=6,11=9,16=1,25=1,30=1,71=1/1,2,3;
 4/5=5,16=3/1;
 5/5=2,38=5/2;
 7//1,2,3,16;
 1/18=20,19=15/3(-5);
 2/9=110/2;
 6/7=2,8=2,9=2,10=2,19=2,28=1/1;
 99/9=1/99;
 -----
 M0001
 -----
 Symbolic Z-matrix:
 Charge =  0 Multiplicity = 1
 C                    -0.21829  -0.71249   0.23435 
 H                    -0.52881  -1.73607   0.57592 
 C                    -1.46965   0.07071  -0.07929 
 C                    -1.40658   1.36369  -0.60367 
 C                    -2.71804  -0.50484   0.16595 
 C                    -2.57161   2.06727  -0.88267 
 H                    -0.4204    1.82212  -0.77671 
 C                    -3.88288   0.20205  -0.11293 
 H                    -2.78356  -1.51761   0.58069 
 C                    -3.81221   1.48707  -0.63878 
 H                    -2.51127   3.08027  -1.29339 
 H                    -4.85766  -0.25629   0.08306 
 H                    -4.73007   2.04161  -0.85856 
 C                     0.53359  -0.05354   1.36515 
 C                     1.13248   1.1984    1.20749 
 C                     0.6281   -0.70396   2.59715 
 C                     1.81917   1.7873    2.26199 
 H                     1.03755   1.7179    0.24112 
 C                     1.31389  -0.11115   3.65199 
 H                     0.16026  -1.68542   2.73701 
 C                     1.91177   1.13297   3.48619 
 H                     2.28559   2.76865   2.12801 
 H                     1.38173  -0.62713   4.61554 
 H                     2.45223   1.59731   4.31724 
 C                     0.64545  -0.96119  -0.97702 
 C                     0.08411  -1.01086  -2.25487 
 C                     2.00968  -1.22235  -0.82682 
 C                     0.87334  -1.30631  -3.36032 
 H                    -0.98682  -0.81204  -2.38617 
 C                     2.79699  -1.51727  -1.93336 
 H                     2.46131  -1.19044   0.17229 
 C                     2.23139  -1.5592   -3.20297 
 H                     0.42148  -1.34027  -4.35695 
 H                     3.86545  -1.71772  -1.80261 
 H                     2.85229  -1.79117  -4.07405 
 

 GradGradGradGradGradGradGradGradGradGradGradGradGradGradGradGradGradGrad
 Berny optimization.
 Initialization pass.
                           ----------------------------
                           !    Initial Parameters    !
                           ! (Angstroms and Degrees)  !
 --------------------------                            --------------------------
 ! Name  Definition              Value          Derivative Info.                !
 --------------------------------------------------------------------------------
 ! R1    R(1,2)                  1.1229         estimate D2E/DX2                !
 ! R2    R(1,3)                  1.5092         estimate D2E/DX2                !
 ! R3    R(1,14)                 1.5094         estimate D2E/DX2                !
 ! R4    R(1,25)                 1.5084         estimate D2E/DX2                !
 ! R5    R(3,4)                  1.3967         estimate D2E/DX2                !
 ! R6    R(3,5)                  1.3964         estimate D2E/DX2                !
 ! R7    R(4,6)                  1.3893         estimate D2E/DX2                !
 ! R8    R(4,7)                  1.1012         estimate D2E/DX2                !
 ! R9    R(5,8)                  1.3908         estimate D2E/DX2                !
 ! R10   R(5,9)                  1.0964         estimate D2E/DX2                !
 ! R11   R(6,10)                 1.3911         estimate D2E/DX2                !
 ! R12   R(6,11)                 1.0948         estimate D2E/DX2                !
 ! R13   R(8,10)                 1.3902         estimate D2E/DX2                !
 ! R14   R(8,12)                 1.0949         estimate D2E/DX2                !
 ! R15   R(10,13)                1.0947         estimate D2E/DX2                !
 ! R16   R(14,15)                1.3967         estimate D2E/DX2                !
 ! R17   R(14,16)                1.3964         estimate D2E/DX2                !
 ! R18   R(15,17)                1.3894         estimate D2E/DX2                !
 ! R19   R(15,18)                1.1013         estimate D2E/DX2                !
 ! R20   R(16,19)                1.3908         estimate D2E/DX2                !
 ! R21   R(16,20)                1.0962         estimate D2E/DX2                !
 ! R22   R(17,21)                1.3912         estimate D2E/DX2                !
 ! R23   R(17,22)                1.0948         estimate D2E/DX2                !
 ! R24   R(19,21)                1.3902         estimate D2E/DX2                !
 ! R25   R(19,23)                1.0951         estimate D2E/DX2                !
 ! R26   R(21,24)                1.0947         estimate D2E/DX2                !
 ! R27   R(25,26)                1.3966         estimate D2E/DX2                !
 ! R28   R(25,27)                1.3971         estimate D2E/DX2                !
 ! R29   R(26,28)                1.39           estimate D2E/DX2                !
 ! R30   R(26,29)                1.0971         estimate D2E/DX2                !
 ! R31   R(27,30)                1.3897         estimate D2E/DX2                !
 ! R32   R(27,31)                1.0969         estimate D2E/DX2                !
 ! R33   R(28,32)                1.3903         estimate D2E/DX2                !
 ! R34   R(28,33)                1.0948         estimate D2E/DX2                !
 ! R35   R(30,32)                1.3905         estimate D2E/DX2                !
 ! R36   R(30,34)                1.0949         estimate D2E/DX2                !
 ! R37   R(32,35)                1.0946         estimate D2E/DX2                !
 ! A1    A(2,1,3)              107.878          estimate D2E/DX2                !
 ! A2    A(2,1,14)             107.9284         estimate D2E/DX2                !
 ! A3    A(2,1,25)             104.6165         estimate D2E/DX2                !
 ! A4    A(3,1,14)             110.0091         estimate D2E/DX2                !
 ! A5    A(3,1,25)             113.1698         estimate D2E/DX2                !
 ! A6    A(14,1,25)            112.8538         estimate D2E/DX2                !
 ! A7    A(1,3,4)              121.3991         estimate D2E/DX2                !
 ! A8    A(1,3,5)              119.3986         estimate D2E/DX2                !
 ! A9    A(4,3,5)              119.2014         estimate D2E/DX2                !
 ! A10   A(3,4,6)              120.4207         estimate D2E/DX2                !
 ! A11   A(3,4,7)              119.0011         estimate D2E/DX2                !
 ! A12   A(6,4,7)              120.5707         estimate D2E/DX2                !
 ! A13   A(3,5,8)              120.269          estimate D2E/DX2                !
 ! A14   A(3,5,9)              120.041          estimate D2E/DX2                !
 ! A15   A(8,5,9)              119.6901         estimate D2E/DX2                !
 ! A16   A(4,6,10)             120.0937         estimate D2E/DX2                !
 ! A17   A(4,6,11)             119.8493         estimate D2E/DX2                !
 ! A18   A(10,6,11)            120.0569         estimate D2E/DX2                !
 ! A19   A(5,8,10)             120.2029         estimate D2E/DX2                !
 ! A20   A(5,8,12)             119.803          estimate D2E/DX2                !
 ! A21   A(10,8,12)            119.9941         estimate D2E/DX2                !
 ! A22   A(6,10,8)             119.8118         estimate D2E/DX2                !
 ! A23   A(6,10,13)            120.0844         estimate D2E/DX2                !
 ! A24   A(8,10,13)            120.1036         estimate D2E/DX2                !
 ! A25   A(1,14,15)            121.355          estimate D2E/DX2                !
 ! A26   A(1,14,16)            119.4298         estimate D2E/DX2                !
 ! A27   A(15,14,16)           119.2144         estimate D2E/DX2                !
 ! A28   A(14,15,17)           120.4096         estimate D2E/DX2                !
 ! A29   A(14,15,18)           119.0068         estimate D2E/DX2                !
 ! A30   A(17,15,18)           120.5758         estimate D2E/DX2                !
 ! A31   A(14,16,19)           120.2642         estimate D2E/DX2                !
 ! A32   A(14,16,20)           120.0478         estimate D2E/DX2                !
 ! A33   A(19,16,20)           119.688          estimate D2E/DX2                !
 ! A34   A(15,17,21)           120.0938         estimate D2E/DX2                !
 ! A35   A(15,17,22)           119.8433         estimate D2E/DX2                !
 ! A36   A(21,17,22)           120.0628         estimate D2E/DX2                !
 ! A37   A(16,19,21)           120.2008         estimate D2E/DX2                !
 ! A38   A(16,19,23)           119.8039         estimate D2E/DX2                !
 ! A39   A(21,19,23)           119.9953         estimate D2E/DX2                !
 ! A40   A(17,21,19)           119.8165         estimate D2E/DX2                !
 ! A41   A(17,21,24)           120.0922         estimate D2E/DX2                !
 ! A42   A(19,21,24)           120.0912         estimate D2E/DX2                !
 ! A43   A(1,25,26)            120.6971         estimate D2E/DX2                !
 ! A44   A(1,25,27)            120.2401         estimate D2E/DX2                !
 ! A45   A(26,25,27)           118.9604         estimate D2E/DX2                !
 ! A46   A(25,26,28)           120.4643         estimate D2E/DX2                !
 ! A47   A(25,26,29)           119.6963         estimate D2E/DX2                !
 ! A48   A(28,26,29)           119.8392         estimate D2E/DX2                !
 ! A49   A(25,27,30)           120.4818         estimate D2E/DX2                !
 ! A50   A(25,27,31)           119.6389         estimate D2E/DX2                !
 ! A51   A(30,27,31)           119.879          estimate D2E/DX2                !
 ! A52   A(26,28,32)           120.2151         estimate D2E/DX2                !
 ! A53   A(26,28,33)           119.75           estimate D2E/DX2                !
 ! A54   A(32,28,33)           120.0349         estimate D2E/DX2                !
 ! A55   A(27,30,32)           120.1966         estimate D2E/DX2                !
 ! A56   A(27,30,34)           119.7752         estimate D2E/DX2                !
 ! A57   A(32,30,34)           120.0282         estimate D2E/DX2                !
 ! A58   A(28,32,30)           119.6802         estimate D2E/DX2                !
 ! A59   A(28,32,35)           120.1692         estimate D2E/DX2                !
 ! A60   A(30,32,35)           120.1505         estimate D2E/DX2                !
 ! D1    D(2,1,3,4)           -176.3025         estimate D2E/DX2                !
 ! D2    D(2,1,3,5)              4.0482         estimate D2E/DX2                !
 ! D3    D(14,1,3,4)            66.2014         estimate D2E/DX2                !
 ! D4    D(14,1,3,5)          -113.4479         estimate D2E/DX2                !
 ! D5    D(25,1,3,4)           -61.0591         estimate D2E/DX2                !
 ! D6    D(25,1,3,5)           119.2916         estimate D2E/DX2                !
 ! D7    D(2,1,14,15)          175.3496         estimate D2E/DX2                !
 ! D8    D(2,1,14,16)           -4.9727         estimate D2E/DX2                !
 ! D9    D(3,1,14,15)          -67.1856         estimate D2E/DX2                !
 ! D10   D(3,1,14,16)          112.4921         estimate D2E/DX2                !
 ! D11   D(25,1,14,15)          60.2508         estimate D2E/DX2                !
 ! D12   D(25,1,14,16)        -120.0716         estimate D2E/DX2                !
 ! D13   D(2,1,25,26)           90.409          estimate D2E/DX2                !
 ! D14   D(2,1,25,27)          -85.8733         estimate D2E/DX2                !
 ! D15   D(3,1,25,26)          -26.7656         estimate D2E/DX2                !
 ! D16   D(3,1,25,27)          156.9521         estimate D2E/DX2                !
 ! D17   D(14,1,25,26)        -152.5172         estimate D2E/DX2                !
 ! D18   D(14,1,25,27)          31.2005         estimate D2E/DX2                !
 ! D19   D(1,3,4,6)           -179.8833         estimate D2E/DX2                !
 ! D20   D(1,3,4,7)             -0.8753         estimate D2E/DX2                !
 ! D21   D(5,3,4,6)             -0.2333         estimate D2E/DX2                !
 ! D22   D(5,3,4,7)            178.7746         estimate D2E/DX2                !
 ! D23   D(1,3,5,8)            179.8255         estimate D2E/DX2                !
 ! D24   D(1,3,5,9)             -0.1284         estimate D2E/DX2                !
 ! D25   D(4,3,5,8)              0.1685         estimate D2E/DX2                !
 ! D26   D(4,3,5,9)           -179.7854         estimate D2E/DX2                !
 ! D27   D(3,4,6,10)             0.0953         estimate D2E/DX2                !
 ! D28   D(3,4,6,11)           179.9901         estimate D2E/DX2                !
 ! D29   D(7,4,6,10)          -178.897          estimate D2E/DX2                !
 ! D30   D(7,4,6,11)             0.9978         estimate D2E/DX2                !
 ! D31   D(3,5,8,10)             0.0343         estimate D2E/DX2                !
 ! D32   D(3,5,8,12)          -179.9523         estimate D2E/DX2                !
 ! D33   D(9,5,8,10)           179.9883         estimate D2E/DX2                !
 ! D34   D(9,5,8,12)             0.0017         estimate D2E/DX2                !
 ! D35   D(4,6,10,8)             0.1096         estimate D2E/DX2                !
 ! D36   D(4,6,10,13)          179.9934         estimate D2E/DX2                !
 ! D37   D(11,6,10,8)         -179.7849         estimate D2E/DX2                !
 ! D38   D(11,6,10,13)           0.0989         estimate D2E/DX2                !
 ! D39   D(5,8,10,6)            -0.1742         estimate D2E/DX2                !
 ! D40   D(5,8,10,13)          179.942          estimate D2E/DX2                !
 ! D41   D(12,8,10,6)          179.8123         estimate D2E/DX2                !
 ! D42   D(12,8,10,13)          -0.0715         estimate D2E/DX2                !
 ! D43   D(1,14,15,17)         179.9574         estimate D2E/DX2                !
 ! D44   D(1,14,15,18)           0.9703         estimate D2E/DX2                !
 ! D45   D(16,14,15,17)          0.279          estimate D2E/DX2                !
 ! D46   D(16,14,15,18)       -178.708          estimate D2E/DX2                !
 ! D47   D(1,14,16,19)        -179.8391         estimate D2E/DX2                !
 ! D48   D(1,14,16,20)           0.1068         estimate D2E/DX2                !
 ! D49   D(15,14,16,19)         -0.1545         estimate D2E/DX2                !
 ! D50   D(15,14,16,20)        179.7914         estimate D2E/DX2                !
 ! D51   D(14,15,17,21)         -0.1645         estimate D2E/DX2                !
 ! D52   D(14,15,17,22)        179.964          estimate D2E/DX2                !
 ! D53   D(18,15,17,21)        178.8066         estimate D2E/DX2                !
 ! D54   D(18,15,17,22)         -1.065          estimate D2E/DX2                !
 ! D55   D(14,16,19,21)         -0.0846         estimate D2E/DX2                !
 ! D56   D(14,16,19,23)        179.8858         estimate D2E/DX2                !
 ! D57   D(20,16,19,21)        179.9693         estimate D2E/DX2                !
 ! D58   D(20,16,19,23)         -0.0603         estimate D2E/DX2                !
 ! D59   D(15,17,21,19)         -0.0771         estimate D2E/DX2                !
 ! D60   D(15,17,21,24)       -179.9568         estimate D2E/DX2                !
 ! D61   D(22,17,21,19)        179.7942         estimate D2E/DX2                !
 ! D62   D(22,17,21,24)         -0.0855         estimate D2E/DX2                !
 ! D63   D(16,19,21,17)          0.2013         estimate D2E/DX2                !
 ! D64   D(16,19,21,24)       -179.919          estimate D2E/DX2                !
 ! D65   D(23,19,21,17)       -179.7691         estimate D2E/DX2                !
 ! D66   D(23,19,21,24)          0.1107         estimate D2E/DX2                !
 ! D67   D(1,25,26,28)        -176.7799         estimate D2E/DX2                !
 ! D68   D(1,25,26,29)           3.4101         estimate D2E/DX2                !
 ! D69   D(27,25,26,28)         -0.4506         estimate D2E/DX2                !
 ! D70   D(27,25,26,29)        179.7394         estimate D2E/DX2                !
 ! D71   D(1,25,27,30)         176.8103         estimate D2E/DX2                !
 ! D72   D(1,25,27,31)          -3.4023         estimate D2E/DX2                !
 ! D73   D(26,25,27,30)          0.4639         estimate D2E/DX2                !
 ! D74   D(26,25,27,31)       -179.7488         estimate D2E/DX2                !
 ! D75   D(25,26,28,32)          0.1734         estimate D2E/DX2                !
 ! D76   D(25,26,28,33)       -179.8829         estimate D2E/DX2                !
 ! D77   D(29,26,28,32)        179.9832         estimate D2E/DX2                !
 ! D78   D(29,26,28,33)         -0.0731         estimate D2E/DX2                !
 ! D79   D(25,27,30,32)         -0.1998         estimate D2E/DX2                !
 ! D80   D(25,27,30,34)        179.8535         estimate D2E/DX2                !
 ! D81   D(31,27,30,32)       -179.9866         estimate D2E/DX2                !
 ! D82   D(31,27,30,34)          0.0666         estimate D2E/DX2                !
 ! D83   D(26,28,32,30)          0.0973         estimate D2E/DX2                !
 ! D84   D(26,28,32,35)       -179.9621         estimate D2E/DX2                !
 ! D85   D(33,28,32,30)       -179.8462         estimate D2E/DX2                !
 ! D86   D(33,28,32,35)          0.0943         estimate D2E/DX2                !
 ! D87   D(27,30,32,28)         -0.0842         estimate D2E/DX2                !
 ! D88   D(27,30,32,35)        179.9752         estimate D2E/DX2                !
 ! D89   D(34,30,32,28)        179.8624         estimate D2E/DX2                !
 ! D90   D(34,30,32,35)         -0.0782         estimate D2E/DX2                !
 --------------------------------------------------------------------------------
 Trust Radius=3.00D-01 FncErr=1.00D-07 GrdErr=1.00D-07
 Number of steps in this run= 197 maximum allowed number of steps= 210.
 GradGradGradGradGradGradGradGradGradGradGradGradGradGradGradGradGradGrad

                          Input orientation:                          
 ---------------------------------------------------------------------
 Center     Atomic      Atomic             Coordinates (Angstroms)
 Number     Number       Type             X           Y           Z
 ---------------------------------------------------------------------
      1          6           0       -0.218291   -0.712491    0.234349
      2          1           0       -0.528810   -1.736073    0.575921
      3          6           0       -1.469653    0.070713   -0.079291
      4          6           0       -1.406578    1.363689   -0.603674
      5          6           0       -2.718038   -0.504838    0.165951
      6          6           0       -2.571612    2.067268   -0.882667
      7          1           0       -0.420404    1.822119   -0.776708
      8          6           0       -3.882877    0.202050   -0.112932
      9          1           0       -2.783563   -1.517613    0.580687
     10          6           0       -3.812210    1.487065   -0.638777
     11          1           0       -2.511267    3.080275   -1.293385
     12          1           0       -4.857665   -0.256287    0.083059
     13          1           0       -4.730072    2.041612   -0.858559
     14          6           0        0.533594   -0.053538    1.365147
     15          6           0        1.132481    1.198404    1.207494
     16          6           0        0.628101   -0.703961    2.597149
     17          6           0        1.819174    1.787302    2.261990
     18          1           0        1.037545    1.717902    0.241124
     19          6           0        1.313891   -0.111150    3.651985
     20          1           0        0.160258   -1.685421    2.737014
     21          6           0        1.911772    1.132967    3.486190
     22          1           0        2.285590    2.768646    2.128006
     23          1           0        1.381733   -0.627128    4.615540
     24          1           0        2.452232    1.597310    4.317243
     25          6           0        0.645453   -0.961193   -0.977021
     26          6           0        0.084108   -1.010860   -2.254869
     27          6           0        2.009683   -1.222349   -0.826817
     28          6           0        0.873335   -1.306311   -3.360322
     29          1           0       -0.986825   -0.812041   -2.386168
     30          6           0        2.796990   -1.517265   -1.933363
     31          1           0        2.461313   -1.190437    0.172288
     32          6           0        2.231391   -1.559204   -3.202967
     33          1           0        0.421484   -1.340271   -4.356954
     34          1           0        3.865447   -1.717719   -1.802612
     35          1           0        2.852289   -1.791171   -4.074051
 ---------------------------------------------------------------------
                    Distance matrix (angstroms):
                    1          2          3          4          5
     1  C    0.000000
     2  H    1.122860   0.000000
     3  C    1.509199   2.139851   0.000000
     4  C    2.534724   3.430808   1.396690   0.000000
     5  C    2.509289   2.544943   1.396377   2.409075   0.000000
     6  C    3.809580   4.556964   2.417842   1.389304   2.781505
     7  H    2.736299   3.808161   2.157484   1.101198   3.403301
     8  C    3.792911   3.934540   2.417029   2.778901   1.390797
     9  H    2.710866   2.265317   2.164419   3.405980   1.096363
    10  C    4.303097   4.758659   2.794039   2.409050   2.410909
    11  H    4.687939   5.533683   3.408291   2.154694   3.876268
    12  H    4.664203   4.601268   3.407625   3.873748   2.155610
    13  H    5.397749   5.829172   3.888706   3.401494   3.403280
    14  C    1.509389   2.140678   2.472819   3.106292   3.494975
    15  C    2.534387   3.430733   3.114258   3.123214   4.337320
    16  C    2.509836   2.547363   3.487696   4.319764   4.140896
    17  C    3.809404   4.557415   4.386873   4.335545   5.498507
    18  H    2.735687   3.807296   3.016942   2.610151   4.364703
    19  C    3.793340   3.936761   4.658713   5.261819   5.344518
    20  H    2.711683   2.268855   3.697592   4.786674   4.035929
    21  C    4.303179   4.759989   5.027432   5.271780   5.928029
    22  H    4.687608   5.533743   5.123754   4.802924   6.292985
    23  H    4.664997   4.604178   5.537041   6.243255   6.051605
    24  H    5.397860   5.830569   6.086147   6.257828   6.955857
    25  C    1.508418   2.095462   2.518813   3.123346   3.581580
    26  C    2.525208   2.985796   2.883941   3.253778   3.737439
    27  C    2.519901   2.945426   3.786368   4.290480   4.883825
    28  C    3.803411   4.200562   4.260394   4.463856   5.096560
    29  H    2.732703   3.136493   2.516756   2.843814   3.099158
    30  C    3.799811   4.171969   4.915638   5.266683   5.987291
    31  H    2.722602   3.066182   4.135974   4.699601   5.224534
    32  C    4.304999   4.682947   5.109962   5.341764   6.079321
    33  H    4.677979   5.039145   4.885251   4.973964   5.568771
    34  H    4.672966   4.996723   5.884862   6.223083   6.977720
    35  H    5.399475   5.749531   6.172836   6.335188   7.117641
                    6          7          8          9         10
     6  C    0.000000
     7  H    2.167722   0.000000
     8  C    2.406438   3.879940   0.000000
     9  H    3.877847   4.310551   2.155653   0.000000
    10  C    1.391115   3.411104   1.390241   3.401955   0.000000
    11  H    1.094767   2.494317   3.399847   4.972611   2.158537
    12  H    3.399643   4.974762   1.094850   2.477998   2.157151
    13  H    2.158748   4.316030   2.158167   4.304463   1.094667
    14  C    4.380957   3.002622   4.664253   3.709775   5.027443
    15  C    4.340968   2.595675   5.281104   4.806770   5.286020
    16  C    5.479689   4.343197   5.339880   4.045690   5.915081
    17  C    5.407980   3.774998   6.377042   5.910536   6.341694
    18  H    3.796180   1.781140   5.160786   5.018439   4.934333
    19  C    6.356549   5.134066   6.424881   5.310381   6.873271
    20  H    5.886245   4.998625   5.294495   3.652943   6.102552
    21  C    6.329341   4.907777   6.884637   6.124843   7.064326
    22  H    5.757473   4.081137   7.046928   6.816343   6.817676
    23  H    7.288278   6.190545   7.124753   5.867086   7.684707
    24  H    7.245615   5.852428   7.855368   7.146898   7.988587
    25  C    4.419274   2.987139   4.754530   3.807126   5.096973
    26  C    4.290764   3.235006   4.668620   4.064568   4.902314
    27  C    5.640298   3.895718   6.104163   5.004344   6.424229
    28  C    5.421021   4.258626   5.953339   5.380438   6.096236
    29  H    3.614206   3.138470   3.818783   3.539538   4.040058
    30  C    6.540239   4.779222   7.133767   6.120704   7.374515
    31  H    6.087355   4.275555   6.501470   5.270916   6.869056
    32  C    6.450111   4.934785   7.073515   6.282319   7.237399
    33  H    5.713196   4.850530   6.238429   5.889319   6.304192
    34  H    7.523838   5.652561   8.159476   7.066080   8.400688
    35  H    7.381814   5.885478   8.063861   7.314660   8.183122
                   11         12         13         14         15
    11  H    0.000000
    12  H    4.304977   0.000000
    13  H    2.488171   2.486616   0.000000
    14  C    5.114660   5.545316   6.086107   0.000000
    15  C    4.803408   6.265966   6.272886   1.396739   0.000000
    16  C    6.269955   6.051007   6.941910   1.396357   2.409261
    17  C    5.750234   7.314655   7.259141   2.417795   1.389356
    18  H    4.099371   6.218996   5.880434   2.157636   1.101254
    19  C    7.019524   7.130666   7.842760   2.416984   2.779097
    20  H    6.789184   5.853669   7.122798   2.164358   3.406039
    21  C    6.797030   7.703025   7.988527   2.793920   2.409156
    22  H    5.900243   8.022351   7.659482   3.408250   2.154684
    23  H    7.988472   7.720816   8.627984   3.407845   3.874207
    24  H    7.636403   8.648626   8.864075   3.888617   3.401678
    25  C    5.137940   5.648448   6.158501   2.514379   3.110171
    26  C    4.939413   5.518733   5.868867   3.771341   4.238854
    27  C    6.258534   6.994399   7.488574   2.889579   3.281456
    28  C    5.913534   6.767850   6.990392   4.900502   5.215908
    29  H    4.320673   4.624862   4.948619   4.118175   4.631172
    30  C    7.051562   8.015595   8.395086   4.259769   4.473302
    31  H    6.716674   7.378891   7.951402   2.536050   2.923013
    32  C    6.903917   7.921507   8.180715   5.100707   5.316406
    33  H    6.125986   6.982704   7.086214   5.866063   6.157391
    34  H    7.996407   9.043462   9.429037   4.889319   5.003360
    35  H    7.760852   8.892740   9.084152   6.162840   6.307933
                   16         17         18         19         20
    16  C    0.000000
    17  C    2.781615   0.000000
    18  H    3.403516   2.167869   0.000000
    19  C    1.390831   2.406558   3.880177   0.000000
    20  H    1.096222   3.877817   4.310651   2.155544   0.000000
    21  C    2.410915   1.391185   3.411286   1.390243   3.401820
    22  H    3.876387   1.094775   2.494394   3.399991   4.972590
    23  H    2.155868   3.400004   4.975254   1.095114   2.478073
    24  H    3.403238   2.158918   4.316321   2.158060   4.304253
    25  C    3.583457   4.407158   2.969034   4.753639   3.814968
    26  C    4.892054   5.589470   3.819053   6.100227   5.037830
    27  C    3.728410   4.316830   3.275764   4.666750   4.041745
    28  C    5.992865   6.486559   4.705661   7.127058   6.150587
    29  H    5.239572   6.019600   4.171493   6.499526   5.322179
    30  C    5.088328   5.429298   4.276722   5.947508   5.365917
    31  H    3.078519   3.694066   3.238871   3.819650   3.481047
    32  C    6.078103   6.421432   4.901679   7.066048   6.291972
    33  H    6.986210   7.452896   5.556462   8.151701   7.107162
    34  H    5.555719   5.743987   4.896669   6.232505   5.859836
    35  H    7.115754   7.349708   5.850438   8.054860   7.324536
                   21         22         23         24         25
    21  C    0.000000
    22  H    2.158669   0.000000
    23  H    2.157385   4.305354   0.000000
    24  H    1.094697   2.488485   2.486579   0.000000
    25  C    5.090120   5.122787   5.650704   6.151392   0.000000
    26  C    6.395006   6.191993   7.002400   7.456756   1.396592
    27  C    4.915194   4.973444   5.510705   5.882830   1.397100
    28  C    7.341877   6.980077   8.020857   8.358764   2.418917
    29  H    6.831508   6.626295   7.393793   7.909981   2.161543
    30  C    6.097450   5.926659   6.758952   6.992104   2.419281
    31  H    4.084378   4.419281   4.607093   4.995224   2.161206
    32  C    7.217671   6.866768   7.919580   8.158794   2.797795
    33  H    8.357797   7.900177   9.051868   9.380566   3.408491
    34  H    6.317806   6.170346   6.967848   7.102057   3.409148
    35  H    8.160417   7.718717   8.889687   9.058459   3.892375
                   26         27         28         29         30
    26  C    0.000000
    27  C    2.406636   0.000000
    28  C    1.390035   2.777946   0.000000
    29  H    1.097117   3.402791   2.157191   0.000000
    30  C    2.778405   1.389702   2.404404   3.875516   0.000000
    31  H    3.402122   1.096904   3.874846   4.310282   2.157142
    32  C    2.410476   2.410128   1.390335   3.403282   1.390523
    33  H    2.154320   3.872744   1.094805   2.479185   3.398256
    34  H    3.873332   2.154397   3.398301   4.970445   1.094933
    35  H    3.403106   3.402657   2.158878   4.306558   2.158849
                   31         32         33         34         35
    31  H    0.000000
    32  C    3.403116   0.000000
    33  H    4.969646   2.157633   0.000000
    34  H    2.479888   2.157837   4.304417   0.000000
    35  H    4.306407   1.094582   2.488404   2.488236   0.000000
 Stoichiometry    C19H16
 Framework group  C1[X(C19H16)]
 Deg. of freedom    99
 Full point group                 C1      NOp   1
 Largest Abelian subgroup         C1      NOp   1
 Largest concise Abelian subgroup C1      NOp   1
                         Standard orientation:                         
 ---------------------------------------------------------------------
 Center     Atomic      Atomic             Coordinates (Angstroms)
 Number     Number       Type             X           Y           Z
 ---------------------------------------------------------------------
      1          6           0       -0.000362    0.013237   -0.766447
      2          1           0        0.004151    0.031135   -1.889155
      3          6           0       -1.299792   -0.609874   -0.318230
      4          6           0       -1.633900   -0.702347    1.034753
      5          6           0       -2.185057   -1.111755   -1.274415
      6          6           0       -2.834654   -1.282192    1.424797
      7          1           0       -0.924260   -0.323950    1.786992
      8          6           0       -3.385889   -1.692980   -0.881355
      9          1           0       -1.935036   -1.049552   -2.340075
     10          6           0       -3.713555   -1.777655    0.467065
     11          1           0       -3.087042   -1.349960    2.487916
     12          1           0       -4.074010   -2.084740   -1.637471
     13          1           0       -4.659570   -2.234597    0.774566
     14          6           0        1.162863   -0.833724   -0.310576
     15          6           0        1.478053   -0.967186    1.043574
     16          6           0        1.937204   -1.503894   -1.259828
     17          6           0        2.552797   -1.752669    1.441382
     18          1           0        0.852087   -0.454485    1.790611
     19          6           0        3.010997   -2.291672   -0.858846
     20          1           0        1.699902   -1.411516   -2.326063
     21          6           0        3.321848   -2.415827    0.490500
     22          1           0        2.791922   -1.850312    2.505251
     23          1           0        3.612100   -2.815442   -1.609588
     24          1           0        4.168219   -3.035283    0.804014
     25          6           0        0.134553    1.460186   -0.362142
     26          6           0       -0.997514    2.254128   -0.165803
     27          6           0        1.398448    2.045684   -0.254205
     28          6           0       -0.867299    3.603507    0.141473
     29          1           0       -1.996014    1.807757   -0.251920
     30          6           0        1.526415    3.394872    0.053348
     31          1           0        2.295056    1.433376   -0.410322
     32          6           0        0.394264    4.177165    0.252861
     33          1           0       -1.762635    4.214598    0.294895
     34          1           0        2.522671    3.841277    0.137448
     35          1           0        0.495939    5.239669    0.495467
 ---------------------------------------------------------------------
 Rotational constants (GHZ):      0.3989847      0.3899885      0.2318289
 Standard basis: 6-311G (5D, 7F)
 There are   295 symmetry adapted basis functions of A   symmetry.
 Integral buffers will be    262144 words long.
 Raffenetti 1 integral format.
 Two-electron integral symmetry is turned on.
   295 basis functions,   574 primitive gaussians,   295 cartesian basis functions
    65 alpha electrons       65 beta electrons
       nuclear repulsion energy      1291.3566408748 Hartrees.
 NAtoms=   35 NActive=   35 NUniq=   35 SFac= 7.50D-01 NAtFMM=   80 NAOKFM=F Big=F
 One-electron integrals computed using PRISM.
 PrsmSu:  requested number of processors reduced to:  10 ShMem   1 Linda.
 NBasis=   295 RedAO= T  NBF=   295
 NBsUse=   295 1.00D-06 NBFU=   295
 Harris functional with IExCor=  205 diagonalized for initial guess.
 ExpMin= 1.03D-01 ExpMax= 4.56D+03 ExpMxC= 6.82D+02 IAcc=1 IRadAn=         1 AccDes= 0.00D+00
 HarFok:  IExCor=  205 AccDes= 0.00D+00 IRadAn=         1 IDoV= 1
 ScaDFX=  1.000000  1.000000  1.000000  1.000000
 FoFCou: FMM=F IPFlag=           0 FMFlag=      100000 FMFlg1=           0
         NFxFlg=           0 DoJE=T BraDBF=F KetDBF=T FulRan=T
         Omega=  0.000000  0.000000  1.000000  0.000000  0.000000 ICntrl=     500 IOpCl=  0
         NMat0=    1 NMatS0=    1 NMatT0=    0 NMatD0=    1 NMtDS0=    0 NMtDT0=    0
         I1Cent=           4 NGrid=           0.
 Petite list used in FoFCou.
 Initial guess orbital symmetries:
       Occupied  (A) (A) (A) (A) (A) (A) (A) (A) (A) (A) (A) (A)
                 (A) (A) (A) (A) (A) (A) (A) (A) (A) (A) (A) (A)
                 (A) (A) (A) (A) (A) (A) (A) (A) (A) (A) (A) (A)
                 (A) (A) (A) (A) (A) (A) (A) (A) (A) (A) (A) (A)
                 (A) (A) (A) (A) (A) (A) (A) (A) (A) (A) (A) (A)
                 (A) (A) (A) (A) (A)
       Virtual   (A) (A) (A) (A) (A) (A) (A) (A) (A) (A) (A) (A)
                 (A) (A) (A) (A) (A) (A) (A) (A) (A) (A) (A) (A)
                 (A) (A) (A) (A) (A) (A) (A) (A) (A) (A) (A) (A)
                 (A) (A) (A) (A) (A) (A) (A) (A) (A) (A) (A) (A)
                 (A) (A) (A) (A) (A) (A) (A) (A) (A) (A) (A) (A)
                 (A) (A) (A) (A) (A) (A) (A) (A) (A) (A) (A) (A)
                 (A) (A) (A) (A) (A) (A) (A) (A) (A) (A) (A) (A)
                 (A) (A) (A) (A) (A) (A) (A) (A) (A) (A) (A) (A)
                 (A) (A) (A) (A) (A) (A) (A) (A) (A) (A) (A) (A)
                 (A) (A) (A) (A) (A) (A) (A) (A) (A) (A) (A) (A)
                 (A) (A) (A) (A) (A) (A) (A) (A) (A) (A) (A) (A)
                 (A) (A) (A) (A) (A) (A) (A) (A) (A) (A) (A) (A)
                 (A) (A) (A) (A) (A) (A) (A) (A) (A) (A) (A) (A)
                 (A) (A) (A) (A) (A) (A) (A) (A) (A) (A) (A) (A)
                 (A) (A) (A) (A) (A) (A) (A) (A) (A) (A) (A) (A)
                 (A) (A) (A) (A) (A) (A) (A) (A) (A) (A) (A) (A)
                 (A) (A) (A) (A) (A) (A) (A) (A) (A) (A) (A) (A)
                 (A) (A) (A) (A) (A) (A) (A) (A) (A) (A) (A) (A)
                 (A) (A) (A) (A) (A) (A) (A) (A) (A) (A) (A) (A)
                 (A) (A)
 The electronic state of the initial guess is 1-A.
 Requested convergence on RMS density matrix=1.00D-08 within 128 cycles.
 Requested convergence on MAX density matrix=1.00D-06.
 Requested convergence on             energy=1.00D-06.
 No special actions if energy rises.
 Integral accuracy reduced to 1.0D-05 until final iterations.
 Initial convergence to 1.0D-05 achieved.  Increase integral accuracy.
 SCF Done:  E(RHF) =  -728.672789825     A.U. after   14 cycles
             Convg  =    0.8936D-08             -V/T =  2.0001

 **********************************************************************

            Population analysis using the SCF density.

 **********************************************************************

 Orbital symmetries:
       Occupied  (A) (A) (A) (A) (A) (A) (A) (A) (A) (A) (A) (A)
                 (A) (A) (A) (A) (A) (A) (A) (A) (A) (A) (A) (A)
                 (A) (A) (A) (A) (A) (A) (A) (A) (A) (A) (A) (A)
                 (A) (A) (A) (A) (A) (A) (A) (A) (A) (A) (A) (A)
                 (A) (A) (A) (A) (A) (A) (A) (A) (A) (A) (A) (A)
                 (A) (A) (A) (A) (A)
       Virtual   (A) (A) (A) (A) (A) (A) (A) (A) (A) (A) (A) (A)
                 (A) (A) (A) (A) (A) (A) (A) (A) (A) (A) (A) (A)
                 (A) (A) (A) (A) (A) (A) (A) (A) (A) (A) (A) (A)
                 (A) (A) (A) (A) (A) (A) (A) (A) (A) (A) (A) (A)
                 (A) (A) (A) (A) (A) (A) (A) (A) (A) (A) (A) (A)
                 (A) (A) (A) (A) (A) (A) (A) (A) (A) (A) (A) (A)
                 (A) (A) (A) (A) (A) (A) (A) (A) (A) (A) (A) (A)
                 (A) (A) (A) (A) (A) (A) (A) (A) (A) (A) (A) (A)
                 (A) (A) (A) (A) (A) (A) (A) (A) (A) (A) (A) (A)
                 (A) (A) (A) (A) (A) (A) (A) (A) (A) (A) (A) (A)
                 (A) (A) (A) (A) (A) (A) (A) (A) (A) (A) (A) (A)
                 (A) (A) (A) (A) (A) (A) (A) (A) (A) (A) (A) (A)
                 (A) (A) (A) (A) (A) (A) (A) (A) (A) (A) (A) (A)
                 (A) (A) (A) (A) (A) (A) (A) (A) (A) (A) (A) (A)
                 (A) (A) (A) (A) (A) (A) (A) (A) (A) (A) (A) (A)
                 (A) (A) (A) (A) (A) (A) (A) (A) (A) (A) (A) (A)
                 (A) (A) (A) (A) (A) (A) (A) (A) (A) (A) (A) (A)
                 (A) (A) (A) (A) (A) (A) (A) (A) (A) (A) (A) (A)
                 (A) (A) (A) (A) (A) (A) (A) (A) (A) (A) (A) (A)
                 (A) (A)
 The electronic state is 1-A.
 Alpha  occ. eigenvalues --  -11.25740 -11.25188 -11.25182 -11.24879 -11.24472
 Alpha  occ. eigenvalues --  -11.24462 -11.24412 -11.24407 -11.24179 -11.24167
 Alpha  occ. eigenvalues --  -11.24120 -11.24110 -11.24096 -11.24088 -11.23986
 Alpha  occ. eigenvalues --  -11.23955 -11.23725 -11.23552 -11.23538  -1.18619
 Alpha  occ. eigenvalues --   -1.15867  -1.15560  -1.09023  -1.02344  -1.02256
 Alpha  occ. eigenvalues --   -1.01876  -1.01486  -1.01034  -0.92908  -0.84198
 Alpha  occ. eigenvalues --   -0.83448  -0.82234  -0.82022  -0.81042  -0.77554
 Alpha  occ. eigenvalues --   -0.70896  -0.70346  -0.68969  -0.65596  -0.63943
 Alpha  occ. eigenvalues --   -0.63652  -0.62530  -0.61659  -0.61503  -0.59744
 Alpha  occ. eigenvalues --   -0.58838  -0.58518  -0.58288  -0.56446  -0.55438
 Alpha  occ. eigenvalues --   -0.51715  -0.50859  -0.50136  -0.49907  -0.49350
 Alpha  occ. eigenvalues --   -0.48300  -0.48092  -0.47462  -0.46279  -0.35087
 Alpha  occ. eigenvalues --   -0.34259  -0.34145  -0.33279  -0.32138  -0.31719
 Alpha virt. eigenvalues --    0.11712   0.12335   0.12452   0.13273   0.15162
 Alpha virt. eigenvalues --    0.15241   0.15882   0.16240   0.16495   0.16871
 Alpha virt. eigenvalues --    0.18911   0.19154   0.19289   0.21158   0.21274
 Alpha virt. eigenvalues --    0.21646   0.23488   0.24185   0.24644   0.25346
 Alpha virt. eigenvalues --    0.26319   0.32076   0.32841   0.34118   0.35803
 Alpha virt. eigenvalues --    0.38305   0.38762   0.40805   0.41505   0.42992
 Alpha virt. eigenvalues --    0.44135   0.44438   0.45185   0.45268   0.45454
 Alpha virt. eigenvalues --    0.46095   0.46820   0.47273   0.47546   0.50426
 Alpha virt. eigenvalues --    0.51183   0.51352   0.52662   0.55099   0.56544
 Alpha virt. eigenvalues --    0.56735   0.57835   0.58259   0.58683   0.59515
 Alpha virt. eigenvalues --    0.60368   0.60645   0.60904   0.61191   0.61718
 Alpha virt. eigenvalues --    0.61945   0.61983   0.62300   0.63089   0.63233
 Alpha virt. eigenvalues --    0.64291   0.64953   0.65255   0.65678   0.66374
 Alpha virt. eigenvalues --    0.67404   0.67940   0.68841   0.69710   0.71999
 Alpha virt. eigenvalues --    0.73002   0.73632   0.75192   0.75517   0.75646
 Alpha virt. eigenvalues --    0.77289   0.78620   0.80136   0.80220   0.80920
 Alpha virt. eigenvalues --    0.81447   0.82369   0.82474   0.82634   0.83687
 Alpha virt. eigenvalues --    0.83850   0.84434   0.85111   0.85366   0.85509
 Alpha virt. eigenvalues --    0.86004   0.86189   0.87174   0.87598   0.87896
 Alpha virt. eigenvalues --    0.89946   0.90067   0.92884   0.93496   0.95186
 Alpha virt. eigenvalues --    0.95721   0.96460   0.96572   0.99214   0.99725
 Alpha virt. eigenvalues --    1.00822   1.03093   1.03641   1.05833   1.06717
 Alpha virt. eigenvalues --    1.07260   1.07671   1.08749   1.10288   1.10350
 Alpha virt. eigenvalues --    1.11388   1.11938   1.12375   1.13292   1.14069
 Alpha virt. eigenvalues --    1.14626   1.17648   1.18503   1.20653   1.21572
 Alpha virt. eigenvalues --    1.22573   1.23653   1.27901   1.28175   1.28720
 Alpha virt. eigenvalues --    1.30097   1.31983   1.32314   1.48150   1.48237
 Alpha virt. eigenvalues --    1.50815   1.55206   1.55801   2.53435   2.55722
 Alpha virt. eigenvalues --    2.55794   2.57711   2.62145   2.62752   2.63689
 Alpha virt. eigenvalues --    2.66291   2.67716   2.67944   2.73090   2.74033
 Alpha virt. eigenvalues --    2.78649   2.83172   2.87476   2.92379   2.94239
 Alpha virt. eigenvalues --    2.94678   2.94771   2.96137   2.98352   2.98682
 Alpha virt. eigenvalues --    2.99697   3.02541   3.03596   3.04575   3.07897
 Alpha virt. eigenvalues --    3.08310   3.09189   3.09477   3.10238   3.13275
 Alpha virt. eigenvalues --    3.14839   3.15435   3.18018   3.18145   3.19874
 Alpha virt. eigenvalues --    3.21722   3.23974   3.24296   3.27925   3.28772
 Alpha virt. eigenvalues --    3.31991   3.33798   3.34770   3.36152   3.40107
 Alpha virt. eigenvalues --    3.40623   3.44337   3.44458   3.50698   3.52223
 Alpha virt. eigenvalues --    3.53829   3.56181   3.58537   3.58983   3.59699
 Alpha virt. eigenvalues --    3.62537   3.63504   3.65384   3.65953   3.67470
 Alpha virt. eigenvalues --    3.67914   3.69256   3.70817   3.71650   3.75233
 Alpha virt. eigenvalues --    3.75817   3.77902   3.78906   3.85839   3.89374
 Alpha virt. eigenvalues --    3.90459  24.26442  24.30021  24.31378  24.50548
 Alpha virt. eigenvalues --   24.50785  24.51168  24.52742  24.54684  24.56336
 Alpha virt. eigenvalues --   24.75831  24.77129  24.79136  24.80340  24.80955
 Alpha virt. eigenvalues --   24.83256  24.87870  25.04797  25.05818  25.07114
          Condensed to atoms (all electrons):
              1          2          3          4          5          6
     1  C    6.156435   0.467013   0.124160  -0.071924  -0.023275   0.004122
     2  H    0.467013   0.497265  -0.070554   0.004575   0.004746  -0.000229
     3  C    0.124160  -0.070554   5.412265   0.452475   0.490462  -0.058236
     4  C   -0.071924   0.004575   0.452475   5.076734  -0.068456   0.477948
     5  C   -0.023275   0.004746   0.490462  -0.068456   5.071950  -0.032243
     6  C    0.004122  -0.000229  -0.058236   0.477948  -0.032243   5.046422
     7  H   -0.000939   0.000043  -0.044751   0.386810   0.004486  -0.028796
     8  C    0.007436   0.001427  -0.075530  -0.027928   0.461754  -0.078134
     9  H   -0.001243   0.002808  -0.048424   0.004647   0.397567  -0.000302
    10  C    0.001383   0.000007  -0.017888  -0.092588  -0.088214   0.490438
    11  H   -0.000362   0.000011   0.006039  -0.038632  -0.000432   0.397193
    12  H   -0.000365  -0.000036   0.006896  -0.000661  -0.039452   0.006242
    13  H   -0.000022  -0.000002  -0.001656   0.008003   0.007566  -0.043080
    14  C    0.129256  -0.069989  -0.151907  -0.002510  -0.004167   0.001896
    15  C   -0.068913   0.004689  -0.002530  -0.011373   0.000696  -0.000156
    16  C   -0.023545   0.004113  -0.003829   0.000659   0.000642   0.000028
    17  C    0.004094  -0.000235   0.001890  -0.000191   0.000027  -0.000103
    18  H   -0.000908   0.000054  -0.003567   0.000279  -0.000203   0.001029
    19  C    0.007225   0.001438  -0.000531   0.000094  -0.000017   0.000001
    20  H   -0.000962   0.002734   0.000200  -0.000016   0.000306  -0.000001
    21  C    0.001348   0.000006  -0.000093  -0.000023  -0.000011   0.000001
    22  H   -0.000360   0.000011   0.000033   0.000050   0.000001   0.000001
    23  H   -0.000356  -0.000037   0.000025   0.000000   0.000001   0.000000
    24  H   -0.000020  -0.000002  -0.000002   0.000000   0.000000   0.000000
    25  C    0.023500  -0.060243  -0.067549   0.002895  -0.000117  -0.000019
    26  C   -0.060331  -0.001960  -0.013146  -0.016841   0.000928  -0.001010
    27  C   -0.068444  -0.002618   0.009778   0.001344  -0.000401   0.000008
    28  C    0.011857   0.000066  -0.002190  -0.000973  -0.000080  -0.000036
    29  H   -0.010402  -0.000171   0.003225  -0.000464  -0.000028  -0.000426
    30  C    0.011311   0.000144  -0.000892  -0.000002   0.000009   0.000000
    31  H   -0.009292  -0.000143   0.000622  -0.000026  -0.000010   0.000001
    32  C    0.000120   0.000053   0.000145   0.000007  -0.000004   0.000001
    33  H   -0.000362   0.000012   0.000045   0.000013   0.000001   0.000000
    34  H   -0.000360   0.000011   0.000012   0.000000   0.000000   0.000000
    35  H   -0.000013  -0.000002   0.000002   0.000001   0.000000   0.000000
              7          8          9         10         11         12
     1  C   -0.000939   0.007436  -0.001243   0.001383  -0.000362  -0.000365
     2  H    0.000043   0.001427   0.002808   0.000007   0.000011  -0.000036
     3  C   -0.044751  -0.075530  -0.048424  -0.017888   0.006039   0.006896
     4  C    0.386810  -0.027928   0.004647  -0.092588  -0.038632  -0.000661
     5  C    0.004486   0.461754   0.397567  -0.088214  -0.000432  -0.039452
     6  C   -0.028796  -0.078134  -0.000302   0.490438   0.397193   0.006242
     7  H    0.498731  -0.000031  -0.000272   0.004620  -0.003378   0.000014
     8  C   -0.000031   5.052443  -0.034021   0.499790   0.005925   0.396561
     9  H   -0.000272  -0.034021   0.507558   0.005138   0.000025  -0.004121
    10  C    0.004620   0.499790   0.005138   5.033383  -0.039838  -0.040775
    11  H   -0.003378   0.005925   0.000025  -0.039838   0.514345  -0.000205
    12  H    0.000014   0.396561  -0.004121  -0.040775  -0.000205   0.517916
    13  H   -0.000169  -0.042595  -0.000179   0.399600  -0.004423  -0.004571
    14  C   -0.003725  -0.000539   0.000174  -0.000091   0.000033   0.000025
    15  C    0.000669   0.000084  -0.000018  -0.000019   0.000047   0.000000
    16  C   -0.000204  -0.000015   0.000298  -0.000012   0.000001   0.000001
    17  C    0.001066   0.000001  -0.000001   0.000001   0.000000   0.000000
    18  H    0.000686  -0.000020   0.000001  -0.000016  -0.000031   0.000001
    19  C   -0.000028   0.000002   0.000000   0.000000   0.000000   0.000000
    20  H    0.000001   0.000002   0.000088  -0.000001   0.000000   0.000000
    21  C   -0.000014   0.000000  -0.000001   0.000000   0.000000   0.000000
    22  H   -0.000034   0.000000   0.000000   0.000000   0.000001   0.000000
    23  H    0.000001   0.000000   0.000000   0.000000   0.000000   0.000000
    24  H    0.000000   0.000000   0.000000   0.000000   0.000000   0.000000
    25  C    0.001980  -0.000594   0.000362  -0.000030   0.000027   0.000016
    26  C    0.001858   0.000098   0.000186   0.000218  -0.000004  -0.000007
    27  C   -0.000210   0.000010  -0.000005   0.000000   0.000000   0.000000
    28  C    0.000230   0.000009  -0.000003   0.000004  -0.000002   0.000000
    29  H    0.000234  -0.000063   0.000173   0.000117   0.000011   0.000012
    30  C   -0.000145   0.000000   0.000000   0.000000   0.000000   0.000000
    31  H    0.000026   0.000000   0.000000   0.000000   0.000000   0.000000
    32  C   -0.000010   0.000000   0.000001   0.000000   0.000000   0.000000
    33  H    0.000003   0.000000   0.000000  -0.000001   0.000000   0.000000
    34  H   -0.000001   0.000000   0.000000   0.000000   0.000000   0.000000
    35  H    0.000000   0.000000   0.000000   0.000000   0.000000   0.000000
             13         14         15         16         17         18
     1  C   -0.000022   0.129256  -0.068913  -0.023545   0.004094  -0.000908
     2  H   -0.000002  -0.069989   0.004689   0.004113  -0.000235   0.000054
     3  C   -0.001656  -0.151907  -0.002530  -0.003829   0.001890  -0.003567
     4  C    0.008003  -0.002510  -0.011373   0.000659  -0.000191   0.000279
     5  C    0.007566  -0.004167   0.000696   0.000642   0.000027  -0.000203
     6  C   -0.043080   0.001896  -0.000156   0.000028  -0.000103   0.001029
     7  H   -0.000169  -0.003725   0.000669  -0.000204   0.001066   0.000686
     8  C   -0.042595  -0.000539   0.000084  -0.000015   0.000001  -0.000020
     9  H   -0.000179   0.000174  -0.000018   0.000298  -0.000001   0.000001
    10  C    0.399600  -0.000091  -0.000019  -0.000012   0.000001  -0.000016
    11  H   -0.004423   0.000033   0.000047   0.000001   0.000000  -0.000031
    12  H   -0.004571   0.000025   0.000000   0.000001   0.000000   0.000001
    13  H    0.517225  -0.000002   0.000000   0.000000   0.000000   0.000000
    14  C   -0.000002   5.410200   0.452651   0.489834  -0.057799  -0.044341
    15  C    0.000000   0.452651   5.073507  -0.069821   0.477655   0.387143
    16  C    0.000000   0.489834  -0.069821   5.077338  -0.031655   0.004388
    17  C    0.000000  -0.057799   0.477655  -0.031655   5.045678  -0.028942
    18  H    0.000000  -0.044341   0.387143   0.004388  -0.028942   0.498567
    19  C    0.000000  -0.075285  -0.027369   0.460049  -0.078454  -0.000004
    20  H    0.000000  -0.049078   0.004580   0.398353  -0.000298  -0.000272
    21  C    0.000000  -0.018138  -0.092287  -0.087957   0.490549   0.004596
    22  H    0.000000   0.006040  -0.038700  -0.000444   0.397235  -0.003359
    23  H    0.000000   0.006879  -0.000671  -0.039475   0.006239   0.000014
    24  H    0.000000  -0.001632   0.007981   0.007553  -0.043060  -0.000170
    25  C    0.000002  -0.070904   0.000870  -0.000171  -0.000166   0.001854
    26  C   -0.000002   0.008625   0.001426  -0.000421   0.000007  -0.000277
    27  C    0.000000  -0.012366  -0.015630   0.000884  -0.000840   0.001632
    28  C    0.000000  -0.000889   0.000011   0.000008   0.000001  -0.000161
    29  H    0.000009   0.000581  -0.000017  -0.000011   0.000001   0.000028
    30  C    0.000000  -0.002164  -0.000869  -0.000070  -0.000033   0.000224
    31  H    0.000000   0.003717  -0.000530   0.000267  -0.000440   0.000184
    32  C    0.000000   0.000145   0.000013  -0.000003   0.000001  -0.000015
    33  H    0.000000   0.000012   0.000000   0.000000   0.000000  -0.000001
    34  H    0.000000   0.000039   0.000012   0.000000   0.000001   0.000003
    35  H    0.000000   0.000002   0.000001   0.000000   0.000000   0.000000
             19         20         21         22         23         24
     1  C    0.007225  -0.000962   0.001348  -0.000360  -0.000356  -0.000020
     2  H    0.001438   0.002734   0.000006   0.000011  -0.000037  -0.000002
     3  C   -0.000531   0.000200  -0.000093   0.000033   0.000025  -0.000002
     4  C    0.000094  -0.000016  -0.000023   0.000050   0.000000   0.000000
     5  C   -0.000017   0.000306  -0.000011   0.000001   0.000001   0.000000
     6  C    0.000001  -0.000001   0.000001   0.000001   0.000000   0.000000
     7  H   -0.000028   0.000001  -0.000014  -0.000034   0.000001   0.000000
     8  C    0.000002   0.000002   0.000000   0.000000   0.000000   0.000000
     9  H    0.000000   0.000088  -0.000001   0.000000   0.000000   0.000000
    10  C    0.000000  -0.000001   0.000000   0.000000   0.000000   0.000000
    11  H    0.000000   0.000000   0.000000   0.000001   0.000000   0.000000
    12  H    0.000000   0.000000   0.000000   0.000000   0.000000   0.000000
    13  H    0.000000   0.000000   0.000000   0.000000   0.000000   0.000000
    14  C   -0.075285  -0.049078  -0.018138   0.006040   0.006879  -0.001632
    15  C   -0.027369   0.004580  -0.092287  -0.038700  -0.000671   0.007981
    16  C    0.460049   0.398353  -0.087957  -0.000444  -0.039475   0.007553
    17  C   -0.078454  -0.000298   0.490549   0.397235   0.006239  -0.043060
    18  H   -0.000004  -0.000272   0.004596  -0.003359   0.000014  -0.000170
    19  C    5.053870  -0.034148   0.499601   0.005931   0.396621  -0.042588
    20  H   -0.034148   0.507912   0.005162   0.000025  -0.004138  -0.000180
    21  C    0.499601   0.005162   5.033516  -0.039846  -0.040731   0.399616
    22  H    0.005931   0.000025  -0.039846   0.514411  -0.000205  -0.004433
    23  H    0.396621  -0.004138  -0.040731  -0.000205   0.517922  -0.004575
    24  H   -0.042588  -0.000180   0.399616  -0.004433  -0.004575   0.517268
    25  C   -0.000550   0.000318  -0.000019   0.000028   0.000014   0.000002
    26  C    0.000012  -0.000012   0.000000   0.000000   0.000000   0.000000
    27  C    0.000044   0.000207   0.000207   0.000000  -0.000006  -0.000001
    28  C    0.000000   0.000000   0.000000   0.000000   0.000000   0.000000
    29  H    0.000000   0.000000   0.000000   0.000000   0.000000   0.000000
    30  C    0.000010  -0.000004   0.000003  -0.000002   0.000000   0.000000
    31  H   -0.000018   0.000181   0.000071   0.000008   0.000011   0.000007
    32  C    0.000000   0.000001   0.000000   0.000000   0.000000   0.000000
    33  H    0.000000   0.000000   0.000000   0.000000   0.000000   0.000000
    34  H    0.000000   0.000000   0.000000   0.000000   0.000000   0.000000
    35  H    0.000000   0.000000   0.000000   0.000000   0.000000   0.000000
             25         26         27         28         29         30
     1  C    0.023500  -0.060331  -0.068444   0.011857  -0.010402   0.011311
     2  H   -0.060243  -0.001960  -0.002618   0.000066  -0.000171   0.000144
     3  C   -0.067549  -0.013146   0.009778  -0.002190   0.003225  -0.000892
     4  C    0.002895  -0.016841   0.001344  -0.000973  -0.000464  -0.000002
     5  C   -0.000117   0.000928  -0.000401  -0.000080  -0.000028   0.000009
     6  C   -0.000019  -0.001010   0.000008  -0.000036  -0.000426   0.000000
     7  H    0.001980   0.001858  -0.000210   0.000230   0.000234  -0.000145
     8  C   -0.000594   0.000098   0.000010   0.000009  -0.000063   0.000000
     9  H    0.000362   0.000186  -0.000005  -0.000003   0.000173   0.000000
    10  C   -0.000030   0.000218   0.000000   0.000004   0.000117   0.000000
    11  H    0.000027  -0.000004   0.000000  -0.000002   0.000011   0.000000
    12  H    0.000016  -0.000007   0.000000   0.000000   0.000012   0.000000
    13  H    0.000002  -0.000002   0.000000   0.000000   0.000009   0.000000
    14  C   -0.070904   0.008625  -0.012366  -0.000889   0.000581  -0.002164
    15  C    0.000870   0.001426  -0.015630   0.000011  -0.000017  -0.000869
    16  C   -0.000171  -0.000421   0.000884   0.000008  -0.000011  -0.000070
    17  C   -0.000166   0.000007  -0.000840   0.000001   0.000001  -0.000033
    18  H    0.001854  -0.000277   0.001632  -0.000161   0.000028   0.000224
    19  C   -0.000550   0.000012   0.000044   0.000000   0.000000   0.000010
    20  H    0.000318  -0.000012   0.000207   0.000000   0.000000  -0.000004
    21  C   -0.000019   0.000000   0.000207   0.000000   0.000000   0.000003
    22  H    0.000028   0.000000   0.000000   0.000000   0.000000  -0.000002
    23  H    0.000014   0.000000  -0.000006   0.000000   0.000000   0.000000
    24  H    0.000002   0.000000  -0.000001   0.000000   0.000000   0.000000
    25  C    5.341171   0.485951   0.482485  -0.061956  -0.037726  -0.060299
    26  C    0.485951   5.121602  -0.087858   0.455021   0.396171  -0.032257
    27  C    0.482485  -0.087858   5.126135  -0.032678   0.004970   0.456143
    28  C   -0.061956   0.455021  -0.032678   5.076392  -0.036528  -0.072729
    29  H   -0.037726   0.396171   0.004970  -0.036528   0.481848  -0.000517
    30  C   -0.060299  -0.032257   0.456143  -0.072729  -0.000517   5.074298
    31  H   -0.039013   0.004901   0.396572  -0.000518  -0.000184  -0.036244
    32  C   -0.021390  -0.086826  -0.086287   0.487237   0.005211   0.485431
    33  H    0.006291  -0.037254  -0.000391   0.396191  -0.003693   0.005968
    34  H    0.006229  -0.000393  -0.037423   0.005964   0.000017   0.396364
    35  H   -0.001433   0.007532   0.007513  -0.042553  -0.000171  -0.042697
             31         32         33         34         35
     1  C   -0.009292   0.000120  -0.000362  -0.000360  -0.000013
     2  H   -0.000143   0.000053   0.000012   0.000011  -0.000002
     3  C    0.000622   0.000145   0.000045   0.000012   0.000002
     4  C   -0.000026   0.000007   0.000013   0.000000   0.000001
     5  C   -0.000010  -0.000004   0.000001   0.000000   0.000000
     6  C    0.000001   0.000001   0.000000   0.000000   0.000000
     7  H    0.000026  -0.000010   0.000003  -0.000001   0.000000
     8  C    0.000000   0.000000   0.000000   0.000000   0.000000
     9  H    0.000000   0.000001   0.000000   0.000000   0.000000
    10  C    0.000000   0.000000  -0.000001   0.000000   0.000000
    11  H    0.000000   0.000000   0.000000   0.000000   0.000000
    12  H    0.000000   0.000000   0.000000   0.000000   0.000000
    13  H    0.000000   0.000000   0.000000   0.000000   0.000000
    14  C    0.003717   0.000145   0.000012   0.000039   0.000002
    15  C   -0.000530   0.000013   0.000000   0.000012   0.000001
    16  C    0.000267  -0.000003   0.000000   0.000000   0.000000
    17  C   -0.000440   0.000001   0.000000   0.000001   0.000000
    18  H    0.000184  -0.000015  -0.000001   0.000003   0.000000
    19  C   -0.000018   0.000000   0.000000   0.000000   0.000000
    20  H    0.000181   0.000001   0.000000   0.000000   0.000000
    21  C    0.000071   0.000000   0.000000   0.000000   0.000000
    22  H    0.000008   0.000000   0.000000   0.000000   0.000000
    23  H    0.000011   0.000000   0.000000   0.000000   0.000000
    24  H    0.000007   0.000000   0.000000   0.000000   0.000000
    25  C   -0.039013  -0.021390   0.006291   0.006229  -0.001433
    26  C    0.004901  -0.086826  -0.037254  -0.000393   0.007532
    27  C    0.396572  -0.086287  -0.000391  -0.037423   0.007513
    28  C   -0.000518   0.487237   0.396191   0.005964  -0.042553
    29  H   -0.000184   0.005211  -0.003693   0.000017  -0.000171
    30  C   -0.036244   0.485431   0.005968   0.396364  -0.042697
    31  H    0.483054   0.005225   0.000017  -0.003719  -0.000172
    32  C    0.005225   5.043778  -0.041117  -0.041036   0.399434
    33  H    0.000017  -0.041117   0.517549  -0.000215  -0.004417
    34  H   -0.003719  -0.041036  -0.000215   0.517480  -0.004412
    35  H   -0.000172   0.399434  -0.004417  -0.004412   0.519441
 Mulliken atomic charges:
              1
     1  C   -0.606860
     2  H    0.214996
     3  C    0.054999
     4  C   -0.083926
     5  C   -0.184033
     6  C   -0.182560
     7  H    0.181250
     8  C   -0.166071
     9  H    0.169563
    10  C   -0.155224
    11  H    0.163649
    12  H    0.162510
    13  H    0.164297
    14  C    0.055418
    15  C   -0.083132
    16  C   -0.186783
    17  C   -0.182229
    18  H    0.181603
    19  C   -0.165908
    20  H    0.169039
    21  C   -0.155554
    22  H    0.163609
    23  H    0.162465
    24  H    0.164238
    25  C    0.068183
    26  C   -0.145937
    27  C   -0.142771
    28  C   -0.181694
    29  H    0.197793
    30  C   -0.180984
    31  H    0.195446
    32  C   -0.150111
    33  H    0.161349
    34  H    0.161428
    35  H    0.161944
 Sum of Mulliken atomic charges =   0.00000
 Mulliken charges with hydrogens summed into heavy atoms:
              1
     1  C   -0.391864
     3  C    0.054999
     4  C    0.097324
     5  C   -0.014470
     6  C   -0.018911
     8  C   -0.003562
    10  C    0.009073
    14  C    0.055418
    15  C    0.098472
    16  C   -0.017744
    17  C   -0.018620
    19  C   -0.003443
    21  C    0.008684
    25  C    0.068183
    26  C    0.051856
    27  C    0.052675
    28  C   -0.020345
    30  C   -0.019556
    32  C    0.011833
 Sum of Mulliken charges with hydrogens summed into heavy atoms =   0.00000
 Electronic spatial extent (au):  <R**2>=           4927.8109
 Charge=              0.0000 electrons
 Dipole moment (field-independent basis, Debye):
    X=             -0.0199    Y=             -0.1970    Z=             -0.0159  Tot=              0.1986
 Quadrupole moment (field-independent basis, Debye-Ang):
   XX=           -105.9393   YY=           -114.1699   ZZ=           -107.7094
   XY=             -0.6872   XZ=             -0.0289   YZ=              2.2910
 Traceless Quadrupole moment (field-independent basis, Debye-Ang):
   XX=              3.3336   YY=             -4.8970   ZZ=              1.5635
   XY=             -0.6872   XZ=             -0.0289   YZ=              2.2910
 Octapole moment (field-independent basis, Debye-Ang**2):
  XXX=             -7.8133  YYY=             42.4158  ZZZ=              1.2438  XYY=              9.5499
  XXY=            -26.9111  XXZ=              2.4790  XZZ=             -2.2279  YZZ=            -23.8802
  YYZ=              7.3771  XYZ=             -0.3730
 Hexadecapole moment (field-independent basis, Debye-Ang**3):
 XXXX=          -3102.2134 YYYY=          -3046.1963 ZZZZ=           -634.9723 XXXY=             25.8556
 XXXZ=             -0.2544 YYYX=            -27.2448 YYYZ=             63.5717 ZZZX=              1.2451
 ZZZY=              1.5982 XXYY=           -930.9948 XXZZ=           -605.9015 YYZZ=           -668.4360
 XXYZ=              0.9764 YYXZ=              1.8812 ZZXY=             -7.5477
 N-N= 1.291356640875D+03 E-N=-4.278804565947D+03  KE= 7.286021664726D+02
 PrsmSu:  requested number of processors reduced to:  10 ShMem   1 Linda.
 Calling FoFJK, ICntrl=      2127 FMM=F ISym2X=0 I1Cent= 0 IOpClX= 0 NMat=1 NMatS=1 NMatT=0.
 ***** Axes restored to original set *****
 -------------------------------------------------------------------
 Center     Atomic                   Forces (Hartrees/Bohr)
 Number     Number              X              Y              Z
 -------------------------------------------------------------------
      1        6          -0.006938926   -0.020468484    0.007724992
      2        1           0.004052725    0.024241542   -0.003459593
      3        6          -0.013848535   -0.002730413    0.000571456
      4        6           0.009391720    0.006959498   -0.002116797
      5        6           0.000374363   -0.005495239    0.002208538
      6        6           0.003508328    0.011181672   -0.004419625
      7        1          -0.027576968   -0.008386601   -0.002375965
      8        6          -0.013255284   -0.003444819    0.001690515
      9        1           0.001692627    0.016205631   -0.006847334
     10        6          -0.012687970    0.005019547   -0.001975692
     11        1          -0.001008798   -0.015445178    0.006279599
     12        1           0.014733638    0.007117880   -0.003066861
     13        1           0.014073459   -0.008550996    0.003374982
     14        6           0.003598792   -0.003639715    0.013221350
     15        6           0.000007813    0.007229721   -0.009239947
     16        6          -0.002744177   -0.005142011    0.000138503
     17        6           0.004059010    0.011059586   -0.004117721
     18        1           0.010136085   -0.010805535    0.024700729
     19        6           0.002082702   -0.004385711    0.013027076
     20        1           0.007404355    0.015655957   -0.002907686
     21        6           0.006230917    0.003907459    0.011665335
     22        1          -0.007104254   -0.014972241    0.002154179
     23        1          -0.000873545    0.008036140   -0.014743345
     24        1          -0.008286195   -0.007160270   -0.012779080
     25        6           0.008158253   -0.002213801   -0.011963745
     26        6          -0.010462279    0.001178314   -0.002683181
     27        6           0.005767518   -0.000613523    0.008685660
     28        6          -0.004301135   -0.001085383   -0.011677911
     29        1           0.020174487   -0.004071858    0.001167494
     30        6           0.012169017   -0.002867663    0.001248637
     31        1          -0.007147418   -0.000881034   -0.018815284
     32        6           0.007447126   -0.002706900   -0.010990034
     33        1           0.006904114    0.000527385    0.015132087
     34        1          -0.016316909    0.003066049   -0.002011989
     35        1          -0.009414657    0.003680990    0.013200657
 -------------------------------------------------------------------
 Cartesian Forces:  Max     0.027576968 RMS     0.009532822

 GradGradGradGradGradGradGradGradGradGradGradGradGradGradGradGradGradGrad
 Berny optimization.
 Internal  Forces:  Max     0.027814455 RMS     0.007765327
 Search for a local minimum.
 Step number   1 out of a maximum of  197
 All quantities printed in internal units (Hartrees-Bohrs-Radians)
 Mixed Optimization -- RFO/linear search
 Second derivative matrix not updated -- first step.
     Eigenvalues ---    0.00642   0.00644   0.00655   0.01534   0.01535
     Eigenvalues ---    0.01543   0.02141   0.02144   0.02144   0.02172
     Eigenvalues ---    0.02172   0.02172   0.02180   0.02183   0.02183
     Eigenvalues ---    0.02200   0.02201   0.02202   0.02210   0.02211
     Eigenvalues ---    0.02214   0.02214   0.02214   0.02215   0.02215
     Eigenvalues ---    0.02217   0.02219   0.02219   0.02220   0.02220
     Eigenvalues ---    0.04588   0.06477   0.06531   0.15998   0.15998
     Eigenvalues ---    0.16000   0.16000   0.16000   0.16000   0.16000
     Eigenvalues ---    0.16000   0.16000   0.16000   0.16000   0.16000
     Eigenvalues ---    0.16000   0.16000   0.16000   0.18865   0.19273
     Eigenvalues ---    0.22000   0.22000   0.22000   0.22000   0.22000
     Eigenvalues ---    0.22000   0.23458   0.23478   0.23478   0.24946
     Eigenvalues ---    0.25000   0.25000   0.31276   0.31412   0.31431
     Eigenvalues ---    0.31510   0.33544   0.33550   0.34003   0.34027
     Eigenvalues ---    0.34088   0.34103   0.34228   0.34249   0.34258
     Eigenvalues ---    0.34263   0.34267   0.34268   0.34275   0.34279
     Eigenvalues ---    0.34288   0.42469   0.42472   0.42476   0.42561
     Eigenvalues ---    0.42563   0.42565   0.46389   0.46413   0.46417
     Eigenvalues ---    0.46737   0.46742   0.46753   0.47194   0.47199
     Eigenvalues ---    0.47262   0.47338   0.47344   0.473461000.00000
     Eigenvalues --- 1000.000001000.000001000.000001000.000001000.00000
     Eigenvalues --- 1000.000001000.000001000.000001000.000001000.00000
     Eigenvalues --- 1000.000001000.000001000.000001000.000001000.00000
     Eigenvalues --- 1000.000001000.000001000.000001000.000001000.00000
     Eigenvalues --- 1000.000001000.000001000.000001000.000001000.00000
     Eigenvalues --- 1000.000001000.000001000.000001000.000001000.00000
     Eigenvalues --- 1000.000001000.000001000.000001000.000001000.00000
     Eigenvalues --- 1000.000001000.000001000.000001000.000001000.00000
     Eigenvalues --- 1000.000001000.000001000.000001000.000001000.00000
     Eigenvalues --- 1000.000001000.000001000.000001000.000001000.00000
     Eigenvalues --- 1000.000001000.000001000.000001000.000001000.00000
     Eigenvalues --- 1000.000001000.000001000.000001000.000001000.00000
     Eigenvalues --- 1000.000001000.000001000.000001000.000001000.00000
     Eigenvalues --- 1000.000001000.000001000.000001000.000001000.00000
     Eigenvalues --- 1000.000001000.000001000.000001000.000001000.00000
     Eigenvalues --- 1000.000001000.000001000.000001000.000001000.00000
     Eigenvalues --- 1000.000001000.000001000.000001000.000001000.00000
     Eigenvalues --- 1000.000001000.00000
 RFO step:  Lambda=-4.16104302D-02 EMin= 6.41754456D-03
 Linear search not attempted -- first point.
 Maximum step size (   0.300) exceeded in Quadratic search.
    -- Step size scaled by   0.596
 Iteration  1 RMS(Cart)=  0.12605496 RMS(Int)=  0.00307928
 Iteration  2 RMS(Cart)=  0.00623737 RMS(Int)=  0.00028331
 Iteration  3 RMS(Cart)=  0.00001099 RMS(Int)=  0.00028325
 Iteration  4 RMS(Cart)=  0.00000000 RMS(Int)=  0.00028325
 Variable       Old X    -DE/DX   Delta X   Delta X   Delta X     New X
                                 (Linear)    (Quad)   (Total)
    R1        2.12190  -0.02427   0.00000  -0.04082  -0.04082   2.08108
    R2        2.85197   0.02305   0.00000   0.03860   0.03860   2.89057
    R3        2.85233   0.02296   0.00000   0.03846   0.03846   2.89079
    R4        2.85050   0.02344   0.00000   0.03917   0.03917   2.88967
    R5        2.63936   0.00028   0.00000   0.00045   0.00047   2.63983
    R6        2.63877  -0.00438   0.00000  -0.00513  -0.00511   2.63366
    R7        2.62540  -0.00467   0.00000  -0.00533  -0.00532   2.62008
    R8        2.08096  -0.02781   0.00000  -0.04396  -0.04396   2.03700
    R9        2.62823  -0.00231   0.00000  -0.00274  -0.00274   2.62549
   R10        2.07183  -0.01766   0.00000  -0.02752  -0.02752   2.04430
   R11        2.62883  -0.00533   0.00000  -0.00624  -0.00626   2.62257
   R12        2.06881  -0.01670   0.00000  -0.02591  -0.02591   2.04290
   R13        2.62718  -0.00901   0.00000  -0.01056  -0.01058   2.61660
   R14        2.06897  -0.01665   0.00000  -0.02582  -0.02582   2.04314
   R15        2.06862  -0.01681   0.00000  -0.02606  -0.02606   2.04256
   R16        2.63945   0.00009   0.00000   0.00021   0.00023   2.63968
   R17        2.63873  -0.00440   0.00000  -0.00515  -0.00514   2.63360
   R18        2.62550  -0.00474   0.00000  -0.00542  -0.00541   2.62009
   R19        2.08107  -0.02765   0.00000  -0.04370  -0.04370   2.03737
   R20        2.62829  -0.00232   0.00000  -0.00275  -0.00276   2.62554
   R21        2.07156  -0.01755   0.00000  -0.02733  -0.02733   2.04423
   R22        2.62896  -0.00538   0.00000  -0.00630  -0.00632   2.62264
   R23        2.06882  -0.01671   0.00000  -0.02592  -0.02592   2.04291
   R24        2.62718  -0.00896   0.00000  -0.01049  -0.01051   2.61667
   R25        2.06947  -0.01681   0.00000  -0.02610  -0.02610   2.04336
   R26        2.06868  -0.01683   0.00000  -0.02610  -0.02610   2.04258
   R27        2.63918  -0.00192   0.00000  -0.00215  -0.00215   2.63703
   R28        2.64014  -0.00185   0.00000  -0.00208  -0.00207   2.63806
   R29        2.62679  -0.00279   0.00000  -0.00323  -0.00323   2.62356
   R30        2.07325  -0.02057   0.00000  -0.03212  -0.03212   2.04113
   R31        2.62616  -0.00323   0.00000  -0.00375  -0.00375   2.62241
   R32        2.07285  -0.02011   0.00000  -0.03138  -0.03138   2.04147
   R33        2.62735  -0.00636   0.00000  -0.00748  -0.00748   2.61987
   R34        2.06888  -0.01664   0.00000  -0.02581  -0.02581   2.04307
   R35        2.62771  -0.00596   0.00000  -0.00703  -0.00703   2.62067
   R36        2.06912  -0.01672   0.00000  -0.02595  -0.02595   2.04317
   R37        2.06846  -0.01663   0.00000  -0.02577  -0.02577   2.04269
    A1        1.88283  -0.00979   0.00000  -0.05199  -0.05110   1.83173
    A2        1.88371  -0.00963   0.00000  -0.05162  -0.05074   1.83296
    A3        1.82590   0.00464   0.00000   0.00363   0.00388   1.82978
    A4        1.92002   0.01597   0.00000   0.05610   0.05498   1.97500
    A5        1.97519  -0.00131   0.00000   0.01675   0.01473   1.98991
    A6        1.96967  -0.00181   0.00000   0.01555   0.01349   1.98316
    A7        2.11881   0.02107   0.00000   0.04313   0.04308   2.16190
    A8        2.08390  -0.00980   0.00000  -0.01997  -0.02001   2.06389
    A9        2.08046  -0.01126   0.00000  -0.02310  -0.02308   2.05738
   A10        2.10174   0.00433   0.00000   0.00983   0.00979   2.11153
   A11        2.07696   0.00419   0.00000   0.01399   0.01392   2.09088
   A12        2.10436  -0.00849   0.00000  -0.02352  -0.02359   2.08077
   A13        2.09909   0.00781   0.00000   0.01733   0.01735   2.11644
   A14        2.09511  -0.00457   0.00000  -0.01063  -0.01064   2.08447
   A15        2.08899  -0.00324   0.00000  -0.00671  -0.00672   2.08226
   A16        2.09603   0.00235   0.00000   0.00492   0.00490   2.10093
   A17        2.09176  -0.00108   0.00000  -0.00219  -0.00219   2.08958
   A18        2.09539  -0.00126   0.00000  -0.00272  -0.00272   2.09267
   A19        2.09794  -0.00033   0.00000  -0.00155  -0.00156   2.09637
   A20        2.09096   0.00036   0.00000   0.00136   0.00137   2.09233
   A21        2.09429  -0.00003   0.00000   0.00019   0.00019   2.09449
   A22        2.09111  -0.00290   0.00000  -0.00739  -0.00742   2.08369
   A23        2.09587   0.00149   0.00000   0.00382   0.00383   2.09970
   A24        2.09620   0.00141   0.00000   0.00358   0.00359   2.09980
   A25        2.11805   0.02056   0.00000   0.04210   0.04205   2.16009
   A26        2.08444  -0.00943   0.00000  -0.01920  -0.01924   2.06520
   A27        2.08068  -0.01113   0.00000  -0.02284  -0.02282   2.05786
   A28        2.10154   0.00433   0.00000   0.00980   0.00976   2.11130
   A29        2.07706   0.00409   0.00000   0.01370   0.01362   2.09068
   A30        2.10444  -0.00838   0.00000  -0.02317  -0.02324   2.08120
   A31        2.09901   0.00770   0.00000   0.01708   0.01710   2.11611
   A32        2.09523  -0.00453   0.00000  -0.01056  -0.01057   2.08466
   A33        2.08895  -0.00317   0.00000  -0.00653  -0.00654   2.08241
   A34        2.09603   0.00232   0.00000   0.00485   0.00484   2.10087
   A35        2.09166  -0.00105   0.00000  -0.00210  -0.00210   2.08956
   A36        2.09549  -0.00127   0.00000  -0.00275  -0.00275   2.09275
   A37        2.09790  -0.00032   0.00000  -0.00151  -0.00152   2.09638
   A38        2.09097   0.00036   0.00000   0.00135   0.00136   2.09233
   A39        2.09431  -0.00004   0.00000   0.00016   0.00016   2.09448
   A40        2.09119  -0.00289   0.00000  -0.00735  -0.00738   2.08381
   A41        2.09600   0.00146   0.00000   0.00371   0.00372   2.09973
   A42        2.09599   0.00144   0.00000   0.00365   0.00366   2.09964
   A43        2.10656   0.00433   0.00000   0.00868   0.00866   2.11522
   A44        2.09859   0.00351   0.00000   0.00700   0.00698   2.10556
   A45        2.07625  -0.00788   0.00000  -0.01611  -0.01610   2.06015
   A46        2.10250   0.00395   0.00000   0.00896   0.00897   2.11146
   A47        2.08909  -0.00059   0.00000  -0.00039  -0.00040   2.08870
   A48        2.09159  -0.00336   0.00000  -0.00856  -0.00857   2.08302
   A49        2.10280   0.00406   0.00000   0.00917   0.00917   2.11198
   A50        2.08809  -0.00071   0.00000  -0.00069  -0.00069   2.08740
   A51        2.09228  -0.00335   0.00000  -0.00848  -0.00848   2.08380
   A52        2.09815   0.00101   0.00000   0.00182   0.00182   2.09996
   A53        2.09003  -0.00047   0.00000  -0.00080  -0.00080   2.08923
   A54        2.09500  -0.00054   0.00000  -0.00102  -0.00102   2.09399
   A55        2.09783   0.00099   0.00000   0.00172   0.00172   2.09954
   A56        2.09047  -0.00048   0.00000  -0.00082  -0.00081   2.08966
   A57        2.09489  -0.00051   0.00000  -0.00091  -0.00090   2.09399
[...]
 5,-0.00032301,0.00040131,-0.00021641,0.00046100,-0.00011724,-0.0002322
 3,0.00041031,0.00004204,0.00012974,-0.00001790,0.00003338,0.00003333,-
 0.00038628,0.00038982,-0.00014411,0.00000519,-0.00007320,0.00009708,-0
 .00014439,-0.00043136,-0.00005648,0.00000389,-0.00001341,0.00001512,0.
 00000908,0.00001638,-0.00000573,0.00001480,-0.00000883,0.00000248,-0.0
 0146855,0.00083187,0.00014459,-0.00009975,0.00039148,0.00019109,-0.000
 22124,0.00019527,-0.00043000,-0.00007965,-0.00011409,-0.00059590,0.000
 35087,-0.00002839,0.00004096,0.00043335,0.00020831,0.00015420,-0.00003
 635,0.00002237,-0.00000352,-0.00023414,-0.00018143,0.00037351,-0.00001
 762,0.00004216,-0.00000641,0.00003979,-0.00003356,0.00002030,0.0000050
 8,0.00000078,-0.00000637,0.05878838,-0.08479630,0.05662309,0.02481109,
 0.01621083,-0.10032419,0.07591777,0.00832060,-0.29279215,-0.08043951,0
 .07100388,0.04527741,0.00021817,0.00011837,-0.00122078,-0.11231344,-0.
 10836589,0.69353651,-0.00073575,-0.00134345,-0.00259018,-0.00056911,-0
 .00069392,0.00091774,-0.00016644,-0.00023748,0.00016816,0.00010061,-0.
 00005513,0.00009298,0.00001523,0.00012783,0.00001428,0.00001562,-0.000
 04292,-0.00003425,-0.00000866,-0.00001541,-0.00000608,-0.00000196,-0.0
 0003846,-0.00000464,-0.00003643,-0.00002836,-0.00002887,0.00001564,-0.
 00000100,0.00000726,0.00001417,-0.00001368,-0.00000662,0.00000186,0.00
 000440,-0.00000089,0.00000739,-0.00000837,0.00000040,0.00036948,0.0000
 6035,-0.00002915,-0.00003513,0.00009768,-0.00011918,-0.00010656,0.0000
 1620,-0.00015434,-0.00010032,-0.00002028,-0.00006005,0.00001612,-0.000
 07280,0.00008864,0.00006544,0.00003193,0.00003406,-0.00003320,-0.00000
 155,0.00004898,-0.00007355,-0.00004423,0.00001668,-0.00001221,-0.00002
 921,-0.00000653,-0.00000018,-0.00001148,-0.00001092,-0.00000065,-0.000
 01634,-0.00000003,0.00181968,0.01326861,-0.02103556,0.00075860,0.00716
 344,0.00171594,-0.06630675,0.03123327,-0.02903875,-0.00104370,-0.00006
 641,0.00033154,-0.00006580,0.00049696,-0.00107851,0.00795189,-0.010774
 75,0.01916945,0.05821569,-0.00266767,-0.00129387,-0.00036193,0.0006512
 1,0.00004734,-0.00026406,0.00007462,0.00038951,0.00014753,-0.00016411,
 0.00006166,-0.00006872,-0.00004349,0.00009252,-0.00006066,-0.00002585,
 0.00004354,-0.00001947,-0.00000143,-0.00002636,0.00003241,-0.00001075,
 -0.00003375,-0.00002100,0.00000460,-0.00002395,0.00003797,-0.00001893,
 0.00001599,0.00000130,-0.00001635,0.00000848,0.00000072,-0.00002079,-0
 .00000033,0.00000149,-0.00000716,-0.00000003,0.00000407,0.00024488,0.0
 0001558,-0.00047473,-0.00020932,0.00003615,0.00016721,-0.00015368,-0.0
 0002857,-0.00036550,-0.00012831,-0.00005129,-0.00013609,0.00012580,-0.
 00001721,0.00011099,0.00008612,0.00007669,-0.00009906,0.00003021,-0.00
 003142,0.00000533,-0.00002043,-0.00004255,0.00007349,0.00002644,0.0000
 0230,0.00000053,-0.00000356,-0.00001254,0.00001687,0.00001561,0.000007
 34,0.00001508,0.00184958,-0.00764320,0.02523743,0.00723963,0.00010761,
 0.00044604,0.03155697,-0.14081414,0.13286977,-0.00002844,-0.00050616,-
 0.00099760,0.00004435,-0.00063162,0.00117873,0.00071283,0.00906824,-0.
 00972186,-0.04011761,0.13896239,0.00010404,-0.00137066,-0.00012500,-0.
 00018602,-0.00044591,0.00090274,-0.00015156,-0.00019786,0.00019912,0.0
 0004881,-0.00004473,0.00006670,-0.00003883,0.00012885,0.00002477,0.000
 00154,-0.00005247,-0.00002411,0.00000182,-0.00000075,-0.00001032,0.000
 02311,-0.00001055,-0.00000455,-0.00001547,-0.00001512,-0.00001158,-0.0
 0001995,0.00001369,0.00000256,0.00000435,0.00000330,-0.00000790,-0.000
 01080,-0.00000084,-0.00000750,-0.00000275,-0.00000121,-0.00000265,-0.0
 0007365,-0.00018408,0.00013289,0.00009397,0.00001374,-0.00008578,0.000
 02067,0.00004882,0.00004703,0.00000977,-0.00000813,0.00007085,-0.00004
 419,0.00002582,-0.00000235,-0.00001867,-0.00004070,-0.00001009,-0.0000
 0637,0.00000882,-0.00000736,0.00003161,0.00001239,-0.00000771,-0.00000
 470,0.00000887,-0.00000578,0.00000033,0.00000432,0.00000890,-0.0000018
 4,0.00000793,0.00000579,0.00285127,-0.00160618,0.00209565,0.00156169,0
 .00093906,0.00210086,-0.02899286,0.13384890,-0.28206770,0.00027402,-0.
 00088183,0.00039481,0.00004011,-0.00009649,-0.00005257,-0.00735639,0.0
 1799871,-0.01821104,0.02796234,-0.14624722,0.29716852,-0.00022858,-0.0
 0042936,-0.00130241,-0.00028400,-0.00039412,0.00031296,0.00028781,0.00
 024726,0.00017286,0.00010009,-0.00018885,0.00008935,-0.00026863,0.0000
 7381,0.00007097,-0.00018313,-0.00004488,-0.00007153,0.00000714,-0.0000
 2781,-0.00001160,0.00018770,-0.00016799,0.00004254,0.00000387,0.000026
 62,-0.00002468,0.00002418,0.00022769,0.00001150,-0.00001251,0.00001930
 ,-0.00000369,-0.00001855,-0.00001220,0.00000330,-0.00001649,0.00000503
 ,0.00000110,0.00029813,-0.00041294,-0.00024894,0.00008939,-0.00006695,
 0.00009871,0.00020399,0.00006351,0.00018750,-0.00001798,0.00002764,0.0
 0025118,-0.00028954,-0.00006786,0.00019964,-0.00014832,-0.00009202,-0.
 00001139,0.00000095,-0.00000671,-0.00001353,0.00011434,0.00009205,-0.0
 0008720,0.00003200,0.00003173,0.00002626,-0.00000784,0.00002586,0.0000
 1013,0.00000429,0.00000292,0.00001679,-0.02780547,0.03440517,-0.027850
 52,-0.02846657,0.01492679,0.05754304,0.04474477,-0.03553579,-0.0012940
 0,-0.21809552,0.15189830,-0.01786171,0.00321701,0.00392153,0.00464068,
 -0.12677471,0.03567551,0.02444616,0.00235836,0.00478921,0.00526071,0.4
 9463315,-0.00024102,-0.00027161,0.00178622,0.00011065,0.00085409,-0.00
 016023,-0.00037785,-0.00039374,0.00000174,-0.00028482,0.00030226,-0.00
 014602,0.00036448,-0.00010537,-0.00019751,0.00030856,0.00005362,0.0001
 2071,-0.00001296,0.00001685,0.00001039,-0.00029963,0.00026346,-0.00010
 271,-0.00002827,-0.00005613,0.00005912,-0.00008215,-0.00033133,-0.0000
 3373,0.00000602,-0.00001401,0.00000673,0.00002313,0.00001601,-0.000003
 12,0.00001536,-0.00001084,0.00000040,-0.00060430,0.00065138,0.00009216
 ,-0.00015161,0.00026680,0.00016115,-0.00026860,0.00003735,-0.00040951,
 -0.00005608,-0.00010108,-0.00042017,0.00026974,0.00003224,-0.00004076,
 0.00030556,0.00018253,0.00004231,0.00000123,0.00000440,0.00000589,-0.0
 0016731,-0.00013298,0.00026231,-0.00001290,0.00002669,-0.00000809,0.00
 002389,-0.00003308,0.00000199,0.00000204,-0.00000210,-0.00000532,0.034
 84116,-0.06286591,0.03917872,0.03598827,0.00825798,-0.08202551,-0.0574
 6376,0.05473916,0.03400948,0.12660643,-0.24182383,0.05135247,0.0036843
 7,0.00483418,0.00065119,0.06162348,-0.18124758,0.06948746,0.00506608,0
 .00405848,-0.00084029,-0.27219631,0.50514463,-0.00108257,0.00004186,-0
 .00170291,0.00006141,-0.00080959,0.00009030,0.00014431,0.00035715,-0.0
 0020871,0.00026589,-0.00007206,0.00007589,-0.00019775,-0.00005259,0.00
 010998,-0.00018844,0.00000022,-0.00007071,0.00000323,-0.00000611,-0.00
 001667,0.00013900,-0.00017739,0.00009035,-0.00004403,0.00002546,-0.000
 07144,0.00011339,0.00014670,0.00005611,0.00001814,-0.00001323,-0.00000
 911,0.00003829,-0.00000003,-0.00000893,0.00001104,-0.00000141,-0.00000
 498,0.00130109,-0.00041017,-0.00008350,0.00007874,-0.00009496,-0.00033
 590,-0.00001169,-0.00028477,0.00016573,-0.00000080,0.00002655,0.000329
 80,-0.00014375,-0.00001594,0.00000221,-0.00021959,-0.00006338,-0.00006
 505,0.00001974,-0.00000082,0.00002882,0.00008407,0.00005630,-0.0002325
 9,-0.00001705,-0.00006044,-0.00001771,-0.00003782,0.00000699,-0.000038
 54,-0.00001376,-0.00000705,0.00000127,-0.02823072,0.04105283,-0.028625
 14,0.01142319,-0.03308860,0.05637306,0.04495297,-0.01455107,-0.0632280
 4,0.04069957,-0.01184290,-0.15742379,0.00473608,0.00028292,-0.00382702
 ,-0.03377964,0.13261746,-0.30010672,0.00486200,-0.00022588,-0.00204513
 ,-0.16219464,-0.08416537,0.75905723,0.00033476,-0.00068403,0.00042111,
 -0.00008573,-0.00003850,0.00016588,0.00008861,-0.00002534,-0.00002595,
 0.00003476,-0.00000549,-0.00001515,-0.00004747,0.00002067,-0.00000707,
 -0.00003282,0.00000756,-0.00002329,0.00000310,-0.00000601,0.00000853,0
 .00001756,-0.00002040,-0.00001599,0.00000377,-0.00000739,0.00001813,-0
 .00002598,0.00003849,-0.00001758,-0.00000564,0.00000196,0.00000772,-0.
 00001667,-0.00000534,0.00000814,-0.00000659,0.00000168,0.00000819,-0.0
 0009538,0.00002376,0.00005361,0.00002791,0.00000855,-0.00004080,-0.000
 00355,0.00002641,0.00002413,0.00000847,0.00000062,0.00000069,0.0000103
 4,0.00001730,0.00000573,0.00001316,-0.00000247,0.00001251,-0.00000536,
 0.00000265,-0.00000428,-0.00000340,-0.00000132,0.00000873,-0.00000303,
 -0.00000364,-0.00000566,0.00000223,-0.00000149,0.00000670,-0.00000044,
 0.00000319,0.00000150,0.00212362,0.00481722,0.00511513,0.00786537,-0.0
 1067925,0.01860165,-0.00118681,0.00005210,0.00035367,-0.06683053,0.032
 21516,-0.02970621,-0.00170343,-0.00276720,-0.00171350,0.00125581,0.007
 37099,0.00201434,-0.00056514,-0.00061416,-0.00028548,0.00285703,0.0128
 2282,-0.02265600,0.05795785,0.00005263,0.00007435,-0.00043968,0.000057
 42,-0.00004074,-0.00008816,-0.00006407,0.00004728,0.00008255,0.0000186
 7,-0.00004927,0.00002665,-0.00003979,0.00002753,0.00001716,-0.00002697
 ,-0.00001334,-0.00001247,0.00000070,-0.00000906,-0.00001237,0.00003322
 ,-0.00001636,-0.00000823,0.00001147,-0.00000770,0.00001024,0.00000033,
 0.00003584,-0.00000309,0.00000048,0.00000064,-0.00000271,-0.00001789,-
 0.00000851,0.00000564,-0.00000800,0.00000405,0.00000235,-0.00002395,0.
 00006854,0.00002081,0.00003088,0.00000122,-0.00003789,-0.00001255,0.00
 000759,-0.00001793,-0.00001641,-0.00001263,0.00000485,-0.00000930,-0.0
 0000443,0.00000800,0.00001188,0.00000259,0.00000578,-0.00000763,-0.000
 00510,0.00000313,-0.00000731,-0.00000403,0.00000919,-0.00000023,-0.000
 00319,-0.00000542,0.00000036,-0.00000261,0.00000719,0.00000140,0.00000
 317,0.00000649,0.00456564,0.00385670,-0.00027250,0.00065277,0.00912095
 ,-0.00982295,-0.00006815,-0.00045652,-0.00095150,0.03199454,-0.1420175
 2,0.13505204,-0.00296993,-0.00149588,-0.00076470,0.00754964,0.00055718
 ,0.00068934,-0.00061828,-0.00053640,-0.00015424,0.00157996,-0.00700818
 ,0.02506796,-0.04003742,0.13996844,-0.00054514,0.00087698,-0.00055774,
 0.00017634,-0.00007140,-0.00035835,-0.00029370,0.00007567,-0.00003666,
 0.00008712,-0.00001245,0.00004691,0.00005080,-0.00000934,0.00003247,-0
 .00000937,-0.00000661,0.00001851,-0.00001180,0.00001102,-0.00002159,-0
 .00001422,-0.00001428,0.00000776,-0.00002485,-0.00002084,-0.00001176,0
 .00005093,-0.00002449,0.00003111,0.00002155,-0.00002415,-0.00001353,0.
 00002208,0.00000755,-0.00000302,0.00001997,-0.00000638,-0.00000640,0.0
 0027287,0.00012024,-0.00001498,-0.00001792,-0.00008256,-0.00008356,-0.
 00009333,-0.00010514,-0.00007194,0.00002444,0.00001190,0.00000296,0.00
 001980,0.00007566,-0.00000481,-0.00000715,0.00000134,-0.00001466,-0.00
 000893,0.00000049,0.00002521,-0.00001272,-0.00001439,-0.00002820,-0.00
 002753,-0.00001817,-0.00001230,-0.00000614,-0.00000617,-0.00002048,-0.
 00000914,-0.00000572,-0.00001246,0.00511389,-0.00084415,-0.00198937,-0
 .00719425,0.01798433,-0.01798631,0.00037847,-0.00100558,0.00041650,-0.
 02961175,0.13511809,-0.28488180,-0.00084001,-0.00161780,0.00076180,0.0
 0171259,0.00108749,0.00226358,-0.00029739,-0.00014305,-0.00018500,0.00
 328551,-0.00280775,0.00398329,0.02947179,-0.14782093,0.29811834,-0.000
 47825,0.00058881,-0.00049212,-0.00002339,-0.00004469,0.00005783,0.0000
 5445,-0.00009210,0.00024663,-0.00010032,0.00000740,-0.00002811,-0.0000
 1791,0.00007673,-0.00000688,0.00003539,-0.00000775,-0.00000594,0.00000
 402,-0.00000641,-0.00000294,-0.00000800,0.00003017,-0.00000791,0.00001
 460,-0.00000101,0.00000863,-0.00003245,-0.00002080,-0.00000985,-0.0000
 0853,0.00001204,-0.00000017,-0.00002153,-0.00000271,-0.00000882,-0.000
 01188,0.00000394,-0.00000134,-0.00011499,-0.00008667,-0.00007324,0.000
 03886,0.00002769,-0.00000211,0.00006945,0.00002310,0.00005227,-0.00001
 430,-0.00000107,0.00000574,-0.00001847,-0.00003504,0.00000599,0.000000
 18,-0.00000665,0.00001706,-0.00001103,0.00000023,-0.00000886,0.0000063
 7,0.00000166,0.00001372,0.00000629,0.00000684,-0.00000059,-0.00000277,
 0.00000805,0.00001798,0.00000510,0.00000651,0.00001051,0.00350417,0.00
 384030,0.00497646,-0.00012372,-0.00098003,0.00026053,-0.00691950,0.015
 54299,-0.00442427,0.00515247,0.00339515,0.00090145,-0.00065173,-0.0005
 2729,-0.00028979,-0.19448822,0.15938218,-0.00417702,-0.00192989,-0.003
 14275,-0.00084568,0.00240669,0.00186098,0.00326068,-0.00016015,0.00005
 770,0.00004515,0.19563714,0.00004580,-0.00023834,0.00025408,-0.0000037
 0,-0.00001705,0.00000788,-0.00002204,-0.00010135,-0.00021013,0.0000361
 3,0.00003063,-0.00000504,0.00006232,0.00000101,-0.00001140,0.00003149,
 0.00001179,0.00001863,-0.00000360,0.00000158,0.00000106,-0.00005175,0.
 00001489,-0.00000802,-0.00001499,-0.00001093,0.00000891,0.00000300,-0.
 00004700,-0.00000694,0.00000595,-0.00001241,0.00000582,0.00000698,0.00
 000553,0.00000398,0.00000879,-0.00000504,0.00000293,0.00017638,0.00001
 262,-0.00003580,-0.00005139,-0.00002842,-0.00002570,-0.00003479,-0.000
 06182,-0.00001498,0.00000596,0.00003619,-0.00000933,0.00005370,0.00000
 651,0.00001841,-0.00002052,0.00000381,-0.00001091,0.00000343,-0.000004
 70,0.00001377,-0.00001813,-0.00000661,-0.00003878,-0.00000736,-0.00003
 164,-0.00000158,-0.00000145,-0.00000549,-0.00001348,0.00000013,-0.0000
 1185,-0.00001154,0.00377912,0.00485892,0.00032625,-0.00103325,0.000189
 27,-0.00003286,0.00409420,-0.00067811,0.00432475,0.00324751,0.00299583
 ,0.00480331,-0.00049948,-0.00060988,-0.00023586,0.15949548,-0.22794957
 ,0.01480926,-0.00275843,-0.00146104,-0.00163209,0.01324441,-0.00738633
 ,-0.00337961,0.00056843,-0.00064536,-0.00007295,-0.17740512,0.23248495
 ,0.00079643,-0.00094741,0.00041245,-0.00002947,0.00006727,0.00006722,0
 .00002297,-0.00006820,-0.00038793,0.00005279,-0.00000898,0.00003239,0.
 00005614,-0.00001190,0.00001568,0.00001347,-0.00000278,0.00003530,0.00
 000031,-0.00000199,-0.00001918,-0.00002794,0.00000651,0.00001338,-0.00
 000304,0.00000508,-0.00000748,0.00002305,-0.00003300,-0.00000004,0.000
 00883,-0.00000930,0.00000009,0.00000827,0.00000266,0.00000087,0.000005
 44,-0.00000130,-0.00000276,0.00010338,0.00005591,0.00005301,-0.0000328
 6,-0.00000747,-0.00002354,-0.00003729,-0.00002082,-0.00005154,-0.00001
 411,-0.00000163,-0.00001331,0.00002361,-0.00000451,-0.00000268,-0.0000
 0017,0.00001618,-0.00000770,0.00000676,-0.00000823,0.00000975,-0.00002
 243,-0.00001076,-0.00001121,-0.00000356,-0.00001364,-0.00000285,0.0000
 0171,-0.00000776,-0.00000687,0.00000149,-0.00000621,-0.00000247,0.0044
 5870,0.00069401,-0.00376986,0.00014655,0.00000988,-0.00126693,0.021419
 20,-0.02376075,0.00680921,0.00129832,0.00442857,-0.00442602,-0.0002483
 4,-0.00027906,-0.00000097,-0.00430123,0.01499268,-0.07155813,-0.001736
 47,-0.00075012,0.00074821,-0.02243490,0.02450636,0.00489383,-0.0010428
 4,0.00109238,-0.00004031,0.00218285,-0.01820387,0.06777196,-0.00046074
 ,-0.00056465,-0.00035128,-0.00000348,-0.00009630,0.00014410,0.00005334
 ,-0.00001873,0.00004564,-0.00005709,-0.00000970,0.00001434,0.00000640,
 0.00003664,-0.00000272,0.00002129,-0.00001806,0.00001336,0.00000220,-0
 .00001224,-0.00001835,0.00000713,0.00001522,-0.00000277,0.00001499,-0.
 00000077,0.00000358,-0.00000658,-0.00000713,-0.00000772,-0.00000283,0.
 00000874,-0.00000341,-0.00001691,-0.00000659,-0.00000005,-0.00001193,0
 .00000447,-0.00000073,0.00002621,-0.00000976,-0.00011097,0.00002630,0.
 00002591,-0.00002177,-0.00000439,-0.00000019,-0.00001227,-0.00001705,-
 0.00000993,0.00000863,-0.00001669,-0.00001443,0.00000512,0.00000604,0.
 00000683,-0.00000214,-0.00000210,-0.00000338,-0.00000222,-0.00000150,-
 0.00000019,0.00000809,0.00000409,-0.00000107,-0.00000308,-0.00000207,-
 0.00000030,0.00000815,0.00000370,0.00000325,0.00000786,-0.00054520,-0.
 00007339,-0.00087523,0.00200419,0.00735710,0.00034807,0.00476527,0.004
 10803,0.00029208,-0.00677644,0.00323808,0.02200847,-0.00058901,0.00013
 868,0.00091851,0.00739741,0.00038862,-0.00661257,0.00006565,-0.0000572
 7,-0.00023493,-0.14895307,0.04832333,0.13660541,-0.00182623,-0.0026918
 0,-0.00172797,-0.00179816,-0.00294319,-0.00069561,0.14668726,-0.000520
 00,-0.00042268,-0.00027393,0.00005785,-0.00005216,0.00002833,0.0000239
 2,0.00000541,-0.00001640,0.00000701,0.00004746,-0.00003448,-0.00001432
 ,-0.00001380,-0.00005009,-0.00002488,0.00002114,-0.00000842,-0.0000035
 9,-0.00000180,0.00001586,-0.00000915,-0.00001150,-0.00000919,0.0000007
 0,-0.00000500,0.00001265,0.00000378,0.00000573,0.00000954,0.00000196,-
 0.00000675,-0.00000124,0.00000043,0.00000271,0.00000389,0.00000585,-0.
 00000181,0.00000188,0.00007576,0.00003477,-0.00009997,-0.00003222,-0.0
 0000339,-0.00001067,-0.00003973,-0.00002686,-0.00003174,0.00001158,0.0
 0001550,-0.00000746,0.00004354,0.00001308,0.00001277,-0.00000177,0.000
 00493,-0.00001207,0.00000260,-0.00000426,0.00000400,-0.00000401,-0.000
 00638,-0.00000793,-0.00000618,-0.00001046,-0.00000411,-0.00000146,-0.0
 0000349,-0.00000408,-0.00000016,-0.00000225,-0.00000425,-0.00014234,-0
 .00108048,0.00061608,0.00715259,0.00021944,0.00256673,0.00433108,0.001
 85333,0.00477562,0.01444387,0.00024337,-0.02406185,0.00057292,-0.00024
 131,-0.00104538,-0.01100959,0.00935944,0.01719869,-0.00055719,0.000160
 58,0.00076813,0.04835951,-0.07795802,-0.05035903,-0.00310012,-0.001439
 23,-0.00063646,-0.00251238,-0.00134057,-0.00171781,-0.05711586,0.07064
 533,-0.00017610,-0.00024067,-0.00007652,-0.00003892,-0.00005822,0.0000
 6160,-0.00005169,-0.00002300,-0.00006807,0.00004943,0.00001250,0.00000
 760,0.00003283,-0.00000807,-0.00001344,-0.00000259,0.00000928,0.000002
 21,-0.00000556,0.00000470,0.00000519,-0.00002003,-0.00001066,-0.000007
 96,-0.00001761,-0.00001231,0.00000249,0.00001362,-0.00000950,0.0000043
 3,0.00000663,-0.00001213,-0.00000014,0.00000995,0.00000484,0.00000498,
 0.00001065,-0.00000524,0.00000254,0.00012544,0.00002504,-0.00001285,-0
 .00002307,-0.00003797,-0.00002652,-0.00003809,-0.00004442,-0.00000970,
 0.00002749,0.00002956,0.00000339,0.00003136,0.00003901,0.00000269,-0.0
 0001351,-0.00000619,-0.00000443,-0.00000386,0.00000311,0.00001107,-0.0
 0000396,-0.00000092,-0.00002443,-0.00001235,-0.00001813,-0.00000257,-0
 .00000102,-0.00000258,-0.00001411,-0.00000472,-0.00000772,-0.00001265,
 -0.00097003,0.00053923,0.00028485,0.00085113,0.00211462,0.00202072,-0.
 00015035,0.00522873,-0.00269687,-0.00400974,0.00392012,0.00606180,-0.0
 0014237,0.00008551,0.00007017,0.01915068,-0.01080509,-0.01734743,0.000
 80798,-0.00038999,-0.00109529,0.13673986,-0.05037072,-0.26713530,-0.00
 074806,-0.00169696,0.00064676,-0.00167782,-0.00063818,0.00073841,-0.14
 974561,0.05238238,0.27861746||-0.00000404,0.00000407,0.00001895,-0.000
 00164,-0.00000052,0.00000128,0.00000141,-0.00000137,-0.00000253,0.0000
 0193,-0.00000086,0.00000298,0.00000204,-0.00000231,-0.00000199,-0.0000
 0271,0.00000357,-0.00000266,-0.00000162,-0.00000036,-0.00000086,-0.000
 00092,-0.00000350,0.00000266,-0.00000029,0.00000013,0.00000100,-0.0000
 0175,0.00000373,0.00000031,-0.00000007,-0.00000081,-0.00000007,0.00000
 164,0.00000058,-0.00000029,0.00000122,0.00000003,-0.00000004,-0.000024
 24,-0.00000630,0.00001497,0.00001870,0.00001108,0.00000494,-0.00000025
 ,-0.00000863,-0.00002506,-0.00000056,-0.00000689,-0.00002172,-0.000001
 06,-0.00000091,-0.00000016,0.00001959,0.00001125,0.00000754,-0.0000000
 9,0.00000074,0.00000159,-0.00001582,-0.00000193,0.00001728,-0.00000009
 ,-0.00000024,0.00000182,-0.00000176,-0.00000138,-0.00000235,0.00000159
 ,-0.00000049,-0.00000216,0.00000875,-0.00000262,-0.00000926,-0.0000005
 2,0.00000255,-0.00000472,-0.00000304,0.00000572,0.00000618,-0.00000375
 ,0.00000172,-0.00000086,0.00000311,-0.00000252,0.00000028,0.00000052,-
 0.00000195,-0.00000741,-0.00000065,0.00000047,-0.00000191,0.00000427,-
 0.00000373,0.00000169,0.00000157,-0.00000089,-0.00000024,-0.00000068,0
 .00000097,0.00000023,-0.00000078,0.00000160,0.00000062|||@


 MICRO CREDO - NEVER TRUST A COMPUTER BIGGER
               BIGGER THAN YOU CAN LIFT.
 Job cpu time:  0 days  0 hours  6 minutes 43.0 seconds.
 File lengths (MBytes):  RWF=    350 Int=      0 D2E=      0 Chk=      7 Scr=      1
 Normal termination of Gaussian 09 at Mon Sep 06 12:21:56 2021.
