 Entering Link 1 = b:\programy\g09w\l1.exe PID=     17280.
  
 Copyright (c) 1988,1990,1992,1993,1995,1998,2003,2009, Gaussian, Inc.
                  All Rights Reserved.
  
 This is part of the Gaussian(R) 09 program.  It is based on
 the Gaussian(R) 03 system (copyright 2003, Gaussian, Inc.),
 the Gaussian(R) 98 system (copyright 1998, Gaussian, Inc.),
 the Gaussian(R) 94 system (copyright 1995, Gaussian, Inc.),
 the Gaussian 92(TM) system (copyright 1992, Gaussian, Inc.),
 the Gaussian 90(TM) system (copyright 1990, Gaussian, Inc.),
 the Gaussian 88(TM) system (copyright 1988, Gaussian, Inc.),
 the Gaussian 86(TM) system (copyright 1986, Carnegie Mellon
 University), and the Gaussian 82(TM) system (copyright 1983,
 Carnegie Mellon University). Gaussian is a federally registered
 trademark of Gaussian, Inc.
  
 This software contains proprietary and confidential information,
 including trade secrets, belonging to Gaussian, Inc.
  
 This software is provided under written license and may be
 used, copied, transmitted, or stored only in accord with that
 written license.
  
 The following legend is applicable only to US Government
 contracts under FAR:
  
                    RESTRICTED RIGHTS LEGEND
  
 Use, reproduction and disclosure by the US Government is
 subject to restrictions as set forth in subparagraphs (a)
 and (c) of the Commercial Computer Software - Restricted
 Rights clause in FAR 52.227-19.
  
 Gaussian, Inc.
 340 Quinnipiac St., Bldg. 40, Wallingford CT 06492
  
  
 ---------------------------------------------------------------
 Warning -- This program may not be used in any manner that
 competes with the business of Gaussian, Inc. or will provide
 assistance to any competitor of Gaussian, Inc.  The licensee
 of this program is prohibited from giving any competitor of
 Gaussian, Inc. access to this program.  By using this program,
 the user acknowledges that Gaussian, Inc. is engaged in the
 business of creating and licensing software in the field of
 computational chemistry and represents and warrants to the
 licensee that it is not a competitor of Gaussian, Inc. and that
 it will not use this program in any manner prohibited above.
 ---------------------------------------------------------------
  

 Cite this work as:
 Gaussian 09, Revision A.02,
 M. J. Frisch, G. W. Trucks, H. B. Schlegel, G. E. Scuseria, 
 M. A. Robb, J. R. Cheeseman, G. Scalmani, V. Barone, B. Mennucci, 
 G. A. Petersson, H. Nakatsuji, M. Caricato, X. Li, H. P. Hratchian, 
 A. F. Izmaylov, J. Bloino, G. Zheng, J. L. Sonnenberg, M. Hada, 
 M. Ehara, K. Toyota, R. Fukuda, J. Hasegawa, M. Ishida, T. Nakajima, 
 Y. Honda, O. Kitao, H. Nakai, T. Vreven, J. A. Montgomery, Jr., 
 J. E. Peralta, F. Ogliaro, M. Bearpark, J. J. Heyd, E. Brothers, 
 K. N. Kudin, V. N. Staroverov, R. Kobayashi, J. Normand, 
 K. Raghavachari, A. Rendell, J. C. Burant, S. S. Iyengar, J. Tomasi, 
 M. Cossi, N. Rega, J. M. Millam, M. Klene, J. E. Knox, J. B. Cross, 
 V. Bakken, C. Adamo, J. Jaramillo, R. Gomperts, R. E. Stratmann, 
 O. Yazyev, A. J. Austin, R. Cammi, C. Pomelli, J. W. Ochterski, 
 R. L. Martin, K. Morokuma, V. G. Zakrzewski, G. A. Voth, 
 P. Salvador, J. J. Dannenberg, S. Dapprich, A. D. Daniels, 
 O. Farkas, J. B. Foresman, J. V. Ortiz, J. Cioslowski, 
 and D. J. Fox, Gaussian, Inc., Wallingford CT, 2009.
 
 ******************************************
 Gaussian 09:  IA32W-G09RevA.02 11-Jun-2009
                06-Sep-2021 
 ******************************************
 %nprocshared=12
 Will use up to   12 processors via shared memory.
 ----------------------------------------------
 # opt freq=noraman hf/6-311g geom=connectivity
 ----------------------------------------------
 1/18=20,19=15,38=1,57=2/1,3;
 2/9=110,12=2,17=6,18=5,40=1/2;
 3/5=4,6=6,11=9,16=1,25=1,30=1,71=1/1,2,3;
 4//1;
 5/5=2,38=5/2;
 6/7=2,8=2,9=2,10=2,28=1/1;
 7//1,2,3,16;
 1/18=20,19=15/3(2);
 2/9=110/2;
 99//99;
 2/9=110/2;
 3/5=4,6=6,11=9,16=1,25=1,30=1,71=1/1,2,3;
 4/5=5,16=3/1;
 5/5=2,38=5/2;
 7//1,2,3,16;
 1/18=20,19=15/3(-5);
 2/9=110/2;
 6/7=2,8=2,9=2,10=2,19=2,28=1/1;
 99/9=1/99;
 -----
 M0001
 -----
 Symbolic Z-matrix:
 Charge =  0 Multiplicity = 1
 C                    -0.10391   0.04374  -0.78733 
 H                    -0.25092   0.10511  -1.89867 
 C                    -1.47465   0.09024  -0.15861 
 C                    -1.74014  -0.49784   1.07883 
 C                    -2.50617   0.74486  -0.83727 
 C                    -3.01596  -0.43382   1.62808 
 H                    -0.93617  -1.02128   1.61289 
 C                    -3.77973   0.80931  -0.28464 
 H                    -2.31187   1.21301  -1.80923 
 C                    -4.03742   0.22002   0.94856 
 H                    -3.21446  -0.90152   2.59786 
 H                    -4.58156   1.32515  -0.82279 
 H                    -5.04141   0.27005   1.38184 
 C                     0.59797  -1.26225  -0.5077 
 C                     1.41896  -1.43597   0.60739 
 C                     0.41579  -2.32868  -1.39257 
 C                     2.0487   -2.65492   0.83332 
 H                     1.57306  -0.59947   1.30177 
 C                     1.04441  -3.54667  -1.16269 
 H                    -0.22781  -2.2074   -2.27161 
 C                     1.86231  -3.71226  -0.04994 
 H                     2.69365  -2.77951   1.70922 
 H                     0.89499  -4.37702  -1.86045 
 H                     2.35827  -4.67157   0.12891 
 C                     0.73761   1.2308   -0.38841 
 C                     0.66521   1.79263   0.88697 
 C                     1.61682   1.77981  -1.32591 
 C                     1.45747   2.88596   1.21925 
 H                    -0.02989   1.37154   1.62528 
 C                     2.40921   2.87109  -0.99012 
 H                     1.68576   1.34777  -2.331 
 C                     2.33105   3.42659   0.28256 
 H                     1.39043   3.32132   2.22155 
 H                     3.09594   3.29402  -1.73052 
 H                     2.95447   4.28718   0.54517 
 

 GradGradGradGradGradGradGradGradGradGradGradGradGradGradGradGradGradGrad
 Berny optimization.
 Initialization pass.
                           ----------------------------
                           !    Initial Parameters    !
                           ! (Angstroms and Degrees)  !
 --------------------------                            --------------------------
 ! Name  Definition              Value          Derivative Info.                !
 --------------------------------------------------------------------------------
 ! R1    R(1,2)                  1.1227         estimate D2E/DX2                !
 ! R2    R(1,3)                  1.5088         estimate D2E/DX2                !
 ! R3    R(1,14)                 1.5088         estimate D2E/DX2                !
 ! R4    R(1,25)                 1.5088         estimate D2E/DX2                !
 ! R5    R(3,4)                  1.3956         estimate D2E/DX2                !
 ! R6    R(3,5)                  1.3975         estimate D2E/DX2                !
 ! R7    R(4,6)                  1.3905         estimate D2E/DX2                !
 ! R8    R(4,7)                  1.098          estimate D2E/DX2                !
 ! R9    R(5,8)                  1.3898         estimate D2E/DX2                !
 ! R10   R(5,9)                  1.0962         estimate D2E/DX2                !
 ! R11   R(6,10)                 1.3902         estimate D2E/DX2                !
 ! R12   R(6,11)                 1.0948         estimate D2E/DX2                !
 ! R13   R(8,10)                 1.3908         estimate D2E/DX2                !
 ! R14   R(8,12)                 1.0948         estimate D2E/DX2                !
 ! R15   R(10,13)                1.0946         estimate D2E/DX2                !
 ! R16   R(14,15)                1.3956         estimate D2E/DX2                !
 ! R17   R(14,16)                1.3977         estimate D2E/DX2                !
 ! R18   R(15,17)                1.3905         estimate D2E/DX2                !
 ! R19   R(15,18)                1.098          estimate D2E/DX2                !
 ! R20   R(16,19)                1.3898         estimate D2E/DX2                !
 ! R21   R(16,20)                1.0962         estimate D2E/DX2                !
 ! R22   R(17,21)                1.3903         estimate D2E/DX2                !
 ! R23   R(17,22)                1.0948         estimate D2E/DX2                !
 ! R24   R(19,21)                1.3909         estimate D2E/DX2                !
 ! R25   R(19,23)                1.0948         estimate D2E/DX2                !
 ! R26   R(21,24)                1.0946         estimate D2E/DX2                !
 ! R27   R(25,26)                1.3955         estimate D2E/DX2                !
 ! R28   R(25,27)                1.3976         estimate D2E/DX2                !
 ! R29   R(26,28)                1.3905         estimate D2E/DX2                !
 ! R30   R(26,29)                1.098          estimate D2E/DX2                !
 ! R31   R(27,30)                1.3898         estimate D2E/DX2                !
 ! R32   R(27,31)                1.0962         estimate D2E/DX2                !
 ! R33   R(28,32)                1.3903         estimate D2E/DX2                !
 ! R34   R(28,33)                1.0948         estimate D2E/DX2                !
 ! R35   R(30,32)                1.3908         estimate D2E/DX2                !
 ! R36   R(30,34)                1.0948         estimate D2E/DX2                !
 ! R37   R(32,35)                1.0946         estimate D2E/DX2                !
 ! A1    A(2,1,3)              106.9688         estimate D2E/DX2                !
 ! A2    A(2,1,14)             106.9586         estimate D2E/DX2                !
 ! A3    A(2,1,25)             106.9628         estimate D2E/DX2                !
 ! A4    A(3,1,14)             111.8444         estimate D2E/DX2                !
 ! A5    A(3,1,25)             111.8577         estimate D2E/DX2                !
 ! A6    A(14,1,25)            111.8731         estimate D2E/DX2                !
 ! A7    A(1,3,4)              121.9614         estimate D2E/DX2                !
 ! A8    A(1,3,5)              118.8583         estimate D2E/DX2                !
 ! A9    A(4,3,5)              119.1802         estimate D2E/DX2                !
 ! A10   A(3,4,6)              120.358          estimate D2E/DX2                !
 ! A11   A(3,4,7)              119.5302         estimate D2E/DX2                !
 ! A12   A(6,4,7)              120.1091         estimate D2E/DX2                !
 ! A13   A(3,5,8)              120.3308         estimate D2E/DX2                !
 ! A14   A(3,5,9)              119.9867         estimate D2E/DX2                !
 ! A15   A(8,5,9)              119.6823         estimate D2E/DX2                !
 ! A16   A(4,6,10)             120.1817         estimate D2E/DX2                !
 ! A17   A(4,6,11)             119.7744         estimate D2E/DX2                !
 ! A18   A(10,6,11)            120.0439         estimate D2E/DX2                !
 ! A19   A(5,8,10)             120.1787         estimate D2E/DX2                !
 ! A20   A(5,8,12)             119.8366         estimate D2E/DX2                !
 ! A21   A(10,8,12)            119.9847         estimate D2E/DX2                !
 ! A22   A(6,10,8)             119.7705         estimate D2E/DX2                !
 ! A23   A(6,10,13)            120.1287         estimate D2E/DX2                !
 ! A24   A(8,10,13)            120.1007         estimate D2E/DX2                !
 ! A25   A(1,14,15)            121.9715         estimate D2E/DX2                !
 ! A26   A(1,14,16)            118.8479         estimate D2E/DX2                !
 ! A27   A(15,14,16)           119.1805         estimate D2E/DX2                !
 ! A28   A(14,15,17)           120.3563         estimate D2E/DX2                !
 ! A29   A(14,15,18)           119.5398         estimate D2E/DX2                !
 ! A30   A(17,15,18)           120.1011         estimate D2E/DX2                !
 ! A31   A(14,16,19)           120.3326         estimate D2E/DX2                !
 ! A32   A(14,16,20)           119.9868         estimate D2E/DX2                !
 ! A33   A(19,16,20)           119.6804         estimate D2E/DX2                !
 ! A34   A(15,17,21)           120.1826         estimate D2E/DX2                !
 ! A35   A(15,17,22)           119.771          estimate D2E/DX2                !
 ! A36   A(21,17,22)           120.0463         estimate D2E/DX2                !
 ! A37   A(16,19,21)           120.1753         estimate D2E/DX2                !
 ! A38   A(16,19,23)           119.8363         estimate D2E/DX2                !
 ! A39   A(21,19,23)           119.9884         estimate D2E/DX2                !
 ! A40   A(17,21,19)           119.7724         estimate D2E/DX2                !
 ! A41   A(17,21,24)           120.1295         estimate D2E/DX2                !
 ! A42   A(19,21,24)           120.0981         estimate D2E/DX2                !
 ! A43   A(1,25,26)            121.9685         estimate D2E/DX2                !
 ! A44   A(1,25,27)            118.8538         estimate D2E/DX2                !
 ! A45   A(26,25,27)           119.1776         estimate D2E/DX2                !
 ! A46   A(25,26,28)           120.3574         estimate D2E/DX2                !
 ! A47   A(25,26,29)           119.5359         estimate D2E/DX2                !
 ! A48   A(28,26,29)           120.1039         estimate D2E/DX2                !
 ! A49   A(25,27,30)           120.3347         estimate D2E/DX2                !
 ! A50   A(25,27,31)           119.9854         estimate D2E/DX2                !
 ! A51   A(30,27,31)           119.6797         estimate D2E/DX2                !
 ! A52   A(26,28,32)           120.1841         estimate D2E/DX2                !
 ! A53   A(26,28,33)           119.7724         estimate D2E/DX2                !
 ! A54   A(32,28,33)           120.0434         estimate D2E/DX2                !
 ! A55   A(27,30,32)           120.1759         estimate D2E/DX2                !
 ! A56   A(27,30,34)           119.8383         estimate D2E/DX2                !
 ! A57   A(32,30,34)           119.9858         estimate D2E/DX2                !
 ! A58   A(28,32,30)           119.7701         estimate D2E/DX2                !
 ! A59   A(28,32,35)           120.1289         estimate D2E/DX2                !
 ! A60   A(30,32,35)           120.1009         estimate D2E/DX2                !
 ! D1    D(2,1,3,4)            152.7428         estimate D2E/DX2                !
 ! D2    D(2,1,3,5)            -27.3864         estimate D2E/DX2                !
 ! D3    D(14,1,3,4)            35.9435         estimate D2E/DX2                !
 ! D4    D(14,1,3,5)          -144.1857         estimate D2E/DX2                !
 ! D5    D(25,1,3,4)           -90.4456         estimate D2E/DX2                !
 ! D6    D(25,1,3,5)            89.4253         estimate D2E/DX2                !
 ! D7    D(2,1,14,15)          152.5894         estimate D2E/DX2                !
 ! D8    D(2,1,14,16)          -27.5534         estimate D2E/DX2                !
 ! D9    D(3,1,14,15)          -90.6051         estimate D2E/DX2                !
 ! D10   D(3,1,14,16)           89.252          estimate D2E/DX2                !
 ! D11   D(25,1,14,15)          35.7755         estimate D2E/DX2                !
 ! D12   D(25,1,14,16)        -144.3673         estimate D2E/DX2                !
 ! D13   D(2,1,25,26)          152.7527         estimate D2E/DX2                !
 ! D14   D(2,1,25,27)          -27.3818         estimate D2E/DX2                !
 ! D15   D(3,1,25,26)           35.9374         estimate D2E/DX2                !
 ! D16   D(3,1,25,27)         -144.1971         estimate D2E/DX2                !
 ! D17   D(14,1,25,26)         -90.4359         estimate D2E/DX2                !
 ! D18   D(14,1,25,27)          89.4295         estimate D2E/DX2                !
 ! D19   D(1,3,4,6)            179.9383         estimate D2E/DX2                !
 ! D20   D(1,3,4,7)             -0.6677         estimate D2E/DX2                !
 ! D21   D(5,3,4,6)              0.0678         estimate D2E/DX2                !
 ! D22   D(5,3,4,7)            179.4618         estimate D2E/DX2                !
 ! D23   D(1,3,5,8)           -179.8246         estimate D2E/DX2                !
 ! D24   D(1,3,5,9)              0.0108         estimate D2E/DX2                !
 ! D25   D(4,3,5,8)              0.0499         estimate D2E/DX2                !
 ! D26   D(4,3,5,9)            179.8853         estimate D2E/DX2                !
 ! D27   D(3,4,6,10)            -0.1332         estimate D2E/DX2                !
 ! D28   D(3,4,6,11)           179.7867         estimate D2E/DX2                !
 ! D29   D(7,4,6,10)          -179.5237         estimate D2E/DX2                !
 ! D30   D(7,4,6,11)             0.3961         estimate D2E/DX2                !
 ! D31   D(3,5,8,10)            -0.1029         estimate D2E/DX2                !
 ! D32   D(3,5,8,12)           179.9323         estimate D2E/DX2                !
 ! D33   D(9,5,8,10)          -179.9387         estimate D2E/DX2                !
 ! D34   D(9,5,8,12)             0.0964         estimate D2E/DX2                !
 ! D35   D(4,6,10,8)             0.08           estimate D2E/DX2                !
 ! D36   D(4,6,10,13)         -179.9886         estimate D2E/DX2                !
 ! D37   D(11,6,10,8)         -179.8396         estimate D2E/DX2                !
 ! D38   D(11,6,10,13)           0.0917         estimate D2E/DX2                !
 ! D39   D(5,8,10,6)             0.0377         estimate D2E/DX2                !
 ! D40   D(5,8,10,13)         -179.8937         estimate D2E/DX2                !
 ! D41   D(12,8,10,6)         -179.9975         estimate D2E/DX2                !
 ! D42   D(12,8,10,13)           0.0711         estimate D2E/DX2                !
 ! D43   D(1,14,15,17)         179.9361         estimate D2E/DX2                !
 ! D44   D(1,14,15,18)          -0.6638         estimate D2E/DX2                !
 ! D45   D(16,14,15,17)          0.0794         estimate D2E/DX2                !
 ! D46   D(16,14,15,18)        179.4795         estimate D2E/DX2                !
 ! D47   D(1,14,16,19)        -179.8118         estimate D2E/DX2                !
 ! D48   D(1,14,16,20)           0.019          estimate D2E/DX2                !
 ! D49   D(15,14,16,19)          0.0494         estimate D2E/DX2                !
 ! D50   D(15,14,16,20)        179.8803         estimate D2E/DX2                !
 ! D51   D(14,15,17,21)         -0.1457         estimate D2E/DX2                !
 ! D52   D(14,15,17,22)        179.7757         estimate D2E/DX2                !
 ! D53   D(18,15,17,21)       -179.5424         estimate D2E/DX2                !
 ! D54   D(18,15,17,22)          0.379          estimate D2E/DX2                !
 ! D55   D(14,16,19,21)         -0.1127         estimate D2E/DX2                !
 ! D56   D(14,16,19,23)        179.9218         estimate D2E/DX2                !
 ! D57   D(20,16,19,21)       -179.944          estimate D2E/DX2                !
 ! D58   D(20,16,19,23)          0.0905         estimate D2E/DX2                !
 ! D59   D(15,17,21,19)          0.0822         estimate D2E/DX2                !
 ! D60   D(15,17,21,24)       -179.9828         estimate D2E/DX2                !
 ! D61   D(22,17,21,19)       -179.839          estimate D2E/DX2                !
 ! D62   D(22,17,21,24)          0.096          estimate D2E/DX2                !
 ! D63   D(16,19,21,17)          0.0466         estimate D2E/DX2                !
 ! D64   D(16,19,21,24)       -179.8884         estimate D2E/DX2                !
 ! D65   D(23,19,21,17)       -179.9879         estimate D2E/DX2                !
 ! D66   D(23,19,21,24)          0.0771         estimate D2E/DX2                !
 ! D67   D(1,25,26,28)         179.9327         estimate D2E/DX2                !
 ! D68   D(1,25,26,29)          -0.6698         estimate D2E/DX2                !
 ! D69   D(27,25,26,28)          0.0676         estimate D2E/DX2                !
 ! D70   D(27,25,26,29)        179.4652         estimate D2E/DX2                !
 ! D71   D(1,25,27,30)        -179.8194         estimate D2E/DX2                !
 ! D72   D(1,25,27,31)           0.0141         estimate D2E/DX2                !
 ! D73   D(26,25,27,30)          0.0499         estimate D2E/DX2                !
 ! D74   D(26,25,27,31)        179.8834         estimate D2E/DX2                !
 ! D75   D(25,26,28,32)         -0.1339         estimate D2E/DX2                !
 ! D76   D(25,26,28,33)        179.7887         estimate D2E/DX2                !
 ! D77   D(29,26,28,32)       -179.528          estimate D2E/DX2                !
 ! D78   D(29,26,28,33)          0.3946         estimate D2E/DX2                !
 ! D79   D(25,27,30,32)         -0.1018         estimate D2E/DX2                !
 ! D80   D(25,27,30,34)        179.9331         estimate D2E/DX2                !
 ! D81   D(31,27,30,32)       -179.9358         estimate D2E/DX2                !
 ! D82   D(31,27,30,34)          0.0991         estimate D2E/DX2                !
 ! D83   D(26,28,32,30)          0.0818         estimate D2E/DX2                !
 ! D84   D(26,28,32,35)       -179.9873         estimate D2E/DX2                !
 ! D85   D(33,28,32,30)       -179.8406         estimate D2E/DX2                !
 ! D86   D(33,28,32,35)          0.0903         estimate D2E/DX2                !
 ! D87   D(27,30,32,28)          0.0357         estimate D2E/DX2                !
 ! D88   D(27,30,32,35)       -179.8952         estimate D2E/DX2                !
 ! D89   D(34,30,32,28)       -179.9993         estimate D2E/DX2                !
 ! D90   D(34,30,32,35)          0.0698         estimate D2E/DX2                !
 --------------------------------------------------------------------------------
 Trust Radius=3.00D-01 FncErr=1.00D-07 GrdErr=1.00D-07
 Number of steps in this run= 197 maximum allowed number of steps= 210.
 GradGradGradGradGradGradGradGradGradGradGradGradGradGradGradGradGradGrad

                          Input orientation:                          
 ---------------------------------------------------------------------
 Center     Atomic      Atomic             Coordinates (Angstroms)
 Number     Number       Type             X           Y           Z
 ---------------------------------------------------------------------
      1          6           0       -0.103914    0.043740   -0.787329
      2          1           0       -0.250917    0.105106   -1.898666
      3          6           0       -1.474654    0.090237   -0.158611
      4          6           0       -1.740144   -0.497837    1.078828
      5          6           0       -2.506166    0.744857   -0.837270
      6          6           0       -3.015957   -0.433823    1.628078
      7          1           0       -0.936171   -1.021283    1.612891
      8          6           0       -3.779734    0.809308   -0.284638
      9          1           0       -2.311873    1.213007   -1.809232
     10          6           0       -4.037425    0.220015    0.948561
     11          1           0       -3.214462   -0.901516    2.597863
     12          1           0       -4.581559    1.325152   -0.822792
     13          1           0       -5.041413    0.270047    1.381836
     14          6           0        0.597971   -1.262249   -0.507704
     15          6           0        1.418956   -1.435971    0.607392
     16          6           0        0.415792   -2.328681   -1.392567
     17          6           0        2.048700   -2.654924    0.833321
     18          1           0        1.573065   -0.599469    1.301772
     19          6           0        1.044406   -3.546665   -1.162688
     20          1           0       -0.227809   -2.207402   -2.271609
     21          6           0        1.862310   -3.712263   -0.049942
     22          1           0        2.693652   -2.779511    1.709224
     23          1           0        0.894988   -4.377016   -1.860452
     24          1           0        2.358266   -4.671572    0.128909
     25          6           0        0.737608    1.230797   -0.388409
     26          6           0        0.665215    1.792630    0.886974
     27          6           0        1.616823    1.779814   -1.325907
     28          6           0        1.457470    2.885962    1.219251
     29          1           0       -0.029890    1.371538    1.625285
     30          6           0        2.409208    2.871095   -0.990123
     31          1           0        1.685762    1.347772   -2.331002
     32          6           0        2.331047    3.426589    0.282558
     33          1           0        1.390434    3.321323    2.221546
     34          1           0        3.095942    3.294017   -1.730520
     35          1           0        2.954471    4.287176    0.545172
 ---------------------------------------------------------------------
                    Distance matrix (angstroms):
                    1          2          3          4          5
     1  C    0.000000
     2  H    1.122696   0.000000
     3  C    1.508766   2.127333   0.000000
     4  C    2.540294   3.383314   1.395554   0.000000
     5  C    2.502973   2.573324   1.397542   2.408840   0.000000
     6  C    3.813430   4.513737   2.417129   1.390493   2.779769
     7  H    2.754629   3.750915   2.159550   1.097994   3.404030
     8  C    3.788198   3.943798   2.417921   2.779856   1.389795
     9  H    2.699361   2.341577   2.164740   3.405106   1.096186
    10  C    4.303126   4.738940   2.794721   2.410349   2.410270
    11  H    4.693458   5.478564   3.407148   2.155003   3.874579
    12  H    4.657529   4.626066   3.408668   3.874673   2.155042
    13  H    5.397720   5.808421   3.889355   3.402916   3.402551
    14  C    1.508787   2.127216   2.499371   2.927147   3.711166
    15  C    2.540457   3.382857   3.359917   3.329002   4.716953
    16  C    2.502956   2.573705   3.308715   3.756040   4.277012
    17  C    3.813534   4.513287   4.575353   4.366765   5.924204
    18  H    2.755053   3.750486   3.449203   3.322256   4.798212
    19  C    3.788211   3.943978   4.536616   4.698241   5.579393
    20  H    2.699274   2.342502   3.361328   4.054035   3.995507
    21  C    4.303178   4.738757   5.060251   4.958259   6.290421
    22  H    4.693602   5.477990   5.394352   5.026130   6.778194
    23  H    4.657519   4.626443   5.335523   5.534557   6.232843
    24  H    5.397776   5.808231   6.119539   5.926160   7.343970
    25  C    1.508774   2.127261   2.499557   3.358603   3.310541
    26  C    2.540366   3.383315   2.927529   3.326980   3.758789
    27  C    2.502989   2.573160   3.711399   4.715896   4.278895
    28  C    3.813464   4.513663   4.279245   4.657741   4.952173
    29  H    2.754856   3.751125   2.628947   2.591939   3.548077
    30  C    3.788250   3.943654   4.848605   5.731264   5.357719
    31  H    2.699327   2.341336   4.035952   5.173978   4.490769
    32  C    4.303180   4.738831   5.080279   5.710496   5.643078
    33  H    4.693501   5.478524   4.930902   5.068758   5.583728
    34  H    4.657573   4.625893   5.798746   6.757094   6.219303
    35  H    5.397779   5.808318   6.142211   6.724622   6.654151
                    6          7          8          9         10
     6  C    0.000000
     7  H    2.161214   0.000000
     8  C    2.405663   3.877825   0.000000
     9  H    3.875936   4.312253   2.154524   0.000000
    10  C    1.390196   3.405867   1.390845   3.401321   0.000000
    11  H    1.094817   2.484980   3.399303   4.970750   2.157614
    12  H    3.398804   4.972641   1.094819   2.477321   2.157568
    13  H    2.158365   4.309748   2.158651   4.303775   1.094633
    14  C    4.278823   2.628418   4.848238   4.035846   5.079834
    15  C    4.659887   2.594151   5.732658   5.174576   5.712335
    16  C    4.948907   3.545401   5.355083   4.489690   5.639847
    17  C    5.587099   3.490841   6.871782   6.399888   6.731974
    18  H    4.603589   2.563393   5.757934   5.296806   5.681012
    19  C    5.827925   4.243122   6.558796   5.859787   6.668603
    20  H    5.111449   4.122863   5.066041   4.031912   5.547524
    21  C    6.112398   4.223493   7.234110   6.691576   7.160077
    22  H    6.173206   4.034386   7.665497   7.305820   7.408317
    23  H    6.558514   5.165095   7.157805   6.444760   7.304242
    24  H    7.006304   5.136159   8.239303   7.758534   8.093473
    25  C    4.574541   3.446535   4.538149   3.364280   5.060643
    26  C    4.365472   3.318056   4.700762   4.058144   4.959005
    27  C    5.923586   4.795879   5.581124   3.998690   6.291001
    28  C    5.585666   4.599026   5.831165   5.116486   6.113462
    29  H    3.489403   2.558729   4.245614   4.126558   4.224251
    30  C    6.870944   5.754811   6.561377   5.070384   7.235039
    31  H    6.399575   5.295399   5.860819   4.033793   6.691953
    32  C    6.730799   5.676977   6.671845   5.552678   7.161222
    33  H    5.819759   4.964048   6.270710   5.865086   6.379675
    34  H    7.907735   6.786615   7.452468   5.794934   8.216562
    35  H    7.688077   6.667597   7.624544   6.536674   8.098835
                   11         12         13         14         15
    11  H    0.000000
    12  H    4.304403   0.000000
    13  H    2.487776   2.486985   0.000000
    14  C    4.930449   5.798401   6.141738   0.000000
    15  C    5.071112   6.758358   6.726561   1.395577   0.000000
    16  C    5.580240   6.216804   6.650698   1.397658   2.408963
    17  C    5.821420   7.908480   7.689345   2.417128   1.390492
    18  H    4.969054   6.789501   6.671865   2.159697   1.098021
    19  C    6.267098   7.449941   7.620964   2.418030   2.780019
    20  H    5.859795   5.790782   6.531171   2.164853   3.405230
    21  C    6.378463   8.215613   8.097541   2.794758   2.410427
    22  H    6.262776   8.728577   8.320950   3.407159   2.154990
    23  H    6.988795   7.973959   8.206612   3.408801   3.874861
    24  H    7.166893   9.221041   8.985803   3.889395   3.402993
    25  C    5.392906   5.337708   6.119958   2.499802   2.927031
    26  C    5.023690   5.538092   5.926951   3.358859   3.327184
    27  C    6.776933   6.235365   7.344615   3.310840   3.757403
    28  C    6.170294   6.563226   7.007491   4.574797   4.365199
    29  H    4.031648   5.168454   5.136917   3.446837   3.319242
    30  C    7.663674   7.161617   8.240351   4.538484   4.699305
    31  H    7.305149   6.446280   7.758965   3.364508   4.056423
    32  C    7.405795   7.309032   8.094772   5.060955   4.958015
    33  H    6.259317   6.994096   7.168267   5.393138   5.023759
    34  H    8.726890   7.977746   9.222131   5.338042   5.536326
    35  H    8.318161   8.211983   8.987296   6.120274   5.925883
                   16         17         18         19         20
    16  C    0.000000
    17  C    2.779821   0.000000
    18  H    3.404250   2.161150   0.000000
    19  C    1.389779   2.405798   3.878017   0.000000
    20  H    1.096196   3.875998   4.312499   2.154498   0.000000
    21  C    2.410261   1.390274   3.405919   1.390897   3.401324
    22  H    3.874661   1.094847   2.484818   3.399473   4.970842
    23  H    2.155046   3.398981   4.972858   1.094844   2.477286
    24  H    3.402533   2.158448   4.309776   2.158672   4.303766
    25  C    3.712382   4.279067   2.627656   4.849514   4.037287
    26  C    4.716324   4.658073   2.591985   5.731751   5.174398
    27  C    4.280963   4.951332   3.545082   5.359635   4.493875
    28  C    5.924456   5.585688   3.488324   6.871896   6.400674
    29  H    4.795590   4.600015   2.561053   5.754619   5.294693
    30  C    5.583308   5.830248   4.242256   6.563544   5.864060
    31  H    4.001223   5.115295   4.123287   5.072653   4.037889
    32  C    6.292644   6.112925   4.221668   7.236744   6.694279
    33  H    6.777483   6.170576   4.031370   7.664335   7.305748
    34  H    6.237960   6.562004   5.164609   7.164228   6.450249
    35  H    7.346378   7.006868   5.134201   8.242221   7.761489
                   21         22         23         24         25
    21  C    0.000000
    22  H    2.157735   0.000000
    23  H    2.157674   4.304626   0.000000
    24  H    1.094638   2.487925   2.487068   0.000000
    25  C    5.080685   4.930390   5.799936   6.142647   0.000000
    26  C    5.710928   5.069036   6.757638   6.725101   1.395528
    27  C    5.643692   5.582027   6.222005   6.654818   1.397620
    28  C    6.731369   5.819434   7.908971   7.688732   2.417094
    29  H    5.677310   4.965475   6.786136   6.667954   2.159589
    30  C    6.672604   6.268711   7.455565   7.625395   2.418033
    31  H    5.553229   5.862912   5.798270   6.537272   2.164798
    32  C    7.161947   6.378287   8.218942   8.099664   2.794771
    33  H    7.406326   6.259475   8.727692   8.318785   3.407102
    34  H    7.309866   6.991525   7.981593   8.212931   3.408794
    35  H    8.095554   7.166666   9.224788   8.988208   3.889409
                   26         27         28         29         30
    26  C    0.000000
    27  C    2.408851   0.000000
    28  C    1.390487   2.779710   0.000000
    29  H    1.097995   3.404099   2.161154   0.000000
    30  C    2.779944   1.389791   2.405693   3.877915   0.000000
    31  H    3.405111   1.096188   3.875880   4.312335   2.154494
    32  C    2.410423   2.410217   1.390254   3.405902   1.390827
    33  H    2.154978   3.874523   1.094819   2.484855   3.399327
    34  H    3.874774   2.155067   3.398859   4.972743   1.094831
    35  H    3.402981   3.402514   2.158423   4.309756   2.158640
                   31         32         33         34         35
    31  H    0.000000
    32  C    3.401260   0.000000
    33  H    4.970696   2.157663   0.000000
    34  H    2.477309   2.157573   4.304454   0.000000
    35  H    4.303731   1.094639   2.487833   2.486997   0.000000
 Stoichiometry    C19H16
 Framework group  C1[X(C19H16)]
 Deg. of freedom    99
 Full point group                 C1      NOp   1
 Largest Abelian subgroup         C1      NOp   1
 Largest concise Abelian subgroup C1      NOp   1
                         Standard orientation:                         
 ---------------------------------------------------------------------
 Center     Atomic      Atomic             Coordinates (Angstroms)
 Number     Number       Type             X           Y           Z
 ---------------------------------------------------------------------
      1          6           0        0.000256   -0.000020   -0.779811
      2          1           0        0.000166    0.000030   -1.902507
      3          6           0       -0.680630    1.272291   -0.339364
      4          6           0       -1.347078    1.368507    0.882994
      5          6           0       -0.638378    2.386463   -1.181956
      6          6           0       -1.962304    2.558320    1.256240
      7          1           0       -1.391442    0.494031    1.545500
      8          6           0       -1.252142    3.575075   -0.805094
      9          1           0       -0.116916    2.326147   -2.144278
     10          6           0       -1.915519    3.663468    0.414156
     11          1           0       -2.485504    2.622131    2.215830
     12          1           0       -1.213092    4.443255   -1.470952
     13          1           0       -2.399981    4.599750    0.708934
     14          6           0       -0.761515   -1.225771   -0.339720
     15          6           0       -0.509809   -1.853485    0.881039
     16          6           0       -1.750149   -1.743524   -1.181137
     17          6           0       -1.233171   -2.980997    1.253776
     18          1           0        0.271449   -1.456808    1.542804
     19          6           0       -2.473349   -2.869028   -0.804692
     20          1           0       -1.960134   -1.259778   -2.142147
     21          6           0       -2.216228   -3.490291    0.412894
     22          1           0       -1.025257   -3.468027    2.212036
     23          1           0       -3.246848   -3.266989   -1.469529
     24          1           0       -2.785350   -4.377786    0.707317
     25          6           0        1.442676   -0.046554   -0.339743
     26          6           0        1.859687    0.482246    0.882537
     27          6           0        2.386201   -0.640229   -1.182747
     28          6           0        3.197821    0.419917    1.255316
     29          1           0        1.124896    0.957858    1.545461
     30          6           0        3.722572   -0.703230   -0.806366
     31          1           0        2.072883   -1.061517   -2.145024
     32          6           0        4.131234   -0.173182    0.412831
     33          1           0        3.515020    0.840906    2.214889
     34          1           0        4.454653   -1.171110   -1.472550
     35          1           0        5.184396   -0.221942    0.707292
 ---------------------------------------------------------------------
 Rotational constants (GHZ):      0.3904727      0.3902534      0.2359308
 Standard basis: 6-311G (5D, 7F)
 There are   295 symmetry adapted basis functions of A   symmetry.
 Integral buffers will be    262144 words long.
 Raffenetti 1 integral format.
 Two-electron integral symmetry is turned on.
   295 basis functions,   574 primitive gaussians,   295 cartesian basis functions
    65 alpha electrons       65 beta electrons
       nuclear repulsion energy      1290.4363770430 Hartrees.
 NAtoms=   35 NActive=   35 NUniq=   35 SFac= 7.50D-01 NAtFMM=   80 NAOKFM=F Big=F
 One-electron integrals computed using PRISM.
 PrsmSu:  requested number of processors reduced to:  10 ShMem   1 Linda.
 NBasis=   295 RedAO= T  NBF=   295
 NBsUse=   295 1.00D-06 NBFU=   295
 Harris functional with IExCor=  205 diagonalized for initial guess.
 ExpMin= 1.03D-01 ExpMax= 4.56D+03 ExpMxC= 6.82D+02 IAcc=1 IRadAn=         1 AccDes= 0.00D+00
 HarFok:  IExCor=  205 AccDes= 0.00D+00 IRadAn=         1 IDoV= 1
 ScaDFX=  1.000000  1.000000  1.000000  1.000000
 FoFCou: FMM=F IPFlag=           0 FMFlag=      100000 FMFlg1=           0
         NFxFlg=           0 DoJE=T BraDBF=F KetDBF=T FulRan=T
         Omega=  0.000000  0.000000  1.000000  0.000000  0.000000 ICntrl=     500 IOpCl=  0
         NMat0=    1 NMatS0=    1 NMatT0=    0 NMatD0=    1 NMtDS0=    0 NMtDT0=    0
         I1Cent=           4 NGrid=           0.
 Petite list used in FoFCou.
 Initial guess orbital symmetries:
       Occupied  (A) (A) (A) (A) (A) (A) (A) (A) (A) (A) (A) (A)
                 (A) (A) (A) (A) (A) (A) (A) (A) (A) (A) (A) (A)
                 (A) (A) (A) (A) (A) (A) (A) (A) (A) (A) (A) (A)
                 (A) (A) (A) (A) (A) (A) (A) (A) (A) (A) (A) (A)
                 (A) (A) (A) (A) (A) (A) (A) (A) (A) (A) (A) (A)
                 (A) (A) (A) (A) (A)
       Virtual   (A) (A) (A) (A) (A) (A) (A) (A) (A) (A) (A) (A)
                 (A) (A) (A) (A) (A) (A) (A) (A) (A) (A) (A) (A)
                 (A) (A) (A) (A) (A) (A) (A) (A) (A) (A) (A) (A)
                 (A) (A) (A) (A) (A) (A) (A) (A) (A) (A) (A) (A)
                 (A) (A) (A) (A) (A) (A) (A) (A) (A) (A) (A) (A)
                 (A) (A) (A) (A) (A) (A) (A) (A) (A) (A) (A) (A)
                 (A) (A) (A) (A) (A) (A) (A) (A) (A) (A) (A) (A)
                 (A) (A) (A) (A) (A) (A) (A) (A) (A) (A) (A) (A)
                 (A) (A) (A) (A) (A) (A) (A) (A) (A) (A) (A) (A)
                 (A) (A) (A) (A) (A) (A) (A) (A) (A) (A) (A) (A)
                 (A) (A) (A) (A) (A) (A) (A) (A) (A) (A) (A) (A)
                 (A) (A) (A) (A) (A) (A) (A) (A) (A) (A) (A) (A)
                 (A) (A) (A) (A) (A) (A) (A) (A) (A) (A) (A) (A)
                 (A) (A) (A) (A) (A) (A) (A) (A) (A) (A) (A) (A)
                 (A) (A) (A) (A) (A) (A) (A) (A) (A) (A) (A) (A)
                 (A) (A) (A) (A) (A) (A) (A) (A) (A) (A) (A) (A)
                 (A) (A) (A) (A) (A) (A) (A) (A) (A) (A) (A) (A)
                 (A) (A) (A) (A) (A) (A) (A) (A) (A) (A) (A) (A)
                 (A) (A) (A) (A) (A) (A) (A) (A) (A) (A) (A) (A)
                 (A) (A)
 The electronic state of the initial guess is 1-A.
 Requested convergence on RMS density matrix=1.00D-08 within 128 cycles.
 Requested convergence on MAX density matrix=1.00D-06.
 Requested convergence on             energy=1.00D-06.
 No special actions if energy rises.
 Integral accuracy reduced to 1.0D-05 until final iterations.
 Initial convergence to 1.0D-05 achieved.  Increase integral accuracy.
 SCF Done:  E(RHF) =  -728.678062452     A.U. after   14 cycles
             Convg  =    0.6773D-08             -V/T =  2.0001

 **********************************************************************

            Population analysis using the SCF density.

 **********************************************************************

 Orbital symmetries:
       Occupied  (A) (A) (A) (A) (A) (A) (A) (A) (A) (A) (A) (A)
                 (A) (A) (A) (A) (A) (A) (A) (A) (A) (A) (A) (A)
                 (A) (A) (A) (A) (A) (A) (A) (A) (A) (A) (A) (A)
                 (A) (A) (A) (A) (A) (A) (A) (A) (A) (A) (A) (A)
                 (A) (A) (A) (A) (A) (A) (A) (A) (A) (A) (A) (A)
                 (A) (A) (A) (A) (A)
       Virtual   (A) (A) (A) (A) (A) (A) (A) (A) (A) (A) (A) (A)
                 (A) (A) (A) (A) (A) (A) (A) (A) (A) (A) (A) (A)
                 (A) (A) (A) (A) (A) (A) (A) (A) (A) (A) (A) (A)
                 (A) (A) (A) (A) (A) (A) (A) (A) (A) (A) (A) (A)
                 (A) (A) (A) (A) (A) (A) (A) (A) (A) (A) (A) (A)
                 (A) (A) (A) (A) (A) (A) (A) (A) (A) (A) (A) (A)
                 (A) (A) (A) (A) (A) (A) (A) (A) (A) (A) (A) (A)
                 (A) (A) (A) (A) (A) (A) (A) (A) (A) (A) (A) (A)
                 (A) (A) (A) (A) (A) (A) (A) (A) (A) (A) (A) (A)
                 (A) (A) (A) (A) (A) (A) (A) (A) (A) (A) (A) (A)
                 (A) (A) (A) (A) (A) (A) (A) (A) (A) (A) (A) (A)
                 (A) (A) (A) (A) (A) (A) (A) (A) (A) (A) (A) (A)
                 (A) (A) (A) (A) (A) (A) (A) (A) (A) (A) (A) (A)
                 (A) (A) (A) (A) (A) (A) (A) (A) (A) (A) (A) (A)
                 (A) (A) (A) (A) (A) (A) (A) (A) (A) (A) (A) (A)
                 (A) (A) (A) (A) (A) (A) (A) (A) (A) (A) (A) (A)
                 (A) (A) (A) (A) (A) (A) (A) (A) (A) (A) (A) (A)
                 (A) (A) (A) (A) (A) (A) (A) (A) (A) (A) (A) (A)
                 (A) (A) (A) (A) (A) (A) (A) (A) (A) (A) (A) (A)
                 (A) (A)
 The electronic state is 1-A.
 Alpha  occ. eigenvalues --  -11.25725 -11.25095 -11.25094 -11.25088 -11.24307
 Alpha  occ. eigenvalues --  -11.24307 -11.24306 -11.24284 -11.24284 -11.24283
 Alpha  occ. eigenvalues --  -11.24021 -11.24020 -11.24020 -11.23962 -11.23962
 Alpha  occ. eigenvalues --  -11.23961 -11.23818 -11.23817 -11.23816  -1.18577
 Alpha  occ. eigenvalues --   -1.15715  -1.15712  -1.09018  -1.02189  -1.02042
 Alpha  occ. eigenvalues --   -1.02041  -1.01369  -1.01367  -0.92881  -0.84082
 Alpha  occ. eigenvalues --   -0.82991  -0.82989  -0.81454  -0.81453  -0.77512
 Alpha  occ. eigenvalues --   -0.70623  -0.70623  -0.68787  -0.65637  -0.63789
 Alpha  occ. eigenvalues --   -0.63788  -0.61932  -0.61930  -0.61742  -0.59101
 Alpha  occ. eigenvalues --   -0.58736  -0.58735  -0.58059  -0.58056  -0.54338
 Alpha  occ. eigenvalues --   -0.51184  -0.50837  -0.50834  -0.49662  -0.49106
 Alpha  occ. eigenvalues --   -0.49104  -0.47444  -0.47178  -0.47174  -0.34455
 Alpha  occ. eigenvalues --   -0.34451  -0.34003  -0.33233  -0.33230  -0.31221
 Alpha virt. eigenvalues --    0.12200   0.12202   0.12406   0.14449   0.14458
 Alpha virt. eigenvalues --    0.14463   0.15131   0.16316   0.16317   0.17110
 Alpha virt. eigenvalues --    0.19070   0.19125   0.19126   0.21252   0.21254
 Alpha virt. eigenvalues --    0.21553   0.23842   0.23849   0.24467   0.26745
 Alpha virt. eigenvalues --    0.26754   0.28541   0.34016   0.34017   0.35102
 Alpha virt. eigenvalues --    0.39169   0.39181   0.39336   0.41077   0.43772
 Alpha virt. eigenvalues --    0.43877   0.43879   0.44968   0.44974   0.45561
 Alpha virt. eigenvalues --    0.45564   0.45805   0.48353   0.49761   0.49766
 Alpha virt. eigenvalues --    0.50694   0.50881   0.50885   0.55382   0.55388
 Alpha virt. eigenvalues --    0.57219   0.58703   0.58706   0.58768   0.59460
 Alpha virt. eigenvalues --    0.60067   0.60071   0.61458   0.61553   0.61556
 Alpha virt. eigenvalues --    0.61702   0.62243   0.62245   0.63516   0.63789
 Alpha virt. eigenvalues --    0.63796   0.65419   0.65423   0.66728   0.67121
 Alpha virt. eigenvalues --    0.67858   0.67866   0.69138   0.70647   0.70655
 Alpha virt. eigenvalues --    0.73047   0.74587   0.74593   0.74987   0.75563
 Alpha virt. eigenvalues --    0.75576   0.78147   0.80254   0.80260   0.80278
 Alpha virt. eigenvalues --    0.81937   0.82007   0.82009   0.82965   0.82968
 Alpha virt. eigenvalues --    0.83739   0.84367   0.84370   0.85143   0.86013
 Alpha virt. eigenvalues --    0.86017   0.86225   0.87295   0.87734   0.87740
 Alpha virt. eigenvalues --    0.88554   0.90857   0.90869   0.92778   0.94576
 Alpha virt. eigenvalues --    0.94599   0.97225   0.97235   0.97796   1.00015
 Alpha virt. eigenvalues --    1.00032   1.00725   1.04025   1.04035   1.06243
 Alpha virt. eigenvalues --    1.07006   1.07011   1.08762   1.08769   1.09866
 Alpha virt. eigenvalues --    1.11114   1.12258   1.12927   1.12936   1.14204
 Alpha virt. eigenvalues --    1.14657   1.14664   1.17903   1.20736   1.20751
 Alpha virt. eigenvalues --    1.26742   1.27473   1.27484   1.28637   1.30045
 Alpha virt. eigenvalues --    1.30056   1.39634   1.40621   1.40639   1.49090
 Alpha virt. eigenvalues --    1.52296   1.52301   1.54950   2.55825   2.55827
 Alpha virt. eigenvalues --    2.56439   2.61664   2.61668   2.61687   2.66491
 Alpha virt. eigenvalues --    2.66498   2.67962   2.70414   2.70425   2.70904
 Alpha virt. eigenvalues --    2.78493   2.84836   2.84847   2.88587   2.94547
 Alpha virt. eigenvalues --    2.94637   2.94639   2.97624   2.97629   2.97662
 Alpha virt. eigenvalues --    3.01451   3.01458   3.04373   3.06189   3.07547
 Alpha virt. eigenvalues --    3.07554   3.08636   3.08649   3.09330   3.15400
 Alpha virt. eigenvalues --    3.15404   3.15660   3.17437   3.18974   3.18989
 Alpha virt. eigenvalues --    3.23293   3.25374   3.25384   3.28846   3.28853
 Alpha virt. eigenvalues --    3.29670   3.33102   3.34948   3.34958   3.42270
 Alpha virt. eigenvalues --    3.42278   3.43272   3.48616   3.48636   3.53947
 Alpha virt. eigenvalues --    3.54078   3.54089   3.59967   3.60353   3.60379
 Alpha virt. eigenvalues --    3.63122   3.63599   3.63610   3.65835   3.65838
 Alpha virt. eigenvalues --    3.69787   3.69788   3.70511   3.70706   3.75204
 Alpha virt. eigenvalues --    3.75886   3.75894   3.84505   3.87407   3.87413
 Alpha virt. eigenvalues --    3.91511  24.25944  24.31574  24.31581  24.50733
 Alpha virt. eigenvalues --   24.50736  24.51246  24.54557  24.55832  24.55838
 Alpha virt. eigenvalues --   24.77631  24.79317  24.79326  24.79926  24.80799
 Alpha virt. eigenvalues --   24.80806  24.83350  25.05344  25.06153  25.06159
          Condensed to atoms (all electrons):
              1          2          3          4          5          6
     1  C    5.859395   0.483449   0.145592  -0.041040  -0.054674   0.004214
     2  H    0.483449   0.515296  -0.072032   0.005316  -0.001106  -0.000240
     3  C    0.145592  -0.072032   5.357874   0.479643   0.483959  -0.067539
     4  C   -0.041040   0.005316   0.479643   5.114325  -0.068635   0.469080
     5  C   -0.054674  -0.001106   0.483959  -0.068635   5.058896  -0.031785
     6  C    0.004214  -0.000240  -0.067539   0.469080  -0.031785   5.051761
     7  H   -0.000816  -0.000119  -0.042555   0.392270   0.004180  -0.029830
     8  C    0.007227   0.001485  -0.065735  -0.029435   0.463556  -0.075883
     9  H    0.000494   0.001470  -0.048777   0.004436   0.399238  -0.000423
    10  C    0.001168  -0.000011  -0.016438  -0.093789  -0.087583   0.496665
    11  H   -0.000337   0.000014   0.006124  -0.037829  -0.000380   0.396199
    12  H   -0.000371  -0.000026   0.006682  -0.000534  -0.039645   0.006121
    13  H   -0.000017  -0.000001  -0.001542   0.007821   0.007435  -0.042467
    14  C    0.145270  -0.071964  -0.097321  -0.018628   0.005697   0.000093
    15  C   -0.040943   0.005304  -0.008186  -0.005029  -0.000169  -0.000018
    16  C   -0.054908  -0.001118  -0.001114   0.000216   0.000849  -0.000168
    17  C    0.004250  -0.000241   0.000676  -0.001062   0.000022  -0.000021
    18  H   -0.000865  -0.000120  -0.000789   0.000734  -0.000018   0.000043
    19  C    0.007221   0.001483  -0.000632   0.000382   0.000003  -0.000009
    20  H    0.000511   0.001463   0.000953   0.000222   0.000236   0.000007
    21  C    0.001166  -0.000011   0.000038   0.000069  -0.000001   0.000005
    22  H   -0.000337   0.000014  -0.000003   0.000016   0.000000   0.000001
    23  H   -0.000371  -0.000026   0.000024   0.000003   0.000000   0.000000
    24  H   -0.000017  -0.000001   0.000000  -0.000001   0.000000   0.000000
    25  C    0.145356  -0.072110  -0.097278  -0.008214  -0.001089   0.000683
    26  C   -0.041076   0.005305  -0.018524  -0.005079   0.000259  -0.001071
    27  C   -0.054709  -0.001062   0.005682  -0.000165   0.000839   0.000022
    28  C    0.004220  -0.000241   0.000107  -0.000019  -0.000165  -0.000022
    29  H   -0.000822  -0.000120  -0.001961   0.001470  -0.000866   0.000919
    30  C    0.007232   0.001485  -0.000775   0.000027  -0.000034   0.000000
    31  H    0.000488   0.001475   0.000483  -0.000031   0.000044   0.000000
    32  C    0.001169  -0.000011   0.000097  -0.000017  -0.000009   0.000000
    33  H   -0.000337   0.000014   0.000029   0.000018   0.000007   0.000000
    34  H   -0.000372  -0.000026   0.000011   0.000000   0.000001   0.000000
    35  H   -0.000017  -0.000001  -0.000001   0.000000   0.000000   0.000000
              7          8          9         10         11         12
     1  C   -0.000816   0.007227   0.000494   0.001168  -0.000337  -0.000371
     2  H   -0.000119   0.001485   0.001470  -0.000011   0.000014  -0.000026
     3  C   -0.042555  -0.065735  -0.048777  -0.016438   0.006124   0.006682
     4  C    0.392270  -0.029435   0.004436  -0.093789  -0.037829  -0.000534
     5  C    0.004180   0.463556   0.399238  -0.087583  -0.000380  -0.039645
     6  C   -0.029830  -0.075883  -0.000423   0.496665   0.396199   0.006121
     7  H    0.474256  -0.000227  -0.000239   0.004624  -0.003311   0.000018
     8  C   -0.000227   5.055089  -0.036074   0.490324   0.005936   0.397086
     9  H   -0.000239  -0.036074   0.507678   0.005357   0.000022  -0.004230
    10  C    0.004624   0.490324   0.005357   5.033055  -0.040236  -0.040647
    11  H   -0.003311   0.005936   0.000022  -0.040236   0.515685  -0.000211
    12  H    0.000018   0.397086  -0.004230  -0.040647  -0.000211   0.517981
    13  H   -0.000174  -0.042931  -0.000179   0.399537  -0.004405  -0.004497
    14  C   -0.001938  -0.000776   0.000484   0.000097   0.000029   0.000011
    15  C    0.001471   0.000027  -0.000031  -0.000017   0.000018   0.000000
    16  C   -0.000873  -0.000034   0.000044  -0.000008   0.000007   0.000001
    17  C    0.000916   0.000000   0.000000   0.000000   0.000000   0.000000
    18  H    0.000217   0.000003   0.000000   0.000000  -0.000007   0.000000
    19  C   -0.000190   0.000002   0.000001   0.000000   0.000001   0.000000
    20  H   -0.000038  -0.000005  -0.000001  -0.000009   0.000000   0.000000
    21  C    0.000000   0.000000   0.000000   0.000000  -0.000001   0.000000
    22  H    0.000008   0.000000   0.000000   0.000000   0.000000   0.000000
    23  H    0.000003   0.000000   0.000000   0.000000   0.000000   0.000000
    24  H    0.000000   0.000000   0.000000   0.000000   0.000000   0.000000
    25  C   -0.000798  -0.000632   0.000950   0.000039  -0.000003   0.000023
    26  C    0.000743   0.000381   0.000221   0.000068   0.000016   0.000003
    27  C   -0.000018   0.000003   0.000233  -0.000001   0.000000   0.000000
    28  C    0.000044  -0.000009   0.000007   0.000005   0.000001   0.000000
    29  H    0.000224  -0.000191  -0.000038   0.000002   0.000007   0.000003
    30  C    0.000003   0.000002  -0.000005   0.000000   0.000000   0.000000
    31  H    0.000000   0.000001  -0.000001   0.000000   0.000000   0.000000
    32  C    0.000000   0.000000  -0.000009   0.000000   0.000000   0.000000
    33  H   -0.000007   0.000001   0.000000  -0.000001   0.000000   0.000000
    34  H    0.000000   0.000000   0.000000   0.000000   0.000000   0.000000
    35  H    0.000000   0.000000   0.000000   0.000000   0.000000   0.000000
             13         14         15         16         17         18
     1  C   -0.000017   0.145270  -0.040943  -0.054908   0.004250  -0.000865
     2  H   -0.000001  -0.071964   0.005304  -0.001118  -0.000241  -0.000120
     3  C   -0.001542  -0.097321  -0.008186  -0.001114   0.000676  -0.000789
     4  C    0.007821  -0.018628  -0.005029   0.000216  -0.001062   0.000734
     5  C    0.007435   0.005697  -0.000169   0.000849   0.000022  -0.000018
     6  C   -0.042467   0.000093  -0.000018  -0.000168  -0.000021   0.000043
     7  H   -0.000174  -0.001938   0.001471  -0.000873   0.000916   0.000217
     8  C   -0.042931  -0.000776   0.000027  -0.000034   0.000000   0.000003
     9  H   -0.000179   0.000484  -0.000031   0.000044   0.000000   0.000000
    10  C    0.399537   0.000097  -0.000017  -0.000008   0.000000   0.000000
    11  H   -0.004405   0.000029   0.000018   0.000007   0.000000  -0.000007
    12  H   -0.004497   0.000011   0.000000   0.000001   0.000000   0.000000
    13  H    0.517921  -0.000001   0.000000   0.000000   0.000000   0.000000
    14  C   -0.000001   5.357828   0.479956   0.483890  -0.067587  -0.042497
    15  C    0.000000   0.479956   5.114122  -0.068622   0.468910   0.392265
    16  C    0.000000   0.483890  -0.068622   5.058873  -0.031783   0.004182
    17  C    0.000000  -0.067587   0.468910  -0.031783   5.052011  -0.029860
    18  H    0.000000  -0.042497   0.392265   0.004182  -0.029860   0.474248
    19  C    0.000000  -0.065714  -0.029430   0.463605  -0.075859  -0.000227
    20  H    0.000000  -0.048779   0.004432   0.399249  -0.000423  -0.000239
    21  C    0.000000  -0.016429  -0.093799  -0.087591   0.496711   0.004626
    22  H    0.000000   0.006125  -0.037815  -0.000380   0.396184  -0.003311
    23  H    0.000000   0.006677  -0.000533  -0.039635   0.006116   0.000018
    24  H    0.000000  -0.001541   0.007821   0.007435  -0.042462  -0.000174
    25  C    0.000000  -0.097026  -0.018602   0.005751   0.000095  -0.001956
    26  C   -0.000001  -0.008133  -0.005093  -0.000166  -0.000020   0.001444
    27  C    0.000000  -0.001132   0.000242   0.000835  -0.000167  -0.000877
    28  C    0.000000   0.000682  -0.001067   0.000022  -0.000022   0.000921
    29  H    0.000000  -0.000789   0.000736  -0.000017   0.000043   0.000215
    30  C    0.000000  -0.000631   0.000382   0.000003  -0.000009  -0.000190
    31  H    0.000000   0.000945   0.000223   0.000229   0.000007  -0.000038
    32  C    0.000000   0.000038   0.000068  -0.000001   0.000005   0.000001
    33  H    0.000000  -0.000003   0.000016   0.000000   0.000001   0.000008
    34  H    0.000000   0.000024   0.000003   0.000000   0.000000   0.000003
    35  H    0.000000   0.000000  -0.000001   0.000000   0.000000   0.000000
             19         20         21         22         23         24
     1  C    0.007221   0.000511   0.001166  -0.000337  -0.000371  -0.000017
     2  H    0.001483   0.001463  -0.000011   0.000014  -0.000026  -0.000001
     3  C   -0.000632   0.000953   0.000038  -0.000003   0.000024   0.000000
     4  C    0.000382   0.000222   0.000069   0.000016   0.000003  -0.000001
     5  C    0.000003   0.000236  -0.000001   0.000000   0.000000   0.000000
     6  C   -0.000009   0.000007   0.000005   0.000001   0.000000   0.000000
     7  H   -0.000190  -0.000038   0.000000   0.000008   0.000003   0.000000
     8  C    0.000002  -0.000005   0.000000   0.000000   0.000000   0.000000
     9  H    0.000001  -0.000001   0.000000   0.000000   0.000000   0.000000
    10  C    0.000000  -0.000009   0.000000   0.000000   0.000000   0.000000
    11  H    0.000001   0.000000  -0.000001   0.000000   0.000000   0.000000
    12  H    0.000000   0.000000   0.000000   0.000000   0.000000   0.000000
    13  H    0.000000   0.000000   0.000000   0.000000   0.000000   0.000000
    14  C   -0.065714  -0.048779  -0.016429   0.006125   0.006677  -0.001541
    15  C   -0.029430   0.004432  -0.093799  -0.037815  -0.000533   0.007821
    16  C    0.463605   0.399249  -0.087591  -0.000380  -0.039635   0.007435
    17  C   -0.075859  -0.000423   0.496711   0.396184   0.006116  -0.042462
    18  H   -0.000227  -0.000239   0.004626  -0.003311   0.000018  -0.000174
    19  C    5.055099  -0.036075   0.490246   0.005934   0.397076  -0.042937
    20  H   -0.036075   0.507648   0.005357   0.000022  -0.004230  -0.000179
    21  C    0.490246   0.005357   5.033085  -0.040236  -0.040639   0.399530
    22  H    0.005934   0.000022  -0.040236   0.515687  -0.000211  -0.004403
    23  H    0.397076  -0.004230  -0.040639  -0.000211   0.517960  -0.004494
    24  H   -0.042937  -0.000179   0.399530  -0.004403  -0.004494   0.517936
    25  C   -0.000776   0.000487   0.000097   0.000029   0.000011  -0.000001
    26  C    0.000027  -0.000031  -0.000018   0.000018   0.000000   0.000000
    27  C   -0.000033   0.000043  -0.000009   0.000007   0.000001   0.000000
    28  C    0.000000   0.000000   0.000000   0.000000   0.000000   0.000000
    29  H    0.000003   0.000000   0.000000  -0.000007   0.000000   0.000000
    30  C    0.000002   0.000001   0.000000   0.000001   0.000000   0.000000
    31  H   -0.000005  -0.000001  -0.000009   0.000000   0.000000   0.000000
    32  C    0.000000   0.000000   0.000000  -0.000001   0.000000   0.000000
    33  H    0.000000   0.000000   0.000000   0.000000   0.000000   0.000000
    34  H    0.000000   0.000000   0.000000   0.000000   0.000000   0.000000
    35  H    0.000000   0.000000   0.000000   0.000000   0.000000   0.000000
             25         26         27         28         29         30
     1  C    0.145356  -0.041076  -0.054709   0.004220  -0.000822   0.007232
     2  H   -0.072110   0.005305  -0.001062  -0.000241  -0.000120   0.001485
     3  C   -0.097278  -0.018524   0.005682   0.000107  -0.001961  -0.000775
     4  C   -0.008214  -0.005079  -0.000165  -0.000019   0.001470   0.000027
     5  C   -0.001089   0.000259   0.000839  -0.000165  -0.000866  -0.000034
     6  C    0.000683  -0.001071   0.000022  -0.000022   0.000919   0.000000
     7  H   -0.000798   0.000743  -0.000018   0.000044   0.000224   0.000003
     8  C   -0.000632   0.000381   0.000003  -0.000009  -0.000191   0.000002
     9  H    0.000950   0.000221   0.000233   0.000007  -0.000038  -0.000005
    10  C    0.000039   0.000068  -0.000001   0.000005   0.000002   0.000000
    11  H   -0.000003   0.000016   0.000000   0.000001   0.000007   0.000000
    12  H    0.000023   0.000003   0.000000   0.000000   0.000003   0.000000
    13  H    0.000000  -0.000001   0.000000   0.000000   0.000000   0.000000
    14  C   -0.097026  -0.008133  -0.001132   0.000682  -0.000789  -0.000631
    15  C   -0.018602  -0.005093   0.000242  -0.001067   0.000736   0.000382
    16  C    0.005751  -0.000166   0.000835   0.000022  -0.000017   0.000003
    17  C    0.000095  -0.000020  -0.000167  -0.000022   0.000043  -0.000009
    18  H   -0.001956   0.001444  -0.000877   0.000921   0.000215  -0.000190
    19  C   -0.000776   0.000027  -0.000033   0.000000   0.000003   0.000002
    20  H    0.000487  -0.000031   0.000043   0.000000   0.000000   0.000001
    21  C    0.000097  -0.000018  -0.000009   0.000000   0.000000   0.000000
    22  H    0.000029   0.000018   0.000007   0.000000  -0.000007   0.000001
    23  H    0.000011   0.000000   0.000001   0.000000   0.000000   0.000000
    24  H   -0.000001   0.000000   0.000000   0.000000   0.000000   0.000000
    25  C    5.357877   0.479645   0.484180  -0.067597  -0.042537  -0.065781
    26  C    0.479645   5.114259  -0.068557   0.469041   0.392252  -0.029452
    27  C    0.484180  -0.068557   5.058628  -0.031797   0.004184   0.463631
    28  C   -0.067597   0.469041  -0.031797   5.051830  -0.029827  -0.075873
    29  H   -0.042537   0.392252   0.004184  -0.029827   0.474260  -0.000228
    30  C   -0.065781  -0.029452   0.463631  -0.075873  -0.000228   5.055069
    31  H   -0.048745   0.004439   0.399210  -0.000423  -0.000239  -0.036074
    32  C   -0.016416  -0.093790  -0.087607   0.496686   0.004624   0.490307
    33  H    0.006126  -0.037828  -0.000380   0.396194  -0.003313   0.005936
    34  H    0.006679  -0.000533  -0.039636   0.006119   0.000018   0.397076
    35  H   -0.001542   0.007821   0.007435  -0.042463  -0.000174  -0.042933
             31         32         33         34         35
     1  C    0.000488   0.001169  -0.000337  -0.000372  -0.000017
     2  H    0.001475  -0.000011   0.000014  -0.000026  -0.000001
     3  C    0.000483   0.000097   0.000029   0.000011  -0.000001
     4  C   -0.000031  -0.000017   0.000018   0.000000   0.000000
     5  C    0.000044  -0.000009   0.000007   0.000001   0.000000
     6  C    0.000000   0.000000   0.000000   0.000000   0.000000
     7  H    0.000000   0.000000  -0.000007   0.000000   0.000000
     8  C    0.000001   0.000000   0.000001   0.000000   0.000000
     9  H   -0.000001  -0.000009   0.000000   0.000000   0.000000
    10  C    0.000000   0.000000  -0.000001   0.000000   0.000000
    11  H    0.000000   0.000000   0.000000   0.000000   0.000000
    12  H    0.000000   0.000000   0.000000   0.000000   0.000000
    13  H    0.000000   0.000000   0.000000   0.000000   0.000000
    14  C    0.000945   0.000038  -0.000003   0.000024   0.000000
    15  C    0.000223   0.000068   0.000016   0.000003  -0.000001
    16  C    0.000229  -0.000001   0.000000   0.000000   0.000000
    17  C    0.000007   0.000005   0.000001   0.000000   0.000000
    18  H   -0.000038   0.000001   0.000008   0.000003   0.000000
    19  C   -0.000005   0.000000   0.000000   0.000000   0.000000
    20  H   -0.000001   0.000000   0.000000   0.000000   0.000000
    21  C   -0.000009   0.000000   0.000000   0.000000   0.000000
    22  H    0.000000  -0.000001   0.000000   0.000000   0.000000
    23  H    0.000000   0.000000   0.000000   0.000000   0.000000
    24  H    0.000000   0.000000   0.000000   0.000000   0.000000
    25  C   -0.048745  -0.016416   0.006126   0.006679  -0.001542
    26  C    0.004439  -0.093790  -0.037828  -0.000533   0.007821
    27  C    0.399210  -0.087607  -0.000380  -0.039636   0.007435
    28  C   -0.000423   0.496686   0.396194   0.006119  -0.042463
    29  H   -0.000239   0.004624  -0.003313   0.000018  -0.000174
    30  C   -0.036074   0.490307   0.005936   0.397076  -0.042933
    31  H    0.507664   0.005358   0.000022  -0.004229  -0.000179
    32  C    0.005358   5.033054  -0.040238  -0.040643   0.399532
    33  H    0.000022  -0.040238   0.515693  -0.000211  -0.004403
    34  H   -0.004229  -0.040643  -0.000211   0.517960  -0.004496
    35  H   -0.000179   0.399532  -0.004403  -0.004496   0.517918
 Mulliken atomic charges:
              1
     1  C   -0.526393
     2  H    0.197016
     3  C    0.053228
     4  C   -0.166540
     5  C   -0.139061
     6  C   -0.176333
     7  H    0.202154
     8  C   -0.169193
     9  H    0.169374
    10  C   -0.152199
    11  H    0.162661
    12  H    0.162232
    13  H    0.163500
    14  C    0.053044
    15  C   -0.166641
    16  C   -0.138772
    17  C   -0.176431
    18  H    0.202239
    19  C   -0.169197
    20  H    0.169379
    21  C   -0.152188
    22  H    0.162658
    23  H    0.162251
    24  H    0.163487
    25  C    0.053077
    26  C   -0.166569
    27  C   -0.139024
    28  C   -0.176354
    29  H    0.202166
    30  C   -0.169172
    31  H    0.169387
    32  C   -0.152197
    33  H    0.162655
    34  H    0.162253
    35  H    0.163503
 Sum of Mulliken atomic charges =   0.00000
 Mulliken charges with hydrogens summed into heavy atoms:
              1
     1  C   -0.329377
     3  C    0.053228
     4  C    0.035614
     5  C    0.030313
     6  C   -0.013672
     8  C   -0.006961
    10  C    0.011301
    14  C    0.053044
    15  C    0.035598
    16  C    0.030608
    17  C   -0.013772
    19  C   -0.006946
    21  C    0.011299
    25  C    0.053077
    26  C    0.035597
    27  C    0.030363
    28  C   -0.013699
    30  C   -0.006919
    32  C    0.011306
 Sum of Mulliken charges with hydrogens summed into heavy atoms =   0.00000
 Electronic spatial extent (au):  <R**2>=           4917.0512
 Charge=              0.0000 electrons
 Dipole moment (field-independent basis, Debye):
    X=              0.0000    Y=              0.0005    Z=             -0.0245  Tot=              0.0245
 Quadrupole moment (field-independent basis, Debye-Ang):
   XX=           -111.4614   YY=           -111.4876   ZZ=           -104.7024
   XY=             -0.0088   XZ=              0.0089   YZ=             -0.0125
 Traceless Quadrupole moment (field-independent basis, Debye-Ang):
   XX=             -2.2443   YY=             -2.2705   ZZ=              4.5148
   XY=             -0.0088   XZ=              0.0089   YZ=             -0.0125
 Octapole moment (field-independent basis, Debye-Ang**2):
  XXX=             37.9567  YYY=             17.5251  ZZZ=             -0.7824  XYY=            -37.9982
  XXY=            -17.5358  XXZ=              3.5551  XZZ=              0.0286  YZZ=              0.0434
  YYZ=              3.6583  XYZ=             -0.0025
 Hexadecapole moment (field-independent basis, Debye-Ang**3):
 XXXX=          -2985.9878 YYYY=          -2984.5282 ZZZZ=           -746.3722 XXXY=              0.2097
 XXXZ=             24.8859 YYYX=             -0.2103 YYYZ=            -74.1737 ZZZX=             -0.0019
 ZZZY=             -0.0072 XXYY=           -995.1737 XXZZ=           -612.7670 YYZZ=           -612.5675
 XXYZ=             73.9490 YYXZ=            -24.8007 ZZXY=             -0.1541
 N-N= 1.290436377043D+03 E-N=-4.276973884912D+03  KE= 7.285961212013D+02
 PrsmSu:  requested number of processors reduced to:  10 ShMem   1 Linda.
 Calling FoFJK, ICntrl=      2127 FMM=F ISym2X=0 I1Cent= 0 IOpClX= 0 NMat=1 NMatS=1 NMatT=0.
 ***** Axes restored to original set *****
 -------------------------------------------------------------------
 Center     Atomic                   Forces (Hartrees/Bohr)
 Number     Number              X              Y              Z
 -------------------------------------------------------------------
      1        6          -0.002943037    0.001227060   -0.022273779
      2        1           0.003382986   -0.001409240    0.025646012
      3        6          -0.013567353   -0.000956964   -0.001476620
      4        6           0.006560136   -0.006309173    0.005063250
      5        6          -0.000179383    0.003208060   -0.005298143
      6        6          -0.002225738   -0.004368471    0.011365789
      7        1          -0.017476708    0.008550732   -0.009342538
      8        6          -0.009464147    0.006575718   -0.006247728
      9        1          -0.002418625   -0.007705776    0.015335274
     10        6          -0.012473274    0.000683913    0.005457968
     11        1           0.002930023    0.007121529   -0.014792643
     12        1           0.012069092   -0.008005596    0.008173053
     13        1           0.015312164   -0.000930183   -0.006734749
     14        6           0.007070177   -0.010764957   -0.004741314
     15        6           0.003104833    0.007719456    0.006260203
     16        6          -0.003479039   -0.000661585   -0.005027977
     17        6           0.006546177   -0.002022302    0.010280145
     18        1          -0.000564960   -0.017239073   -0.013028353
     19        6          -0.002157600   -0.010036284   -0.008091780
     20        1           0.010126137   -0.001200682    0.014021659
     21        6           0.006122202   -0.011914476    0.002336144
     22        1          -0.009794788    0.001814537   -0.013400420
     23        1           0.002480263    0.012615352    0.010576645
     24        1          -0.007436210    0.014742146   -0.002852229
     25        6           0.005301141    0.012203894   -0.003296211
     26        6          -0.007229126   -0.002395560    0.007125079
     27        6           0.001481620   -0.001637407   -0.005769784
     28        6           0.000151894    0.004498321    0.011518303
     29        1           0.013275428    0.010632193   -0.013312881
     30        6           0.008534784    0.004743091   -0.008735634
     31        1          -0.001668830    0.006411437    0.016016928
     32        6           0.007781969    0.010655938    0.003375782
     33        1           0.001060151   -0.006546911   -0.015303124
     34        1          -0.010528666   -0.006249967    0.011266899
     35        1          -0.009683696   -0.013048770   -0.004093226
 -------------------------------------------------------------------
 Cartesian Forces:  Max     0.025646012 RMS     0.009007508

 GradGradGradGradGradGradGradGradGradGradGradGradGradGradGradGradGradGrad
 Berny optimization.
 Internal  Forces:  Max     0.025906531 RMS     0.006566914
 Search for a local minimum.
 Step number   1 out of a maximum of  197
 All quantities printed in internal units (Hartrees-Bohrs-Radians)
 Mixed Optimization -- RFO/linear search
 Second derivative matrix not updated -- first step.
     Eigenvalues ---    0.00650   0.00650   0.00650   0.01537   0.01537
     Eigenvalues ---    0.01537   0.02142   0.02143   0.02143   0.02171
     Eigenvalues ---    0.02171   0.02172   0.02182   0.02182   0.02182
     Eigenvalues ---    0.02201   0.02201   0.02201   0.02213   0.02213
     Eigenvalues ---    0.02213   0.02215   0.02215   0.02215   0.02216
     Eigenvalues ---    0.02216   0.02217   0.02218   0.02218   0.02218
     Eigenvalues ---    0.04655   0.06495   0.06498   0.15999   0.15999
     Eigenvalues ---    0.15999   0.16000   0.16000   0.16000   0.16000
     Eigenvalues ---    0.16000   0.16000   0.16000   0.16000   0.16000
     Eigenvalues ---    0.16000   0.16000   0.16000   0.19006   0.19009
     Eigenvalues ---    0.22000   0.22000   0.22000   0.22000   0.22000
     Eigenvalues ---    0.22000   0.23478   0.23478   0.23478   0.25000
     Eigenvalues ---    0.25000   0.25000   0.31292   0.31473   0.31474
     Eigenvalues ---    0.31475   0.33902   0.33905   0.33905   0.34106
     Eigenvalues ---    0.34107   0.34107   0.34258   0.34259   0.34260
     Eigenvalues ---    0.34262   0.34262   0.34262   0.34282   0.34282
     Eigenvalues ---    0.34283   0.42451   0.42456   0.42462   0.42577
     Eigenvalues ---    0.42578   0.42580   0.46390   0.46395   0.46401
     Eigenvalues ---    0.46771   0.46779   0.46780   0.47225   0.47230
     Eigenvalues ---    0.47233   0.47307   0.47308   0.473081000.00000
     Eigenvalues --- 1000.000001000.000001000.000001000.000001000.00000
     Eigenvalues --- 1000.000001000.000001000.000001000.000001000.00000
     Eigenvalues --- 1000.000001000.000001000.000001000.000001000.00000
     Eigenvalues --- 1000.000001000.000001000.000001000.000001000.00000
     Eigenvalues --- 1000.000001000.000001000.000001000.000001000.00000
     Eigenvalues --- 1000.000001000.000001000.000001000.000001000.00000
     Eigenvalues --- 1000.000001000.000001000.000001000.000001000.00000
     Eigenvalues --- 1000.000001000.000001000.000001000.000001000.00000
     Eigenvalues --- 1000.000001000.000001000.000001000.000001000.00000
     Eigenvalues --- 1000.000001000.000001000.000001000.000001000.00000
     Eigenvalues --- 1000.000001000.000001000.000001000.000001000.00000
     Eigenvalues --- 1000.000001000.000001000.000001000.000001000.00000
     Eigenvalues --- 1000.000001000.000001000.000001000.000001000.00000
     Eigenvalues --- 1000.000001000.000001000.000001000.000001000.00000
     Eigenvalues --- 1000.000001000.000001000.000001000.000001000.00000
     Eigenvalues --- 1000.000001000.000001000.000001000.000001000.00000
     Eigenvalues --- 1000.000001000.000001000.000001000.000001000.00000
     Eigenvalues --- 1000.000001000.00000
 RFO step:  Lambda=-2.71133236D-02 EMin= 6.49706272D-03
 Linear search not attempted -- first point.
 Maximum step size (   0.300) exceeded in Quadratic search.
    -- Step size scaled by   0.783
 Iteration  1 RMS(Cart)=  0.10435092 RMS(Int)=  0.00168420
 Iteration  2 RMS(Cart)=  0.00451727 RMS(Int)=  0.00032041
 Iteration  3 RMS(Cart)=  0.00000480 RMS(Int)=  0.00032040
 Iteration  4 RMS(Cart)=  0.00000000 RMS(Int)=  0.00032040
 Variable       Old X    -DE/DX   Delta X   Delta X   Delta X     New X
                                 (Linear)    (Quad)   (Total)
    R1        2.12159  -0.02591   0.00000  -0.05965  -0.05965   2.06194
    R2        2.85115   0.01958   0.00000   0.04484   0.04484   2.89599
    R3        2.85120   0.01958   0.00000   0.04484   0.04484   2.89604
    R4        2.85117   0.01957   0.00000   0.04481   0.04481   2.89598
    R5        2.63721  -0.00237   0.00000  -0.00371  -0.00370   2.63351
    R6        2.64097  -0.00441   0.00000  -0.00713  -0.00711   2.63386
    R7        2.62765  -0.00301   0.00000  -0.00461  -0.00462   2.62303
    R8        2.07491  -0.02142   0.00000  -0.04579  -0.04579   2.02912
    R9        2.62633  -0.00369   0.00000  -0.00587  -0.00586   2.62047
   R10        2.07149  -0.01732   0.00000  -0.03682  -0.03682   2.03467
   R11        2.62709  -0.00578   0.00000  -0.00901  -0.00903   2.61806
   R12        2.06890  -0.01668   0.00000  -0.03531  -0.03531   2.03359
   R13        2.62832  -0.00621   0.00000  -0.00980  -0.00981   2.61851
   R14        2.06891  -0.01663   0.00000  -0.03521  -0.03521   2.03370
   R15        2.06856  -0.01675   0.00000  -0.03545  -0.03545   2.03311
   R16        2.63726  -0.00241   0.00000  -0.00379  -0.00378   2.63348
   R17        2.64119  -0.00450   0.00000  -0.00728  -0.00726   2.63393
   R18        2.62765  -0.00297   0.00000  -0.00456  -0.00456   2.62308
   R19        2.07496  -0.02145   0.00000  -0.04587  -0.04587   2.02909
   R20        2.62630  -0.00370   0.00000  -0.00588  -0.00588   2.62043
   R21        2.07151  -0.01732   0.00000  -0.03683  -0.03683   2.03468
   R22        2.62724  -0.00589   0.00000  -0.00919  -0.00920   2.61804
   R23        2.06896  -0.01670   0.00000  -0.03536  -0.03536   2.03360
   R24        2.62841  -0.00624   0.00000  -0.00985  -0.00986   2.61855
   R25        2.06896  -0.01665   0.00000  -0.03525  -0.03525   2.03370
   R26        2.06857  -0.01675   0.00000  -0.03546  -0.03546   2.03311
   R27        2.63716  -0.00234   0.00000  -0.00367  -0.00366   2.63350
   R28        2.64112  -0.00448   0.00000  -0.00724  -0.00722   2.63389
   R29        2.62764  -0.00299   0.00000  -0.00459  -0.00460   2.62304
   R30        2.07491  -0.02143   0.00000  -0.04583  -0.04583   2.02908
   R31        2.62632  -0.00369   0.00000  -0.00587  -0.00586   2.62046
   R32        2.07150  -0.01732   0.00000  -0.03682  -0.03682   2.03467
   R33        2.62720  -0.00585   0.00000  -0.00912  -0.00913   2.61807
   R34        2.06891  -0.01668   0.00000  -0.03531  -0.03531   2.03359
   R35        2.62828  -0.00619   0.00000  -0.00977  -0.00978   2.61851
   R36        2.06893  -0.01664   0.00000  -0.03523  -0.03523   2.03370
   R37        2.06857  -0.01676   0.00000  -0.03546  -0.03546   2.03311
    A1        1.86696  -0.00348   0.00000  -0.03696  -0.03624   1.83072
    A2        1.86678  -0.00347   0.00000  -0.03690  -0.03617   1.83061
    A3        1.86685  -0.00348   0.00000  -0.03699  -0.03626   1.83059
    A4        1.95205   0.00313   0.00000   0.03332   0.03108   1.98313
    A5        1.95229   0.00314   0.00000   0.03334   0.03110   1.98338
    A6        1.95255   0.00314   0.00000   0.03333   0.03109   1.98364
    A7        2.12863   0.00997   0.00000   0.02834   0.02833   2.15696
    A8        2.07447  -0.00226   0.00000  -0.00621  -0.00622   2.06825
    A9        2.08009  -0.00770   0.00000  -0.02213  -0.02211   2.05798
   A10        2.10064   0.00330   0.00000   0.01033   0.01033   2.11097
   A11        2.08620   0.00073   0.00000   0.00479   0.00479   2.09098
   A12        2.09630  -0.00403   0.00000  -0.01515  -0.01515   2.08115
   A13        2.10017   0.00546   0.00000   0.01657   0.01659   2.11676
   A14        2.09416  -0.00347   0.00000  -0.01137  -0.01138   2.08278
   A15        2.08885  -0.00199   0.00000  -0.00521  -0.00522   2.08363
   A16        2.09757   0.00126   0.00000   0.00384   0.00381   2.10137
   A17        2.09046  -0.00054   0.00000  -0.00153  -0.00152   2.08893
   A18        2.09516  -0.00072   0.00000  -0.00231  -0.00230   2.09286
   A19        2.09751  -0.00006   0.00000  -0.00096  -0.00096   2.09655
   A20        2.09154   0.00014   0.00000   0.00094   0.00094   2.09248
   A21        2.09413  -0.00008   0.00000   0.00002   0.00002   2.09415
   A22        2.09039  -0.00226   0.00000  -0.00765  -0.00768   2.08271
   A23        2.09664   0.00115   0.00000   0.00389   0.00390   2.10054
   A24        2.09615   0.00112   0.00000   0.00376   0.00377   2.09992
   A25        2.12880   0.01000   0.00000   0.02842   0.02842   2.15722
   A26        2.07429  -0.00228   0.00000  -0.00626  -0.00627   2.06802
   A27        2.08009  -0.00772   0.00000  -0.02216  -0.02215   2.05795
   A28        2.10061   0.00331   0.00000   0.01036   0.01036   2.11097
   A29        2.08636   0.00071   0.00000   0.00470   0.00470   2.09107
   A30        2.09616  -0.00402   0.00000  -0.01510  -0.01510   2.08106
   A31        2.10020   0.00546   0.00000   0.01657   0.01658   2.11678
   A32        2.09416  -0.00348   0.00000  -0.01140  -0.01141   2.08275
   A33        2.08882  -0.00199   0.00000  -0.00517  -0.00518   2.08364
   A34        2.09758   0.00126   0.00000   0.00384   0.00382   2.10140
   A35        2.09040  -0.00053   0.00000  -0.00149  -0.00148   2.08892
   A36        2.09520  -0.00074   0.00000  -0.00236  -0.00235   2.09285
   A37        2.09746  -0.00004   0.00000  -0.00090  -0.00090   2.09655
   A38        2.09154   0.00014   0.00000   0.00093   0.00094   2.09247
   A39        2.09419  -0.00010   0.00000  -0.00004  -0.00004   2.09415
   A40        2.09042  -0.00228   0.00000  -0.00771  -0.00774   2.08269
   A41        2.09666   0.00115   0.00000   0.00389   0.00390   2.10055
   A42        2.09611   0.00113   0.00000   0.00381   0.00382   2.09993
   A43        2.12875   0.00999   0.00000   0.02841   0.02840   2.15715
   A44        2.07439  -0.00229   0.00000  -0.00628  -0.00629   2.06810
   A45        2.08004  -0.00771   0.00000  -0.02213  -0.02211   2.05793
   A46        2.10063   0.00331   0.00000   0.01036   0.01035   2.11099
   A47        2.08630   0.00072   0.00000   0.00476   0.00476   2.09106
   A48        2.09621  -0.00404   0.00000  -0.01515  -0.01515   2.08106
   A49        2.10024   0.00545   0.00000   0.01654   0.01655   2.11679
   A50        2.09414  -0.00347   0.00000  -0.01137  -0.01138   2.08276
   A51        2.08880  -0.00199   0.00000  -0.00517  -0.00518   2.08362
   A52        2.09761   0.00125   0.00000   0.00381   0.00378   2.10139
   A53        2.09042  -0.00053   0.00000  -0.00150  -0.00149   2.08893
   A54        2.09515  -0.00072   0.00000  -0.00231  -0.00230   2.09285
   A55        2.09746  -0.00004   0.00000  -0.00091  -0.00092   2.09655
   A56        2.09157   0.00013   0.00000   0.00090   0.00091   2.09248
   A57        2.09415  -0.00009   0.00000   0.00001   0.00001   2.09416
[...]
 20580,-0.00003746,-0.00019424,-0.00026856,-0.00000372,-0.00003190,0.00
 002704,0.00005333,-0.00000119,0.00017140,-0.00003793,-0.00023675,0.000
 04380,0.00000851,0.00013662,0.00011512,-0.00013604,0.00018542,0.000007
 84,-0.00000054,-0.00000231,0.00001933,-0.00000311,-0.00001036,-0.00000
 276,0.00000383,0.00001356,0.00022243,-0.00052212,-0.00051654,0.0000703
 8,0.00019617,-0.00007957,0.00025245,-0.00033177,-0.00007656,0.00001487
 ,-0.00038683,-0.00016818,-0.00018885,0.00002261,-0.00010460,-0.0002643
 6,0.00013836,-0.00014148,0.00002502,0.00001887,-0.00003154,0.00016941,
 0.00010894,0.00022231,0.00002206,-0.00000099,-0.00000218,-0.00001218,-
 0.00002403,0.00001227,0.00000334,-0.00002209,-0.00000234,-0.02009529,0
 .02603168,0.07000014,-0.01814901,-0.04821741,-0.04451078,0.02694501,-0
 .02881347,-0.15561782,0.06697201,0.02952438,-0.04608431,-0.00096847,-0
 .00043652,-0.00037291,-0.21678740,0.13724791,0.65945357,-0.00044238,0.
 00286187,0.00012791,-0.00057484,-0.00044692,-0.00107656,-0.00015363,-0
 .00000416,-0.00031011,0.00011234,-0.00006121,-0.00009187,0.00001045,-0
 .00007400,0.00009710,0.00002070,0.00004929,-0.00002269,-0.00000756,0.0
 0001400,-0.00000849,0.00000076,0.00002024,-0.00003001,-0.00003420,0.00
 004161,-0.00001011,0.00001711,-0.00000590,-0.00000457,0.00001613,0.000
 01190,-0.00000855,0.00000308,-0.00000151,0.00000446,0.00000841,0.00000
 351,-0.00000698,0.00034913,-0.00004531,0.00007174,-0.00002704,0.000068
 03,0.00014380,-0.00009558,0.00011077,0.00007344,-0.00008973,0.00005779
 ,0.00000585,0.00001195,-0.00003691,-0.00010158,0.00005739,-0.00005144,
 0.00000745,-0.00003566,-0.00004118,-0.00002488,-0.00006979,0.00001275,
 -0.00004573,-0.00001178,0.00002043,-0.00002330,0.00000093,0.00001576,-
 0.00000350,-0.00000052,0.00000916,-0.00001431,0.00109384,0.01315241,0.
 02305482,-0.00022752,-0.00488446,0.00544744,-0.06963457,0.01382713,0.0
 4625678,-0.00104719,-0.00028604,-0.00025706,-0.00008646,0.00075275,0.0
 0102380,0.00843514,-0.01231249,-0.01942760,0.06271675,0.00109411,-0.00
 131086,0.00151469,-0.00014079,0.00043060,0.00068309,0.00010807,0.00021
 871,0.00012418,0.00003136,0.00001868,0.00002635,0.00006478,0.00006997,
 -0.00014329,0.00000812,-0.00004146,0.00000864,-0.00000134,-0.00000122,
 0.00001528,-0.00001698,-0.00002496,0.00001611,0.00001138,-0.00000709,0
 .00002678,0.00002718,0.00001109,-0.00001433,0.00000373,-0.00000311,-0.
 00000870,0.00001921,-0.00000636,-0.00000125,0.00000541,-0.00000124,0.0
 0000138,-0.00008123,-0.00016857,0.00007366,0.00002230,0.00001536,-0.00
 002870,0.00006023,-0.00011243,-0.00009123,0.00005527,-0.00002371,0.000
 02854,-0.00002088,0.00005466,0.00001589,-0.00002863,-0.00004548,-0.000
 03032,-0.00000797,-0.00000474,0.00000534,-0.00001480,0.00002079,0.0000
 2360,-0.00000762,-0.00000047,-0.00000947,0.00000149,0.00001211,0.00000
 993,-0.00000502,0.00001573,-0.00000287,-0.00355758,0.00940689,0.010044
 80,-0.00476337,0.00265866,-0.00026047,0.01368181,-0.13753787,-0.132803
 80,-0.00024645,-0.00058535,0.00082364,-0.00007003,0.00023998,0.0005455
 6,0.00671329,-0.00811847,-0.02642574,-0.00900166,0.13736088,-0.0023749
 6,0.00070457,-0.00040465,0.00062436,0.00040881,0.00052650,0.00010130,-
 0.00024633,0.00035817,-0.00016524,0.00004920,0.00009758,-0.00001917,0.
 00004517,0.00005189,-0.00002649,-0.00002221,0.00005595,-0.00000148,-0.
 00001763,-0.00003653,-0.00001853,0.00002790,-0.00001618,0.00001011,-0.
 00002593,-0.00003064,-0.00000659,-0.00000353,0.00000602,-0.00001608,-0
 .00000537,0.00000174,-0.00001293,-0.00000386,-0.00000271,-0.00000464,-
 0.00000412,-0.00000244,0.00026810,0.00035857,0.00033736,-0.00023403,-0
 .00016300,-0.00007300,-0.00014088,0.00033589,0.00011947,-0.00011635,0.
 00016222,0.00003259,0.00013221,-0.00008072,-0.00007005,0.00008273,0.00
 002376,0.00012016,0.00002971,0.00000471,-0.00003154,-0.00003476,-0.000
 03670,-0.00007463,0.00002491,-0.00000188,-0.00000344,-0.00000253,-0.00
 000196,-0.00001685,0.00001419,-0.00001058,-0.00000273,0.00037163,-0.01
 500854,-0.01422881,0.00560987,0.00022186,0.00054012,0.04656082,-0.1318
 2735,-0.28197320,-0.00019240,0.00093443,0.00047740,0.00003232,-0.00064
 674,-0.00090354,0.00462735,-0.00067247,-0.00151192,-0.05390287,0.14694
 234,0.29422968,-0.00014867,0.00142301,0.00030255,-0.00026732,-0.000058
 17,-0.00055136,0.00028846,-0.00029674,0.00016412,0.00012648,0.00000882
 ,-0.00022224,-0.00029483,-0.00009810,0.00001702,-0.00019530,0.00010080
 ,-0.00001460,0.00000995,0.00002396,-0.00001906,0.00021565,0.00003661,-
 0.00017197,0.00000469,0.00000943,0.00003947,0.00001122,-0.00013100,0.0
 0021092,-0.00001440,-0.00000573,0.00001906,-0.00001971,0.00000410,-0.0
 0001434,-0.00001797,-0.00000299,0.00000356,0.00034991,0.00042261,-0.00
 025445,0.00010140,-0.00004629,-0.00011216,0.00021309,-0.00022627,-0.00
 003374,-0.00002073,-0.00025453,-0.00010285,-0.00030201,-0.00012953,-0.
 00017359,-0.00015719,0.00006816,-0.00009167,0.00000125,0.00001585,0.00
 000081,0.00011835,0.00003453,0.00014171,0.00003051,-0.00003994,0.00001
 559,-0.00001077,-0.00002224,0.00001881,0.00000390,-0.00001668,-0.00000
 529,-0.03153658,0.00932851,0.04602358,-0.03275462,-0.05997470,-0.01844
 771,0.05017738,0.01876924,-0.03031577,-0.23649828,-0.05394599,0.144146
 51,0.00258904,-0.00592601,0.00104421,-0.13303944,-0.03737053,0.0214853
 0,0.00156805,-0.00692990,0.00146995,0.53472962,0.00105375,-0.00070678,
 -0.00017895,-0.00011413,-0.00013308,0.00027912,0.00004862,-0.00008983,
 -0.00019958,-0.00009547,0.00004016,-0.00006949,0.00000376,-0.00004137,
 0.00008442,0.00002629,0.00000410,-0.00002307,0.00000303,-0.00000825,-0
 .00000603,0.00001191,0.00000972,0.00004762,0.00005111,-0.00003484,-0.0
 0001127,-0.00006158,0.00002208,0.00003106,-0.00001941,-0.00001186,0.00
 001199,-0.00004339,-0.00000265,-0.00001287,-0.00001675,-0.00000587,0.0
 0000263,-0.00086481,-0.00002698,-0.00000615,-0.00000077,-0.00016559,-0
 .00013940,0.00011448,-0.00015387,0.00018540,0.00002840,0.00007291,0.00
 006981,0.00000896,-0.00000868,-0.00000245,0.00005307,-0.00002126,-0.00
 004001,-0.00001740,0.00002538,0.00001140,-0.00000020,-0.00007638,-0.00
 002996,0.00001686,-0.00003544,0.00002599,0.00002086,-0.00003347,-0.000
 00695,0.00001037,-0.00000448,0.00000638,0.00954299,-0.00346246,-0.0094
 8301,-0.02737938,0.00038612,0.02600391,-0.01349612,-0.02782009,-0.0300
 3357,-0.09608690,-0.15354790,0.04545978,-0.00591300,-0.00088447,-0.004
 07127,0.00415360,-0.18547467,-0.13670543,-0.00668418,-0.00046674,-0.00
 300582,0.26973394,0.60456251,0.00028418,-0.00190860,-0.00134751,-0.000
 01684,-0.00039232,0.00106108,-0.00035259,0.00016376,-0.00051393,-0.000
 38841,0.00001774,0.00031167,0.00040692,0.00020715,0.00007226,0.0003457
 4,-0.00015658,-0.00000882,-0.00001381,-0.00002168,0.00000573,-0.000337
 44,-0.00001860,0.00031601,-0.00000041,-0.00004548,-0.00009333,-0.00010
 107,0.00022238,-0.00028473,-0.00000393,-0.00000628,-0.00000934,-0.0000
 0012,-0.00000801,0.00001092,0.00000778,0.00000134,-0.00000842,-0.00119
 027,-0.00040204,0.00054422,-0.00018828,-0.00039420,0.00008356,-0.00022
 303,0.00030163,0.00034729,-0.00003468,0.00050023,0.00015825,0.00028847
 ,-0.00000500,0.00005624,0.00035154,-0.00016482,0.00014765,-0.00000852,
 0.00000678,0.00000760,-0.00017669,-0.00022024,-0.00029297,-0.00000502,
 -0.00002839,0.00004586,0.00004036,-0.00000511,-0.00003521,0.00000854,0
 .00000267,0.00000413,0.04666997,-0.00764544,-0.08430000,0.02436647,0.0
 7150602,0.06853449,-0.07393231,-0.07514332,0.01389838,0.09101066,-0.01
 339432,-0.22711170,0.00077438,-0.00443044,0.00252417,0.07503314,-0.077
 90302,-0.28976895,0.00193021,-0.00242182,0.00326593,-0.15847120,0.1730
 9908,0.61948034,0.00037680,-0.00007835,-0.00081657,-0.00009226,-0.0001
 3392,-0.00012030,0.00009904,0.00003673,-0.00000605,0.00003242,0.000014
 94,0.00000826,-0.00004649,0.00000051,0.00001845,-0.00003094,0.00001716
 ,0.00001683,0.00000345,-0.00000594,-0.00000936,0.00001698,0.00002205,-
 0.00000835,0.00000354,-0.00001242,-0.00001404,-0.00002880,-0.00000069,
 0.00003907,-0.00000625,-0.00000792,-0.00000221,-0.00001553,-0.00000377
 ,-0.00000882,-0.00000655,-0.00000755,-0.00000292,-0.00009926,-0.000049
 63,-0.00001490,0.00002592,0.00002660,0.00002766,-0.00000353,-0.0000361
 7,0.00001119,0.00000905,-0.00000134,0.00000140,0.00000947,-0.00001299,
 0.00001231,0.00001238,-0.00001006,-0.00000765,-0.00000482,0.00000304,0
 .00000470,-0.00000277,-0.00000692,-0.00000497,-0.00000230,0.00000611,-
 0.00000042,0.00000227,-0.00000523,-0.00000411,-0.00000061,-0.00000256,
 0.00000205,0.00136560,-0.00678667,0.00159568,0.00835379,-0.01186536,-0
 .01908012,-0.00119413,-0.00035085,-0.00017204,-0.07021941,0.01402399,0
 .04749619,-0.00129361,0.00280048,-0.00157578,0.00022651,-0.00523443,0.
 00548705,-0.00047621,0.00053821,-0.00039787,0.00218922,0.01476328,0.02
 348663,0.06239532,0.00047602,-0.00024392,-0.00098336,-0.00018855,-0.00
 033793,-0.00010405,0.00028931,0.00003513,-0.00005933,-0.00008806,0.000
 03383,0.00005172,-0.00002240,0.00003573,0.00001114,0.00002185,0.000001
 34,0.00001595,0.00000981,-0.00001947,-0.00001570,-0.00000559,-0.000008
 19,0.00001935,0.00001451,-0.00001541,0.00001810,-0.00004326,0.00002256
 ,0.00001204,-0.00002037,-0.00002034,0.00001102,-0.00000980,0.00000193,
 -0.00000228,-0.00001360,-0.00000471,0.00000047,-0.00021341,0.00007649,
 -0.00013323,-0.00000651,-0.00011594,0.00001733,0.00008089,-0.00010764,
 0.00004663,-0.00001350,0.00000710,-0.00000211,-0.00000905,0.00003174,-
 0.00005745,-0.00000004,-0.00000720,-0.00000657,0.00001195,0.00001904,0
 .00001354,0.00001350,-0.00002511,0.00000389,0.00002294,-0.00002150,0.0
 0001003,0.00000444,-0.00001588,-0.00000071,0.00000699,-0.00000870,-0.0
 0000043,-0.00669117,-0.00049588,-0.00229601,0.00660778,-0.00799508,-0.
 02638914,-0.00031872,-0.00058550,0.00091018,0.01404656,-0.13858278,-0.
 13401227,0.00209170,-0.00099273,0.00219536,-0.00503643,0.00308006,-0.0
 0045075,0.00055102,-0.00044149,0.00026784,-0.00387826,0.01036355,0.011
 42364,-0.01040119,0.13715671,0.00035231,0.00025668,-0.00028152,-0.0000
 4056,-0.00008794,-0.00005496,0.00008833,-0.00008334,-0.00003507,-0.000
 02154,0.00001907,-0.00003383,-0.00006343,-0.00001054,0.00002326,-0.000
 01976,0.00002318,0.00000201,0.00000734,0.00000619,-0.00001153,0.000037
 39,0.00001268,0.00000020,0.00002172,-0.00001601,-0.00000377,-0.0000282
 4,-0.00000420,0.00004707,-0.00001112,-0.00000945,0.00000806,-0.0000264
 1,0.00000072,-0.00001457,-0.00001745,-0.00000732,0.00000232,-0.0001576
 7,-0.00001890,-0.00001877,0.00003415,-0.00002606,0.00003549,0.00002968
 ,-0.00004752,0.00004323,-0.00002459,0.00000669,-0.00001731,-0.00001469
 ,0.00001135,-0.00004005,0.00001414,-0.00001252,-0.00000414,-0.00000217
 ,0.00001076,0.00000054,-0.00000096,-0.00002092,-0.00000773,0.00001252,
 -0.00000418,0.00000527,0.00000309,-0.00001490,-0.00000725,0.00000505,-
 0.00001328,-0.00000042,0.00134892,-0.00286293,0.00312595,0.00449169,-0
 .00049937,-0.00135699,-0.00029053,0.00086052,0.00055297,0.04725704,-0.
 13393475,-0.28490376,-0.00221159,0.00140470,-0.00015370,0.00580747,-0.
 00007753,0.00076532,-0.00039517,0.00027845,-0.00036876,-0.00007744,-0.
 01452819,-0.01272414,-0.05464053,0.14774884,0.29647023,-0.00052367,0.0
 0017505,0.00076325,-0.00002045,-0.00002666,-0.00006712,0.00005693,-0.0
 0019464,-0.00019888,-0.00010290,0.00002670,0.00001315,-0.00002778,-0.0
 0003026,0.00006902,0.00003355,0.00000931,-0.00000203,0.00000471,0.0000
 0531,-0.00000414,-0.00000591,-0.00000709,0.00002877,0.00001547,-0.0000
 0764,-0.00000348,-0.00003155,0.00001789,-0.00001211,-0.00000986,-0.000
 00533,0.00001115,-0.00002168,0.00001042,0.00000054,-0.00001273,-0.0000
 0019,0.00000383,-0.00012066,0.00011057,-0.00004898,0.00004053,-0.00001
 614,0.00002802,0.00006934,-0.00006365,0.00000159,-0.00001429,-0.000003
 43,-0.00000684,-0.00001998,0.00001376,-0.00003431,0.00000171,-0.000012
 27,-0.00001477,-0.00001119,0.00000884,0.00000478,0.00000746,-0.0000157
 9,-0.00000554,0.00000621,-0.00000429,0.00000850,-0.00000354,-0.0000205
 4,-0.00000183,0.00000439,-0.00001364,0.00000125,0.00286961,-0.00620570
 ,0.00080549,0.00000273,0.00023364,-0.00100405,-0.00844612,-0.00311597,
 0.01585471,0.00468566,-0.00229529,0.00266314,-0.00057701,0.00049904,-0
 .00031996,-0.21518927,-0.07082119,0.14360110,-0.00150519,0.00218799,-0
 .00237170,0.00169327,-0.00400863,0.00017243,-0.00018695,-0.00007609,0.
 00003939,0.21874753,-0.00074931,-0.00000654,0.00099026,0.00003278,0.00
 007927,-0.00000965,-0.00002575,-0.00042967,-0.00010962,-0.00005811,0.0
 0002768,0.00000268,-0.00007846,0.00000732,0.00000554,-0.00002763,0.000
 03734,0.00001512,0.00000095,-0.00001503,-0.00000675,0.00005061,0.00001
 118,-0.00000624,0.00000911,-0.00000248,0.00000030,-0.00002366,-0.00002
 758,0.00004295,-0.00001104,-0.00000356,0.00001273,-0.00000926,0.000004
 77,-0.00000364,-0.00000868,-0.00000218,0.00000202,-0.00016619,0.000054
 88,-0.00004078,0.00004985,-0.00004036,0.00000321,0.00004237,-0.0000684
 8,0.00001921,0.00001091,-0.00000673,-0.00002109,-0.00004560,0.00000683
 ,0.00000306,0.00001082,-0.00000272,-0.00001867,-0.00000745,0.00000870,
 0.00001504,0.00002676,-0.00003165,-0.00000106,0.00000455,-0.00001607,0
 .00002220,-0.00000144,-0.00001457,0.00000225,-0.00000241,-0.00001148,0
 .00000592,-0.00570567,-0.00079764,-0.00442605,0.00036003,-0.00096566,-
 0.00056835,-0.02158100,-0.00204719,0.02063683,-0.00258928,0.00142801,-
 0.00566598,0.00044728,-0.00040315,0.00045351,-0.07076066,-0.08889806,0
 .04802745,0.00282501,-0.00099857,0.00137608,0.01435226,0.01052117,-0.0
 1371553,0.00068661,0.00022337,-0.00056801,0.08098397,0.08332939,-0.000
 38561,-0.00011597,0.00022572,0.00001341,0.00004331,-0.00003196,-0.0000
 2384,0.00001628,-0.00006164,-0.00000061,0.00000364,0.00003789,0.000025
 97,0.00000946,0.00001911,0.00002195,-0.00000551,0.00001151,-0.00000337
 ,-0.00000964,-0.00000323,-0.00003259,0.00000813,0.00001497,-0.00001026
 ,-0.00000407,-0.00001680,-0.00000825,0.00001873,-0.00002023,0.00000082
 ,-0.00000167,-0.00000744,0.00000078,-0.00000398,0.00000178,0.00000464,
 -0.00000183,-0.00000475,0.00010061,0.00005819,0.00001638,-0.00002562,0
 .00002054,-0.00001331,-0.00000636,0.00000842,-0.00004482,0.00000917,-0
 .00001480,0.00002956,0.00003389,-0.00001998,-0.00000145,-0.00001740,0.
 00000746,-0.00000269,-0.00000091,-0.00000594,-0.00000348,-0.00000424,0
 .00002479,0.00001273,-0.00000304,0.00001019,-0.00001832,-0.00000207,0.
 00000705,0.00000297,0.00000024,0.00001073,-0.00000214,0.00101938,-0.00
 409346,0.00251698,-0.00099389,-0.00053099,-0.00023856,-0.00785570,-0.0
 0552654,0.00970124,0.00232601,-0.00601189,-0.00238659,-0.00031750,0.00
 041284,-0.00028251,0.14376814,0.04820257,-0.18988837,-0.00156760,0.002
 19197,-0.00013615,0.02374479,0.01225757,-0.01229674,0.00106164,0.00051
 625,-0.00088219,-0.15859527,-0.04868544,0.19379654,-0.00038245,0.00056
 534,-0.00032620,-0.00000270,-0.00007892,-0.00014872,0.00005291,-0.0000
 3516,-0.00003654,-0.00005741,-0.00000560,-0.00002218,0.00000423,-0.000
 01897,0.00003285,0.00002389,-0.00000376,-0.00002260,0.00000359,0.00002
 278,-0.00000116,0.00000697,-0.00000627,0.00001543,0.00001511,-0.000002
 92,-0.00000078,-0.00000638,0.00001117,-0.00000270,-0.00000361,-0.00000
 145,0.00000962,-0.00001656,0.00000437,-0.00000666,-0.00001271,-0.00000
 090,0.00000387,0.00002174,0.00009618,0.00004026,0.00002720,0.00000399,
 0.00003468,-0.00000119,0.00000776,0.00000672,-0.00001754,-0.00000166,-
 0.00001522,-0.00001897,0.00000479,-0.00001689,0.00000591,-0.00000233,0
 .00000669,-0.00000195,0.00000392,-0.00000158,-0.00000132,-0.00000790,-
 0.00000416,0.00000471,0.00000227,0.00000147,-0.00000208,-0.00000743,-0
 .00000428,0.00000341,-0.00000913,-0.00000075,-0.00050505,0.00083213,0.
 00040866,0.00103713,-0.00370749,0.00637964,0.00421190,-0.00209402,0.00
 362332,-0.00818372,-0.02169626,-0.00893733,-0.00064636,-0.00090687,-0.
 00037223,0.00791025,0.00620930,0.00393638,0.00009771,0.00026030,0.0000
 7995,-0.15914365,-0.14484315,-0.02973280,-0.00141132,0.00278672,-0.001
 50637,-0.00140839,0.00195771,-0.00227732,0.15839672,0.00039194,-0.0004
 1813,0.00030145,0.00000221,0.00002579,0.00010634,0.00002912,-0.0000674
 1,-0.00001400,-0.00004203,0.00000981,-0.00003583,-0.00002332,-0.000036
 32,-0.00000792,0.00001447,0.00000643,-0.00001537,0.00000683,0.00001098
 ,0.00000345,0.00002039,-0.00001787,0.00000802,0.00001363,0.00000037,0.
 00001633,-0.00001371,0.00000487,0.00000827,-0.00000750,-0.00000694,0.0
 0001103,-0.00000771,0.00000834,-0.00000200,-0.00001188,0.00000070,0.00
 000550,-0.00014563,-0.00003128,-0.00007173,0.00003180,-0.00004344,0.00
 001706,0.00004875,-0.00004858,0.00003621,-0.00002665,0.00001692,-0.000
 03031,-0.00004480,0.00002891,-0.00003296,0.00001206,-0.00001043,-0.000
 00170,0.00000243,0.00001024,0.00000522,0.00000482,-0.00002386,-0.00000
 832,0.00001214,-0.00001450,0.00001689,0.00000121,-0.00001420,-0.000003
 20,0.00000334,-0.00001506,0.00000078,0.00094501,0.00037715,0.00033517,
 -0.00406917,0.00393302,-0.00075154,-0.00179242,0.00277125,-0.00507559,
 -0.00296597,-0.00271182,-0.00593557,-0.00013266,-0.00036187,-0.0001688
 6,-0.01220803,-0.00816393,0.00025114,-0.00046805,-0.00063394,-0.000078
 61,-0.14497826,-0.25279069,-0.05902119,0.00207427,-0.00104316,0.002208
 06,0.00266194,-0.00095054,0.00120357,0.16066145,0.26019916,-0.00037000
 ,0.00034573,-0.00015932,0.00007051,0.00000579,-0.00001707,0.00004719,-
 0.00002769,0.00000552,-0.00002228,0.00001316,0.00004545,-0.00002714,0.
 00003711,0.00001109,-0.00002023,0.00000142,0.00001424,-0.00000020,-0.0
 0000704,-0.00000895,0.00000246,0.00000571,-0.00000151,0.00000960,-0.00
 000996,-0.00000298,-0.00000427,-0.00000948,0.00000516,-0.00000164,0.00
 000092,0.00000083,-0.00000526,-0.00000049,-0.00000101,-0.00000071,-0.0
 0000087,0.00000081,0.00000707,0.00006707,0.00005772,-0.00001679,-0.000
 00941,0.00001261,-0.00001599,0.00002242,0.00000881,-0.00000379,0.00000
 752,0.00000246,0.00002240,-0.00000595,-0.00001088,0.00000488,0.0000035
 6,0.00001103,0.00000440,0.00000413,-0.00000357,-0.00000140,-0.00000206
 ,-0.00000711,0.00000083,0.00000237,0.00000085,-0.00000082,-0.00000229,
 -0.00000340,0.00000215,-0.00000347,0.00000046,0.00038864,0.00025382,-0
 .00121295,0.00593897,-0.00116860,-0.00073048,0.00405213,-0.00465595,-0
 .00305675,0.01463753,0.02011840,0.01041978,0.00056869,0.00088375,0.000
 24786,-0.01968289,-0.02583948,-0.00033402,-0.00091127,-0.00115824,-0.0
 0033276,-0.02976851,-0.05902271,-0.08207996,-0.00238209,0.00122008,-0.
 00016145,-0.00137909,0.00221051,-0.00004403,0.02885692,0.06672022,0.07
 732352||0.00000601,-0.00000199,0.00004225,0.00000403,-0.00000037,0.000
 01795,-0.00003225,0.00002325,-0.00006885,-0.00005968,-0.00000522,0.000
 05647,0.00005173,-0.00002877,0.00000646,0.00007221,-0.00001183,-0.0000
 0447,0.00001172,-0.00000738,0.00000384,-0.00003920,-0.00001357,0.00004
 536,-0.00000164,0.00001195,-0.00001065,-0.00000969,0.00003530,-0.00005
 284,-0.00000757,-0.00000717,0.00000492,-0.00000053,0.00000799,-0.00000
 731,-0.00001009,-0.00000565,0.00000872,-0.00001348,-0.00002405,-0.0000
 6586,0.00003967,-0.00005549,0.00003564,0.00000138,0.00005200,0.0000159
 7,-0.00002382,0.00006328,0.00001123,0.00000151,0.00001227,0.00000671,0
 .00003391,-0.00003234,0.00003151,-0.00001143,-0.00000515,-0.00001008,-
 0.00003171,-0.00001390,-0.00004841,0.00001050,-0.00000343,0.00000282,-
 0.00000778,-0.00000311,-0.00000687,0.00001097,-0.00000746,0.00000554,0
 .00001677,0.00001332,-0.00007325,0.00003723,0.00005564,0.00004617,-0.0
 0004680,-0.00002968,0.00001886,-0.00004515,-0.00005652,0.00000829,-0.0
 0001076,-0.00000621,0.00000705,0.00001801,0.00004173,0.00004035,0.0000
 0836,-0.00000488,-0.00001289,0.00002159,-0.00001083,-0.00005898,-0.000
 00141,0.00001018,0.00000505,0.00000526,-0.00000374,-0.00000875,0.00000
 211,0.00001183,0.00000801|||@


 TOM, TOM, THE BURGLAR'S SON
 STOLE A MACHINE AND AWAY HE RUN
 THE JOB WAS NEAT, BUT TOM GOT BEAT
 BY THE TIME HE GOT HOME IT WAS OBSOLETE.
 Job cpu time:  0 days  0 hours  6 minutes 49.0 seconds.
 File lengths (MBytes):  RWF=    350 Int=      0 D2E=      0 Chk=      7 Scr=      1
 Normal termination of Gaussian 09 at Mon Sep 06 12:32:54 2021.
