 Entering Link 1 = b:\programy\g09w\l1.exe PID=     16304.
  
 Copyright (c) 1988,1990,1992,1993,1995,1998,2003,2009, Gaussian, Inc.
                  All Rights Reserved.
  
 This is part of the Gaussian(R) 09 program.  It is based on
 the Gaussian(R) 03 system (copyright 2003, Gaussian, Inc.),
 the Gaussian(R) 98 system (copyright 1998, Gaussian, Inc.),
 the Gaussian(R) 94 system (copyright 1995, Gaussian, Inc.),
 the Gaussian 92(TM) system (copyright 1992, Gaussian, Inc.),
 the Gaussian 90(TM) system (copyright 1990, Gaussian, Inc.),
 the Gaussian 88(TM) system (copyright 1988, Gaussian, Inc.),
 the Gaussian 86(TM) system (copyright 1986, Carnegie Mellon
 University), and the Gaussian 82(TM) system (copyright 1983,
 Carnegie Mellon University). Gaussian is a federally registered
 trademark of Gaussian, Inc.
  
 This software contains proprietary and confidential information,
 including trade secrets, belonging to Gaussian, Inc.
  
 This software is provided under written license and may be
 used, copied, transmitted, or stored only in accord with that
 written license.
  
 The following legend is applicable only to US Government
 contracts under FAR:
  
                    RESTRICTED RIGHTS LEGEND
  
 Use, reproduction and disclosure by the US Government is
 subject to restrictions as set forth in subparagraphs (a)
 and (c) of the Commercial Computer Software - Restricted
 Rights clause in FAR 52.227-19.
  
 Gaussian, Inc.
 340 Quinnipiac St., Bldg. 40, Wallingford CT 06492
  
  
 ---------------------------------------------------------------
 Warning -- This program may not be used in any manner that
 competes with the business of Gaussian, Inc. or will provide
 assistance to any competitor of Gaussian, Inc.  The licensee
 of this program is prohibited from giving any competitor of
 Gaussian, Inc. access to this program.  By using this program,
 the user acknowledges that Gaussian, Inc. is engaged in the
 business of creating and licensing software in the field of
 computational chemistry and represents and warrants to the
 licensee that it is not a competitor of Gaussian, Inc. and that
 it will not use this program in any manner prohibited above.
 ---------------------------------------------------------------
  

 Cite this work as:
 Gaussian 09, Revision A.02,
 M. J. Frisch, G. W. Trucks, H. B. Schlegel, G. E. Scuseria, 
 M. A. Robb, J. R. Cheeseman, G. Scalmani, V. Barone, B. Mennucci, 
 G. A. Petersson, H. Nakatsuji, M. Caricato, X. Li, H. P. Hratchian, 
 A. F. Izmaylov, J. Bloino, G. Zheng, J. L. Sonnenberg, M. Hada, 
 M. Ehara, K. Toyota, R. Fukuda, J. Hasegawa, M. Ishida, T. Nakajima, 
 Y. Honda, O. Kitao, H. Nakai, T. Vreven, J. A. Montgomery, Jr., 
 J. E. Peralta, F. Ogliaro, M. Bearpark, J. J. Heyd, E. Brothers, 
 K. N. Kudin, V. N. Staroverov, R. Kobayashi, J. Normand, 
 K. Raghavachari, A. Rendell, J. C. Burant, S. S. Iyengar, J. Tomasi, 
 M. Cossi, N. Rega, J. M. Millam, M. Klene, J. E. Knox, J. B. Cross, 
 V. Bakken, C. Adamo, J. Jaramillo, R. Gomperts, R. E. Stratmann, 
 O. Yazyev, A. J. Austin, R. Cammi, C. Pomelli, J. W. Ochterski, 
 R. L. Martin, K. Morokuma, V. G. Zakrzewski, G. A. Voth, 
 P. Salvador, J. J. Dannenberg, S. Dapprich, A. D. Daniels, 
 O. Farkas, J. B. Foresman, J. V. Ortiz, J. Cioslowski, 
 and D. J. Fox, Gaussian, Inc., Wallingford CT, 2009.
 
 ******************************************
 Gaussian 09:  IA32W-G09RevA.02 11-Jun-2009
                07-Sep-2021 
 ******************************************
 %nprocshared=12
 Will use up to   12 processors via shared memory.
 ----------------------------------------------
 # opt freq=noraman hf/6-311g geom=connectivity
 ----------------------------------------------
 1/18=20,19=15,38=1,57=2/1,3;
 2/9=110,12=2,17=6,18=5,40=1/2;
 3/5=4,6=6,11=9,16=1,25=1,30=1,71=1/1,2,3;
 4//1;
 5/5=2,38=5/2;
 6/7=2,8=2,9=2,10=2,28=1/1;
 7//1,2,3,16;
 1/18=20,19=15/3(2);
 2/9=110/2;
 99//99;
 2/9=110/2;
 3/5=4,6=6,11=9,16=1,25=1,30=1,71=1/1,2,3;
 4/5=5,16=3/1;
 5/5=2,38=5/2;
 7//1,2,3,16;
 1/18=20,19=15/3(-5);
 2/9=110/2;
 6/7=2,8=2,9=2,10=2,19=2,28=1/1;
 99/9=1/99;
 -----
 M0001
 -----
 Symbolic Z-matrix:
 Charge =  0 Multiplicity = 1
 C                    -0.05066  -0.00715   0.77727 
 H                    -0.08295  -0.0125    1.89974 
 C                     0.2338   -1.43863   0.39518 
 C                     1.51331  -1.9568    0.62064 
 C                    -0.75514  -2.27912  -0.11564 
 C                     1.79689  -3.28534   0.33232 
 H                     2.29656  -1.30339   1.0237 
 C                    -0.46939  -3.61     -0.40251 
 H                    -1.76502  -1.8887   -0.29412 
 C                     0.80558  -4.11596  -0.18086 
 H                     2.80304  -3.67855   0.51025 
 H                    -1.25446  -4.25906  -0.80402 
 H                     1.02939  -5.16303  -0.40796 
 C                    -1.37995   0.50857   0.28499 
 C                    -2.34997   0.89045   1.21444 
 C                    -1.66185   0.62267  -1.07833 
 C                    -3.58036   1.37625   0.78534 
 H                    -2.14345   0.80836   2.28819 
 C                    -2.89215   1.10712  -1.50476 
 H                    -0.88912   0.33742  -1.80942 
 C                    -3.85433   1.48406  -0.57352 
 H                    -4.33394   1.67526   1.52121 
 H                    -3.10207   1.19334  -2.5757 
 H                    -4.82357   1.86597  -0.90971 
 C                     1.06175   0.9189    0.34754 
 C                     1.43496   1.03108  -0.99347 
 C                     1.73252   1.67871   1.30804 
 C                     2.46644   1.88342  -1.36724 
 H                     0.88855   0.44797  -1.75065 
 C                     2.76298   2.53306   0.93107 
 H                     1.44729   1.60437   2.36398 
 C                     3.13327   2.63512  -0.40524 
 H                     2.75261   1.96338  -2.42094 
 H                     3.28338   3.12616   1.69008 
 H                     3.94604   3.30661  -0.69988 
 

 GradGradGradGradGradGradGradGradGradGradGradGradGradGradGradGradGradGrad
 Berny optimization.
 Initialization pass.
                           ----------------------------
                           !    Initial Parameters    !
                           ! (Angstroms and Degrees)  !
 --------------------------                            --------------------------
 ! Name  Definition              Value          Derivative Info.                !
 --------------------------------------------------------------------------------
 ! R1    R(1,2)                  1.1229         estimate D2E/DX2                !
 ! R2    R(1,3)                  1.5087         estimate D2E/DX2                !
 ! R3    R(1,14)                 1.5084         estimate D2E/DX2                !
 ! R4    R(1,25)                 1.5099         estimate D2E/DX2                !
 ! R5    R(3,4)                  1.3987         estimate D2E/DX2                !
 ! R6    R(3,5)                  1.3948         estimate D2E/DX2                !
 ! R7    R(4,6)                  1.3887         estimate D2E/DX2                !
 ! R8    R(4,7)                  1.0968         estimate D2E/DX2                !
 ! R9    R(5,8)                  1.3911         estimate D2E/DX2                !
 ! R10   R(5,9)                  1.0973         estimate D2E/DX2                !
 ! R11   R(6,10)                 1.3914         estimate D2E/DX2                !
 ! R12   R(6,11)                 1.0948         estimate D2E/DX2                !
 ! R13   R(8,10)                 1.3895         estimate D2E/DX2                !
 ! R14   R(8,12)                 1.0949         estimate D2E/DX2                !
 ! R15   R(10,13)                1.0945         estimate D2E/DX2                !
 ! R16   R(14,15)                1.3967         estimate D2E/DX2                !
 ! R17   R(14,16)                1.3968         estimate D2E/DX2                !
 ! R18   R(15,17)                1.3907         estimate D2E/DX2                !
 ! R19   R(15,18)                1.0965         estimate D2E/DX2                !
 ! R20   R(16,19)                1.3893         estimate D2E/DX2                !
 ! R21   R(16,20)                1.1014         estimate D2E/DX2                !
 ! R22   R(17,21)                1.3904         estimate D2E/DX2                !
 ! R23   R(17,22)                1.0949         estimate D2E/DX2                !
 ! R24   R(19,21)                1.3911         estimate D2E/DX2                !
 ! R25   R(19,23)                1.0947         estimate D2E/DX2                !
 ! R26   R(21,24)                1.0947         estimate D2E/DX2                !
 ! R27   R(25,26)                1.3965         estimate D2E/DX2                !
 ! R28   R(25,27)                1.3963         estimate D2E/DX2                !
 ! R29   R(26,28)                1.3893         estimate D2E/DX2                !
 ! R30   R(26,29)                1.1009         estimate D2E/DX2                !
 ! R31   R(27,30)                1.3906         estimate D2E/DX2                !
 ! R32   R(27,31)                1.0963         estimate D2E/DX2                !
 ! R33   R(28,32)                1.3911         estimate D2E/DX2                !
 ! R34   R(28,33)                1.0948         estimate D2E/DX2                !
 ! R35   R(30,32)                1.3904         estimate D2E/DX2                !
 ! R36   R(30,34)                1.0948         estimate D2E/DX2                !
 ! R37   R(32,35)                1.0947         estimate D2E/DX2                !
 ! A1    A(2,1,3)              104.718          estimate D2E/DX2                !
 ! A2    A(2,1,14)             107.6081         estimate D2E/DX2                !
 ! A3    A(2,1,25)             107.9753         estimate D2E/DX2                !
 ! A4    A(3,1,14)             114.0734         estimate D2E/DX2                !
 ! A5    A(3,1,25)             111.7746         estimate D2E/DX2                !
 ! A6    A(14,1,25)            110.2848         estimate D2E/DX2                !
 ! A7    A(1,3,4)              118.8917         estimate D2E/DX2                !
 ! A8    A(1,3,5)              122.0623         estimate D2E/DX2                !
 ! A9    A(4,3,5)              118.9732         estimate D2E/DX2                !
 ! A10   A(3,4,6)              120.5125         estimate D2E/DX2                !
 ! A11   A(3,4,7)              119.4596         estimate D2E/DX2                !
 ! A12   A(6,4,7)              120.0272         estimate D2E/DX2                !
 ! A13   A(3,5,8)              120.4233         estimate D2E/DX2                !
 ! A14   A(3,5,9)              119.8479         estimate D2E/DX2                !
 ! A15   A(8,5,9)              119.7287         estimate D2E/DX2                !
 ! A16   A(4,6,10)             120.1446         estimate D2E/DX2                !
 ! A17   A(4,6,11)             119.836          estimate D2E/DX2                !
 ! A18   A(10,6,11)            120.0194         estimate D2E/DX2                !
 ! A19   A(5,8,10)             120.2624         estimate D2E/DX2                !
 ! A20   A(5,8,12)             119.7            estimate D2E/DX2                !
 ! A21   A(10,8,12)            120.0376         estimate D2E/DX2                !
 ! A22   A(6,10,8)             119.6828         estimate D2E/DX2                !
 ! A23   A(6,10,13)            120.1273         estimate D2E/DX2                !
 ! A24   A(8,10,13)            120.1899         estimate D2E/DX2                !
 ! A25   A(1,14,15)            119.2324         estimate D2E/DX2                !
 ! A26   A(1,14,16)            121.6217         estimate D2E/DX2                !
 ! A27   A(15,14,16)           119.1444         estimate D2E/DX2                !
 ! A28   A(14,15,17)           120.3089         estimate D2E/DX2                !
 ! A29   A(14,15,18)           120.0258         estimate D2E/DX2                !
 ! A30   A(17,15,18)           119.6653         estimate D2E/DX2                !
 ! A31   A(14,16,19)           120.4496         estimate D2E/DX2                !
 ! A32   A(14,16,20)           119.0212         estimate D2E/DX2                !
 ! A33   A(19,16,20)           120.5227         estimate D2E/DX2                !
 ! A34   A(15,17,21)           120.1969         estimate D2E/DX2                !
 ! A35   A(15,17,22)           119.7995         estimate D2E/DX2                !
 ! A36   A(21,17,22)           120.0036         estimate D2E/DX2                !
 ! A37   A(16,19,21)           120.1007         estimate D2E/DX2                !
 ! A38   A(16,19,23)           119.838          estimate D2E/DX2                !
 ! A39   A(21,19,23)           120.0612         estimate D2E/DX2                !
 ! A40   A(17,21,19)           119.7992         estimate D2E/DX2                !
 ! A41   A(17,21,24)           120.1103         estimate D2E/DX2                !
 ! A42   A(19,21,24)           120.0904         estimate D2E/DX2                !
 ! A43   A(1,25,26)            121.2971         estimate D2E/DX2                !
 ! A44   A(1,25,27)            119.4641         estimate D2E/DX2                !
 ! A45   A(26,25,27)           119.2387         estimate D2E/DX2                !
 ! A46   A(25,26,28)           120.401          estimate D2E/DX2                !
 ! A47   A(25,26,29)           119.0311         estimate D2E/DX2                !
 ! A48   A(28,26,29)           120.5594         estimate D2E/DX2                !
 ! A49   A(25,27,30)           120.2511         estimate D2E/DX2                !
 ! A50   A(25,27,31)           120.0438         estimate D2E/DX2                !
 ! A51   A(30,27,31)           119.7051         estimate D2E/DX2                !
 ! A52   A(26,28,32)           120.0899         estimate D2E/DX2                !
 ! A53   A(26,28,33)           119.8555         estimate D2E/DX2                !
 ! A54   A(32,28,33)           120.0546         estimate D2E/DX2                !
 ! A55   A(27,30,32)           120.196          estimate D2E/DX2                !
 ! A56   A(27,30,34)           119.8082         estimate D2E/DX2                !
 ! A57   A(32,30,34)           119.9958         estimate D2E/DX2                !
 ! A58   A(28,32,30)           119.8224         estimate D2E/DX2                !
 ! A59   A(28,32,35)           120.082          estimate D2E/DX2                !
 ! A60   A(30,32,35)           120.0955         estimate D2E/DX2                !
 ! D1    D(2,1,3,4)            -72.1668         estimate D2E/DX2                !
 ! D2    D(2,1,3,5)            104.697          estimate D2E/DX2                !
 ! D3    D(14,1,3,4)           170.4513         estimate D2E/DX2                !
 ! D4    D(14,1,3,5)           -12.6849         estimate D2E/DX2                !
 ! D5    D(25,1,3,4)            44.4821         estimate D2E/DX2                !
 ! D6    D(25,1,3,5)          -138.6541         estimate D2E/DX2                !
 ! D7    D(2,1,14,15)            1.1355         estimate D2E/DX2                !
 ! D8    D(2,1,14,16)         -179.3202         estimate D2E/DX2                !
 ! D9    D(3,1,14,15)          116.8403         estimate D2E/DX2                !
 ! D10   D(3,1,14,16)          -63.6154         estimate D2E/DX2                !
 ! D11   D(25,1,14,15)        -116.4124         estimate D2E/DX2                !
 ! D12   D(25,1,14,16)          63.1319         estimate D2E/DX2                !
 ! D13   D(2,1,25,26)          173.5423         estimate D2E/DX2                !
 ! D14   D(2,1,25,27)           -6.427          estimate D2E/DX2                !
 ! D15   D(3,1,25,26)           58.883          estimate D2E/DX2                !
 ! D16   D(3,1,25,27)         -121.0863         estimate D2E/DX2                !
 ! D17   D(14,1,25,26)         -69.1368         estimate D2E/DX2                !
 ! D18   D(14,1,25,27)         110.8939         estimate D2E/DX2                !
 ! D19   D(1,3,4,6)            177.3693         estimate D2E/DX2                !
 ! D20   D(1,3,4,7)             -2.9369         estimate D2E/DX2                !
 ! D21   D(5,3,4,6)              0.4073         estimate D2E/DX2                !
 ! D22   D(5,3,4,7)           -179.8989         estimate D2E/DX2                !
 ! D23   D(1,3,5,8)           -177.2021         estimate D2E/DX2                !
 ! D24   D(1,3,5,9)              2.8866         estimate D2E/DX2                !
 ! D25   D(4,3,5,8)             -0.3409         estimate D2E/DX2                !
 ! D26   D(4,3,5,9)            179.7479         estimate D2E/DX2                !
 ! D27   D(3,4,6,10)            -0.2176         estimate D2E/DX2                !
 ! D28   D(3,4,6,11)           179.8135         estimate D2E/DX2                !
 ! D29   D(7,4,6,10)          -179.9097         estimate D2E/DX2                !
 ! D30   D(7,4,6,11)             0.1214         estimate D2E/DX2                !
 ! D31   D(3,5,8,10)             0.0853         estimate D2E/DX2                !
 ! D32   D(3,5,8,12)          -179.9433         estimate D2E/DX2                !
 ! D33   D(9,5,8,10)           179.9966         estimate D2E/DX2                !
 ! D34   D(9,5,8,12)            -0.032          estimate D2E/DX2                !
 ! D35   D(4,6,10,8)            -0.0435         estimate D2E/DX2                !
 ! D36   D(4,6,10,13)         -179.9972         estimate D2E/DX2                !
 ! D37   D(11,6,10,8)          179.9253         estimate D2E/DX2                !
 ! D38   D(11,6,10,13)          -0.0284         estimate D2E/DX2                !
 ! D39   D(5,8,10,6)             0.1096         estimate D2E/DX2                !
 ! D40   D(5,8,10,13)         -179.9368         estimate D2E/DX2                !
 ! D41   D(12,8,10,6)         -179.8616         estimate D2E/DX2                !
 ! D42   D(12,8,10,13)           0.092          estimate D2E/DX2                !
 ! D43   D(1,14,15,17)         179.6291         estimate D2E/DX2                !
 ! D44   D(1,14,15,18)          -0.3518         estimate D2E/DX2                !
 ! D45   D(16,14,15,17)          0.0734         estimate D2E/DX2                !
 ! D46   D(16,14,15,18)       -179.9074         estimate D2E/DX2                !
 ! D47   D(1,14,16,19)        -179.6762         estimate D2E/DX2                !
 ! D48   D(1,14,16,20)          -0.5948         estimate D2E/DX2                !
 ! D49   D(15,14,16,19)         -0.1315         estimate D2E/DX2                !
 ! D50   D(15,14,16,20)        178.9499         estimate D2E/DX2                !
 ! D51   D(14,15,17,21)          0.0655         estimate D2E/DX2                !
 ! D52   D(14,15,17,22)       -179.8681         estimate D2E/DX2                !
 ! D53   D(18,15,17,21)       -179.9536         estimate D2E/DX2                !
 ! D54   D(18,15,17,22)          0.1128         estimate D2E/DX2                !
 ! D55   D(14,16,19,21)          0.0509         estimate D2E/DX2                !
 ! D56   D(14,16,19,23)        179.937          estimate D2E/DX2                !
 ! D57   D(20,16,19,21)       -179.0167         estimate D2E/DX2                !
 ! D58   D(20,16,19,23)          0.8694         estimate D2E/DX2                !
 ! D59   D(15,17,21,19)         -0.1471         estimate D2E/DX2                !
 ! D60   D(15,17,21,24)        179.9564         estimate D2E/DX2                !
 ! D61   D(22,17,21,19)        179.7864         estimate D2E/DX2                !
 ! D62   D(22,17,21,24)         -0.1101         estimate D2E/DX2                !
 ! D63   D(16,19,21,17)          0.089          estimate D2E/DX2                !
 ! D64   D(16,19,21,24)        179.9856         estimate D2E/DX2                !
 ! D65   D(23,19,21,17)       -179.7968         estimate D2E/DX2                !
 ! D66   D(23,19,21,24)          0.0998         estimate D2E/DX2                !
 ! D67   D(1,25,26,28)        -179.6311         estimate D2E/DX2                !
 ! D68   D(1,25,26,29)           1.4233         estimate D2E/DX2                !
 ! D69   D(27,25,26,28)          0.3383         estimate D2E/DX2                !
 ! D70   D(27,25,26,29)       -178.6073         estimate D2E/DX2                !
 ! D71   D(1,25,27,30)         179.7545         estimate D2E/DX2                !
 ! D72   D(1,25,27,31)          -0.3094         estimate D2E/DX2                !
 ! D73   D(26,25,27,30)         -0.2154         estimate D2E/DX2                !
 ! D74   D(26,25,27,31)        179.7207         estimate D2E/DX2                !
 ! D75   D(25,26,28,32)         -0.1702         estimate D2E/DX2                !
 ! D76   D(25,26,28,33)        179.9136         estimate D2E/DX2                !
 ! D77   D(29,26,28,32)        178.7592         estimate D2E/DX2                !
 ! D78   D(29,26,28,33)         -1.157          estimate D2E/DX2                !
 ! D79   D(25,27,30,32)         -0.0756         estimate D2E/DX2                !
 ! D80   D(25,27,30,34)        179.9428         estimate D2E/DX2                !
 ! D81   D(31,27,30,32)        179.9881         estimate D2E/DX2                !
 ! D82   D(31,27,30,34)          0.0065         estimate D2E/DX2                !
 ! D83   D(26,28,32,30)         -0.1237         estimate D2E/DX2                !
 ! D84   D(26,28,32,35)        179.9958         estimate D2E/DX2                !
 ! D85   D(33,28,32,30)        179.7923         estimate D2E/DX2                !
 ! D86   D(33,28,32,35)         -0.0883         estimate D2E/DX2                !
 ! D87   D(27,30,32,28)          0.2463         estimate D2E/DX2                !
 ! D88   D(27,30,32,35)       -179.8732         estimate D2E/DX2                !
 ! D89   D(34,30,32,28)       -179.7722         estimate D2E/DX2                !
 ! D90   D(34,30,32,35)          0.1084         estimate D2E/DX2                !
 --------------------------------------------------------------------------------
 Trust Radius=3.00D-01 FncErr=1.00D-07 GrdErr=1.00D-07
 Number of steps in this run= 197 maximum allowed number of steps= 210.
 GradGradGradGradGradGradGradGradGradGradGradGradGradGradGradGradGradGrad

                          Input orientation:                          
 ---------------------------------------------------------------------
 Center     Atomic      Atomic             Coordinates (Angstroms)
 Number     Number       Type             X           Y           Z
 ---------------------------------------------------------------------
      1          6           0       -0.050657   -0.007150    0.777273
      2          1           0       -0.082952   -0.012500    1.899741
      3          6           0        0.233805   -1.438631    0.395177
      4          6           0        1.513313   -1.956798    0.620641
      5          6           0       -0.755145   -2.279124   -0.115643
      6          6           0        1.796895   -3.285337    0.332317
      7          1           0        2.296565   -1.303387    1.023699
      8          6           0       -0.469386   -3.610003   -0.402508
      9          1           0       -1.765019   -1.888704   -0.294125
     10          6           0        0.805581   -4.115960   -0.180859
     11          1           0        2.803045   -3.678554    0.510252
     12          1           0       -1.254460   -4.259059   -0.804017
     13          1           0        1.029390   -5.163029   -0.407960
     14          6           0       -1.379950    0.508566    0.284988
     15          6           0       -2.349974    0.890447    1.214435
     16          6           0       -1.661852    0.622667   -1.078329
     17          6           0       -3.580359    1.376246    0.785342
     18          1           0       -2.143453    0.808363    2.288194
     19          6           0       -2.892145    1.107120   -1.504764
     20          1           0       -0.889121    0.337419   -1.809420
     21          6           0       -3.854326    1.484055   -0.573516
     22          1           0       -4.333942    1.675256    1.521208
     23          1           0       -3.102066    1.193345   -2.575702
     24          1           0       -4.823572    1.865973   -0.909705
     25          6           0        1.061750    0.918902    0.347539
     26          6           0        1.434957    1.031081   -0.993469
     27          6           0        1.732517    1.678706    1.308037
     28          6           0        2.466444    1.883425   -1.367243
     29          1           0        0.888548    0.447967   -1.750651
     30          6           0        2.762978    2.533063    0.931070
     31          1           0        1.447289    1.604373    2.363976
     32          6           0        3.133270    2.635115   -0.405239
     33          1           0        2.752615    1.963378   -2.420937
     34          1           0        3.283378    3.126156    1.690080
     35          1           0        3.946040    3.306612   -0.699881
 ---------------------------------------------------------------------
                    Distance matrix (angstroms):
                    1          2          3          4          5
     1  C    0.000000
     2  H    1.122946   0.000000
     3  C    1.508660   2.097117   0.000000
     4  C    2.504328   2.822136   1.398739   0.000000
     5  C    2.540762   3.106639   1.394771   2.406639   0.000000
     6  C    3.789188   4.086821   2.420232   1.388728   2.779575
     7  H    2.692658   2.845336   2.160627   1.096761   3.400455
     8  C    3.814154   4.288556   2.417774   2.776871   1.391110
     9  H    2.761734   3.341039   2.161711   3.404246   1.097328
    10  C    4.305053   4.685805   2.797648   2.409412   2.411241
    11  H    4.657695   4.868225   3.410497   2.154076   3.874385
    12  H    4.693437   5.168753   3.407024   3.871773   2.154835
    13  H    5.399479   5.752455   3.892187   3.401782   3.403956
    14  C    1.508419   2.135684   2.531387   3.815973   2.884806
    15  C    2.506721   2.534630   3.573752   4.835739   3.789297
    16  C    2.536903   3.430054   3.164440   4.429651   3.188930
    17  C    3.791127   3.924584   4.756428   6.089483   4.706946
    18  H    2.706980   2.251750   3.779399   4.878399   4.151917
    19  C    3.810951   4.553655   4.456702   5.771742   4.238288
    20  H    2.740936   3.811854   3.045581   4.115861   3.119796
    21  C    4.303047   4.751835   5.117936   6.486680   4.896538
    22  H    4.661595   4.589415   5.641680   6.942134   5.578907
    23  H    4.689853   5.531610   5.184733   6.437525   4.859832
    24  H    5.397704   5.821953   6.180630   7.557225   5.862121
    25  C    1.509865   2.141771   2.499145   2.923721   3.707158
    26  C    2.533870   3.429836   3.077431   3.396897   4.065044
    27  C    2.510683   2.550729   3.577324   3.706407   4.886691
    28  C    3.809070   4.557097   4.373427   4.428030   5.410356
    29  H    2.734892   3.805418   2.931299   3.434567   3.579386
    30  C    3.793794   3.939229   4.739014   4.670854   6.052268
    31  H    2.712651   2.274077   3.822119   3.965541   5.106934
    32  C    4.303172   4.760975   5.063890   4.976179   6.273228
    33  H    4.687201   5.532883   5.084149   5.114181   5.968047
    34  H    4.665470   4.607309   5.640386   5.487554   6.984795
    35  H    5.397831   5.831578   6.123493   5.946883   7.324132
                    6          7          8          9         10
     6  C    0.000000
     7  H    2.157731   0.000000
     8  C    2.404455   3.873632   0.000000
     9  H    3.876885   4.309955   2.157147   0.000000
    10  C    1.391397   3.403609   1.389483   3.403158   0.000000
    11  H    1.094815   2.482251   3.398034   4.971699   2.158429
    12  H    3.398552   4.968533   1.094909   2.477750   2.156983
    13  H    2.159352   4.307228   2.158298   4.306145   1.094541
    14  C    4.948563   4.164808   4.273685   2.496107   5.136127
    15  C    5.950783   5.141946   5.138596   3.215837   6.080171
    16  C    5.406047   4.878244   4.449067   2.632983   5.417404
    17  C    7.130950   6.463396   5.995984   3.888522   7.094670
    18  H    6.009174   5.076632   5.437310   3.753099   6.248358
    19  C    6.682488   6.255108   5.416270   3.422137   6.535019
    20  H    4.992602   4.568085   4.211617   2.831773   5.035554
    21  C    7.450096   6.939336   6.118536   3.977281   7.295826
    22  H    7.975469   7.285839   6.824181   4.753590   7.927794
    23  H    7.246722   6.952307   5.892871   4.061073   7.013822
    24  H    8.479929   8.029897   7.014449   4.881730   8.246339
    25  C    4.268055   2.630690   4.839207   4.035468   5.068990
    26  C    4.529919   3.203291   5.051278   4.387945   5.248664
    27  C    5.059437   3.048258   5.978694   5.246531   6.054269
    28  C    5.482052   3.987634   6.302980   5.769386   6.337081
    29  H    4.370515   3.570261   4.486489   3.823992   4.827065
    30  C    5.928373   3.865808   7.068512   6.446385   7.019779
    31  H    5.306518   3.312504   6.206190   5.439302   6.293662
    32  C    6.114053   4.272439   7.209760   6.668622   7.144613
    33  H    6.003567   4.769198   6.746697   6.306415   6.765149
    34  H    6.720148   4.586798   7.989868   7.387300   7.879602
    35  H    7.009853   5.190720   8.211210   7.731243   8.076288
                   11         12         13         14         15
    11  H    0.000000
    12  H    4.304374   0.000000
    13  H    2.488499   2.487970   0.000000
    14  C    5.922851   4.892027   6.200975   0.000000
    15  C    6.922807   5.638414   7.120171   1.396658   0.000000
    16  C    6.399953   4.906370   6.416109   1.396825   2.408731
    17  C    8.147056   6.300201   8.089244   2.417649   1.390673
    18  H    6.910959   6.002570   7.279677   2.164637   1.096515
    19  C    7.707020   5.654108   7.476376   2.418308   2.781176
    20  H    5.927985   4.719313   5.991636   2.157950   3.403474
    21  C    8.493979   6.308391   8.249959   2.794842   2.410853
    22  H    8.978970   7.078558   8.902200   3.408149   2.155497
    23  H    8.254020   6.023390   7.884892   3.408541   3.875891
    24  H    9.535374   7.089834   9.160556   3.889522   3.403280
    25  C    4.918861   5.788108   6.128761   2.476729   3.520252
    26  C    5.129669   5.937544   6.234926   3.135470   4.384099
    27  C    5.521117   6.974228   7.088609   3.478981   4.158948
    28  C    5.879957   7.203642   7.255196   4.406228   5.554183
    29  H    5.079878   5.257822   5.771129   3.048537   4.413111
    30  C    6.225985   8.079806   8.001760   4.656164   5.377802
    31  H    5.760529   7.191347   7.325026   3.676447   4.031171
    32  C    6.388239   8.181738   8.076966   5.036644   5.977724
    33  H    6.358130   7.575606   7.603109   5.149427   6.356377
    34  H    6.922918   9.019640   8.842671   5.529257   6.079415
    35  H    7.180766   9.181253   8.962526   6.096326   7.010153
                   16         17         18         19         20
    16  C    0.000000
    17  C    2.778816   0.000000
    18  H    3.405862   2.155401   0.000000
    19  C    1.389303   2.406377   3.877670   0.000000
    20  H    1.101351   3.880040   4.311099   2.167340   0.000000
    21  C    2.409101   1.390386   3.401915   1.391077   3.410964
    22  H    3.873707   1.094895   2.477501   3.399715   4.974906
    23  H    2.154534   3.399829   4.972387   1.094719   2.493376
    24  H    3.401576   2.158378   4.304432   2.158787   4.315770
    25  C    3.088505   4.685084   3.748558   4.370324   2.965888
    26  C    3.124777   5.332607   4.860446   4.357868   2.558961
    27  C    4.281554   5.347088   4.091620   5.442983   4.288423
    28  C    4.326178   6.438531   5.980730   5.416276   3.720951
    29  H    2.643308   5.221503   5.063120   3.845593   1.782072
    30  C    5.221726   6.449603   5.374889   6.320365   5.066455
    31  H    4.741305   5.274597   3.678696   5.834817   4.947850
    32  C    5.243682   6.933618   6.199630   6.312635   4.840534
    33  H    4.804958   7.122605   6.890679   5.782375   4.034840
    34  H    6.195712   7.140842   5.931307   7.240208   6.118276
    35  H    6.228582   7.910681   7.228538   7.228165   5.781519
                   21         22         23         24         25
    21  C    0.000000
    22  H    2.157419   0.000000
    23  H    2.158509   4.305164   0.000000
    24  H    1.094680   2.487057   2.488284   0.000000
    25  C    5.033442   5.573425   5.094901   6.092177   0.000000
    26  C    5.325228   6.326038   4.807740   6.314527   1.396485
    27  C    5.898385   6.070204   6.220305   6.923565   1.396348
    28  C    6.382917   7.391329   5.739764   7.304381   2.417426
    29  H    4.995396   6.283765   4.142619   5.945271   2.157354
    30  C    6.866797   7.172891   6.963550   7.835126   2.416651
    31  H    6.062215   5.842766   6.728001   7.078780   2.164377
    32  C    7.083767   7.771216   6.757886   8.009832   2.793431
    33  H    6.877091   8.114358   5.907130   7.726054   3.407993
    34  H    7.665975   7.756107   7.918747   8.606369   3.407348
    35  H    8.011453   8.726549   7.593444   8.889632   3.888106
                   26         27         28         29         30
    26  C    0.000000
    27  C    2.409334   0.000000
    28  C    1.389303   2.781668   0.000000
    29  H    1.100867   3.403318   2.167325   0.000000
    30  C    2.779109   1.390639   2.406700   3.879786   0.000000
    31  H    3.406062   1.096307   3.877956   4.310408   2.155625
    32  C    2.408986   2.410838   1.391095   3.410650   1.390415
    33  H    2.154777   3.876453   1.094787   2.494093   3.400089
    34  H    3.873943   2.155513   3.399850   4.974589   1.094838
    35  H    3.401437   3.403159   2.158711   4.315579   2.158243
                   31         32         33         34         35
    31  H    0.000000
    32  C    3.401987   0.000000
    33  H    4.972741   2.158511   0.000000
    34  H    2.478141   2.157316   4.305139   0.000000
    35  H    4.304485   1.094676   2.488087   2.486683   0.000000
 Stoichiometry    C19H16
 Framework group  C1[X(C19H16)]
 Deg. of freedom    99
 Full point group                 C1      NOp   1
 Largest Abelian subgroup         C1      NOp   1
 Largest concise Abelian subgroup C1      NOp   1
                         Standard orientation:                         
 ---------------------------------------------------------------------
 Center     Atomic      Atomic             Coordinates (Angstroms)
 Number     Number       Type             X           Y           Z
 ---------------------------------------------------------------------
      1          6           0       -0.007657    0.013890   -0.764250
      2          1           0        0.017689    0.019702   -1.886895
      3          6           0        0.645305    1.312267   -0.359389
      4          6           0        2.027935    1.451823   -0.518543
      5          6           0       -0.094075    2.398734    0.107829
      6          6           0        2.655957    2.650885   -0.208050
      7          1           0        2.616870    0.603126   -0.886989
      8          6           0        0.536758    3.599425    0.416986
      9          1           0       -1.180198    2.306406    0.234093
     10          6           0        1.911444    3.728549    0.261340
     11          1           0        3.739260    2.746940   -0.333933
     12          1           0       -0.055062    4.444436    0.783768
     13          1           0        2.406712    4.673486    0.505928
     14          6           0       -1.450390   -0.107468   -0.341025
     15          6           0       -2.441790   -0.210907   -1.319329
     16          6           0       -1.819165   -0.128416    1.006078
     17          6           0       -3.778233   -0.331553   -0.954179
     18          1           0       -2.168383   -0.197563   -2.381128
     19          6           0       -3.155015   -0.247815    1.368586
     20          1           0       -1.034233   -0.064295    1.775977
     21          6           0       -4.137426   -0.348703    0.388900
     22          1           0       -4.548399   -0.414260   -1.727999
     23          1           0       -3.432699   -0.264210    2.427375
     24          1           0       -5.189915   -0.443012    0.674725
     25          6           0        0.780360   -1.182164   -0.286572
     26          6           0        1.041572   -1.383917    1.070349
     27          6           0        1.258994   -2.105840   -1.217979
     28          6           0        1.775241   -2.487056    1.488650
     29          1           0        0.642928   -0.666080    1.803631
     30          6           0        1.990961   -3.210603   -0.796552
     31          1           0        1.057701   -1.962828   -2.286116
     32          6           0        2.252429   -3.401853    0.555599
     33          1           0        1.975982   -2.635746    2.554555
     34          1           0        2.361968   -3.930792   -1.532998
     35          1           0        2.830555   -4.270970    0.885327
 ---------------------------------------------------------------------
 Rotational constants (GHZ):      0.4029931      0.3842000      0.2323999
 Standard basis: 6-311G (5D, 7F)
 There are   295 symmetry adapted basis functions of A   symmetry.
 Integral buffers will be    262144 words long.
 Raffenetti 1 integral format.
 Two-electron integral symmetry is turned on.
   295 basis functions,   574 primitive gaussians,   295 cartesian basis functions
    65 alpha electrons       65 beta electrons
       nuclear repulsion energy      1291.0007073125 Hartrees.
 NAtoms=   35 NActive=   35 NUniq=   35 SFac= 7.50D-01 NAtFMM=   80 NAOKFM=F Big=F
 One-electron integrals computed using PRISM.
 PrsmSu:  requested number of processors reduced to:  10 ShMem   1 Linda.
 NBasis=   295 RedAO= T  NBF=   295
 NBsUse=   295 1.00D-06 NBFU=   295
 Harris functional with IExCor=  205 diagonalized for initial guess.
 ExpMin= 1.03D-01 ExpMax= 4.56D+03 ExpMxC= 6.82D+02 IAcc=1 IRadAn=         1 AccDes= 0.00D+00
 HarFok:  IExCor=  205 AccDes= 0.00D+00 IRadAn=         1 IDoV= 1
 ScaDFX=  1.000000  1.000000  1.000000  1.000000
 FoFCou: FMM=F IPFlag=           0 FMFlag=      100000 FMFlg1=           0
         NFxFlg=           0 DoJE=T BraDBF=F KetDBF=T FulRan=T
         Omega=  0.000000  0.000000  1.000000  0.000000  0.000000 ICntrl=     500 IOpCl=  0
         NMat0=    1 NMatS0=    1 NMatT0=    0 NMatD0=    1 NMtDS0=    0 NMtDT0=    0
         I1Cent=           4 NGrid=           0.
 Petite list used in FoFCou.
 Initial guess orbital symmetries:
       Occupied  (A) (A) (A) (A) (A) (A) (A) (A) (A) (A) (A) (A)
                 (A) (A) (A) (A) (A) (A) (A) (A) (A) (A) (A) (A)
                 (A) (A) (A) (A) (A) (A) (A) (A) (A) (A) (A) (A)
                 (A) (A) (A) (A) (A) (A) (A) (A) (A) (A) (A) (A)
                 (A) (A) (A) (A) (A) (A) (A) (A) (A) (A) (A) (A)
                 (A) (A) (A) (A) (A)
       Virtual   (A) (A) (A) (A) (A) (A) (A) (A) (A) (A) (A) (A)
                 (A) (A) (A) (A) (A) (A) (A) (A) (A) (A) (A) (A)
                 (A) (A) (A) (A) (A) (A) (A) (A) (A) (A) (A) (A)
                 (A) (A) (A) (A) (A) (A) (A) (A) (A) (A) (A) (A)
                 (A) (A) (A) (A) (A) (A) (A) (A) (A) (A) (A) (A)
                 (A) (A) (A) (A) (A) (A) (A) (A) (A) (A) (A) (A)
                 (A) (A) (A) (A) (A) (A) (A) (A) (A) (A) (A) (A)
                 (A) (A) (A) (A) (A) (A) (A) (A) (A) (A) (A) (A)
                 (A) (A) (A) (A) (A) (A) (A) (A) (A) (A) (A) (A)
                 (A) (A) (A) (A) (A) (A) (A) (A) (A) (A) (A) (A)
                 (A) (A) (A) (A) (A) (A) (A) (A) (A) (A) (A) (A)
                 (A) (A) (A) (A) (A) (A) (A) (A) (A) (A) (A) (A)
                 (A) (A) (A) (A) (A) (A) (A) (A) (A) (A) (A) (A)
                 (A) (A) (A) (A) (A) (A) (A) (A) (A) (A) (A) (A)
                 (A) (A) (A) (A) (A) (A) (A) (A) (A) (A) (A) (A)
                 (A) (A) (A) (A) (A) (A) (A) (A) (A) (A) (A) (A)
                 (A) (A) (A) (A) (A) (A) (A) (A) (A) (A) (A) (A)
                 (A) (A) (A) (A) (A) (A) (A) (A) (A) (A) (A) (A)
                 (A) (A) (A) (A) (A) (A) (A) (A) (A) (A) (A) (A)
                 (A) (A)
 The electronic state of the initial guess is 1-A.
 Requested convergence on RMS density matrix=1.00D-08 within 128 cycles.
 Requested convergence on MAX density matrix=1.00D-06.
 Requested convergence on             energy=1.00D-06.
 No special actions if energy rises.
 Integral accuracy reduced to 1.0D-05 until final iterations.
 Initial convergence to 1.0D-05 achieved.  Increase integral accuracy.
 SCF Done:  E(RHF) =  -728.672511110     A.U. after   14 cycles
             Convg  =    0.8974D-08             -V/T =  2.0001

 **********************************************************************

            Population analysis using the SCF density.

 **********************************************************************

 Orbital symmetries:
       Occupied  (A) (A) (A) (A) (A) (A) (A) (A) (A) (A) (A) (A)
                 (A) (A) (A) (A) (A) (A) (A) (A) (A) (A) (A) (A)
                 (A) (A) (A) (A) (A) (A) (A) (A) (A) (A) (A) (A)
                 (A) (A) (A) (A) (A) (A) (A) (A) (A) (A) (A) (A)
                 (A) (A) (A) (A) (A) (A) (A) (A) (A) (A) (A) (A)
                 (A) (A) (A) (A) (A)
       Virtual   (A) (A) (A) (A) (A) (A) (A) (A) (A) (A) (A) (A)
                 (A) (A) (A) (A) (A) (A) (A) (A) (A) (A) (A) (A)
                 (A) (A) (A) (A) (A) (A) (A) (A) (A) (A) (A) (A)
                 (A) (A) (A) (A) (A) (A) (A) (A) (A) (A) (A) (A)
                 (A) (A) (A) (A) (A) (A) (A) (A) (A) (A) (A) (A)
                 (A) (A) (A) (A) (A) (A) (A) (A) (A) (A) (A) (A)
                 (A) (A) (A) (A) (A) (A) (A) (A) (A) (A) (A) (A)
                 (A) (A) (A) (A) (A) (A) (A) (A) (A) (A) (A) (A)
                 (A) (A) (A) (A) (A) (A) (A) (A) (A) (A) (A) (A)
                 (A) (A) (A) (A) (A) (A) (A) (A) (A) (A) (A) (A)
                 (A) (A) (A) (A) (A) (A) (A) (A) (A) (A) (A) (A)
                 (A) (A) (A) (A) (A) (A) (A) (A) (A) (A) (A) (A)
                 (A) (A) (A) (A) (A) (A) (A) (A) (A) (A) (A) (A)
                 (A) (A) (A) (A) (A) (A) (A) (A) (A) (A) (A) (A)
                 (A) (A) (A) (A) (A) (A) (A) (A) (A) (A) (A) (A)
                 (A) (A) (A) (A) (A) (A) (A) (A) (A) (A) (A) (A)
                 (A) (A) (A) (A) (A) (A) (A) (A) (A) (A) (A) (A)
                 (A) (A) (A) (A) (A) (A) (A) (A) (A) (A) (A) (A)
                 (A) (A) (A) (A) (A) (A) (A) (A) (A) (A) (A) (A)
                 (A) (A)
 The electronic state is 1-A.
 Alpha  occ. eigenvalues --  -11.25753 -11.25220 -11.25180 -11.24903 -11.24512
 Alpha  occ. eigenvalues --  -11.24432 -11.24425 -11.24379 -11.24217 -11.24161
 Alpha  occ. eigenvalues --  -11.24133 -11.24129 -11.24077 -11.24045 -11.24016
 Alpha  occ. eigenvalues --  -11.23963 -11.23729 -11.23610 -11.23506  -1.18619
 Alpha  occ. eigenvalues --   -1.15870  -1.15567  -1.09026  -1.02370  -1.02241
 Alpha  occ. eigenvalues --   -1.01878  -1.01487  -1.01064  -0.92915  -0.84257
 Alpha  occ. eigenvalues --   -0.83388  -0.82296  -0.81953  -0.81100  -0.77575
 Alpha  occ. eigenvalues --   -0.70878  -0.70358  -0.68981  -0.65653  -0.63914
 Alpha  occ. eigenvalues --   -0.63623  -0.62522  -0.61689  -0.61551  -0.59734
 Alpha  occ. eigenvalues --   -0.58846  -0.58499  -0.58310  -0.56661  -0.55197
 Alpha  occ. eigenvalues --   -0.51721  -0.50901  -0.50190  -0.49877  -0.49371
 Alpha  occ. eigenvalues --   -0.48389  -0.47999  -0.47485  -0.46300  -0.35048
 Alpha  occ. eigenvalues --   -0.34318  -0.34008  -0.33312  -0.32416  -0.31521
 Alpha virt. eigenvalues --    0.11578   0.12306   0.12664   0.13421   0.15046
 Alpha virt. eigenvalues --    0.15185   0.15721   0.16240   0.16490   0.16899
 Alpha virt. eigenvalues --    0.18904   0.19182   0.19248   0.21215   0.21285
 Alpha virt. eigenvalues --    0.21612   0.23536   0.24056   0.24852   0.25390
 Alpha virt. eigenvalues --    0.26614   0.31737   0.33034   0.34200   0.35783
 Alpha virt. eigenvalues --    0.37703   0.39641   0.40650   0.41465   0.43048
 Alpha virt. eigenvalues --    0.44100   0.44431   0.45004   0.45410   0.45555
 Alpha virt. eigenvalues --    0.45914   0.46760   0.47269   0.47813   0.50599
 Alpha virt. eigenvalues --    0.51048   0.51383   0.52376   0.55013   0.56171
 Alpha virt. eigenvalues --    0.57225   0.57817   0.58538   0.58770   0.59364
 Alpha virt. eigenvalues --    0.60318   0.60501   0.60676   0.61113   0.61513
 Alpha virt. eigenvalues --    0.62009   0.62141   0.62927   0.63143   0.63597
 Alpha virt. eigenvalues --    0.64234   0.64674   0.65219   0.65967   0.66360
 Alpha virt. eigenvalues --    0.67310   0.67852   0.68618   0.69783   0.72314
 Alpha virt. eigenvalues --    0.73066   0.73863   0.74759   0.75390   0.75744
 Alpha virt. eigenvalues --    0.76903   0.78789   0.79557   0.80068   0.81116
 Alpha virt. eigenvalues --    0.81490   0.82271   0.82477   0.82840   0.83413
 Alpha virt. eigenvalues --    0.83852   0.84398   0.84953   0.85132   0.85477
 Alpha virt. eigenvalues --    0.85831   0.86150   0.86612   0.87864   0.88098
 Alpha virt. eigenvalues --    0.90030   0.90852   0.92203   0.93592   0.95122
 Alpha virt. eigenvalues --    0.95855   0.96310   0.96931   0.98409   0.99797
 Alpha virt. eigenvalues --    1.00275   1.02445   1.03200   1.05105   1.06244
 Alpha virt. eigenvalues --    1.07158   1.07987   1.09496   1.09972   1.11079
 Alpha virt. eigenvalues --    1.11594   1.11840   1.12311   1.12938   1.13775
 Alpha virt. eigenvalues --    1.15012   1.16473   1.19987   1.20452   1.21772
 Alpha virt. eigenvalues --    1.23361   1.25027   1.27555   1.27861   1.29128
 Alpha virt. eigenvalues --    1.29487   1.31823   1.32630   1.47220   1.47885
 Alpha virt. eigenvalues --    1.51712   1.54433   1.56554   2.53483   2.55727
 Alpha virt. eigenvalues --    2.55937   2.57747   2.62095   2.62458   2.63833
 Alpha virt. eigenvalues --    2.66521   2.67049   2.68385   2.72342   2.74232
 Alpha virt. eigenvalues --    2.78376   2.83322   2.86892   2.91988   2.94334
 Alpha virt. eigenvalues --    2.94644   2.94743   2.96028   2.98271   2.98600
 Alpha virt. eigenvalues --    2.99848   3.02333   3.03927   3.04342   3.06725
 Alpha virt. eigenvalues --    3.08436   3.09372   3.09881   3.10052   3.13224
 Alpha virt. eigenvalues --    3.15034   3.16002   3.17822   3.18323   3.19545
 Alpha virt. eigenvalues --    3.21640   3.24040   3.24819   3.27754   3.28791
 Alpha virt. eigenvalues --    3.31613   3.33878   3.34467   3.35797   3.40596
 Alpha virt. eigenvalues --    3.41094   3.44163   3.44911   3.50049   3.52682
 Alpha virt. eigenvalues --    3.53568   3.56060   3.57834   3.58590   3.59413
 Alpha virt. eigenvalues --    3.62514   3.63889   3.65180   3.66234   3.67067
 Alpha virt. eigenvalues --    3.67734   3.69227   3.71273   3.71909   3.74637
 Alpha virt. eigenvalues --    3.76864   3.77520   3.78345   3.85763   3.88351
 Alpha virt. eigenvalues --    3.90876  24.26191  24.29999  24.31639  24.50558
 Alpha virt. eigenvalues --   24.50767  24.51069  24.52918  24.54640  24.56447
 Alpha virt. eigenvalues --   24.76055  24.77041  24.79105  24.80230  24.80840
 Alpha virt. eigenvalues --   24.82970  24.87684  25.04642  25.05789  25.07111
          Condensed to atoms (all electrons):
              1          2          3          4          5          6
     1  C    6.128310   0.470976   0.028615  -0.084173  -0.036003   0.009077
     2  H    0.470976   0.500796  -0.061786  -0.004368   0.000171   0.000481
     3  C    0.028615  -0.061786   5.348958   0.473375   0.497202  -0.057168
     4  C   -0.084173  -0.004368   0.473375   5.127979  -0.085270   0.461846
     5  C   -0.036003   0.000171   0.497202  -0.085270   5.103015  -0.030635
     6  C    0.009077   0.000481  -0.057168   0.461846  -0.030635   5.065079
     7  H   -0.004594  -0.000126  -0.043609   0.397253   0.004584  -0.035264
     8  C    0.012435  -0.000087  -0.067411  -0.033277   0.454020  -0.073527
     9  H   -0.011558  -0.000260  -0.035237   0.005006   0.394618  -0.000464
    10  C    0.000301   0.000039  -0.020917  -0.085271  -0.089175   0.481283
    11  H   -0.000357   0.000007   0.006140  -0.038067  -0.000422   0.396928
    12  H   -0.000364   0.000014   0.006451  -0.000402  -0.036903   0.006002
    13  H   -0.000014  -0.000002  -0.001449   0.007459   0.007630  -0.043106
    14  C    0.116599  -0.073791  -0.064114   0.011391  -0.012843  -0.000884
    15  C   -0.023450   0.006123  -0.000139  -0.000317   0.000937   0.000009
    16  C   -0.073981   0.004450   0.006522   0.001001  -0.018963  -0.000023
    17  C    0.008068   0.001438  -0.000737   0.000006   0.000302   0.000000
    18  H   -0.001930   0.002844   0.000476   0.000011   0.000126   0.000000
    19  C    0.003118  -0.000224   0.000564   0.000013  -0.001404   0.000000
    20  H    0.000247   0.000001   0.001707  -0.000030   0.001890  -0.000078
    21  C    0.001625   0.000007  -0.000060   0.000000   0.000166   0.000000
    22  H   -0.000399  -0.000035   0.000022   0.000000  -0.000008   0.000000
    23  H   -0.000372   0.000011   0.000022   0.000000  -0.000001   0.000000
    24  H   -0.000026  -0.000002   0.000002   0.000000  -0.000003   0.000000
    25  C    0.144617  -0.070030  -0.088048  -0.008523   0.003301  -0.001793
    26  C   -0.058547   0.005234  -0.005365  -0.010637   0.001605  -0.000430
    27  C   -0.024528   0.002214  -0.001058   0.000550  -0.000446  -0.000051
    28  C    0.003526  -0.000254  -0.000487  -0.000404   0.000015  -0.000015
    29  H   -0.000136   0.000089   0.001274   0.000604  -0.000298   0.000120
    30  C    0.006866   0.001522  -0.000444  -0.000071   0.000018   0.000013
    31  H   -0.000253   0.002454   0.000183   0.000271  -0.000029  -0.000007
    32  C    0.001287   0.000001   0.000024   0.000135  -0.000001   0.000002
    33  H   -0.000354   0.000011   0.000027   0.000014   0.000000   0.000000
    34  H   -0.000341  -0.000038   0.000011  -0.000003   0.000000   0.000000
    35  H   -0.000014  -0.000002   0.000001   0.000000   0.000000   0.000000
              7          8          9         10         11         12
     1  C   -0.004594   0.012435  -0.011558   0.000301  -0.000357  -0.000364
     2  H   -0.000126  -0.000087  -0.000260   0.000039   0.000007   0.000014
     3  C   -0.043609  -0.067411  -0.035237  -0.020917   0.006140   0.006451
     4  C    0.397253  -0.033277   0.005006  -0.085271  -0.038067  -0.000402
     5  C    0.004584   0.454020   0.394618  -0.089175  -0.000422  -0.036903
     6  C   -0.035264  -0.073527  -0.000464   0.481283   0.396928   0.006002
     7  H    0.487649  -0.000485  -0.000192   0.005223  -0.003817   0.000017
     8  C   -0.000485   5.078926  -0.036581   0.493703   0.005984   0.395724
     9  H   -0.000192  -0.036581   0.478293   0.005089   0.000017  -0.003569
    10  C    0.005223   0.493703   0.005089   5.043192  -0.040875  -0.041251
    11  H   -0.003817   0.005984   0.000017  -0.040875   0.517502  -0.000213
    12  H    0.000017   0.395724  -0.003569  -0.041251  -0.000213   0.517773
    13  H   -0.000172  -0.042220  -0.000170   0.399476  -0.004403  -0.004455
    14  C    0.000769  -0.001793   0.001563   0.000129   0.000012   0.000058
    15  C   -0.000007  -0.000105  -0.000860  -0.000004   0.000000   0.000003
    16  C   -0.000039  -0.001036  -0.000763  -0.000010   0.000000   0.000021
    17  C    0.000000   0.000005  -0.000127   0.000000   0.000000   0.000000
    18  H   -0.000001   0.000002   0.000109   0.000000   0.000000   0.000000
    19  C    0.000000  -0.000040   0.000041   0.000000   0.000000  -0.000001
    20  H    0.000023   0.000162   0.000119  -0.000001  -0.000001   0.000002
    21  C    0.000000   0.000004   0.000127   0.000000   0.000000  -0.000001
    22  H    0.000000   0.000000   0.000011   0.000000   0.000000   0.000000
    23  H    0.000000  -0.000003   0.000031   0.000000   0.000000   0.000000
    24  H    0.000000   0.000000   0.000010   0.000000   0.000000   0.000000
    25  C    0.004278  -0.000846   0.000469   0.000134   0.000020   0.000012
    26  C   -0.000668   0.000047   0.000033   0.000029   0.000014   0.000000
    27  C    0.001272   0.000007  -0.000015  -0.000003  -0.000004   0.000000
    28  C   -0.000306   0.000003   0.000000   0.000002   0.000002   0.000000
    29  H   -0.000022  -0.000140   0.000032  -0.000033   0.000005  -0.000001
    30  C    0.000110   0.000000   0.000000   0.000000   0.000000   0.000000
    31  H    0.000193   0.000000   0.000001   0.000001   0.000000   0.000000
    32  C   -0.000068   0.000000   0.000000   0.000000   0.000000   0.000000
    33  H    0.000006   0.000000   0.000000   0.000000   0.000000   0.000000
    34  H    0.000008   0.000000   0.000000   0.000000   0.000000   0.000000
    35  H    0.000002   0.000000   0.000000   0.000000   0.000000   0.000000
             13         14         15         16         17         18
     1  C   -0.000014   0.116599  -0.023450  -0.073981   0.008068  -0.001930
     2  H   -0.000002  -0.073791   0.006123   0.004450   0.001438   0.002844
     3  C   -0.001449  -0.064114  -0.000139   0.006522  -0.000737   0.000476
     4  C    0.007459   0.011391  -0.000317   0.001001   0.000006   0.000011
     5  C    0.007630  -0.012843   0.000937  -0.018963   0.000302   0.000126
     6  C   -0.043106  -0.000884   0.000009  -0.000023   0.000000   0.000000
     7  H   -0.000172   0.000769  -0.000007  -0.000039   0.000000  -0.000001
     8  C   -0.042220  -0.001793  -0.000105  -0.001036   0.000005   0.000002
     9  H   -0.000170   0.001563  -0.000860  -0.000763  -0.000127   0.000109
    10  C    0.399476   0.000129  -0.000004  -0.000010   0.000000   0.000000
    11  H   -0.004403   0.000012   0.000000   0.000000   0.000000   0.000000
    12  H   -0.004455   0.000058   0.000003   0.000021   0.000000   0.000000
    13  H    0.519387   0.000001   0.000000   0.000001   0.000000   0.000000
    14  C    0.000001   5.400084   0.496127   0.451395  -0.076372  -0.046329
    15  C    0.000000   0.496127   5.054078  -0.064461   0.466676   0.395201
    16  C    0.000001   0.451395  -0.064461   5.093093  -0.029319   0.004751
    17  C    0.000000  -0.076372   0.466676  -0.029319   5.048681  -0.033788
    18  H    0.000000  -0.046329   0.395201   0.004751  -0.033788   0.506818
    19  C    0.000000  -0.062379  -0.033529   0.479946  -0.077508  -0.000287
    20  H    0.000000  -0.046607   0.004586   0.386404  -0.000103  -0.000271
    21  C    0.000000  -0.016447  -0.088951  -0.093382   0.499927   0.005073
    22  H    0.000000   0.006973  -0.039398  -0.000636   0.396343  -0.004075
    23  H    0.000000   0.005985  -0.000389  -0.038580   0.005901   0.000025
    24  H    0.000000  -0.001687   0.007580   0.008000  -0.042559  -0.000178
    25  C    0.000002  -0.145858  -0.004732  -0.003065  -0.000569   0.000140
    26  C    0.000000  -0.002914   0.000771  -0.011452   0.000062  -0.000024
    27  C    0.000000  -0.002553   0.000644   0.000527  -0.000014   0.000249
    28  C    0.000000   0.001896   0.000028  -0.000306   0.000000   0.000001
    29  H    0.000001  -0.003007  -0.000201  -0.000611  -0.000005  -0.000001
    30  C    0.000000  -0.000521  -0.000018   0.000119   0.000002  -0.000002
    31  H    0.000000   0.000314   0.000287  -0.000010   0.000005   0.000078
    32  C    0.000000  -0.000089  -0.000010  -0.000026   0.000000  -0.000001
    33  H    0.000000   0.000029   0.000001   0.000055   0.000000   0.000000
    34  H    0.000000   0.000026   0.000001   0.000000   0.000000   0.000000
    35  H    0.000000  -0.000003   0.000000   0.000000   0.000000   0.000000
             19         20         21         22         23         24
     1  C    0.003118   0.000247   0.001625  -0.000399  -0.000372  -0.000026
     2  H   -0.000224   0.000001   0.000007  -0.000035   0.000011  -0.000002
     3  C    0.000564   0.001707  -0.000060   0.000022   0.000022   0.000002
     4  C    0.000013  -0.000030   0.000000   0.000000   0.000000   0.000000
     5  C   -0.001404   0.001890   0.000166  -0.000008  -0.000001  -0.000003
     6  C    0.000000  -0.000078   0.000000   0.000000   0.000000   0.000000
     7  H    0.000000   0.000023   0.000000   0.000000   0.000000   0.000000
     8  C   -0.000040   0.000162   0.000004   0.000000  -0.000003   0.000000
     9  H    0.000041   0.000119   0.000127   0.000011   0.000031   0.000010
    10  C    0.000000  -0.000001   0.000000   0.000000   0.000000   0.000000
    11  H    0.000000  -0.000001   0.000000   0.000000   0.000000   0.000000
    12  H   -0.000001   0.000002  -0.000001   0.000000   0.000000   0.000000
    13  H    0.000000   0.000000   0.000000   0.000000   0.000000   0.000000
    14  C   -0.062379  -0.046607  -0.016447   0.006973   0.005985  -0.001687
    15  C   -0.033529   0.004586  -0.088951  -0.039398  -0.000389   0.007580
    16  C    0.479946   0.386404  -0.093382  -0.000636  -0.038580   0.008000
    17  C   -0.077508  -0.000103   0.499927   0.396343   0.005901  -0.042559
    18  H   -0.000287  -0.000271   0.005073  -0.004075   0.000025  -0.000178
    19  C    5.045964  -0.027522   0.490359   0.006254   0.397050  -0.043026
    20  H   -0.027522   0.497237   0.004617   0.000016  -0.003383  -0.000168
    21  C    0.490359   0.004617   5.033387  -0.040939  -0.039784   0.399477
    22  H    0.006254   0.000016  -0.040939   0.517915  -0.000206  -0.004552
    23  H    0.397050  -0.003383  -0.039784  -0.000206   0.514310  -0.004382
    24  H   -0.043026  -0.000168   0.399477  -0.004552  -0.004382   0.517009
    25  C    0.001956  -0.003831  -0.000072   0.000022   0.000030  -0.000002
    26  C   -0.000109   0.001543  -0.000009   0.000000   0.000041   0.000000
    27  C    0.000039  -0.000209  -0.000013   0.000001   0.000001   0.000000
    28  C   -0.000101   0.001110   0.000002   0.000000   0.000000   0.000000
    29  H    0.000918   0.001277  -0.000016   0.000001  -0.000031   0.000000
    30  C    0.000001  -0.000049   0.000000   0.000000   0.000000   0.000000
    31  H   -0.000001   0.000001  -0.000002   0.000000   0.000000   0.000000
    32  C    0.000001  -0.000002   0.000000   0.000000   0.000000   0.000000
    33  H    0.000001  -0.000052   0.000000   0.000000   0.000001   0.000000
    34  H    0.000000   0.000001   0.000000   0.000000   0.000000   0.000000
    35  H    0.000000   0.000000   0.000000   0.000000   0.000000   0.000000
             25         26         27         28         29         30
     1  C    0.144617  -0.058547  -0.024528   0.003526  -0.000136   0.006866
     2  H   -0.070030   0.005234   0.002214  -0.000254   0.000089   0.001522
     3  C   -0.088048  -0.005365  -0.001058  -0.000487   0.001274  -0.000444
     4  C   -0.008523  -0.010637   0.000550  -0.000404   0.000604  -0.000071
     5  C    0.003301   0.001605  -0.000446   0.000015  -0.000298   0.000018
     6  C   -0.001793  -0.000430  -0.000051  -0.000015   0.000120   0.000013
     7  H    0.004278  -0.000668   0.001272  -0.000306  -0.000022   0.000110
     8  C   -0.000846   0.000047   0.000007   0.000003  -0.000140   0.000000
     9  H    0.000469   0.000033  -0.000015   0.000000   0.000032   0.000000
    10  C    0.000134   0.000029  -0.000003   0.000002  -0.000033   0.000000
    11  H    0.000020   0.000014  -0.000004   0.000002   0.000005   0.000000
    12  H    0.000012   0.000000   0.000000   0.000000  -0.000001   0.000000
    13  H    0.000002   0.000000   0.000000   0.000000   0.000001   0.000000
    14  C   -0.145858  -0.002914  -0.002553   0.001896  -0.003007  -0.000521
    15  C   -0.004732   0.000771   0.000644   0.000028  -0.000201  -0.000018
    16  C   -0.003065  -0.011452   0.000527  -0.000306  -0.000611   0.000119
    17  C   -0.000569   0.000062  -0.000014   0.000000  -0.000005   0.000002
    18  H    0.000140  -0.000024   0.000249   0.000001  -0.000001  -0.000002
    19  C    0.001956  -0.000109   0.000039  -0.000101   0.000918   0.000001
    20  H   -0.003831   0.001543  -0.000209   0.001110   0.001277  -0.000049
    21  C   -0.000072  -0.000009  -0.000013   0.000002  -0.000016   0.000000
    22  H    0.000022   0.000000   0.000001   0.000000   0.000001   0.000000
    23  H    0.000030   0.000041   0.000001   0.000000  -0.000031   0.000000
    24  H   -0.000002   0.000000   0.000000   0.000000   0.000000   0.000000
    25  C    5.397722   0.450238   0.491542  -0.057901  -0.044278  -0.074417
    26  C    0.450238   5.066631  -0.072098   0.478521   0.388160  -0.026326
    27  C    0.491542  -0.072098   5.089770  -0.030751   0.004151   0.455421
    28  C   -0.057901   0.478521  -0.030751   5.041855  -0.028697  -0.078812
    29  H   -0.044278   0.388160   0.004151  -0.028697   0.497756   0.000034
    30  C   -0.074417  -0.026326   0.455421  -0.078812   0.000034   5.057988
    31  H   -0.050450   0.004367   0.400136  -0.000282  -0.000273  -0.034627
    32  C   -0.018720  -0.091599  -0.086767   0.491002   0.004559   0.498455
    33  H    0.006020  -0.038831  -0.000469   0.397246  -0.003319   0.005953
    34  H    0.006913  -0.000688  -0.039638   0.006244   0.000014   0.396886
    35  H   -0.001560   0.007911   0.007502  -0.042943  -0.000173  -0.042566
             31         32         33         34         35
     1  C   -0.000253   0.001287  -0.000354  -0.000341  -0.000014
     2  H    0.002454   0.000001   0.000011  -0.000038  -0.000002
     3  C    0.000183   0.000024   0.000027   0.000011   0.000001
     4  C    0.000271   0.000135   0.000014  -0.000003   0.000000
     5  C   -0.000029  -0.000001   0.000000   0.000000   0.000000
     6  C   -0.000007   0.000002   0.000000   0.000000   0.000000
     7  H    0.000193  -0.000068   0.000006   0.000008   0.000002
     8  C    0.000000   0.000000   0.000000   0.000000   0.000000
     9  H    0.000001   0.000000   0.000000   0.000000   0.000000
    10  C    0.000001   0.000000   0.000000   0.000000   0.000000
    11  H    0.000000   0.000000   0.000000   0.000000   0.000000
    12  H    0.000000   0.000000   0.000000   0.000000   0.000000
    13  H    0.000000   0.000000   0.000000   0.000000   0.000000
    14  C    0.000314  -0.000089   0.000029   0.000026  -0.000003
    15  C    0.000287  -0.000010   0.000001   0.000001   0.000000
    16  C   -0.000010  -0.000026   0.000055   0.000000   0.000000
    17  C    0.000005   0.000000   0.000000   0.000000   0.000000
    18  H    0.000078  -0.000001   0.000000   0.000000   0.000000
    19  C   -0.000001   0.000001   0.000001   0.000000   0.000000
    20  H    0.000001  -0.000002  -0.000052   0.000001   0.000000
    21  C   -0.000002   0.000000   0.000000   0.000000   0.000000
    22  H    0.000000   0.000000   0.000000   0.000000   0.000000
    23  H    0.000000   0.000000   0.000001   0.000000   0.000000
    24  H    0.000000   0.000000   0.000000   0.000000   0.000000
    25  C   -0.050450  -0.018720   0.006020   0.006913  -0.001560
    26  C    0.004367  -0.091599  -0.038831  -0.000688   0.007911
    27  C    0.400136  -0.086767  -0.000469  -0.039638   0.007502
    28  C   -0.000282   0.491002   0.397246   0.006244  -0.042943
    29  H   -0.000273   0.004559  -0.003319   0.000014  -0.000173
    30  C   -0.034627   0.498455   0.005953   0.396886  -0.042566
    31  H    0.509199   0.005215   0.000025  -0.004190  -0.000184
    32  C    0.005215   5.034096  -0.039847  -0.040689   0.399641
    33  H    0.000025  -0.039847   0.514685  -0.000205  -0.004461
    34  H   -0.004190  -0.040689  -0.000205   0.518061  -0.004584
    35  H   -0.000184   0.399641  -0.004461  -0.004584   0.517399
 Mulliken atomic charges:
              1
     1  C   -0.614275
     2  H    0.212120
     3  C    0.076454
     4  C   -0.136099
     5  C   -0.157195
     6  C   -0.177397
     7  H    0.187981
     8  C   -0.183473
     9  H    0.204226
    10  C   -0.151058
    11  H    0.161529
    12  H    0.161083
    13  H    0.162033
    14  C    0.064840
    15  C   -0.176483
    16  C   -0.099622
    17  C   -0.166315
    18  H    0.170983
    19  C   -0.180094
    20  H    0.181363
    21  C   -0.155093
    22  H    0.162693
    23  H    0.163721
    24  H    0.164507
    25  C    0.067282
    26  C   -0.085509
    27  C   -0.195411
    28  C   -0.180191
    29  H    0.182247
    30  C   -0.165536
    31  H    0.167580
    32  C   -0.156599
    33  H    0.163463
    34  H    0.162212
    35  H    0.164033
 Sum of Mulliken atomic charges =   0.00000
 Mulliken charges with hydrogens summed into heavy atoms:
              1
     1  C   -0.402156
     3  C    0.076454
     4  C    0.051882
     5  C    0.047031
     6  C   -0.015868
     8  C   -0.022390
    10  C    0.010975
    14  C    0.064840
    15  C   -0.005500
    16  C    0.081741
    17  C   -0.003623
    19  C   -0.016373
    21  C    0.009414
    25  C    0.067282
    26  C    0.096738
    27  C   -0.027831
    28  C   -0.016728
    30  C   -0.003325
    32  C    0.007434
 Sum of Mulliken charges with hydrogens summed into heavy atoms =   0.00000
 Electronic spatial extent (au):  <R**2>=           4929.2961
 Charge=              0.0000 electrons
 Dipole moment (field-independent basis, Debye):
    X=             -0.0922    Y=             -0.1733    Z=             -0.0156  Tot=              0.1969
 Quadrupole moment (field-independent basis, Debye-Ang):
   XX=           -107.4315   YY=           -113.1931   ZZ=           -107.1696
   XY=             -2.7920   XZ=             -0.5859   YZ=              2.6457
 Traceless Quadrupole moment (field-independent basis, Debye-Ang):
   XX=              1.8332   YY=             -3.9284   ZZ=              2.0951
   XY=             -2.7920   XZ=             -0.5859   YZ=              2.6457
 Octapole moment (field-independent basis, Debye-Ang**2):
  XXX=            -26.9267  YYY=             13.2809  ZZZ=              0.9893  XYY=             35.4465
  XXY=             -1.4669  XXZ=             -1.4696  XZZ=            -10.0036  YZZ=            -19.8484
  YYZ=             10.8370  XYZ=             -1.4112
 Hexadecapole moment (field-independent basis, Debye-Ang**3):
 XXXX=          -3047.1876 YYYY=          -2929.7472 ZZZZ=           -654.5119 XXXY=             66.8939
 XXXZ=            -10.7342 YYYX=            -71.3620 YYYZ=             70.1952 ZZZX=              6.1134
 ZZZY=             -1.2963 XXYY=          -1014.0193 XXZZ=           -625.2770 YYZZ=           -642.4327
 XXYZ=             -3.5881 YYXZ=             11.2926 ZZXY=            -32.3334
 N-N= 1.291000707313D+03 E-N=-4.278083167274D+03  KE= 7.286021755101D+02
 PrsmSu:  requested number of processors reduced to:  10 ShMem   1 Linda.
 Calling FoFJK, ICntrl=      2127 FMM=F ISym2X=0 I1Cent= 0 IOpClX= 0 NMat=1 NMatS=1 NMatT=0.
 ***** Axes restored to original set *****
 -------------------------------------------------------------------
 Center     Atomic                   Forces (Hartrees/Bohr)
 Number     Number              X              Y              Z
 -------------------------------------------------------------------
      1        6          -0.001393717    0.000954590    0.023054940
      2        1           0.000176647    0.004881320   -0.024637554
      3        6           0.001085136   -0.014377405   -0.003667573
      4        6           0.007856952    0.003171683    0.003404351
      5        6          -0.011301263    0.003547623   -0.001406495
      6        6           0.011854112   -0.003165774    0.003047480
      7        1          -0.012822939   -0.012184314   -0.007228836
      8        6          -0.007082289   -0.009524955   -0.004585380
      9        1           0.019267867   -0.009300173    0.003728654
     10        6           0.001058022   -0.013151435   -0.003491812
     11        1          -0.015309265    0.005965894   -0.002661636
     12        1           0.012007142    0.009864432    0.006132362
     13        1          -0.003392805    0.015912816    0.003339017
     14        6          -0.011701608    0.004140863    0.006266727
     15        6           0.001692478   -0.001052808    0.005682375
     16        6           0.007298509   -0.001069820   -0.009718330
     17        6          -0.010873012    0.004460805    0.007051672
     18        1          -0.002826285    0.000994758   -0.017585038
     19        6           0.000023384    0.000031299   -0.012489289
     20        1          -0.025231666    0.005177853    0.014068387
     21        6          -0.012668311    0.004953378   -0.001816159
     22        1           0.011351687   -0.004560864   -0.011373573
     23        1           0.003114945   -0.001268590    0.016320341
     24        1           0.014896890   -0.005827020    0.005203004
     25        6           0.009623733    0.008508131    0.006431908
     26        6          -0.004165563   -0.005420416   -0.009187868
     27        6          -0.002098070   -0.000488203    0.005465054
     28        6           0.001052947   -0.000656316   -0.012379029
     29        1           0.020634225    0.011824855    0.015064297
     30        6           0.007857880    0.008459990    0.007416043
     31        1           0.004184924    0.000672158   -0.017030300
     32        6           0.010335100    0.008986805   -0.001442033
     33        1          -0.004323547   -0.001146762    0.016117325
     34        1          -0.007733535   -0.008966457   -0.011659320
     35        1          -0.012448704   -0.010347941    0.004566288
 -------------------------------------------------------------------
 Cartesian Forces:  Max     0.025231666 RMS     0.009543396

 GradGradGradGradGradGradGradGradGradGradGradGradGradGradGradGradGradGrad
 Berny optimization.
 Internal  Forces:  Max     0.028382905 RMS     0.007782130
 Search for a local minimum.
 Step number   1 out of a maximum of  197
 All quantities printed in internal units (Hartrees-Bohrs-Radians)
 Mixed Optimization -- RFO/linear search
 Second derivative matrix not updated -- first step.
     Eigenvalues ---    0.00635   0.00651   0.00655   0.01533   0.01538
     Eigenvalues ---    0.01541   0.02139   0.02142   0.02146   0.02171
     Eigenvalues ---    0.02172   0.02173   0.02182   0.02182   0.02184
     Eigenvalues ---    0.02201   0.02202   0.02202   0.02211   0.02211
     Eigenvalues ---    0.02212   0.02214   0.02214   0.02214   0.02214
     Eigenvalues ---    0.02217   0.02219   0.02220   0.02220   0.02224
     Eigenvalues ---    0.04573   0.06412   0.06606   0.15997   0.15998
     Eigenvalues ---    0.16000   0.16000   0.16000   0.16000   0.16000
     Eigenvalues ---    0.16000   0.16000   0.16000   0.16000   0.16000
     Eigenvalues ---    0.16000   0.16000   0.16000   0.18851   0.19318
     Eigenvalues ---    0.22000   0.22000   0.22000   0.22000   0.22000
     Eigenvalues ---    0.22000   0.23463   0.23478   0.23479   0.24962
     Eigenvalues ---    0.24999   0.25000   0.31267   0.31364   0.31485
     Eigenvalues ---    0.31510   0.33533   0.33586   0.33979   0.34043
     Eigenvalues ---    0.34070   0.34094   0.34251   0.34253   0.34259
     Eigenvalues ---    0.34262   0.34265   0.34273   0.34277   0.34278
     Eigenvalues ---    0.34293   0.42414   0.42458   0.42480   0.42560
     Eigenvalues ---    0.42576   0.42604   0.46347   0.46393   0.46434
     Eigenvalues ---    0.46725   0.46744   0.46795   0.47197   0.47198
     Eigenvalues ---    0.47219   0.47349   0.47350   0.474171000.00000
     Eigenvalues --- 1000.000001000.000001000.000001000.000001000.00000
     Eigenvalues --- 1000.000001000.000001000.000001000.000001000.00000
     Eigenvalues --- 1000.000001000.000001000.000001000.000001000.00000
     Eigenvalues --- 1000.000001000.000001000.000001000.000001000.00000
     Eigenvalues --- 1000.000001000.000001000.000001000.000001000.00000
     Eigenvalues --- 1000.000001000.000001000.000001000.000001000.00000
     Eigenvalues --- 1000.000001000.000001000.000001000.000001000.00000
     Eigenvalues --- 1000.000001000.000001000.000001000.000001000.00000
     Eigenvalues --- 1000.000001000.000001000.000001000.000001000.00000
     Eigenvalues --- 1000.000001000.000001000.000001000.000001000.00000
     Eigenvalues --- 1000.000001000.000001000.000001000.000001000.00000
     Eigenvalues --- 1000.000001000.000001000.000001000.000001000.00000
     Eigenvalues --- 1000.000001000.000001000.000001000.000001000.00000
     Eigenvalues --- 1000.000001000.000001000.000001000.000001000.00000
     Eigenvalues --- 1000.000001000.000001000.000001000.000001000.00000
     Eigenvalues --- 1000.000001000.000001000.000001000.000001000.00000
     Eigenvalues --- 1000.000001000.000001000.000001000.000001000.00000
     Eigenvalues --- 1000.000001000.00000
 RFO step:  Lambda=-4.17824451D-02 EMin= 6.35456540D-03
 Linear search not attempted -- first point.
 Maximum step size (   0.300) exceeded in Quadratic search.
    -- Step size scaled by   0.594
 Iteration  1 RMS(Cart)=  0.12578374 RMS(Int)=  0.00304759
 Iteration  2 RMS(Cart)=  0.00617672 RMS(Int)=  0.00028341
 Iteration  3 RMS(Cart)=  0.00001079 RMS(Int)=  0.00028335
 Iteration  4 RMS(Cart)=  0.00000000 RMS(Int)=  0.00028335
 Variable       Old X    -DE/DX   Delta X   Delta X   Delta X     New X
                                 (Linear)    (Quad)   (Total)
    R1        2.12206  -0.02466   0.00000  -0.04130  -0.04130   2.08076
    R2        2.85095   0.02352   0.00000   0.03915   0.03915   2.89011
    R3        2.85050   0.02348   0.00000   0.03907   0.03907   2.88956
    R4        2.85323   0.02294   0.00000   0.03832   0.03832   2.89155
    R5        2.64323  -0.00191   0.00000  -0.00220  -0.00219   2.64104
    R6        2.63574  -0.00211   0.00000  -0.00233  -0.00233   2.63341
    R7        2.62432  -0.00454   0.00000  -0.00528  -0.00528   2.61904
    R8        2.07258  -0.01907   0.00000  -0.02963  -0.02963   2.04295
    R9        2.62882  -0.00165   0.00000  -0.00185  -0.00185   2.62697
   R10        2.07365  -0.02165   0.00000  -0.03368  -0.03368   2.03997
   R11        2.62936  -0.00515   0.00000  -0.00610  -0.00611   2.62325
   R12        2.06890  -0.01664   0.00000  -0.02571  -0.02571   2.04319
   R13        2.62574  -0.00724   0.00000  -0.00840  -0.00841   2.61733
   R14        2.06908  -0.01671   0.00000  -0.02581  -0.02581   2.04327
   R15        2.06838  -0.01661   0.00000  -0.02563  -0.02563   2.04275
   R16        2.63930  -0.00440   0.00000  -0.00514  -0.00512   2.63418
   R17        2.63962   0.00066   0.00000   0.00092   0.00093   2.64055
   R18        2.62799  -0.00237   0.00000  -0.00282  -0.00282   2.62517
   R19        2.07211  -0.01783   0.00000  -0.02767  -0.02767   2.04444
   R20        2.62540  -0.00447   0.00000  -0.00506  -0.00507   2.62034
   R21        2.08125  -0.02838   0.00000  -0.04469  -0.04469   2.03657
   R22        2.62745  -0.00926   0.00000  -0.01083  -0.01085   2.61660
   R23        2.06905  -0.01670   0.00000  -0.02580  -0.02580   2.04325
   R24        2.62875  -0.00553   0.00000  -0.00645  -0.00647   2.62228
   R25        2.06872  -0.01666   0.00000  -0.02573  -0.02573   2.04299
   R26        2.06864  -0.01682   0.00000  -0.02597  -0.02597   2.04267
   R27        2.63897  -0.00013   0.00000  -0.00004  -0.00002   2.63895
   R28        2.63872  -0.00428   0.00000  -0.00499  -0.00497   2.63374
   R29        2.62540  -0.00463   0.00000  -0.00528  -0.00528   2.62013
   R30        2.08034  -0.02687   0.00000  -0.04224  -0.04224   2.03810
   R31        2.62793  -0.00223   0.00000  -0.00263  -0.00264   2.62529
   R32        2.07172  -0.01754   0.00000  -0.02721  -0.02721   2.04451
   R33        2.62879  -0.00532   0.00000  -0.00622  -0.00623   2.62256
   R34        2.06885  -0.01673   0.00000  -0.02583  -0.02583   2.04302
   R35        2.62750  -0.00890   0.00000  -0.01038  -0.01040   2.61711
   R36        2.06894  -0.01662   0.00000  -0.02567  -0.02567   2.04328
   R37        2.06864  -0.01682   0.00000  -0.02597  -0.02597   2.04267
    A1        1.82767   0.00404   0.00000   0.00117   0.00143   1.82911
    A2        1.87812  -0.00994   0.00000  -0.05168  -0.05077   1.82735
    A3        1.88452  -0.00899   0.00000  -0.04968  -0.04885   1.83568
    A4        1.99096   0.00034   0.00000   0.02061   0.01866   2.00962
    A5        1.95083  -0.00283   0.00000   0.01318   0.01103   1.96186
    A6        1.92483   0.01546   0.00000   0.05481   0.05365   1.97848
    A7        2.07505   0.00124   0.00000   0.00239   0.00237   2.07743
    A8        2.13039   0.00668   0.00000   0.01347   0.01345   2.14384
    A9        2.07647  -0.00795   0.00000  -0.01618  -0.01617   2.06030
   A10        2.10334   0.00457   0.00000   0.01009   0.01009   2.11343
   A11        2.08496  -0.00110   0.00000  -0.00155  -0.00155   2.08341
   A12        2.09487  -0.00347   0.00000  -0.00854  -0.00855   2.08632
   A13        2.10178   0.00358   0.00000   0.00822   0.00822   2.11001
   A14        2.09174  -0.00017   0.00000   0.00064   0.00064   2.09238
   A15        2.08966  -0.00340   0.00000  -0.00886  -0.00886   2.08080
   A16        2.09692   0.00087   0.00000   0.00128   0.00128   2.09820
   A17        2.09153  -0.00043   0.00000  -0.00064  -0.00064   2.09090
   A18        2.09473  -0.00043   0.00000  -0.00064  -0.00064   2.09409
   A19        2.09897   0.00111   0.00000   0.00221   0.00220   2.10117
   A20        2.08916  -0.00050   0.00000  -0.00096  -0.00095   2.08820
   A21        2.09505  -0.00060   0.00000  -0.00125  -0.00125   2.09381
   A22        2.08886  -0.00218   0.00000  -0.00563  -0.00565   2.08321
   A23        2.09662   0.00112   0.00000   0.00290   0.00290   2.09952
   A24        2.09771   0.00106   0.00000   0.00274   0.00274   2.10045
   A25        2.08100  -0.01072   0.00000  -0.02178  -0.02180   2.05919
   A26        2.12270   0.02243   0.00000   0.04569   0.04566   2.16836
   A27        2.07946  -0.01170   0.00000  -0.02386  -0.02383   2.05564
   A28        2.09979   0.00807   0.00000   0.01779   0.01782   2.11760
   A29        2.09485  -0.00469   0.00000  -0.01082  -0.01084   2.08401
   A30        2.08855  -0.00338   0.00000  -0.00697  -0.00699   2.08157
   A31        2.10224   0.00445   0.00000   0.01009   0.01007   2.11232
   A32        2.07731   0.00437   0.00000   0.01442   0.01438   2.09169
   A33        2.10352  -0.00879   0.00000  -0.02429  -0.02434   2.07918
   A34        2.09783  -0.00023   0.00000  -0.00141  -0.00142   2.09641
   A35        2.09090   0.00032   0.00000   0.00131   0.00132   2.09221
   A36        2.09446  -0.00009   0.00000   0.00010   0.00010   2.09456
   A37        2.09615   0.00238   0.00000   0.00498   0.00496   2.10112
   A38        2.09157  -0.00109   0.00000  -0.00221  -0.00220   2.08937
   A39        2.09546  -0.00128   0.00000  -0.00277  -0.00276   2.09270
   A40        2.09089  -0.00297   0.00000  -0.00759  -0.00762   2.08327
   A41        2.09632   0.00145   0.00000   0.00368   0.00369   2.10001
   A42        2.09597   0.00153   0.00000   0.00392   0.00393   2.09990
   A43        2.11703   0.01917   0.00000   0.03905   0.03899   2.15602
   A44        2.08504  -0.00831   0.00000  -0.01687  -0.01692   2.06812
   A45        2.08111  -0.01085   0.00000  -0.02218  -0.02218   2.05893
   A46        2.10139   0.00423   0.00000   0.00954   0.00949   2.11088
   A47        2.07749   0.00384   0.00000   0.01289   0.01280   2.09028
   A48        2.10416  -0.00803   0.00000  -0.02205  -0.02214   2.08201
   A49        2.09878   0.00748   0.00000   0.01656   0.01657   2.11535
   A50        2.09516  -0.00441   0.00000  -0.01025  -0.01026   2.08490
   A51        2.08925  -0.00307   0.00000  -0.00632  -0.00633   2.08292
   A52        2.09596   0.00229   0.00000   0.00476   0.00475   2.10072
   A53        2.09187  -0.00106   0.00000  -0.00211  -0.00212   2.08976
   A54        2.09535  -0.00124   0.00000  -0.00264  -0.00265   2.09270
   A55        2.09782  -0.00031   0.00000  -0.00144  -0.00146   2.09636
   A56        2.09105   0.00037   0.00000   0.00135   0.00136   2.09241
   A57        2.09432  -0.00006   0.00000   0.00008   0.00009   2.09441
[...]
 0002227,-0.00000552,-0.00011272,-0.00077703,-0.00071471,0.00121256,0.0
 0004499,0.00018881,-0.00023319,0.00008973,-0.00036803,-0.00016373,0.00
 005285,-0.00022812,-0.00020897,-0.00000432,-0.00000654,0.00013341,-0.0
 0004164,0.00025370,-0.00008236,-0.00005338,-0.00003410,0.00000881,0.00
 015698,-0.00006022,0.00020634,0.00000337,-0.00001977,-0.00000652,0.000
 00135,-0.00000633,0.00000056,-0.00000381,0.00000585,0.00001190,0.00054
 896,-0.00034323,-0.00057742,0.00043358,-0.00026235,-0.00008793,-0.0002
 2594,-0.00017007,-0.00008654,-0.00020336,0.00024922,-0.00021519,-0.000
 01495,-0.00003107,-0.00001950,0.00044749,-0.00001781,-0.00019398,-0.00
 005074,0.00023229,-0.00010526,-0.00010372,-0.00015506,0.00030224,0.000
 02004,0.00002109,0.00001479,0.00000443,-0.00002121,-0.00000083,0.00001
 830,0.00000214,-0.00000176,-0.02282910,0.03947964,0.07014823,0.0493522
 3,0.01709321,-0.05367156,0.06142318,-0.00896689,-0.16357214,-0.0278451
 8,-0.08182643,-0.02554438,0.00025358,0.00085419,-0.00076090,-0.2036282
 9,0.18975090,0.58839840,-0.00182588,0.00065139,-0.00162238,0.00047305,
 -0.00016915,-0.00079491,0.00020061,0.00011856,-0.00018661,0.00007172,0
 .00010070,0.00013721,0.00002249,0.00001473,-0.00004030,-0.00002557,-0.
 00002342,-0.00001546,-0.00001425,0.00000815,-0.00003008,-0.00004752,-0
 .00000217,-0.00000976,-0.00000292,-0.00000389,-0.00001623,0.00000871,0
 .00002826,0.00000830,-0.00000838,0.00001793,-0.00000157,-0.00000462,0.
 00000272,0.00000725,-0.00000220,0.00000361,-0.00000300,-0.00014947,-0.
 00015665,-0.00002794,-0.00013690,0.00007546,0.00009043,0.00000571,0.00
 003764,0.00003903,-0.00003353,-0.00003429,0.00004038,0.00000082,-0.000
 00532,-0.00000801,-0.00004166,0.00005676,-0.00003817,0.00006221,-0.000
 02177,-0.00002672,0.00001962,-0.00000867,-0.00002934,0.00000964,0.0000
 0055,-0.00001096,-0.00000211,-0.00000536,0.00000760,0.00001512,-0.0000
 0301,0.00000140,0.00816895,-0.00400657,-0.00669597,0.00384318,-0.00406
 465,0.00171669,-0.13628142,0.03030910,0.13231538,-0.00055053,-0.000337
 33,-0.00078588,0.00015204,-0.00012046,-0.00041009,-0.00681111,0.009155
 34,0.02248163,0.13438745,0.00244447,0.00038510,-0.00050198,-0.00035471
 ,-0.00052986,0.00119506,0.00009440,-0.00007496,0.00037577,-0.00007528,
 -0.00000044,-0.00006702,-0.00008311,0.00015330,0.00007825,0.00001119,0
 .00000825,0.00002286,0.00004859,-0.00002734,0.00000522,0.00004395,0.00
 003735,0.00002442,0.00001758,-0.00000510,0.00000011,-0.00000630,0.0000
 2167,0.00000332,-0.00000255,0.00000654,-0.00000605,0.00000983,0.000022
 10,0.00000544,0.00000287,0.00001116,0.00000404,-0.00016806,0.00025210,
 -0.00006140,0.00003612,-0.00006065,-0.00002672,0.00009389,0.00000404,-
 0.00015555,-0.00006406,0.00003194,0.00001456,-0.00003578,-0.00004203,0
 .00002657,0.00002933,-0.00005460,0.00000731,-0.00001047,-0.00000152,0.
 00008558,0.00003020,-0.00005351,0.00003787,0.00001685,0.00000343,-0.00
 000196,0.00002252,-0.00000982,0.00002524,0.00001344,0.00000047,0.00001
 375,0.01627880,-0.00248164,-0.02665164,-0.00426953,-0.00337145,-0.0045
 4837,0.03028091,-0.08639606,-0.06814767,-0.00039327,-0.00100319,0.0004
 4882,0.00087561,-0.00022641,-0.00122819,-0.01348558,0.01056432,0.02037
 882,-0.02781363,0.08353509,-0.00147758,0.00210427,-0.00071357,-0.00026
 234,-0.00046120,0.00043808,0.00024543,0.00001295,0.00029668,-0.0000335
 2,0.00002230,0.00006136,-0.00005354,0.00014668,0.00005309,-0.00003274,
 0.00001058,-0.00002292,0.00001773,-0.00000755,-0.00003040,0.00001190,0
 .00003262,0.00004525,0.00001356,-0.00000244,-0.00003732,0.00000385,0.0
 0000354,0.00000379,0.00000280,0.00001127,-0.00000414,0.00000151,0.0000
 1257,-0.00000274,0.00000299,0.00000240,-0.00000425,-0.00028799,-0.0002
 9151,0.00041521,-0.00036142,0.00013236,0.00010926,0.00011510,0.0002370
 7,-0.00009439,0.00000139,-0.00006737,0.00013365,0.00000564,-0.00002793
 ,-0.00003075,-0.00018387,0.00011173,0.00001547,0.00009899,-0.00013440,
 -0.00006415,0.00002547,0.00003505,-0.00008984,-0.00000200,-0.00000122,
 -0.00001688,0.00000069,-0.00002317,-0.00000376,0.00000966,-0.00001336,
 -0.00000312,0.01172316,-0.00075169,-0.00941513,0.00129157,-0.00477227,
 0.00249549,0.13137493,-0.06857096,-0.26651276,-0.00087885,0.00036882,0
 .00039864,0.00047212,-0.00008284,-0.00067565,0.00399222,-0.00699902,-0
 .00494370,-0.14789153,0.07690891,0.27642457,-0.00098067,0.00096639,0.0
 0002697,-0.00011321,-0.00015579,-0.00030672,-0.00005244,0.00005001,0.0
 0020688,-0.00003685,0.00001541,-0.00008456,0.00005213,-0.00008914,0.00
 006249,0.00000565,-0.00002230,-0.00006168,-0.00004104,0.00004740,0.000
 00658,-0.00001193,0.00004811,0.00001213,-0.00001106,0.00000124,0.00000
 367,0.00004284,-0.00005680,0.00000230,0.00000230,-0.00003773,0.0000186
 6,-0.00000880,-0.00002009,-0.00000572,-0.00000361,-0.00001517,0.000000
 70,0.00003748,-0.00087566,0.00015181,-0.00014071,0.00003628,-0.0001922
 0,-0.00014872,-0.00000526,0.00013050,-0.00003552,0.00006850,0.00001766
 ,0.00002493,-0.00001617,-0.00000848,0.00009201,0.00002688,-0.00008821,
 0.00000204,0.00003943,-0.00002688,-0.00007438,-0.00001348,0.00004826,-
 0.00003266,0.00001896,0.00000571,-0.00003141,0.00000450,-0.00002409,-0
 .00000367,0.00000781,-0.00000855,-0.00591594,0.01466425,0.01158653,0.0
 0956429,-0.02709556,-0.02255316,-0.02600333,-0.01676952,0.03027327,-0.
 13605667,-0.08827243,-0.01129188,0.00077440,-0.00523941,0.00530062,-0.
 17741590,0.02357098,0.13472034,0.00135729,-0.00600320,0.00443085,0.530
 44098,0.00165588,0.00003285,-0.00057045,0.00004623,-0.00012748,0.00074
 498,-0.00037625,0.00026034,-0.00028492,-0.00009310,-0.00037522,0.00006
 156,-0.00000934,0.00023722,0.00024430,0.00000805,0.00031676,0.00016486
 ,0.00001132,0.00000175,-0.00005688,0.00015997,-0.00022838,0.00005790,0
 .00002494,0.00001953,0.00001646,-0.00017305,-0.00004869,-0.00025705,0.
 00000851,-0.00001983,0.00002175,-0.00000406,-0.00002012,-0.00001827,-0
 .00000124,-0.00002200,-0.00000123,0.00042783,0.00057868,0.00024032,-0.
 00032716,0.00023625,0.00003684,-0.00000464,0.00016029,0.00011393,0.000
 12359,-0.00017347,0.00015721,0.00001699,0.00000267,-0.00000151,-0.0003
 2963,-0.00002701,0.00013431,-0.00007873,-0.00032026,0.00024724,0.00004
 473,0.00011682,-0.00021795,-0.00002289,-0.00002298,-0.00001991,-0.0000
 4172,0.00002546,-0.00001412,-0.00001752,0.00000219,0.00000505,0.014130
 19,-0.04778690,-0.05184112,-0.06608105,-0.04227367,0.03769184,0.021790
 94,0.07028520,0.02246721,-0.03778092,-0.29765493,-0.13445972,-0.005194
 49,0.00098779,-0.00015807,-0.02629310,-0.15658760,-0.03004416,-0.00633
 717,-0.00052299,-0.00025738,0.22999483,0.65432119,0.00163749,-0.000327
 72,-0.00125507,0.00040167,0.00030111,0.00090114,-0.00014316,0.00017806
 ,-0.00052296,-0.00013695,-0.00034294,0.00014782,-0.00006217,0.00039895
 ,0.00018925,-0.00002202,0.00033737,0.00021946,0.00004281,-0.00001314,-
 0.00008460,0.00017155,-0.00028180,0.00003992,0.00001553,0.00001368,-0.
 00000119,-0.00020893,0.00002755,-0.00024541,0.00000654,0.00000762,0.00
 000608,0.00000666,0.00000708,-0.00000672,-0.00000016,-0.00000502,-0.00
 000669,0.00017643,0.00123556,0.00025025,-0.00026308,0.00020541,0.00031
 134,0.00037854,0.00022111,0.00000863,0.00019043,-0.00026652,0.00017814
 ,-0.00001151,0.00000879,0.00000660,-0.00044466,0.00000856,0.00014554,0
 .00005862,-0.00021247,0.00006319,0.00018818,0.00012263,-0.00029352,0.0
 0001481,-0.00004210,-0.00002383,0.00003727,0.00001246,0.00004692,0.000
 00194,-0.00000857,0.00000496,0.00991724,-0.05271888,-0.06559441,-0.055
 37658,-0.01097159,0.06887463,0.06267613,0.07187233,-0.00802667,0.03143
 909,-0.07373569,-0.18363224,0.00561875,0.00015473,0.00246189,0.0919719
 9,-0.09116045,-0.27411731,0.00396663,-0.00079232,0.00353754,-0.2391855
 0,0.12586701,0.57406795,-0.00027532,0.00054696,0.00078093,-0.00029096,
 -0.00019205,0.00013041,-0.00000277,0.00028092,0.00000391,0.00003714,-0
 .00001214,-0.00000669,0.00004192,-0.00009476,-0.00003380,-0.00001023,-
 0.00001333,-0.00001797,-0.00001541,0.00000785,-0.00002148,-0.00000467,
 0.00002252,-0.00001827,-0.00001945,0.00000940,0.00001293,0.00002726,-0
 .00003635,0.00000027,0.00000330,-0.00000673,0.00000225,-0.00001660,-0.
 00002320,-0.00000653,-0.00000202,-0.00001270,0.00000170,0.00010836,-0.
 00015687,0.00016180,-0.00011148,0.00005734,-0.00005479,-0.00011592,-0.
 00002683,-0.00000666,-0.00000535,-0.00000139,0.00000597,0.00001645,0.0
 0001192,-0.00001563,0.00000886,-0.00001257,0.00000443,0.00003473,0.000
 00545,0.00005759,-0.00002535,0.00000963,-0.00000623,-0.00001528,0.0000
 0217,-0.00000014,-0.00002489,0.00001769,-0.00001325,-0.00000893,0.0000
 0591,-0.00000034,0.00130078,-0.00611460,0.00374877,-0.00674002,0.00907
 418,0.02250517,-0.00053438,-0.00039876,-0.00084932,-0.13730632,0.03086
 178,0.13354113,-0.00166543,0.00158493,-0.00271193,0.00435290,-0.004293
 91,0.00195908,-0.00058763,0.00047238,-0.00041182,0.00894211,-0.0046070
 3,-0.00790621,0.13447623,-0.00018810,0.00049437,0.00078286,-0.00013848
 ,-0.00009812,0.00014254,0.00004117,0.00011987,-0.00001749,0.00001116,-
 0.00003693,-0.00000809,0.00001139,0.00002220,-0.00002575,0.00001690,0.
 00001179,0.00000341,-0.00001078,0.00000175,0.00001077,0.00001508,-0.00
 002503,-0.00001362,-0.00000951,0.00000360,0.00000841,0.00000595,-0.000
 03264,-0.00002478,-0.00000204,-0.00001024,0.00000823,-0.00000744,-0.00
 000682,0.00000385,-0.00000582,-0.00000474,0.00000430,-0.00002316,-0.00
 008915,0.00004544,-0.00003910,-0.00000566,-0.00000680,0.00001406,0.000
 01523,-0.00002579,-0.00000930,0.00000953,0.00000586,0.00000346,-0.0000
 0354,-0.00000559,-0.00000326,0.00001052,-0.00000654,-0.00001242,0.0000
 0686,-0.00001413,-0.00000560,-0.00000101,0.00000322,-0.00000436,0.0000
 0211,0.00000239,0.00000434,-0.00000127,0.00000039,-0.00000093,-0.00000
 121,-0.00000181,-0.00610899,-0.00062696,-0.00047811,-0.01306357,0.0104
 9018,0.02006700,-0.00042655,-0.00115562,0.00039795,0.03081278,-0.08731
 149,-0.06965181,0.00240596,-0.00004129,0.00123561,-0.00454663,-0.00303
 119,-0.00458384,0.00045781,-0.00020684,0.00032358,0.01771184,-0.001258
 41,-0.02721597,-0.02929276,0.08323470,-0.00017713,-0.00054088,-0.00036
 801,0.00011408,0.00006222,-0.00009582,0.00008713,-0.00011158,-0.000017
 90,0.00000012,0.00007630,0.00001232,-0.00002540,0.00000927,-0.00003174
 ,-0.00001114,-0.00004087,0.00000741,0.00002128,-0.00002078,-0.00000204
 ,-0.00002890,0.00002179,0.00000203,-0.00000334,-0.00001114,-0.00001171
 ,-0.00000022,0.00004464,0.00004640,-0.00000400,0.00002540,-0.00002128,
 0.00000990,0.00001544,0.00000489,0.00000635,0.00001979,-0.00000218,0.0
 0000163,0.00017478,-0.00006097,0.00006162,-0.00001476,0.00004924,0.000
 03008,-0.00002635,0.00004624,0.00001634,-0.00001515,-0.00000311,-0.000
 01205,0.00000146,0.00000183,-0.00000968,0.00001831,-0.00002058,-0.0000
 1198,0.00000391,-0.00004048,0.00002237,0.00000211,-0.00000927,0.000016
 43,-0.00000308,-0.00000769,0.00000540,-0.00001087,0.00000763,0.0000143
 8,-0.00000329,0.00000040,0.00428888,-0.00016411,0.00331732,0.00371632,
 -0.00684110,-0.00474986,-0.00080827,0.00052249,0.00046320,0.13344418,-
 0.06942736,-0.26911873,-0.00215526,0.00197587,-0.00073075,0.00167120,-
 0.00495079,0.00275505,-0.00041921,0.00031949,-0.00049211,0.01090825,-0
 .00030339,-0.00785100,-0.14846055,0.07808289,0.27833963,0.00004674,-0.
 00082702,-0.00073806,0.00007635,0.00004402,-0.00000902,-0.00039345,-0.
 00006475,0.00010222,0.00002041,-0.00007071,0.00001709,0.00002954,-0.00
 004061,0.00000712,0.00000540,0.00005348,-0.00000023,-0.00000234,0.0000
 0668,-0.00000227,0.00003949,-0.00002971,-0.00001018,-0.00001529,-0.000
 00032,0.00000652,-0.00002787,-0.00003100,-0.00003885,0.00000430,-0.000
 00515,0.00000472,-0.00000173,-0.00001198,-0.00000918,-0.00000122,-0.00
 000744,-0.00000014,0.00005891,-0.00013541,0.00006080,-0.00006392,0.000
 02139,-0.00002315,-0.00004365,0.00003889,-0.00000683,-0.00000239,0.000
 01352,0.00001429,0.00000809,-0.00000764,-0.00001324,-0.00000728,0.0000
 1537,0.00001793,0.00001063,-0.00004282,0.00000068,-0.00003274,0.000021
 46,-0.00000320,-0.00001176,-0.00000285,-0.00000176,-0.00001617,-0.0000
 0230,-0.00002093,-0.00000943,-0.00000517,-0.00000470,0.00087642,-0.005
 00158,0.00558283,-0.00101254,0.00032440,0.00039111,0.00076889,-0.02341
 600,-0.01410237,0.00225527,-0.00175179,0.00634999,-0.00053737,0.000355
 11,-0.00056586,-0.07394364,-0.05956089,-0.01992866,-0.00169182,0.00245
 739,-0.00215835,0.00913345,0.01724542,0.01021582,0.00014224,0.00080677
 ,0.00040705,0.06592743,0.00024620,-0.00064753,-0.00071265,-0.00002136,
 -0.00000948,0.00006372,-0.00024756,0.00006301,0.00019011,-0.00002575,-
 0.00005642,-0.00005395,0.00004196,-0.00010207,0.00001334,-0.00000829,0
 .00000091,-0.00002494,-0.00000921,0.00001684,-0.00000307,0.00001139,0.
 00002673,-0.00000303,0.00000450,0.00000664,0.00000295,0.00001451,-0.00
 002939,0.00000830,0.00001425,-0.00002034,0.00000403,-0.00000406,-0.000
 01412,-0.00001129,0.00000165,-0.00001493,-0.00000208,0.00012309,-0.000
 12964,0.00008055,-0.00008084,0.00006082,-0.00002352,-0.00003114,0.0000
 4038,-0.00003831,-0.00001419,0.00000760,0.00001515,0.00001210,-0.00001
 138,-0.00000523,0.00000070,-0.00001127,0.00001741,0.00002237,-0.000022
 22,0.00003744,-0.00002513,0.00000966,0.00000658,-0.00002251,-0.0000055
 6,0.00000351,-0.00000913,0.00000322,-0.00001529,-0.00001714,0.00000134
 ,-0.00000242,-0.00554797,0.00124807,0.00007268,0.00019298,0.00044935,0
 .00092984,-0.00123418,-0.01245872,-0.01393609,-0.00141008,0.00313531,-
 0.00300174,0.00041379,-0.00035220,0.00026923,-0.05964865,-0.28525568,-
 0.12897478,0.00170782,-0.00019928,0.00217254,-0.00480101,-0.00191142,-
 0.00043896,-0.00010843,-0.00033908,-0.00007348,0.06813093,0.29671864,0
 .00002171,0.00057953,0.00029677,-0.00003932,-0.00002367,-0.00004008,0.
 00003345,-0.00000193,-0.00010436,-0.00000116,-0.00001124,0.00003483,-0
 .00001179,0.00002818,0.00003525,-0.00001067,0.00003341,0.00001396,0.00
 000439,0.00000402,-0.00001832,0.00000582,-0.00002375,0.00001626,0.0000
 0857,0.00000262,-0.00000492,-0.00002281,0.00000810,-0.00002223,0.00000
 130,0.00000413,0.00000091,0.00000251,0.00000087,-0.00000502,0.00000208
 ,-0.00000228,-0.00000352,-0.00007065,-0.00007660,0.00002138,0.00000679
 ,-0.00001573,-0.00004082,-0.00001759,0.00001181,-0.00000985,-0.0000070
 2,0.00001416,-0.00000893,0.00000336,0.00000329,-0.00000267,0.00001652,
 0.00000051,0.00002712,0.00002003,-0.00002650,-0.00000304,-0.00002007,0
 .00000144,0.00001162,-0.00000279,0.00000289,0.00000218,-0.00000894,-0.
 00000244,-0.00001524,-0.00000736,-0.00000218,-0.00000114,0.00537968,-0
 .00018663,0.00246865,0.00038179,0.00091356,-0.00063826,0.00493556,0.01
 314322,0.01090188,0.00658898,-0.00261985,-0.00166839,-0.00053579,0.000
 27262,-0.00037299,-0.02006489,-0.12916385,-0.13480102,-0.00273254,0.00
 126275,-0.00075169,-0.00867602,-0.02735614,-0.00730800,-0.00037730,-0.
 00123527,-0.00064898,0.01713937,0.14234133,0.13325221,-0.00054755,0.00
 030491,-0.00040154,0.00003341,-0.00001799,-0.00012383,-0.00006429,0.00
 001518,0.00000740,-0.00003068,-0.00002466,0.00001768,0.00001502,-0.000
 02545,0.00003877,-0.00001941,0.00001570,-0.00000882,-0.00000081,0.0000
 0814,-0.00001826,0.00000556,0.00001442,0.00000989,0.00000714,0.0000064
 2,-0.00000511,0.00000493,-0.00001359,-0.00000615,0.00000838,-0.0000041
 8,0.00000184,-0.00000591,-0.00000946,-0.00000796,0.00000203,-0.0000107
 5,-0.00000298,-0.00002409,-0.00013394,0.00010513,-0.00005569,0.0000347
 3,-0.00004166,-0.00004687,0.00001990,-0.00001584,-0.00001140,0.0000101
 4,0.00000091,0.00000912,0.00000265,-0.00000617,0.00002018,-0.00001606,
 0.00003159,0.00003370,-0.00003196,0.00003680,-0.00002298,0.00000355,0.
 00000740,-0.00001316,0.00000034,0.00000274,-0.00001625,0.00000616,-0.0
 0001786,-0.00001400,0.00000094,-0.00000087,0.00013289,0.00094453,-0.00
 049024,0.00491102,-0.00330505,0.00215686,0.00342292,-0.00087952,0.0056
 8201,0.00012805,-0.00112801,0.00520711,-0.00024471,-0.00006308,0.00014
 170,-0.00683909,-0.01350382,0.00299056,-0.00058109,-0.00051478,0.00019
 396,-0.21335338,-0.13791634,0.08462684,-0.00171388,0.00158012,-0.00271
 586,-0.00158895,0.00232837,-0.00194518,0.21645982,0.00046489,-0.000145
 95,0.00027743,-0.00007052,0.00000002,0.00013195,-0.00004207,0.00004759
 ,0.00003047,-0.00003110,-0.00000282,-0.00002841,0.00000103,-0.00004941
 ,0.00004505,-0.00001070,0.00000433,-0.00001732,-0.00000276,0.00001371,
 -0.00000451,-0.00000641,0.00003289,0.00002078,0.00002404,0.00000709,-0
 .00000278,0.00001413,-0.00000476,0.00000339,0.00000746,-0.00001373,0.0
 0000922,-0.00000204,-0.00000633,-0.00000949,0.00000105,-0.00001423,-0.
 00000161,0.00007579,0.00000758,-0.00002230,-0.00000377,0.00000554,-0.0
 0001048,-0.00000433,0.00002634,-0.00003916,-0.00000505,0.00000481,-0.0
 0000514,0.00000455,-0.00000183,0.00000052,0.00000176,-0.00001556,0.000
 02237,0.00001308,-0.00002282,0.00002301,-0.00001003,-0.00000095,0.0000
 0410,-0.00000819,-0.00000196,0.00000448,-0.00000081,0.00000511,-0.0000
 0438,-0.00001039,0.00000214,0.00000046,0.00084887,-0.00046993,-0.00060
 365,-0.00288646,-0.00216808,-0.00591745,-0.00123893,0.00225020,-0.0039
 8768,-0.02355429,-0.01174098,0.01426975,-0.00098671,-0.00078584,0.0006
 0646,0.00861891,0.01020177,-0.00612074,0.00036696,0.00023081,-0.000184
 93,-0.13778411,-0.17820364,0.05755416,0.00243338,-0.00013551,0.0011828
 3,0.00148030,-0.00019778,0.00211962,0.15230245,0.18114220,-0.00048302,
 0.00031746,-0.00026646,0.00001646,-0.00007375,-0.00002748,0.00004314,-
 0.00005184,0.00000742,-0.00003434,0.00002524,0.00001268,-0.00001589,0.
 00003949,0.00003237,-0.00000311,-0.00000437,0.00000276,0.00001182,-0.0
 0001167,-0.00000042,-0.00000260,0.00001595,0.00000620,0.00000210,-0.00
 000215,-0.00000864,0.00000620,0.00000753,0.00000329,-0.00000177,0.0000
 0782,-0.00000387,-0.00000065,0.00000304,0.00000252,0.00000056,0.000003
 90,0.00000100,-0.00008062,-0.00000373,0.00006465,-0.00002315,0.0000132
 8,0.00000919,0.00000898,0.00001489,0.00001692,-0.00000166,-0.00000421,
 0.00001312,-0.00000467,-0.00000526,-0.00000258,-0.00000869,0.00000658,
 -0.00000279,0.00000574,-0.00001874,-0.00001180,0.00000408,0.00000039,-
 0.00000837,0.00000394,0.00000081,-0.00000456,-0.00000190,-0.00000203,0
 .00000220,0.00000601,-0.00000204,0.00000066,-0.00039126,-0.00057647,-0
 .00100381,0.00243780,-0.00542240,0.00150142,0.00538345,-0.00446988,-0.
 00175155,-0.01368803,-0.01266605,0.01114194,-0.00061977,-0.00047059,0.
 00027045,0.02197551,0.02086182,-0.00395382,0.00098474,0.00094470,-0.00
 051876,0.08459947,0.05758951,-0.10249162,-0.00199745,0.00218668,-0.000
 76939,-0.00268056,0.00109212,-0.00061355,-0.09545089,-0.05934603,0.098
 35069||0.00000781,0.00000614,0.00000532,0.00000225,0.00000060,-0.00000
 585,0.00002119,-0.00000182,0.00000994,-0.00001590,0.00003158,-0.000004
 87,-0.00000912,-0.00002856,-0.00001929,-0.00000851,-0.00002866,-0.0000
 1176,0.00000191,-0.00000055,0.00000012,-0.00001948,0.00002892,-0.00000
 674,0.00000292,-0.00000023,0.00000346,0.00002744,-0.00000294,0.0000208
 3,-0.00000023,0.00000549,-0.00000028,0.00000326,-0.00000155,0.00000228
 ,-0.00000375,0.00000252,-0.00000254,-0.00001132,-0.00001512,0.00002402
 ,0.00002825,-0.00000397,-0.00000620,-0.00001828,0.00001276,-0.00001751
 ,-0.00002084,0.00001610,-0.00001226,-0.00000274,0.00000215,-0.00000208
 ,0.00002759,0.00000369,-0.00000521,0.00000274,-0.00000143,0.00000198,-
 0.00001300,-0.00001641,0.00001923,0.00000344,0.00000001,-0.00000060,-0
 .00000241,-0.00000116,0.00000250,0.00000316,0.00000046,-0.00000174,-0.
 00000429,-0.00000313,0.00000392,-0.00000123,-0.00000337,-0.00000174,-0
 .00000078,0.00000133,0.00000378,0.00000052,-0.00000424,-0.00000136,-0.
 00000098,-0.00000033,0.00000144,0.00000142,0.00000301,0.00000140,0.000
 00177,-0.00000056,-0.00000237,0.00000130,0.00000250,0.00000051,-0.0000
 0158,0.00000083,0.00000256,-0.00000063,-0.00000246,-0.00000145,-0.0000
 0189,-0.00000160,0.00000056|||@


 A MATHEMATICIAN IS A MACHINE FOR TURNING COFFEE INTO THEOREMS.
     -- QUOTED BY PAUL ERDOS
 Job cpu time:  0 days  0 hours  6 minutes 25.0 seconds.
 File lengths (MBytes):  RWF=    350 Int=      0 D2E=      0 Chk=      7 Scr=      1
 Normal termination of Gaussian 09 at Tue Sep 07 08:01:15 2021.
