 Entering Link 1 = b:\programy\g09w\l1.exe PID=      3616.
  
 Copyright (c) 1988,1990,1992,1993,1995,1998,2003,2009, Gaussian, Inc.
                  All Rights Reserved.
  
 This is part of the Gaussian(R) 09 program.  It is based on
 the Gaussian(R) 03 system (copyright 2003, Gaussian, Inc.),
 the Gaussian(R) 98 system (copyright 1998, Gaussian, Inc.),
 the Gaussian(R) 94 system (copyright 1995, Gaussian, Inc.),
 the Gaussian 92(TM) system (copyright 1992, Gaussian, Inc.),
 the Gaussian 90(TM) system (copyright 1990, Gaussian, Inc.),
 the Gaussian 88(TM) system (copyright 1988, Gaussian, Inc.),
 the Gaussian 86(TM) system (copyright 1986, Carnegie Mellon
 University), and the Gaussian 82(TM) system (copyright 1983,
 Carnegie Mellon University). Gaussian is a federally registered
 trademark of Gaussian, Inc.
  
 This software contains proprietary and confidential information,
 including trade secrets, belonging to Gaussian, Inc.
  
 This software is provided under written license and may be
 used, copied, transmitted, or stored only in accord with that
 written license.
  
 The following legend is applicable only to US Government
 contracts under FAR:
  
                    RESTRICTED RIGHTS LEGEND
  
 Use, reproduction and disclosure by the US Government is
 subject to restrictions as set forth in subparagraphs (a)
 and (c) of the Commercial Computer Software - Restricted
 Rights clause in FAR 52.227-19.
  
 Gaussian, Inc.
 340 Quinnipiac St., Bldg. 40, Wallingford CT 06492
  
  
 ---------------------------------------------------------------
 Warning -- This program may not be used in any manner that
 competes with the business of Gaussian, Inc. or will provide
 assistance to any competitor of Gaussian, Inc.  The licensee
 of this program is prohibited from giving any competitor of
 Gaussian, Inc. access to this program.  By using this program,
 the user acknowledges that Gaussian, Inc. is engaged in the
 business of creating and licensing software in the field of
 computational chemistry and represents and warrants to the
 licensee that it is not a competitor of Gaussian, Inc. and that
 it will not use this program in any manner prohibited above.
 ---------------------------------------------------------------
  

 Cite this work as:
 Gaussian 09, Revision A.02,
 M. J. Frisch, G. W. Trucks, H. B. Schlegel, G. E. Scuseria, 
 M. A. Robb, J. R. Cheeseman, G. Scalmani, V. Barone, B. Mennucci, 
 G. A. Petersson, H. Nakatsuji, M. Caricato, X. Li, H. P. Hratchian, 
 A. F. Izmaylov, J. Bloino, G. Zheng, J. L. Sonnenberg, M. Hada, 
 M. Ehara, K. Toyota, R. Fukuda, J. Hasegawa, M. Ishida, T. Nakajima, 
 Y. Honda, O. Kitao, H. Nakai, T. Vreven, J. A. Montgomery, Jr., 
 J. E. Peralta, F. Ogliaro, M. Bearpark, J. J. Heyd, E. Brothers, 
 K. N. Kudin, V. N. Staroverov, R. Kobayashi, J. Normand, 
 K. Raghavachari, A. Rendell, J. C. Burant, S. S. Iyengar, J. Tomasi, 
 M. Cossi, N. Rega, J. M. Millam, M. Klene, J. E. Knox, J. B. Cross, 
 V. Bakken, C. Adamo, J. Jaramillo, R. Gomperts, R. E. Stratmann, 
 O. Yazyev, A. J. Austin, R. Cammi, C. Pomelli, J. W. Ochterski, 
 R. L. Martin, K. Morokuma, V. G. Zakrzewski, G. A. Voth, 
 P. Salvador, J. J. Dannenberg, S. Dapprich, A. D. Daniels, 
 O. Farkas, J. B. Foresman, J. V. Ortiz, J. Cioslowski, 
 and D. J. Fox, Gaussian, Inc., Wallingford CT, 2009.
 
 ******************************************
 Gaussian 09:  IA32W-G09RevA.02 11-Jun-2009
                06-Sep-2021 
 ******************************************
 %nprocshared=12
 Will use up to   12 processors via shared memory.
 ----------------------------------------------
 # opt freq=noraman hf/6-311g geom=connectivity
 ----------------------------------------------
 1/18=20,19=15,38=1,57=2/1,3;
 2/9=110,12=2,17=6,18=5,40=1/2;
 3/5=4,6=6,11=9,16=1,25=1,30=1,71=1/1,2,3;
 4//1;
 5/5=2,38=5/2;
 6/7=2,8=2,9=2,10=2,28=1/1;
 7//1,2,3,16;
 1/18=20,19=15/3(2);
 2/9=110/2;
 99//99;
 2/9=110/2;
 3/5=4,6=6,11=9,16=1,25=1,30=1,71=1/1,2,3;
 4/5=5,16=3/1;
 5/5=2,38=5/2;
 7//1,2,3,16;
 1/18=20,19=15/3(-5);
 2/9=110/2;
 6/7=2,8=2,9=2,10=2,19=2,28=1/1;
 99/9=1/99;
 -----
 M0001
 -----
 Symbolic Z-matrix:
 Charge =  0 Multiplicity = 1
 C                     0.2546   -0.05105  -0.72962 
 H                     0.62415  -0.12614  -1.7892 
 C                    -1.25221   0.00393  -0.79883 
 C                    -2.04721   0.10193   0.34418 
 C                    -1.87059  -0.04543  -2.05082 
 C                    -3.43186   0.14982   0.24095 
 H                    -1.55637   0.14054   1.33309 
 C                    -3.25622   0.0023   -2.15353 
 H                    -1.26191  -0.12239  -2.95963 
 C                    -4.03961   0.09997  -1.00884 
 H                    -4.04325   0.22688   1.14577 
 H                    -3.7306   -0.03734  -3.13949 
 H                    -5.13048   0.13746  -1.0912 
 C                     0.74487  -1.28423  -0.01047 
 C                     1.50431  -2.21917  -0.71867 
 C                     0.46499  -1.52148   1.3362 
 C                     1.97189  -3.36726  -0.08947 
 H                     1.73469  -2.04896  -1.77723 
 C                     0.93263  -2.66893   1.96451 
 H                    -0.13476  -0.78062   1.89434 
 C                     1.68726  -3.59493   1.25247 
 H                     2.56573  -4.09357  -0.65362 
 H                     0.70564  -2.84246   3.02127 
 H                     2.05586  -4.49947   1.74657 
 C                     0.84327   1.21366  -0.1533 
 C                     1.66866   2.00067  -0.96057 
 C                     0.59133   1.62239   1.1573 
 C                     2.22944   3.17164  -0.46341 
 H                     1.87711   1.69566  -1.9929 
 C                     1.15182   2.79281   1.6535 
 H                    -0.06186   0.99901   1.79386 
 C                     1.9727    3.57022   0.8438 
 H                     2.87512   3.7807   -1.10434 
 H                     0.94584   3.10144   2.68345 
 H                     2.415     4.49239   1.2339 
 

 GradGradGradGradGradGradGradGradGradGradGradGradGradGradGradGradGradGrad
 Berny optimization.
 Initialization pass.
                           ----------------------------
                           !    Initial Parameters    !
                           ! (Angstroms and Degrees)  !
 --------------------------                            --------------------------
 ! Name  Definition              Value          Derivative Info.                !
 --------------------------------------------------------------------------------
 ! R1    R(1,2)                  1.1247         estimate D2E/DX2                !
 ! R2    R(1,3)                  1.5094         estimate D2E/DX2                !
 ! R3    R(1,14)                 1.5094         estimate D2E/DX2                !
 ! R4    R(1,25)                 1.5094         estimate D2E/DX2                !
 ! R5    R(3,4)                  1.3957         estimate D2E/DX2                !
 ! R6    R(3,5)                  1.3972         estimate D2E/DX2                !
 ! R7    R(4,6)                  1.3893         estimate D2E/DX2                !
 ! R8    R(4,7)                  1.1047         estimate D2E/DX2                !
 ! R9    R(5,8)                  1.3903         estimate D2E/DX2                !
 ! R10   R(5,9)                  1.0965         estimate D2E/DX2                !
 ! R11   R(6,10)                 1.3906         estimate D2E/DX2                !
 ! R12   R(6,11)                 1.0947         estimate D2E/DX2                !
 ! R13   R(8,10)                 1.3905         estimate D2E/DX2                !
 ! R14   R(8,12)                 1.0949         estimate D2E/DX2                !
 ! R15   R(10,13)                1.0946         estimate D2E/DX2                !
 ! R16   R(14,15)                1.3973         estimate D2E/DX2                !
 ! R17   R(14,16)                1.3958         estimate D2E/DX2                !
 ! R18   R(15,17)                1.3902         estimate D2E/DX2                !
 ! R19   R(15,18)                1.0966         estimate D2E/DX2                !
 ! R20   R(16,19)                1.3893         estimate D2E/DX2                !
 ! R21   R(16,20)                1.1046         estimate D2E/DX2                !
 ! R22   R(17,21)                1.3906         estimate D2E/DX2                !
 ! R23   R(17,22)                1.0947         estimate D2E/DX2                !
 ! R24   R(19,21)                1.3907         estimate D2E/DX2                !
 ! R25   R(19,23)                1.0947         estimate D2E/DX2                !
 ! R26   R(21,24)                1.0946         estimate D2E/DX2                !
 ! R27   R(25,26)                1.3973         estimate D2E/DX2                !
 ! R28   R(25,27)                1.3958         estimate D2E/DX2                !
 ! R29   R(26,28)                1.3903         estimate D2E/DX2                !
 ! R30   R(26,29)                1.0965         estimate D2E/DX2                !
 ! R31   R(27,30)                1.3893         estimate D2E/DX2                !
 ! R32   R(27,31)                1.1047         estimate D2E/DX2                !
 ! R33   R(28,32)                1.3905         estimate D2E/DX2                !
 ! R34   R(28,33)                1.0948         estimate D2E/DX2                !
 ! R35   R(30,32)                1.3906         estimate D2E/DX2                !
 ! R36   R(30,34)                1.0947         estimate D2E/DX2                !
 ! R37   R(32,35)                1.0946         estimate D2E/DX2                !
 ! A1    A(2,1,3)              106.6936         estimate D2E/DX2                !
 ! A2    A(2,1,14)             106.7139         estimate D2E/DX2                !
 ! A3    A(2,1,25)             106.7089         estimate D2E/DX2                !
 ! A4    A(3,1,14)             112.0778         estimate D2E/DX2                !
 ! A5    A(3,1,25)             112.1067         estimate D2E/DX2                !
 ! A6    A(14,1,25)            112.0845         estimate D2E/DX2                !
 ! A7    A(1,3,4)              122.2501         estimate D2E/DX2                !
 ! A8    A(1,3,5)              118.7906         estimate D2E/DX2                !
 ! A9    A(4,3,5)              118.9593         estimate D2E/DX2                !
 ! A10   A(3,4,6)              120.6134         estimate D2E/DX2                !
 ! A11   A(3,4,7)              118.8469         estimate D2E/DX2                !
 ! A12   A(6,4,7)              120.5397         estimate D2E/DX2                !
 ! A13   A(3,5,8)              120.4034         estimate D2E/DX2                !
 ! A14   A(3,5,9)              119.9644         estimate D2E/DX2                !
 ! A15   A(8,5,9)              119.6322         estimate D2E/DX2                !
 ! A16   A(4,6,10)             120.0737         estimate D2E/DX2                !
 ! A17   A(4,6,11)             119.8428         estimate D2E/DX2                !
 ! A18   A(10,6,11)            120.0836         estimate D2E/DX2                !
 ! A19   A(5,8,10)             120.2052         estimate D2E/DX2                !
 ! A20   A(5,8,12)             119.8101         estimate D2E/DX2                !
 ! A21   A(10,8,12)            119.9847         estimate D2E/DX2                !
 ! A22   A(6,10,8)             119.745          estimate D2E/DX2                !
 ! A23   A(6,10,13)            120.128          estimate D2E/DX2                !
 ! A24   A(8,10,13)            120.127          estimate D2E/DX2                !
 ! A25   A(1,14,15)            118.7983         estimate D2E/DX2                !
 ! A26   A(1,14,16)            122.2375         estimate D2E/DX2                !
 ! A27   A(15,14,16)           118.9642         estimate D2E/DX2                !
 ! A28   A(14,15,17)           120.3978         estimate D2E/DX2                !
 ! A29   A(14,15,18)           119.9714         estimate D2E/DX2                !
 ! A30   A(17,15,18)           119.6308         estimate D2E/DX2                !
 ! A31   A(14,16,19)           120.6135         estimate D2E/DX2                !
 ! A32   A(14,16,20)           118.8418         estimate D2E/DX2                !
 ! A33   A(19,16,20)           120.5447         estimate D2E/DX2                !
 ! A34   A(15,17,21)           120.2079         estimate D2E/DX2                !
 ! A35   A(15,17,22)           119.8105         estimate D2E/DX2                !
 ! A36   A(21,17,22)           119.9816         estimate D2E/DX2                !
 ! A37   A(16,19,21)           120.0696         estimate D2E/DX2                !
 ! A38   A(16,19,23)           119.8482         estimate D2E/DX2                !
 ! A39   A(21,19,23)           120.0822         estimate D2E/DX2                !
 ! A40   A(17,21,19)           119.7468         estimate D2E/DX2                !
 ! A41   A(17,21,24)           120.1309         estimate D2E/DX2                !
 ! A42   A(19,21,24)           120.1223         estimate D2E/DX2                !
 ! A43   A(1,25,26)            118.7995         estimate D2E/DX2                !
 ! A44   A(1,25,27)            122.2415         estimate D2E/DX2                !
 ! A45   A(26,25,27)           118.9589         estimate D2E/DX2                !
 ! A46   A(25,26,28)           120.4032         estimate D2E/DX2                !
 ! A47   A(25,26,29)           119.9728         estimate D2E/DX2                !
 ! A48   A(28,26,29)           119.624          estimate D2E/DX2                !
 ! A49   A(25,27,30)           120.6121         estimate D2E/DX2                !
 ! A50   A(25,27,31)           118.8508         estimate D2E/DX2                !
 ! A51   A(30,27,31)           120.5371         estimate D2E/DX2                !
 ! A52   A(26,28,32)           120.207          estimate D2E/DX2                !
 ! A53   A(26,28,33)           119.8081         estimate D2E/DX2                !
 ! A54   A(32,28,33)           119.9848         estimate D2E/DX2                !
 ! A55   A(27,30,32)           120.0753         estimate D2E/DX2                !
 ! A56   A(27,30,34)           119.8414         estimate D2E/DX2                !
 ! A57   A(32,30,34)           120.0833         estimate D2E/DX2                !
 ! A58   A(28,32,30)           119.7434         estimate D2E/DX2                !
 ! A59   A(28,32,35)           120.1256         estimate D2E/DX2                !
 ! A60   A(30,32,35)           120.1309         estimate D2E/DX2                !
 ! D1    D(2,1,3,4)           -179.9275         estimate D2E/DX2                !
 ! D2    D(2,1,3,5)              0.0892         estimate D2E/DX2                !
 ! D3    D(14,1,3,4)            63.608          estimate D2E/DX2                !
 ! D4    D(14,1,3,5)          -116.3753         estimate D2E/DX2                !
 ! D5    D(25,1,3,4)           -63.4536         estimate D2E/DX2                !
 ! D6    D(25,1,3,5)           116.5632         estimate D2E/DX2                !
 ! D7    D(2,1,14,15)            0.072          estimate D2E/DX2                !
 ! D8    D(2,1,14,16)         -179.9113         estimate D2E/DX2                !
 ! D9    D(3,1,14,15)          116.5242         estimate D2E/DX2                !
 ! D10   D(3,1,14,16)          -63.459          estimate D2E/DX2                !
 ! D11   D(25,1,14,15)        -116.4023         estimate D2E/DX2                !
 ! D12   D(25,1,14,16)          63.6144         estimate D2E/DX2                !
 ! D13   D(2,1,25,26)            0.0329         estimate D2E/DX2                !
 ! D14   D(2,1,25,27)         -179.947          estimate D2E/DX2                !
 ! D15   D(3,1,25,26)         -116.4319         estimate D2E/DX2                !
 ! D16   D(3,1,25,27)           63.5882         estimate D2E/DX2                !
 ! D17   D(14,1,25,26)         116.5101         estimate D2E/DX2                !
 ! D18   D(14,1,25,27)         -63.4697         estimate D2E/DX2                !
 ! D19   D(1,3,4,6)           -179.985          estimate D2E/DX2                !
 ! D20   D(1,3,4,7)              0.0004         estimate D2E/DX2                !
 ! D21   D(5,3,4,6)             -0.0018         estimate D2E/DX2                !
 ! D22   D(5,3,4,7)            179.9837         estimate D2E/DX2                !
 ! D23   D(1,3,5,8)            179.9743         estimate D2E/DX2                !
 ! D24   D(1,3,5,9)             -0.0189         estimate D2E/DX2                !
 ! D25   D(4,3,5,8)             -0.0096         estimate D2E/DX2                !
 ! D26   D(4,3,5,9)            179.9972         estimate D2E/DX2                !
 ! D27   D(3,4,6,10)             0.0116         estimate D2E/DX2                !
 ! D28   D(3,4,6,11)          -179.9891         estimate D2E/DX2                !
 ! D29   D(7,4,6,10)          -179.9737         estimate D2E/DX2                !
 ! D30   D(7,4,6,11)             0.0256         estimate D2E/DX2                !
 ! D31   D(3,5,8,10)             0.0112         estimate D2E/DX2                !
 ! D32   D(3,5,8,12)          -179.9833         estimate D2E/DX2                !
 ! D33   D(9,5,8,10)          -179.9956         estimate D2E/DX2                !
 ! D34   D(9,5,8,12)             0.0099         estimate D2E/DX2                !
 ! D35   D(4,6,10,8)            -0.01           estimate D2E/DX2                !
 ! D36   D(4,6,10,13)          179.9888         estimate D2E/DX2                !
 ! D37   D(11,6,10,8)          179.9907         estimate D2E/DX2                !
 ! D38   D(11,6,10,13)          -0.0105         estimate D2E/DX2                !
 ! D39   D(5,8,10,6)            -0.0014         estimate D2E/DX2                !
 ! D40   D(5,8,10,13)          179.9998         estimate D2E/DX2                !
 ! D41   D(12,8,10,6)          179.9931         estimate D2E/DX2                !
 ! D42   D(12,8,10,13)          -0.0057         estimate D2E/DX2                !
 ! D43   D(1,14,15,17)        -179.9465         estimate D2E/DX2                !
 ! D44   D(1,14,15,18)           0.065          estimate D2E/DX2                !
 ! D45   D(16,14,15,17)          0.0373         estimate D2E/DX2                !
 ! D46   D(16,14,15,18)       -179.9511         estimate D2E/DX2                !
 ! D47   D(1,14,16,19)         179.952          estimate D2E/DX2                !
 ! D48   D(1,14,16,20)          -0.0712         estimate D2E/DX2                !
 ! D49   D(15,14,16,19)         -0.0313         estimate D2E/DX2                !
 ! D50   D(15,14,16,20)        179.9455         estimate D2E/DX2                !
 ! D51   D(14,15,17,21)         -0.0104         estimate D2E/DX2                !
 ! D52   D(14,15,17,22)        179.9761         estimate D2E/DX2                !
 ! D53   D(18,15,17,21)        179.9781         estimate D2E/DX2                !
 ! D54   D(18,15,17,22)         -0.0354         estimate D2E/DX2                !
 ! D55   D(14,16,19,21)         -0.0017         estimate D2E/DX2                !
 ! D56   D(14,16,19,23)       -179.9963         estimate D2E/DX2                !
 ! D57   D(20,16,19,21)       -179.9781         estimate D2E/DX2                !
 ! D58   D(20,16,19,23)          0.0273         estimate D2E/DX2                !
 ! D59   D(15,17,21,19)         -0.023          estimate D2E/DX2                !
 ! D60   D(15,17,21,24)        179.985          estimate D2E/DX2                !
 ! D61   D(22,17,21,19)        179.9905         estimate D2E/DX2                !
 ! D62   D(22,17,21,24)         -0.0015         estimate D2E/DX2                !
 ! D63   D(16,19,21,17)          0.029          estimate D2E/DX2                !
 ! D64   D(16,19,21,24)       -179.979          estimate D2E/DX2                !
 ! D65   D(23,19,21,17)       -179.9764         estimate D2E/DX2                !
 ! D66   D(23,19,21,24)          0.0156         estimate D2E/DX2                !
 ! D67   D(1,25,26,28)        -179.9473         estimate D2E/DX2                !
 ! D68   D(1,25,26,29)           0.0638         estimate D2E/DX2                !
 ! D69   D(27,25,26,28)          0.0333         estimate D2E/DX2                !
 ! D70   D(27,25,26,29)       -179.9557         estimate D2E/DX2                !
 ! D71   D(1,25,27,30)         179.9587         estimate D2E/DX2                !
 ! D72   D(1,25,27,31)          -0.0464         estimate D2E/DX2                !
 ! D73   D(26,25,27,30)         -0.0211         estimate D2E/DX2                !
 ! D74   D(26,25,27,31)        179.9738         estimate D2E/DX2                !
 ! D75   D(25,26,28,32)         -0.0177         estimate D2E/DX2                !
 ! D76   D(25,26,28,33)        179.9725         estimate D2E/DX2                !
 ! D77   D(29,26,28,32)        179.9712         estimate D2E/DX2                !
 ! D78   D(29,26,28,33)         -0.0386         estimate D2E/DX2                !
 ! D79   D(25,27,30,32)         -0.0067         estimate D2E/DX2                !
 ! D80   D(25,27,30,34)       -179.9935         estimate D2E/DX2                !
 ! D81   D(31,27,30,32)        179.9985         estimate D2E/DX2                !
 ! D82   D(31,27,30,34)          0.0117         estimate D2E/DX2                !
 ! D83   D(26,28,32,30)         -0.0104         estimate D2E/DX2                !
 ! D84   D(26,28,32,35)        179.9945         estimate D2E/DX2                !
 ! D85   D(33,28,32,30)        179.9994         estimate D2E/DX2                !
 ! D86   D(33,28,32,35)          0.0043         estimate D2E/DX2                !
 ! D87   D(27,30,32,28)          0.0226         estimate D2E/DX2                !
 ! D88   D(27,30,32,35)       -179.9823         estimate D2E/DX2                !
 ! D89   D(34,30,32,28)       -179.9906         estimate D2E/DX2                !
 ! D90   D(34,30,32,35)          0.0045         estimate D2E/DX2                !
 --------------------------------------------------------------------------------
 Trust Radius=3.00D-01 FncErr=1.00D-07 GrdErr=1.00D-07
 Number of steps in this run= 197 maximum allowed number of steps= 210.
 GradGradGradGradGradGradGradGradGradGradGradGradGradGradGradGradGradGrad

                          Input orientation:                          
 ---------------------------------------------------------------------
 Center     Atomic      Atomic             Coordinates (Angstroms)
 Number     Number       Type             X           Y           Z
 ---------------------------------------------------------------------
      1          6           0        0.254597   -0.051052   -0.729618
      2          1           0        0.624152   -0.126136   -1.789197
      3          6           0       -1.252210    0.003930   -0.798831
      4          6           0       -2.047206    0.101927    0.344179
      5          6           0       -1.870589   -0.045428   -2.050817
      6          6           0       -3.431857    0.149821    0.240946
      7          1           0       -1.556372    0.140544    1.333090
      8          6           0       -3.256219    0.002297   -2.153528
      9          1           0       -1.261912   -0.122387   -2.959633
     10          6           0       -4.039608    0.099972   -1.008840
     11          1           0       -4.043251    0.226878    1.145768
     12          1           0       -3.730602   -0.037340   -3.139491
     13          1           0       -5.130484    0.137460   -1.091197
     14          6           0        0.744872   -1.284235   -0.010472
     15          6           0        1.504313   -2.219172   -0.718666
     16          6           0        0.464993   -1.521483    1.336204
     17          6           0        1.971894   -3.367260   -0.089472
     18          1           0        1.734688   -2.048961   -1.777229
     19          6           0        0.932631   -2.668932    1.964514
     20          1           0       -0.134757   -0.780623    1.894340
     21          6           0        1.687265   -3.594930    1.252469
     22          1           0        2.565732   -4.093568   -0.653619
     23          1           0        0.705636   -2.842458    3.021270
     24          1           0        2.055861   -4.499465    1.746567
     25          6           0        0.843275    1.213664   -0.153302
     26          6           0        1.668661    2.000674   -0.960566
     27          6           0        0.591334    1.622385    1.157299
     28          6           0        2.229436    3.171644   -0.463411
     29          1           0        1.877114    1.695665   -1.992905
     30          6           0        1.151815    2.792813    1.653497
     31          1           0       -0.061864    0.999014    1.793856
     32          6           0        1.972700    3.570220    0.843796
     33          1           0        2.875125    3.780695   -1.104340
     34          1           0        0.945841    3.101437    2.683445
     35          1           0        2.415000    4.492389    1.233895
 ---------------------------------------------------------------------
                    Distance matrix (angstroms):
                    1          2          3          4          5
     1  C    0.000000
     2  H    1.124685   0.000000
     3  C    1.509397   2.125671   0.000000
     4  C    2.544551   3.426290   1.395742   0.000000
     5  C    2.502401   2.509719   1.397247   2.406017   0.000000
     6  C    3.817367   4.544100   2.419356   1.389320   2.779903
     7  H    2.751560   3.817654   2.157838   1.104696   3.403549
     8  C    3.788956   3.899552   2.418938   2.776721   1.390251
     9  H    2.697749   2.219723   2.164513   3.403260   1.096520
    10  C    4.305922   4.733998   2.796948   2.408387   2.410706
    11  H    4.697427   5.524789   3.408971   2.154612   3.874632
    12  H    4.657197   4.560160   3.409226   3.871586   2.155209
    13  H    5.400497   5.802803   3.891571   3.401202   3.403122
    14  C    1.509397   2.125942   2.503840   3.137343   3.540944
    15  C    2.502529   2.510282   3.542178   4.373834   4.229627
    16  C    2.544416   3.426435   3.135928   3.151304   4.370994
    17  C    3.788949   3.900046   4.718364   5.326958   5.444825
    18  H    2.698110   2.220516   3.754089   4.840395   4.133644
    19  C    3.817247   4.544373   4.421968   4.379792   5.555511
    20  H    2.751186   3.817426   3.019501   2.615215   4.372400
    21  C    4.305842   4.734392   5.079383   5.332730   6.014065
    22  H    4.657151   4.560678   5.602433   6.314822   6.166080
    23  H    4.697291   5.525001   5.150558   4.838838   6.339273
    24  H    5.400410   5.803225   6.140273   6.322552   7.048090
    25  C    1.509368   2.125849   2.504240   3.136611   3.542730
    26  C    2.502497   2.510169   3.541839   4.372101   4.231012
    27  C    2.544454   3.426404   3.137594   3.151960   4.374320
    28  C    3.789014   3.900000   4.718980   5.325883   5.447900
    29  H    2.698050   2.220444   3.752392   4.837588   4.132800
    30  C    3.817304   4.544319   4.423925   4.380516   5.559899
    31  H    2.751492   3.817702   3.021446   2.616851   4.375369
    32  C    4.305941   4.734373   5.081013   5.332759   6.018519
    33  H    4.657239   4.560618   5.602873   6.313548   6.169022
    34  H    4.697341   5.524965   5.152884   4.840202   6.344153
    35  H    5.400517   5.803189   6.142204   6.322898   7.053183
                    6          7          8          9         10
     6  C    0.000000
     7  H    2.170325   0.000000
     8  C    2.405435   3.881378   0.000000
     9  H    3.876399   4.310836   2.154672   0.000000
    10  C    1.390615   3.413612   1.390522   3.401563   0.000000
    11  H    1.094734   2.495418   3.399296   4.971132   2.158345
    12  H    3.398770   4.976234   1.094867   2.476694   2.157316
    13  H    2.158725   4.318734   2.158630   4.304001   1.094623
    14  C    4.423211   3.021734   4.717688   3.751615   5.079765
    15  C    5.558665   4.375586   5.445770   4.131638   6.016451
    16  C    4.379302   2.616918   5.324242   4.836722   5.331020
    17  C    6.455971   5.174653   6.553427   5.405971   7.000364
    18  H    5.966646   5.029820   5.409105   3.753582   6.208932
    19  C    5.474013   3.806178   6.452922   5.962226   6.421124
    20  H    3.803985   1.784527   5.171239   5.026410   4.944872
    21  C    6.422752   4.947873   6.998492   6.204675   7.180731
    22  H    7.401194   6.234297   7.274678   5.978196   7.832144
    23  H    5.814016   4.106694   7.111080   6.858661   6.886002
    24  H    7.348320   5.894818   7.980902   7.232893   8.117994
    25  C    4.423115   3.019809   4.719551   3.753977   5.080827
    26  C    5.557389   4.372845   5.447119   4.134237   6.016588
    27  C    4.381121   2.615224   5.328220   4.840236   5.334372
    28  C    6.455832   5.171781   6.556956   5.410294   7.002397
    29  H    5.963631   5.026874   5.407809   3.754113   6.206627
    30  C    5.476382   3.804138   6.458419   5.967029   6.425753
    31  H    3.806509   1.784048   5.174861   5.029246   4.948316
    32  C    6.424313   4.945344   7.003972   6.210003   7.184896
    33  H    7.400747   6.231366   7.278081   5.982578   7.833924
    34  H    5.817394   4.105047   7.117463   6.863785   6.891767
    35  H    7.350482   5.892384   7.987383   7.238890   8.123124
                   11         12         13         14         15
    11  H    0.000000
    12  H    4.304766   0.000000
    13  H    2.488792   2.487113   0.000000
    14  C    5.152327   5.601372   6.140765   0.000000
    15  C    6.343086   6.166451   7.050746   1.397281   0.000000
    16  C    4.839143   6.311699   6.320897   1.395763   2.406126
    17  C    7.115168   7.273888   7.983125   2.418846   1.390189
    18  H    6.863522   5.980951   7.237518   2.164710   1.096631
    19  C    5.815107   7.397425   7.346740   2.419341   2.780029
    20  H    4.105087   6.230732   5.891824   2.157703   3.403494
    21  C    6.888862   7.829370   8.118202   2.796862   2.410717
    22  H    8.098315   7.891538   8.793453   3.409035   2.155041
    23  H    5.957370   8.093446   7.736446   3.408968   3.874725
    24  H    7.739409   8.790181   9.010967   3.891476   3.403134
    25  C    5.151647   5.603810   6.141959   2.503914   3.541323
    26  C    6.341051   6.168732   7.051028   3.542130   4.229967
    27  C    4.840140   6.316346   6.324551   3.136193   4.371537
    28  C    7.113909   7.278808   7.985538   4.718468   5.445351
    29  H    6.859980   5.980339   7.235158   3.753906   4.133837
    30  C    5.816401   7.404087   7.351975   4.422297   5.556204
    31  H    4.107025   6.234708   5.895483   3.019876   4.372916
    32  C    6.889179   7.836372   8.123009   5.079672   6.014793
    33  H    8.096698   7.896510   8.795630   5.602503   6.166545
    34  H    5.959746   8.101088   7.743049   5.150893   6.339963
    35  H    7.740243   8.798488   9.016973   6.140616   7.048893
                   16         17         18         19         20
    16  C    0.000000
    17  C    2.776724   0.000000
    18  H    3.403501   2.154693   0.000000
    19  C    1.389280   2.405533   3.876635   0.000000
    20  H    1.104577   3.881260   4.310907   2.170243   0.000000
    21  C    2.408348   1.390558   3.401667   1.390666   3.413515
    22  H    3.871449   1.094728   2.476600   3.398709   4.975976
    23  H    2.154607   3.399344   4.971335   1.094701   2.495475
    24  H    3.401123   2.158698   4.304098   2.158702   4.318615
    25  C    3.137317   4.718339   3.751864   4.423537   3.021020
    26  C    4.373735   5.446601   4.131687   5.559052   4.374747
    27  C    3.151488   5.325124   4.837096   4.379896   2.616273
    28  C    5.327036   6.554649   5.406072   6.456690   5.173858
    29  H    4.840154   5.409736   3.753535   5.966818   5.028946
    30  C    4.380131   6.454221   5.962583   5.474982   3.805616
    31  H    2.615326   5.171793   5.026967   3.804205   1.783962
    32  C    5.333019   6.999973   6.204967   6.423766   4.947207
    33  H    6.314910   7.275922   5.978149   7.401948   6.233546
    34  H    4.839180   7.112376   6.859044   5.814998   4.106187
    35  H    6.322947   7.982589   7.233184   7.349540   5.894243
                   21         22         23         24         25
    21  C    0.000000
    22  H    2.157201   0.000000
    23  H    2.158348   4.304654   0.000000
    24  H    1.094614   2.487089   2.488704   0.000000
    25  C    5.080461   5.602133   5.152570   6.141638   0.000000
    26  C    6.017362   6.167555   6.343371   7.051971   1.397255
    27  C    5.332026   6.312669   4.839657   6.322114   1.395780
    28  C    7.001765   7.275478   7.115784   7.984989   2.418945
    29  H    6.209580   5.981897   6.863590   7.238455   2.164553
    30  C    6.422677   7.398931   5.816026   7.348692   2.419386
    31  H    4.945389   6.231275   4.105181   5.892391   2.157956
    32  C    7.182468   7.831193   6.889795   8.120451   2.796991
    33  H    7.833607   7.893218   8.098981   8.795449   3.409184
    34  H    6.887578   8.094945   5.958331   7.738449   3.409008
    35  H    8.120016   8.792274   7.740582   9.013615   3.891616
                   26         27         28         29         30
    26  C    0.000000
    27  C    2.406053   0.000000
    28  C    1.390253   2.776739   0.000000
    29  H    1.096451   3.403290   2.154529   0.000000
    30  C    2.779917   1.389335   2.405426   3.876343   0.000000
    31  H    3.403657   1.104746   3.881446   4.310976   2.170353
    32  C    2.410734   2.408426   1.390527   3.401465   1.390622
    33  H    2.155157   3.871565   1.094828   2.476474   3.398731
    34  H    3.874657   2.154620   3.399301   4.971088   1.094746
    35  H    3.403135   3.401256   2.158622   4.303862   2.158764
                   31         32         33         34         35
    31  H    0.000000
    32  C    3.413673   0.000000
    33  H    4.976263   2.157291   0.000000
    34  H    2.495400   2.158357   4.304747   0.000000
    35  H    4.318805   1.094624   2.487080   2.488849   0.000000
 Stoichiometry    C19H16
 Framework group  C1[X(C19H16)]
 Deg. of freedom    99
 Full point group                 C1      NOp   1
 Largest Abelian subgroup         C1      NOp   1
 Largest concise Abelian subgroup C1      NOp   1
                         Standard orientation:                         
 ---------------------------------------------------------------------
 Center     Atomic      Atomic             Coordinates (Angstroms)
 Number     Number       Type             X           Y           Z
 ---------------------------------------------------------------------
      1          6           0       -0.000370   -0.000540   -0.760383
      2          1           0       -0.000209   -0.000768   -1.885068
      3          6           0        1.092468   -0.946949   -0.326455
      4          6           0        1.374257   -1.192860    1.018245
      5          6           0        1.846994   -1.597957   -1.305831
      6          6           0        2.388604   -2.070820    1.379485
      7          1           0        0.776744   -0.676955    1.791016
      8          6           0        2.862062   -2.476229   -0.943789
      9          1           0        1.639640   -1.416949   -2.367244
     10          6           0        3.135123   -2.714629    0.398654
     11          1           0        2.598751   -2.254539    2.438035
     12          1           0        3.447445   -2.980910   -1.719261
     13          1           0        3.934637   -3.406396    0.682267
     14          6           0        0.273167    1.419051   -0.326540
     15          6           0        0.460454    2.397947   -1.305867
     16          6           0        0.345469    1.785783    1.018241
     17          6           0        0.715459    3.715661   -0.943614
     18          1           0        0.406367    2.128247   -2.367440
     19          6           0        0.600210    3.102812    1.379686
     20          1           0        0.196197    1.010500    1.790732
     21          6           0        0.786150    4.071033    0.398908
     22          1           0        0.861070    4.474761   -1.718852
     23          1           0        0.654304    3.376570    2.438223
     24          1           0        0.987251    5.108911    0.682720
     25          6           0       -1.366565   -0.473265   -0.326525
     26          6           0       -2.308114   -0.800122   -1.305797
     27          6           0       -1.720330   -0.594207    1.018251
     28          6           0       -3.576920   -1.238015   -0.943601
     29          1           0       -2.047680   -0.711943   -2.367212
     30          6           0       -2.988368   -1.032106    1.379604
     31          1           0       -0.974366   -0.335718    1.791028
     32          6           0       -3.919934   -1.354888    0.398877
     33          1           0       -4.307250   -1.491089   -1.718985
     34          1           0       -3.252438   -1.122216    2.438196
     35          1           0       -4.919347   -1.699713    0.682552
 ---------------------------------------------------------------------
 Rotational constants (GHZ):      0.3815685      0.3812297      0.2404877
 Standard basis: 6-311G (5D, 7F)
 There are   295 symmetry adapted basis functions of A   symmetry.
 Integral buffers will be    262144 words long.
 Raffenetti 1 integral format.
 Two-electron integral symmetry is turned on.
   295 basis functions,   574 primitive gaussians,   295 cartesian basis functions
    65 alpha electrons       65 beta electrons
       nuclear repulsion energy      1288.2005633931 Hartrees.
 NAtoms=   35 NActive=   35 NUniq=   35 SFac= 7.50D-01 NAtFMM=   80 NAOKFM=F Big=F
 One-electron integrals computed using PRISM.
 PrsmSu:  requested number of processors reduced to:  10 ShMem   1 Linda.
 NBasis=   295 RedAO= T  NBF=   295
 NBsUse=   295 1.00D-06 NBFU=   295
 Harris functional with IExCor=  205 diagonalized for initial guess.
 ExpMin= 1.03D-01 ExpMax= 4.56D+03 ExpMxC= 6.82D+02 IAcc=1 IRadAn=         1 AccDes= 0.00D+00
 HarFok:  IExCor=  205 AccDes= 0.00D+00 IRadAn=         1 IDoV= 1
 ScaDFX=  1.000000  1.000000  1.000000  1.000000
 FoFCou: FMM=F IPFlag=           0 FMFlag=      100000 FMFlg1=           0
         NFxFlg=           0 DoJE=T BraDBF=F KetDBF=T FulRan=T
         Omega=  0.000000  0.000000  1.000000  0.000000  0.000000 ICntrl=     500 IOpCl=  0
         NMat0=    1 NMatS0=    1 NMatT0=    0 NMatD0=    1 NMtDS0=    0 NMtDT0=    0
         I1Cent=           4 NGrid=           0.
 Petite list used in FoFCou.
 Initial guess orbital symmetries:
       Occupied  (A) (A) (A) (A) (A) (A) (A) (A) (A) (A) (A) (A)
                 (A) (A) (A) (A) (A) (A) (A) (A) (A) (A) (A) (A)
                 (A) (A) (A) (A) (A) (A) (A) (A) (A) (A) (A) (A)
                 (A) (A) (A) (A) (A) (A) (A) (A) (A) (A) (A) (A)
                 (A) (A) (A) (A) (A) (A) (A) (A) (A) (A) (A) (A)
                 (A) (A) (A) (A) (A)
       Virtual   (A) (A) (A) (A) (A) (A) (A) (A) (A) (A) (A) (A)
                 (A) (A) (A) (A) (A) (A) (A) (A) (A) (A) (A) (A)
                 (A) (A) (A) (A) (A) (A) (A) (A) (A) (A) (A) (A)
                 (A) (A) (A) (A) (A) (A) (A) (A) (A) (A) (A) (A)
                 (A) (A) (A) (A) (A) (A) (A) (A) (A) (A) (A) (A)
                 (A) (A) (A) (A) (A) (A) (A) (A) (A) (A) (A) (A)
                 (A) (A) (A) (A) (A) (A) (A) (A) (A) (A) (A) (A)
                 (A) (A) (A) (A) (A) (A) (A) (A) (A) (A) (A) (A)
                 (A) (A) (A) (A) (A) (A) (A) (A) (A) (A) (A) (A)
                 (A) (A) (A) (A) (A) (A) (A) (A) (A) (A) (A) (A)
                 (A) (A) (A) (A) (A) (A) (A) (A) (A) (A) (A) (A)
                 (A) (A) (A) (A) (A) (A) (A) (A) (A) (A) (A) (A)
                 (A) (A) (A) (A) (A) (A) (A) (A) (A) (A) (A) (A)
                 (A) (A) (A) (A) (A) (A) (A) (A) (A) (A) (A) (A)
                 (A) (A) (A) (A) (A) (A) (A) (A) (A) (A) (A) (A)
                 (A) (A) (A) (A) (A) (A) (A) (A) (A) (A) (A) (A)
                 (A) (A) (A) (A) (A) (A) (A) (A) (A) (A) (A) (A)
                 (A) (A) (A) (A) (A) (A) (A) (A) (A) (A) (A) (A)
                 (A) (A) (A) (A) (A) (A) (A) (A) (A) (A) (A) (A)
                 (A) (A)
 The electronic state of the initial guess is 1-A.
 Requested convergence on RMS density matrix=1.00D-08 within 128 cycles.
 Requested convergence on MAX density matrix=1.00D-06.
 Requested convergence on             energy=1.00D-06.
 No special actions if energy rises.
 Integral accuracy reduced to 1.0D-05 until final iterations.
 Initial convergence to 1.0D-05 achieved.  Increase integral accuracy.
 SCF Done:  E(RHF) =  -728.661870649     A.U. after   14 cycles
             Convg  =    0.5672D-08             -V/T =  2.0001

 **********************************************************************

            Population analysis using the SCF density.

 **********************************************************************

 Orbital symmetries:
       Occupied  (A) (A) (A) (A) (A) (A) (A) (A) (A) (A) (A) (A)
                 (A) (A) (A) (A) (A) (A) (A) (A) (A) (A) (A) (A)
                 (A) (A) (A) (A) (A) (A) (A) (A) (A) (A) (A) (A)
                 (A) (A) (A) (A) (A) (A) (A) (A) (A) (A) (A) (A)
                 (A) (A) (A) (A) (A) (A) (A) (A) (A) (A) (A) (A)
                 (A) (A) (A) (A) (A)
       Virtual   (A) (A) (A) (A) (A) (A) (A) (A) (A) (A) (A) (A)
                 (A) (A) (A) (A) (A) (A) (A) (A) (A) (A) (A) (A)
                 (A) (A) (A) (A) (A) (A) (A) (A) (A) (A) (A) (A)
                 (A) (A) (A) (A) (A) (A) (A) (A) (A) (A) (A) (A)
                 (A) (A) (A) (A) (A) (A) (A) (A) (A) (A) (A) (A)
                 (A) (A) (A) (A) (A) (A) (A) (A) (A) (A) (A) (A)
                 (A) (A) (A) (A) (A) (A) (A) (A) (A) (A) (A) (A)
                 (A) (A) (A) (A) (A) (A) (A) (A) (A) (A) (A) (A)
                 (A) (A) (A) (A) (A) (A) (A) (A) (A) (A) (A) (A)
                 (A) (A) (A) (A) (A) (A) (A) (A) (A) (A) (A) (A)
                 (A) (A) (A) (A) (A) (A) (A) (A) (A) (A) (A) (A)
                 (A) (A) (A) (A) (A) (A) (A) (A) (A) (A) (A) (A)
                 (A) (A) (A) (A) (A) (A) (A) (A) (A) (A) (A) (A)
                 (A) (A) (A) (A) (A) (A) (A) (A) (A) (A) (A) (A)
                 (A) (A) (A) (A) (A) (A) (A) (A) (A) (A) (A) (A)
                 (A) (A) (A) (A) (A) (A) (A) (A) (A) (A) (A) (A)
                 (A) (A) (A) (A) (A) (A) (A) (A) (A) (A) (A) (A)
                 (A) (A) (A) (A) (A) (A) (A) (A) (A) (A) (A) (A)
                 (A) (A) (A) (A) (A) (A) (A) (A) (A) (A) (A) (A)
                 (A) (A)
 The electronic state is 1-A.
 Alpha  occ. eigenvalues --  -11.25903 -11.25312 -11.25311 -11.25305 -11.24434
 Alpha  occ. eigenvalues --  -11.24433 -11.24432 -11.24317 -11.24317 -11.24315
 Alpha  occ. eigenvalues --  -11.24170 -11.24168 -11.24166 -11.24084 -11.24083
 Alpha  occ. eigenvalues --  -11.24083 -11.23987 -11.23986 -11.23986  -1.18659
 Alpha  occ. eigenvalues --   -1.15800  -1.15799  -1.09075  -1.02578  -1.01968
 Alpha  occ. eigenvalues --   -1.01968  -1.01541  -1.01539  -0.93061  -0.85062
 Alpha  occ. eigenvalues --   -0.82364  -0.82363  -0.81933  -0.81931  -0.78034
 Alpha  occ. eigenvalues --   -0.70466  -0.70466  -0.69872  -0.66401  -0.63079
 Alpha  occ. eigenvalues --   -0.63078  -0.62916  -0.62307  -0.62306  -0.59924
 Alpha  occ. eigenvalues --   -0.58652  -0.58650  -0.57965  -0.57963  -0.53385
 Alpha  occ. eigenvalues --   -0.52147  -0.51252  -0.51248  -0.49542  -0.48623
 Alpha  occ. eigenvalues --   -0.48622  -0.48113  -0.47199  -0.47198  -0.34399
 Alpha  occ. eigenvalues --   -0.34397  -0.33775  -0.33774  -0.33415  -0.31073
 Alpha virt. eigenvalues --    0.12121   0.12123   0.12785   0.12788   0.14081
 Alpha virt. eigenvalues --    0.15510   0.15693   0.16376   0.16376   0.16682
 Alpha virt. eigenvalues --    0.18462   0.19285   0.19286   0.21244   0.21593
 Alpha virt. eigenvalues --    0.21593   0.23778   0.24506   0.24508   0.28413
 Alpha virt. eigenvalues --    0.30978   0.30984   0.33860   0.33991   0.33995
 Alpha virt. eigenvalues --    0.38187   0.39429   0.39432   0.40124   0.43671
 Alpha virt. eigenvalues --    0.44508   0.44509   0.44810   0.45915   0.45916
 Alpha virt. eigenvalues --    0.46988   0.46990   0.48787   0.50136   0.50140
 Alpha virt. eigenvalues --    0.50772   0.52406   0.52413   0.55400   0.57109
 Alpha virt. eigenvalues --    0.57113   0.57366   0.58297   0.58679   0.58682
 Alpha virt. eigenvalues --    0.58968   0.60510   0.60513   0.61959   0.61962
 Alpha virt. eigenvalues --    0.62014   0.62151   0.63135   0.63140   0.63900
 Alpha virt. eigenvalues --    0.63901   0.65382   0.65387   0.65725   0.65991
 Alpha virt. eigenvalues --    0.66932   0.66937   0.68946   0.68948   0.70499
 Alpha virt. eigenvalues --    0.71462   0.74290   0.74295   0.75595   0.75596
 Alpha virt. eigenvalues --    0.76040   0.78742   0.78750   0.79605   0.81305
 Alpha virt. eigenvalues --    0.81308   0.81935   0.82769   0.82798   0.82800
 Alpha virt. eigenvalues --    0.83477   0.83479   0.84094   0.84266   0.86391
 Alpha virt. eigenvalues --    0.86392   0.86739   0.86740   0.86980   0.88622
 Alpha virt. eigenvalues --    0.89534   0.90396   0.90401   0.95750   0.96686
 Alpha virt. eigenvalues --    0.96690   0.96861   0.97604   0.97999   0.98001
 Alpha virt. eigenvalues --    1.00689   1.00692   1.02864   1.06061   1.06215
 Alpha virt. eigenvalues --    1.06222   1.07654   1.07658   1.08073   1.11062
 Alpha virt. eigenvalues --    1.11899   1.11906   1.12625   1.12629   1.13002
 Alpha virt. eigenvalues --    1.14536   1.14539   1.15112   1.22645   1.22654
 Alpha virt. eigenvalues --    1.25067   1.25906   1.25918   1.27808   1.27817
 Alpha virt. eigenvalues --    1.31103   1.38591   1.38616   1.38911   1.43640
 Alpha virt. eigenvalues --    1.52648   1.52663   1.55445   2.45107   2.55200
 Alpha virt. eigenvalues --    2.55203   2.56987   2.62124   2.62125   2.63064
 Alpha virt. eigenvalues --    2.66398   2.67288   2.67292   2.77815   2.77819
 Alpha virt. eigenvalues --    2.78244   2.83355   2.89160   2.89173   2.93998
 Alpha virt. eigenvalues --    2.94070   2.94072   2.96562   2.96565   2.98230
 Alpha virt. eigenvalues --    3.00831   3.00835   3.04220   3.04749   3.08415
 Alpha virt. eigenvalues --    3.08415   3.09153   3.09752   3.09761   3.13039
 Alpha virt. eigenvalues --    3.13042   3.15938   3.16629   3.16636   3.19340
 Alpha virt. eigenvalues --    3.22843   3.24352   3.24357   3.29222   3.30395
 Alpha virt. eigenvalues --    3.30401   3.33694   3.33698   3.34691   3.43645
 Alpha virt. eigenvalues --    3.44331   3.44348   3.48441   3.48451   3.51040
 Alpha virt. eigenvalues --    3.52849   3.52865   3.59355   3.59754   3.59763
 Alpha virt. eigenvalues --    3.62699   3.62704   3.63251   3.65542   3.65545
 Alpha virt. eigenvalues --    3.66493   3.68446   3.71025   3.71029   3.74562
 Alpha virt. eigenvalues --    3.74568   3.76290   3.80839   3.84782   3.84790
 Alpha virt. eigenvalues --    3.98421  24.23882  24.30683  24.30686  24.50331
 Alpha virt. eigenvalues --   24.50779  24.50780  24.53772  24.54623  24.54627
 Alpha virt. eigenvalues --   24.76556  24.78605  24.78784  24.78790  24.81059
 Alpha virt. eigenvalues --   24.81060  24.82953  25.04356  25.06486  25.06495
          Condensed to atoms (all electrons):
              1          2          3          4          5          6
     1  C    5.769568   0.437506   0.198587  -0.052288  -0.022247   0.001665
     2  H    0.437506   0.507791  -0.063968   0.005142   0.003088  -0.000298
     3  C    0.198587  -0.063968   5.405503   0.425784   0.505813  -0.055335
     4  C   -0.052288   0.005142   0.425784   5.081387  -0.063309   0.483110
     5  C   -0.022247   0.003088   0.505813  -0.063309   5.045620  -0.035102
     6  C    0.001665  -0.000298  -0.055335   0.483110  -0.035102   5.037094
     7  H    0.002869   0.000004  -0.059220   0.385223   0.004152  -0.021640
     8  C    0.007774   0.001720  -0.075509  -0.028284   0.470089  -0.078032
     9  H   -0.000733   0.003405  -0.045985   0.004567   0.393494  -0.000175
    10  C    0.001292   0.000000  -0.021420  -0.093025  -0.085309   0.494698
    11  H   -0.000298   0.000012   0.005988  -0.038165  -0.000515   0.396532
    12  H   -0.000377  -0.000043   0.007517  -0.000734  -0.040187   0.006423
    13  H   -0.000011  -0.000002  -0.001591   0.008353   0.007563  -0.043055
    14  C    0.198659  -0.063928  -0.155263  -0.004058  -0.002687   0.001911
    15  C   -0.022216   0.003084  -0.002703   0.000211   0.000720   0.000034
    16  C   -0.052336   0.005139  -0.004006  -0.009842   0.000220  -0.000318
    17  C    0.007771   0.001719  -0.000559   0.000095  -0.000027  -0.000001
    18  H   -0.000727   0.003400   0.000304  -0.000041   0.000141   0.000000
    19  C    0.001666  -0.000298   0.001916  -0.000308   0.000034  -0.000067
    20  H    0.002872   0.000004  -0.002003  -0.000392  -0.000328   0.000938
    21  C    0.001293   0.000000  -0.000057  -0.000017  -0.000009   0.000001
    22  H   -0.000377  -0.000043   0.000018   0.000000   0.000001   0.000000
    23  H   -0.000298   0.000012   0.000018   0.000030   0.000001  -0.000001
    24  H   -0.000011  -0.000002  -0.000002   0.000001   0.000000   0.000000
    25  C    0.198489  -0.063939  -0.155058  -0.003969  -0.002696   0.001909
    26  C   -0.022215   0.003088  -0.002683   0.000217   0.000717   0.000034
    27  C   -0.052307   0.005140  -0.004013  -0.009838   0.000211  -0.000309
    28  C    0.007774   0.001719  -0.000559   0.000095  -0.000026  -0.000001
    29  H   -0.000728   0.003401   0.000302  -0.000040   0.000142   0.000000
    30  C    0.001668  -0.000298   0.001907  -0.000317   0.000034  -0.000066
    31  H    0.002875   0.000004  -0.001984  -0.000471  -0.000325   0.000931
    32  C    0.001291   0.000000  -0.000057  -0.000018  -0.000008   0.000001
    33  H   -0.000377  -0.000043   0.000018   0.000000   0.000001   0.000000
    34  H   -0.000298   0.000012   0.000018   0.000030   0.000001  -0.000001
    35  H   -0.000011  -0.000002  -0.000002   0.000001   0.000000   0.000000
              7          8          9         10         11         12
     1  C    0.002869   0.007774  -0.000733   0.001292  -0.000298  -0.000377
     2  H    0.000004   0.001720   0.003405   0.000000   0.000012  -0.000043
     3  C   -0.059220  -0.075509  -0.045985  -0.021420   0.005988   0.007517
     4  C    0.385223  -0.028284   0.004567  -0.093025  -0.038165  -0.000734
     5  C    0.004152   0.470089   0.393494  -0.085309  -0.000515  -0.040187
     6  C   -0.021640  -0.078032  -0.000175   0.494698   0.396532   0.006423
     7  H    0.530392   0.000083  -0.000304   0.004618  -0.003439   0.000022
     8  C    0.000083   5.043785  -0.033436   0.499795   0.005947   0.397001
     9  H   -0.000304  -0.033436   0.511770   0.005131   0.000027  -0.004159
    10  C    0.004618   0.499795   0.005131   5.031872  -0.039231  -0.041407
    11  H   -0.003439   0.005947   0.000027  -0.039231   0.515318  -0.000208
    12  H    0.000022   0.397001  -0.004159  -0.041407  -0.000208   0.518827
    13  H   -0.000208  -0.042992  -0.000190   0.399277  -0.004425  -0.004664
    14  C   -0.001992  -0.000559   0.000303  -0.000057   0.000018   0.000018
    15  C   -0.000326  -0.000027   0.000143  -0.000008   0.000001   0.000001
    16  C   -0.000457   0.000095  -0.000040  -0.000017   0.000030   0.000000
    17  C   -0.000016   0.000003   0.000001   0.000000   0.000000   0.000000
    18  H    0.000001   0.000001   0.000027   0.000000   0.000000   0.000000
    19  C    0.000934  -0.000001   0.000000   0.000001  -0.000001   0.000000
    20  H   -0.002505  -0.000017   0.000001  -0.000010  -0.000027   0.000000
    21  C   -0.000010   0.000000   0.000000   0.000000   0.000000   0.000000
    22  H    0.000000   0.000000   0.000000   0.000000   0.000000   0.000000
    23  H   -0.000027   0.000000   0.000000   0.000000   0.000000   0.000000
    24  H    0.000000   0.000000   0.000000   0.000000   0.000000   0.000000
    25  C   -0.001991  -0.000559   0.000304  -0.000056   0.000018   0.000018
    26  C   -0.000327  -0.000026   0.000140  -0.000008   0.000001   0.000001
    27  C   -0.000403   0.000094  -0.000040  -0.000017   0.000030   0.000000
    28  C   -0.000017   0.000002   0.000001   0.000000   0.000000   0.000000
    29  H    0.000001   0.000001   0.000027   0.000000   0.000000   0.000000
    30  C    0.000935  -0.000001   0.000000   0.000001  -0.000001   0.000000
    31  H   -0.002489  -0.000016   0.000001  -0.000010  -0.000027   0.000000
    32  C   -0.000010   0.000000   0.000000   0.000000   0.000000   0.000000
    33  H    0.000000   0.000000   0.000000   0.000000   0.000000   0.000000
    34  H   -0.000027   0.000000   0.000000   0.000000   0.000000   0.000000
    35  H    0.000000   0.000000   0.000000   0.000000   0.000000   0.000000
             13         14         15         16         17         18
     1  C   -0.000011   0.198659  -0.022216  -0.052336   0.007771  -0.000727
     2  H   -0.000002  -0.063928   0.003084   0.005139   0.001719   0.003400
     3  C   -0.001591  -0.155263  -0.002703  -0.004006  -0.000559   0.000304
     4  C    0.008353  -0.004058   0.000211  -0.009842   0.000095  -0.000041
     5  C    0.007563  -0.002687   0.000720   0.000220  -0.000027   0.000141
     6  C   -0.043055   0.001911   0.000034  -0.000318  -0.000001   0.000000
     7  H   -0.000208  -0.001992  -0.000326  -0.000457  -0.000016   0.000001
     8  C   -0.042992  -0.000559  -0.000027   0.000095   0.000003   0.000001
     9  H   -0.000190   0.000303   0.000143  -0.000040   0.000001   0.000027
    10  C    0.399277  -0.000057  -0.000008  -0.000017   0.000000   0.000000
    11  H   -0.004425   0.000018   0.000001   0.000030   0.000000   0.000000
    12  H   -0.004664   0.000018   0.000001   0.000000   0.000000   0.000000
    13  H    0.518094  -0.000002   0.000000   0.000000   0.000000   0.000000
    14  C   -0.000002   5.405621   0.505799   0.425830  -0.075501  -0.045980
    15  C    0.000000   0.505799   5.045613  -0.063314   0.470033   0.393499
    16  C    0.000000   0.425830  -0.063314   5.081367  -0.028271   0.004561
    17  C    0.000000  -0.075501   0.470033  -0.028271   5.043818  -0.033446
    18  H    0.000000  -0.045980   0.393499   0.004561  -0.033446   0.511758
    19  C    0.000000  -0.055326  -0.035106   0.483068  -0.078017  -0.000175
    20  H    0.000000  -0.059231   0.004153   0.385229   0.000083  -0.000304
    21  C    0.000000  -0.021426  -0.085299  -0.093042   0.499801   0.005130
    22  H    0.000000   0.007520  -0.040192  -0.000734   0.397017  -0.004161
    23  H    0.000000   0.005986  -0.000515  -0.038164   0.005945   0.000027
    24  H    0.000000  -0.001591   0.007563   0.008355  -0.042992  -0.000190
    25  C   -0.000002  -0.155195  -0.002671  -0.004032  -0.000559   0.000303
    26  C    0.000000  -0.002717   0.000720   0.000212  -0.000027   0.000143
    27  C    0.000001  -0.004005   0.000217  -0.009846   0.000095  -0.000040
    28  C    0.000000  -0.000559  -0.000027   0.000095   0.000003   0.000001
    29  H    0.000000   0.000303   0.000141  -0.000040   0.000001   0.000027
    30  C    0.000000   0.001913   0.000034  -0.000309  -0.000001   0.000000
    31  H    0.000000  -0.001995  -0.000327  -0.000412  -0.000016   0.000001
    32  C    0.000000  -0.000056  -0.000008  -0.000017   0.000000   0.000000
    33  H    0.000000   0.000018   0.000001   0.000000   0.000000   0.000000
    34  H    0.000000   0.000018   0.000001   0.000030   0.000000   0.000000
    35  H    0.000000  -0.000002   0.000000   0.000001   0.000000   0.000000
             19         20         21         22         23         24
     1  C    0.001666   0.002872   0.001293  -0.000377  -0.000298  -0.000011
     2  H   -0.000298   0.000004   0.000000  -0.000043   0.000012  -0.000002
     3  C    0.001916  -0.002003  -0.000057   0.000018   0.000018  -0.000002
     4  C   -0.000308  -0.000392  -0.000017   0.000000   0.000030   0.000001
     5  C    0.000034  -0.000328  -0.000009   0.000001   0.000001   0.000000
     6  C   -0.000067   0.000938   0.000001   0.000000  -0.000001   0.000000
     7  H    0.000934  -0.002505  -0.000010   0.000000  -0.000027   0.000000
     8  C   -0.000001  -0.000017   0.000000   0.000000   0.000000   0.000000
     9  H    0.000000   0.000001   0.000000   0.000000   0.000000   0.000000
    10  C    0.000001  -0.000010   0.000000   0.000000   0.000000   0.000000
    11  H   -0.000001  -0.000027   0.000000   0.000000   0.000000   0.000000
    12  H    0.000000   0.000000   0.000000   0.000000   0.000000   0.000000
    13  H    0.000000   0.000000   0.000000   0.000000   0.000000   0.000000
    14  C   -0.055326  -0.059231  -0.021426   0.007520   0.005986  -0.001591
    15  C   -0.035106   0.004153  -0.085299  -0.040192  -0.000515   0.007563
    16  C    0.483068   0.385229  -0.093042  -0.000734  -0.038164   0.008355
    17  C   -0.078017   0.000083   0.499801   0.397017   0.005945  -0.042992
    18  H   -0.000175  -0.000304   0.005130  -0.004161   0.000027  -0.000190
    19  C    5.037097  -0.021647   0.494719   0.006424   0.396529  -0.043059
    20  H   -0.021647   0.530419   0.004619   0.000022  -0.003438  -0.000208
    21  C    0.494719   0.004619   5.031864  -0.041412  -0.039222   0.399277
    22  H    0.006424   0.000022  -0.041412   0.518837  -0.000208  -0.004664
    23  H    0.396529  -0.003438  -0.039222  -0.000208   0.515309  -0.004424
    24  H   -0.043059  -0.000208   0.399277  -0.004664  -0.004424   0.518110
    25  C    0.001909  -0.001989  -0.000057   0.000018   0.000018  -0.000002
    26  C    0.000034  -0.000326  -0.000008   0.000001   0.000001   0.000000
    27  C   -0.000316  -0.000455  -0.000017   0.000000   0.000030   0.000001
    28  C   -0.000001  -0.000016   0.000000   0.000000   0.000000   0.000000
    29  H    0.000000   0.000001   0.000000   0.000000   0.000000   0.000000
    30  C   -0.000067   0.000934   0.000001   0.000000  -0.000001   0.000000
    31  H    0.000937  -0.002502  -0.000010   0.000000  -0.000027   0.000000
    32  C    0.000001  -0.000010   0.000000   0.000000   0.000000   0.000000
    33  H    0.000000   0.000000   0.000000   0.000000   0.000000   0.000000
    34  H   -0.000001  -0.000027   0.000000   0.000000   0.000000   0.000000
    35  H    0.000000   0.000000   0.000000   0.000000   0.000000   0.000000
             25         26         27         28         29         30
     1  C    0.198489  -0.022215  -0.052307   0.007774  -0.000728   0.001668
     2  H   -0.063939   0.003088   0.005140   0.001719   0.003401  -0.000298
     3  C   -0.155058  -0.002683  -0.004013  -0.000559   0.000302   0.001907
     4  C   -0.003969   0.000217  -0.009838   0.000095  -0.000040  -0.000317
     5  C   -0.002696   0.000717   0.000211  -0.000026   0.000142   0.000034
     6  C    0.001909   0.000034  -0.000309  -0.000001   0.000000  -0.000066
     7  H   -0.001991  -0.000327  -0.000403  -0.000017   0.000001   0.000935
     8  C   -0.000559  -0.000026   0.000094   0.000002   0.000001  -0.000001
     9  H    0.000304   0.000140  -0.000040   0.000001   0.000027   0.000000
    10  C   -0.000056  -0.000008  -0.000017   0.000000   0.000000   0.000001
    11  H    0.000018   0.000001   0.000030   0.000000   0.000000  -0.000001
    12  H    0.000018   0.000001   0.000000   0.000000   0.000000   0.000000
    13  H   -0.000002   0.000000   0.000001   0.000000   0.000000   0.000000
    14  C   -0.155195  -0.002717  -0.004005  -0.000559   0.000303   0.001913
    15  C   -0.002671   0.000720   0.000217  -0.000027   0.000141   0.000034
    16  C   -0.004032   0.000212  -0.009846   0.000095  -0.000040  -0.000309
    17  C   -0.000559  -0.000027   0.000095   0.000003   0.000001  -0.000001
    18  H    0.000303   0.000143  -0.000040   0.000001   0.000027   0.000000
    19  C    0.001909   0.000034  -0.000316  -0.000001   0.000000  -0.000067
    20  H   -0.001989  -0.000326  -0.000455  -0.000016   0.000001   0.000934
    21  C   -0.000057  -0.000008  -0.000017   0.000000   0.000000   0.000001
    22  H    0.000018   0.000001   0.000000   0.000000   0.000000   0.000000
    23  H    0.000018   0.000001   0.000030   0.000000   0.000000  -0.000001
    24  H   -0.000002   0.000000   0.000001   0.000000   0.000000   0.000000
    25  C    5.405261   0.505832   0.425802  -0.075490  -0.045988  -0.055362
    26  C    0.505832   5.045589  -0.063311   0.470068   0.393516  -0.035093
    27  C    0.425802  -0.063311   5.081480  -0.028287   0.004565   0.483138
    28  C   -0.075490   0.470068  -0.028287   5.043851  -0.033450  -0.078030
    29  H   -0.045988   0.393516   0.004565  -0.033450   0.511772  -0.000175
    30  C   -0.055362  -0.035093   0.483138  -0.078030  -0.000175   5.037072
    31  H   -0.059214   0.004149   0.385218   0.000083  -0.000303  -0.021632
    32  C   -0.021407  -0.085319  -0.093029   0.499789   0.005133   0.494706
    33  H    0.007516  -0.040184  -0.000734   0.397003  -0.004160   0.006423
    34  H    0.005987  -0.000515  -0.038162   0.005947   0.000027   0.396525
    35  H   -0.001591   0.007563   0.008351  -0.042991  -0.000190  -0.043050
             31         32         33         34         35
     1  C    0.002875   0.001291  -0.000377  -0.000298  -0.000011
     2  H    0.000004   0.000000  -0.000043   0.000012  -0.000002
     3  C   -0.001984  -0.000057   0.000018   0.000018  -0.000002
     4  C   -0.000471  -0.000018   0.000000   0.000030   0.000001
     5  C   -0.000325  -0.000008   0.000001   0.000001   0.000000
     6  C    0.000931   0.000001   0.000000  -0.000001   0.000000
     7  H   -0.002489  -0.000010   0.000000  -0.000027   0.000000
     8  C   -0.000016   0.000000   0.000000   0.000000   0.000000
     9  H    0.000001   0.000000   0.000000   0.000000   0.000000
    10  C   -0.000010   0.000000   0.000000   0.000000   0.000000
    11  H   -0.000027   0.000000   0.000000   0.000000   0.000000
    12  H    0.000000   0.000000   0.000000   0.000000   0.000000
    13  H    0.000000   0.000000   0.000000   0.000000   0.000000
    14  C   -0.001995  -0.000056   0.000018   0.000018  -0.000002
    15  C   -0.000327  -0.000008   0.000001   0.000001   0.000000
    16  C   -0.000412  -0.000017   0.000000   0.000030   0.000001
    17  C   -0.000016   0.000000   0.000000   0.000000   0.000000
    18  H    0.000001   0.000000   0.000000   0.000000   0.000000
    19  C    0.000937   0.000001   0.000000  -0.000001   0.000000
    20  H   -0.002502  -0.000010   0.000000  -0.000027   0.000000
    21  C   -0.000010   0.000000   0.000000   0.000000   0.000000
    22  H    0.000000   0.000000   0.000000   0.000000   0.000000
    23  H   -0.000027   0.000000   0.000000   0.000000   0.000000
    24  H    0.000000   0.000000   0.000000   0.000000   0.000000
    25  C   -0.059214  -0.021407   0.007516   0.005987  -0.001591
    26  C    0.004149  -0.085319  -0.040184  -0.000515   0.007563
    27  C    0.385218  -0.093029  -0.000734  -0.038162   0.008351
    28  C    0.000083   0.499789   0.397003   0.005947  -0.042991
    29  H   -0.000303   0.005133  -0.004160   0.000027  -0.000190
    30  C   -0.021632   0.494706   0.006423   0.396525  -0.043050
    31  H    0.530359   0.004616   0.000022  -0.003437  -0.000208
    32  C    0.004616   5.031844  -0.041404  -0.039229   0.399273
    33  H    0.000022  -0.041404   0.518829  -0.000208  -0.004664
    34  H   -0.003437  -0.039229  -0.000208   0.515320  -0.004425
    35  H   -0.000208   0.399273  -0.004664  -0.004425   0.518087
 Mulliken atomic charges:
              1
     1  C   -0.615765
     2  H    0.207472
     3  C    0.098286
     4  C   -0.089130
     5  C   -0.179268
     6  C   -0.190882
     7  H    0.166170
     8  C   -0.166931
     9  H    0.165721
    10  C   -0.156108
    11  H    0.162414
    12  H    0.161951
    13  H    0.163854
    14  C    0.098215
    15  C   -0.179229
    16  C   -0.089035
    17  C   -0.166951
    18  H    0.165740
    19  C   -0.190880
    20  H    0.166157
    21  C   -0.156119
    22  H    0.161934
    23  H    0.162418
    24  H    0.163839
    25  C    0.098441
    26  C   -0.179266
    27  C   -0.089241
    28  C   -0.166976
    29  H    0.165716
    30  C   -0.190888
    31  H    0.166207
    32  C   -0.156081
    33  H    0.161944
    34  H    0.162412
    35  H    0.163860
 Sum of Mulliken atomic charges =   0.00000
 Mulliken charges with hydrogens summed into heavy atoms:
              1
     1  C   -0.408293
     3  C    0.098286
     4  C    0.077040
     5  C   -0.013548
     6  C   -0.028469
     8  C   -0.004979
    10  C    0.007746
    14  C    0.098215
    15  C   -0.013490
    16  C    0.077123
    17  C   -0.005017
    19  C   -0.028463
    21  C    0.007720
    25  C    0.098441
    26  C   -0.013550
    27  C    0.076966
    28  C   -0.005032
    30  C   -0.028476
    32  C    0.007779
 Sum of Mulliken charges with hydrogens summed into heavy atoms =   0.00000
 Electronic spatial extent (au):  <R**2>=           4936.2273
 Charge=              0.0000 electrons
 Dipole moment (field-independent basis, Debye):
    X=              0.0002    Y=              0.0007    Z=             -0.0942  Tot=              0.0942
 Quadrupole moment (field-independent basis, Debye-Ang):
   XX=           -113.6238   YY=           -113.6521   ZZ=           -100.1377
   XY=              0.0005   XZ=              0.0012   YZ=             -0.0006
 Traceless Quadrupole moment (field-independent basis, Debye-Ang):
   XX=             -4.4859   YY=             -4.5142   ZZ=              9.0002
   XY=              0.0005   XZ=              0.0012   YZ=             -0.0006
 Octapole moment (field-independent basis, Debye-Ang**2):
  XXX=            -29.1797  YYY=             45.4720  ZZZ=              0.1173  XYY=             29.2128
  XXY=            -45.4291  XXZ=             -0.4757  XZZ=             -0.0050  YZZ=             -0.0003
  YYZ=             -0.4672  XYZ=              0.0044
 Hexadecapole moment (field-independent basis, Debye-Ang**3):
 XXXX=          -2948.6790 YYYY=          -2946.3368 ZZZZ=           -846.8093 XXXY=             -0.1924
 XXXZ=             -1.0553 YYYX=              0.2248 YYYZ=              1.1588 ZZZX=              0.0102
 ZZZY=              0.0001 XXYY=           -982.6034 XXZZ=           -617.3712 YYZZ=           -616.8870
 XXYZ=             -1.1675 YYXZ=              1.0768 ZZXY=             -0.0018
 N-N= 1.288200563393D+03 E-N=-4.272304915867D+03  KE= 7.285935637846D+02
 PrsmSu:  requested number of processors reduced to:  10 ShMem   1 Linda.
 Calling FoFJK, ICntrl=      2127 FMM=F ISym2X=0 I1Cent= 0 IOpClX= 0 NMat=1 NMatS=1 NMatT=0.
 ***** Axes restored to original set *****
 -------------------------------------------------------------------
 Center     Atomic                   Forces (Hartrees/Bohr)
 Number     Number              X              Y              Z
 -------------------------------------------------------------------
      1        6           0.007926797   -0.001589906   -0.022765001
      2        1          -0.009470343    0.001923298    0.027240822
      3        6          -0.010977411   -0.000091424   -0.009180237
      4        6           0.004164613    0.000657172    0.014040277
      5        6           0.003316850   -0.000439443   -0.005227446
      6        6          -0.005144853    0.000850346    0.011055752
      7        1          -0.024654599   -0.000561319   -0.026865773
      8        6          -0.007401282   -0.000359923   -0.010930642
      9        1          -0.009542046    0.001249277    0.015038577
     10        6          -0.013244968    0.000360050   -0.002725928
     11        1           0.009260094   -0.001185461   -0.013860717
     12        1           0.007113345    0.000620170    0.015080391
     13        1           0.016777580   -0.000572823    0.001273317
     14        6           0.007532598   -0.012040238   -0.001902263
     15        6           0.001361140    0.000909322   -0.006039715
     16        6          -0.007600641    0.008261891    0.009303377
     17        6           0.007196763   -0.009787758   -0.005055098
     18        1          -0.004021584   -0.002404677    0.017302946
     19        6          -0.003439080   -0.000309681    0.011664854
     20        1           0.019650683   -0.029202174   -0.009308745
     21        6           0.005249492   -0.011543045    0.004594102
     22        1          -0.008981113    0.010940502    0.008659705
     23        1           0.003502338    0.002573817   -0.016115184
     24        1          -0.005659483    0.013908588   -0.007600176
     25        6           0.008415192    0.011124376   -0.003170848
     26        6           0.001250572   -0.001582552   -0.005823077
     27        6          -0.008238110   -0.006508258    0.010211121
     28        6           0.007934701    0.008516573   -0.006176988
     29        1          -0.003623579    0.004560590    0.016829955
     30        6          -0.003369823    0.001832949    0.011615741
     31        1           0.021969428    0.026321350   -0.012528157
     32        6           0.006184154    0.011567997    0.003250332
     33        1          -0.009819831   -0.009174599    0.009845693
     34        1           0.003192627   -0.004639173   -0.015741095
     35        1          -0.006810226   -0.014185815   -0.005989872
 -------------------------------------------------------------------
 Cartesian Forces:  Max     0.029202174 RMS     0.010588055

 GradGradGradGradGradGradGradGradGradGradGradGradGradGradGradGradGradGrad
 Berny optimization.
 Internal  Forces:  Max     0.035456476 RMS     0.010613559
 Search for a local minimum.
 Step number   1 out of a maximum of  197
 All quantities printed in internal units (Hartrees-Bohrs-Radians)
 Mixed Optimization -- RFO/linear search
 Second derivative matrix not updated -- first step.
     Eigenvalues ---    0.00642   0.00642   0.00642   0.01532   0.01532
     Eigenvalues ---    0.01532   0.02144   0.02144   0.02145   0.02171
     Eigenvalues ---    0.02171   0.02171   0.02187   0.02188   0.02188
     Eigenvalues ---    0.02204   0.02204   0.02204   0.02213   0.02213
     Eigenvalues ---    0.02214   0.02216   0.02216   0.02216   0.02217
     Eigenvalues ---    0.02217   0.02217   0.02222   0.02222   0.02222
     Eigenvalues ---    0.04558   0.06510   0.06513   0.16000   0.16000
     Eigenvalues ---    0.16000   0.16000   0.16000   0.16000   0.16000
     Eigenvalues ---    0.16000   0.16000   0.16000   0.16000   0.16000
     Eigenvalues ---    0.16000   0.16000   0.16000   0.19111   0.19115
     Eigenvalues ---    0.22000   0.22000   0.22000   0.22000   0.22000
     Eigenvalues ---    0.22000   0.23477   0.23477   0.23477   0.25000
     Eigenvalues ---    0.25000   0.25000   0.31093   0.31411   0.31411
     Eigenvalues ---    0.31414   0.33163   0.33168   0.33181   0.34057
     Eigenvalues ---    0.34070   0.34078   0.34256   0.34261   0.34270
     Eigenvalues ---    0.34271   0.34272   0.34275   0.34284   0.34284
     Eigenvalues ---    0.34285   0.42476   0.42479   0.42480   0.42591
     Eigenvalues ---    0.42593   0.42595   0.46418   0.46419   0.46421
     Eigenvalues ---    0.46771   0.46774   0.46777   0.47234   0.47236
     Eigenvalues ---    0.47237   0.47368   0.47370   0.473771000.00000
     Eigenvalues --- 1000.000001000.000001000.000001000.000001000.00000
     Eigenvalues --- 1000.000001000.000001000.000001000.000001000.00000
     Eigenvalues --- 1000.000001000.000001000.000001000.000001000.00000
     Eigenvalues --- 1000.000001000.000001000.000001000.000001000.00000
     Eigenvalues --- 1000.000001000.000001000.000001000.000001000.00000
     Eigenvalues --- 1000.000001000.000001000.000001000.000001000.00000
     Eigenvalues --- 1000.000001000.000001000.000001000.000001000.00000
     Eigenvalues --- 1000.000001000.000001000.000001000.000001000.00000
     Eigenvalues --- 1000.000001000.000001000.000001000.000001000.00000
     Eigenvalues --- 1000.000001000.000001000.000001000.000001000.00000
     Eigenvalues --- 1000.000001000.000001000.000001000.000001000.00000
     Eigenvalues --- 1000.000001000.000001000.000001000.000001000.00000
     Eigenvalues --- 1000.000001000.000001000.000001000.000001000.00000
     Eigenvalues --- 1000.000001000.000001000.000001000.000001000.00000
     Eigenvalues --- 1000.000001000.000001000.000001000.000001000.00000
     Eigenvalues --- 1000.000001000.000001000.000001000.000001000.00000
     Eigenvalues --- 1000.000001000.000001000.000001000.000001000.00000
     Eigenvalues --- 1000.000001000.00000
 RFO step:  Lambda=-7.26116839D-02 EMin= 6.41639500D-03
 Linear search not attempted -- first point.
 Maximum step size (   0.300) exceeded in Quadratic search.
    -- Step size scaled by   0.525
 Iteration  1 RMS(Cart)=  0.16590504 RMS(Int)=  0.00451955
 Iteration  2 RMS(Cart)=  0.00947846 RMS(Int)=  0.00043979
 Iteration  3 RMS(Cart)=  0.00000968 RMS(Int)=  0.00043977
 Iteration  4 RMS(Cart)=  0.00000000 RMS(Int)=  0.00043977
 Variable       Old X    -DE/DX   Delta X   Delta X   Delta X     New X
                                 (Linear)    (Quad)   (Total)
    R1        2.12535  -0.02890   0.00000  -0.03954  -0.03954   2.08581
    R2        2.85235   0.03086   0.00000   0.04187   0.04187   2.89422
    R3        2.85235   0.03087   0.00000   0.04188   0.04188   2.89423
    R4        2.85229   0.03087   0.00000   0.04188   0.04188   2.89417
    R5        2.63757   0.00349   0.00000   0.00366   0.00367   2.64124
    R6        2.64041  -0.00282   0.00000  -0.00265  -0.00262   2.63779
    R7        2.62543  -0.00401   0.00000  -0.00373  -0.00374   2.62169
    R8        2.08757  -0.03502   0.00000  -0.04545  -0.04545   2.04212
    R9        2.62719  -0.00333   0.00000  -0.00332  -0.00331   2.62388
   R10        2.07212  -0.01785   0.00000  -0.02266  -0.02266   2.04946
   R11        2.62788  -0.00712   0.00000  -0.00699  -0.00701   2.62087
   R12        2.06875  -0.01671   0.00000  -0.02111  -0.02111   2.04764
   R13        2.62770  -0.01021   0.00000  -0.01007  -0.01009   2.61762
   R14        2.06900  -0.01668   0.00000  -0.02109  -0.02109   2.04791
   R15        2.06854  -0.01684   0.00000  -0.02126  -0.02126   2.04728
   R16        2.64048  -0.00286   0.00000  -0.00269  -0.00267   2.63781
   R17        2.63761   0.00346   0.00000   0.00364   0.00365   2.64126
   R18        2.62708  -0.00327   0.00000  -0.00326  -0.00325   2.62383
   R19        2.07233  -0.01792   0.00000  -0.02276  -0.02276   2.04958
   R20        2.62536  -0.00397   0.00000  -0.00369  -0.00370   2.62166
   R21        2.08735  -0.03496   0.00000  -0.04535  -0.04535   2.04199
   R22        2.62777  -0.01025   0.00000  -0.01011  -0.01013   2.61765
   R23        2.06874  -0.01659   0.00000  -0.02096  -0.02096   2.04777
   R24        2.62798  -0.00716   0.00000  -0.00703  -0.00705   2.62092
   R25        2.06869  -0.01669   0.00000  -0.02108  -0.02108   2.04760
   R26        2.06852  -0.01683   0.00000  -0.02125  -0.02125   2.04727
   R27        2.64043  -0.00284   0.00000  -0.00267  -0.00264   2.63779
   R28        2.63764   0.00346   0.00000   0.00363   0.00365   2.64129
   R29        2.62720  -0.00333   0.00000  -0.00332  -0.00331   2.62389
   R30        2.07199  -0.01780   0.00000  -0.02260  -0.02260   2.04940
   R31        2.62546  -0.00403   0.00000  -0.00375  -0.00376   2.62171
   R32        2.08767  -0.03506   0.00000  -0.04551  -0.04551   2.04216
   R33        2.62772  -0.01022   0.00000  -0.01008  -0.01009   2.61762
   R34        2.06892  -0.01666   0.00000  -0.02105  -0.02105   2.04787
   R35        2.62789  -0.00713   0.00000  -0.00700  -0.00702   2.62088
   R36        2.06877  -0.01672   0.00000  -0.02112  -0.02112   2.04765
   R37        2.06854  -0.01684   0.00000  -0.02126  -0.02126   2.04728
    A1        1.86215  -0.00975   0.00000  -0.04334  -0.04235   1.81981
    A2        1.86251  -0.00981   0.00000  -0.04349  -0.04250   1.82001
    A3        1.86242  -0.00978   0.00000  -0.04344  -0.04244   1.81998
    A4        1.95613   0.00873   0.00000   0.03873   0.03564   1.99176
    A5        1.95663   0.00868   0.00000   0.03863   0.03553   1.99217
    A6        1.95624   0.00875   0.00000   0.03876   0.03566   1.99190
    A7        2.13367   0.03540   0.00000   0.05744   0.05742   2.19109
    A8        2.07329  -0.02011   0.00000  -0.03283  -0.03285   2.04044
    A9        2.07623  -0.01530   0.00000  -0.02461  -0.02458   2.05165
   A10        2.10510   0.00513   0.00000   0.00945   0.00946   2.11456
   A11        2.07427   0.00804   0.00000   0.01920   0.01919   2.09346
   A12        2.10381  -0.01317   0.00000  -0.02865  -0.02865   2.07516
   A13        2.10144   0.01026   0.00000   0.01801   0.01804   2.11947
   A14        2.09377  -0.00559   0.00000  -0.01003  -0.01005   2.08373
   A15        2.08798  -0.00468   0.00000  -0.00798  -0.00799   2.07999
   A16        2.09568   0.00341   0.00000   0.00566   0.00563   2.10131
   A17        2.09165  -0.00161   0.00000  -0.00263  -0.00261   2.08904
   A18        2.09585  -0.00179   0.00000  -0.00303  -0.00302   2.09283
   A19        2.09798   0.00004   0.00000  -0.00102  -0.00103   2.09695
   A20        2.09108   0.00011   0.00000   0.00081   0.00081   2.09190
   A21        2.09413  -0.00016   0.00000   0.00021   0.00021   2.09434
   A22        2.08995  -0.00355   0.00000  -0.00749  -0.00752   2.08242
   A23        2.09663   0.00177   0.00000   0.00373   0.00375   2.10037
   A24        2.09661   0.00178   0.00000   0.00376   0.00378   2.10039
   A25        2.07342  -0.02014   0.00000  -0.03288  -0.03290   2.04052
   A26        2.13345   0.03546   0.00000   0.05753   0.05751   2.19096
   A27        2.07632  -0.01532   0.00000  -0.02465  -0.02461   2.05170
   A28        2.10134   0.01029   0.00000   0.01806   0.01809   2.11942
   A29        2.09390  -0.00562   0.00000  -0.01009  -0.01011   2.08379
   A30        2.08795  -0.00467   0.00000  -0.00796  -0.00798   2.07997
   A31        2.10510   0.00513   0.00000   0.00945   0.00946   2.11456
   A32        2.07418   0.00805   0.00000   0.01921   0.01921   2.09339
   A33        2.10390  -0.01318   0.00000  -0.02866  -0.02866   2.07524
   A34        2.09802   0.00003   0.00000  -0.00104  -0.00105   2.09698
   A35        2.09109   0.00012   0.00000   0.00082   0.00083   2.09191
   A36        2.09407  -0.00015   0.00000   0.00022   0.00022   2.09430
   A37        2.09561   0.00343   0.00000   0.00569   0.00566   2.10127
   A38        2.09175  -0.00163   0.00000  -0.00265  -0.00264   2.08911
   A39        2.09583  -0.00180   0.00000  -0.00304  -0.00302   2.09280
   A40        2.08998  -0.00356   0.00000  -0.00750  -0.00754   2.08244
   A41        2.09668   0.00177   0.00000   0.00374   0.00376   2.10044
   A42        2.09653   0.00178   0.00000   0.00377   0.00378   2.10031
   A43        2.07344  -0.02016   0.00000  -0.03291  -0.03293   2.04051
   A44        2.13352   0.03545   0.00000   0.05753   0.05751   2.19103
   A45        2.07623  -0.01530   0.00000  -0.02462  -0.02458   2.05164
   A46        2.10143   0.01027   0.00000   0.01801   0.01804   2.11948
   A47        2.09392  -0.00561   0.00000  -0.01009  -0.01010   2.08382
   A48        2.08783  -0.00465   0.00000  -0.00793  -0.00794   2.07989
   A49        2.10508   0.00514   0.00000   0.00947   0.00947   2.11455
   A50        2.07434   0.00803   0.00000   0.01918   0.01918   2.09351
   A51        2.10377  -0.01317   0.00000  -0.02865  -0.02865   2.07512
   A52        2.09801   0.00004   0.00000  -0.00103  -0.00104   2.09697
   A53        2.09105   0.00012   0.00000   0.00082   0.00082   2.09187
   A54        2.09413  -0.00015   0.00000   0.00021   0.00021   2.09434
   A55        2.09571   0.00340   0.00000   0.00565   0.00562   2.10133
   A56        2.09163  -0.00161   0.00000  -0.00262  -0.00260   2.08902
   A57        2.09585  -0.00179   0.00000  -0.00303  -0.00301   2.09283
[...]
 00027997,-0.00003869,-0.00002271,-0.00004081,0.00008541,0.00008419,-0.
 00016889,0.00004791,0.00006673,0.00004553,-0.00000915,-0.00000968,-0.0
 0001081,0.00005640,0.00004901,0.00003327,0.00003204,0.00004819,-0.0000
 1476,-0.00000123,-0.00001086,-0.00000110,0.00000782,0.00001118,0.00002
 086,0.00000909,0.00001858,0.00008329,0.00123569,0.00043101,0.00034596,
 -0.00015600,0.00008178,-0.00005574,0.00015995,0.00033587,0.00003941,0.
 00006560,-0.00013417,-0.00002474,-0.00004822,-0.00004172,0.00011902,-0
 .00022062,0.00016751,-0.00011008,-0.00006677,-0.00005193,-0.00014445,-
 0.00006206,0.00005767,-0.00002390,0.00001548,0.00002195,0.00001767,0.0
 0000701,-0.00002119,-0.00001566,0.00004116,-0.00000877,-0.01953944,-0.
 04046086,-0.00389371,0.00566554,0.01475221,-0.00545969,-0.06274583,-0.
 09088018,-0.18000749,-0.00738730,0.02514481,-0.04500816,0.00055124,0.0
 0004397,0.00083367,0.16931853,-0.05465419,0.78849534,-0.00354368,0.001
 43283,0.00168079,0.00039853,0.00042778,0.00035913,-0.00012184,-0.00064
 465,-0.00055156,-0.00003951,-0.00029911,-0.00017682,-0.00024680,0.0000
 1934,0.00004724,-0.00003483,0.00005511,0.00009619,-0.00000310,0.000322
 47,-0.00003627,0.00004363,-0.00000108,-0.00004567,-0.00000317,0.000006
 07,0.00002396,-0.00000011,0.00002265,0.00001945,-0.00001104,0.00000229
 ,-0.00001001,-0.00000885,0.00001362,0.00000507,0.00001879,0.00000891,0
 .00001240,0.00005160,-0.00065864,-0.00033817,0.00000393,-0.00029630,-0
 .00008579,0.00008532,-0.00013623,-0.00031365,-0.00023352,0.00032725,-0
 .00026563,-0.00001514,0.00002902,0.00016725,0.00023856,-0.00025253,0.0
 0016409,-0.00031023,-0.00015703,-0.00008433,-0.00026291,0.00001147,0.0
 0012442,-0.00001395,0.00004336,0.00002819,0.00000019,-0.00001547,0.000
 00521,-0.00001755,0.00002862,0.00001873,0.00679346,0.00999461,-0.00715
 086,0.00620624,-0.00285331,-0.00417235,-0.05604979,-0.02713196,0.00978
 473,-0.00096157,0.00022184,-0.00011954,-0.00000219,0.00048362,-0.00037
 359,0.00394537,-0.01292176,0.01012898,0.04302769,0.00144533,-0.0008537
 2,-0.00035987,0.00004770,-0.00007489,0.00005865,-0.00009145,0.00035310
 ,0.00025676,0.00010834,0.00027080,0.00012875,0.00015262,-0.00001294,-0
 .00003734,-0.00000874,-0.00004023,-0.00007373,0.00003325,-0.00021366,0
 .00003621,-0.00001089,-0.00000540,0.00000715,-0.00000524,-0.00001106,-
 0.00001662,0.00000514,-0.00000631,0.00000271,0.00002257,-0.00000719,0.
 00000366,0.00000989,-0.00000558,0.00000061,-0.00000546,-0.00000815,-0.
 00000598,-0.00072372,-0.00142032,-0.00224126,-0.00039678,-0.00007801,-
 0.00031803,-0.00041778,-0.00096934,-0.00066048,0.00005704,-0.00000190,
 0.00001931,0.00000360,0.00005077,0.00007585,-0.00017229,-0.00007676,0.
 00000285,0.00012522,0.00009947,0.00005624,0.00014180,-0.00002165,0.000
 05220,-0.00001876,0.00000425,0.00000926,0.00001885,0.00003067,-0.00000
 356,-0.00000251,0.00002593,0.00000215,-0.00075243,0.00605004,-0.003364
 44,-0.00239475,0.00193136,-0.00078320,-0.02782238,-0.25854123,0.148788
 01,0.00006569,0.00015682,-0.00105957,-0.00001758,0.00019790,-0.0002147
 7,-0.00134048,-0.01673382,0.02147783,0.03469976,0.27284775,0.00146302,
 0.00064175,0.00026516,-0.00000456,-0.00004516,0.00015290,-0.00000333,0
 .00002501,0.00014884,-0.00000451,-0.00006691,0.00004210,0.00001912,-0.
 00001969,-0.00000583,-0.00004560,-0.00002743,0.00002283,-0.00000597,0.
 00011103,-0.00006326,0.00001718,-0.00002071,-0.00001199,0.00000503,0.0
 0001286,-0.00003111,0.00001417,0.00002212,0.00001372,0.00001372,-0.000
 00185,-0.00000931,0.00000411,0.00000418,0.00000086,0.00000789,0.000005
 68,-0.00000505,-0.00043482,-0.00029990,-0.00014903,0.00078216,-0.00022
 859,0.00007476,-0.00008499,-0.00002318,0.00060158,0.00013374,0.0000484
 9,-0.00013401,-0.00007471,0.00000379,-0.00003924,0.00014978,-0.0003335
 6,0.00018906,-0.00007777,-0.00004595,-0.00006916,-0.00033880,0.0000278
 8,0.00002914,-0.00004033,0.00002195,-0.00000493,0.00003811,0.00005321,
 -0.00002977,-0.00001684,0.00005217,-0.00000933,0.00423472,0.02934958,-
 0.01403011,-0.00450432,-0.00066183,-0.00481883,0.01025172,0.14690670,-
 0.18256417,-0.00023777,-0.00112273,-0.00049594,0.00027541,0.00133762,-
 0.00094573,-0.00273548,-0.01390362,0.01247787,-0.00748607,-0.15918107,
 0.18776392,-0.00106589,0.00052258,-0.00020844,-0.00006142,0.00000258,0
 .00022165,0.00017307,-0.00062019,-0.00000498,-0.00001102,-0.00001142,-
 0.00010182,-0.00014804,0.00000947,0.00006623,0.00001539,0.00005811,0.0
 0007488,0.00000138,0.00007723,0.00006037,-0.00001337,0.00002530,-0.000
 03477,0.00001656,-0.00000696,0.00001189,-0.00002019,-0.00001989,-0.000
 02336,-0.00001028,-0.00000046,0.00000381,-0.00002126,0.00000457,-0.000
 01082,-0.00000188,0.00000583,0.00000679,0.00003085,0.00001076,-0.00012
 182,-0.00006300,0.00000836,0.00003781,0.00005334,-0.00002990,-0.000031
 06,-0.00001094,-0.00000250,0.00003852,-0.00003806,0.00002950,-0.000012
 99,-0.00000843,0.00002143,-0.00001405,-0.00001170,-0.00000348,-0.00000
 171,0.00003281,-0.00002360,0.00001350,0.00001230,-0.00002815,-0.000006
 18,-0.00000280,-0.00001232,0.00000400,-0.00000063,-0.00001022,0.000002
 41,-0.00708635,0.00782542,-0.00958687,-0.00297086,-0.01987179,-0.01907
 675,0.01085272,-0.01176083,0.01743523,-0.11769196,-0.01486886,-0.09306
 649,0.00641486,-0.00499863,-0.00276421,-0.10145809,-0.05472292,0.00838
 269,0.00604727,-0.00463273,-0.00345063,0.29871071,0.00076118,0.0006992
 1,0.00044850,0.00012951,-0.00029088,-0.00040891,0.00039953,0.00016371,
 -0.00015793,-0.00008966,0.00005329,-0.00018653,-0.00035594,0.00010926,
 -0.00004403,-0.00017302,-0.00009299,-0.00011513,0.00004435,-0.00029997
 ,-0.00016380,0.00012947,-0.00009258,-0.00007983,0.00002302,0.00000480,
 0.00001097,-0.00006927,0.00010175,0.00011595,-0.00006396,0.00001027,0.
 00000945,-0.00003250,-0.00001670,0.00000757,-0.00001768,-0.00000013,-0
 .00000650,-0.00041411,0.00013561,-0.00000844,0.00000384,-0.00030201,0.
 00004099,0.00004096,0.00009686,-0.00023468,-0.00001960,0.00021240,-0.0
 0014857,-0.00002238,0.00002034,0.00003064,0.00016443,-0.00012004,0.000
 01190,0.00001696,0.00001827,-0.00001588,-0.00014726,-0.00006591,0.0001
 8261,0.00002155,-0.00003093,-0.00001513,-0.00000534,-0.00002391,0.0000
 2122,0.00000402,-0.00002368,0.00000496,0.00788247,-0.02201467,0.042797
 21,-0.00115968,0.04296896,-0.04049064,-0.03094425,-0.06128794,-0.01752
 171,-0.03947054,-0.15466982,-0.04315720,-0.00509639,-0.00393470,-0.001
 32884,-0.02943781,-0.28585090,0.14545461,-0.00472883,-0.00241265,-0.00
 202507,0.20695659,0.75469485,-0.00176162,-0.00036177,-0.00183661,-0.00
 060931,-0.00022556,0.00101289,0.00006035,-0.00144120,0.00052955,-0.000
 30441,-0.00034777,-0.00002210,0.00024019,-0.00008553,0.00044575,0.0004
 2968,0.00018590,0.00028825,-0.00013768,0.00027436,0.00004344,-0.000331
 71,0.00025705,0.00007504,0.00001256,-0.00000680,0.00001283,-0.00006354
 ,-0.00025139,-0.00033271,-0.00003887,-0.00001801,0.00004099,-0.0000193
 4,0.00003724,-0.00004153,-0.00000314,0.00001038,0.00000547,0.00041174,
 -0.00023830,-0.00048125,-0.00001548,0.00045942,0.00010100,0.00011946,-
 0.00036924,0.00032825,0.00004737,-0.00032704,0.00034016,-0.00002842,-0
 .00000938,-0.00010618,-0.00028221,0.00025850,-0.00007182,-0.00001746,-
 0.00002262,0.00000071,0.00031492,0.00000126,-0.00021801,-0.00000623,-0
 .00001142,0.00000718,-0.00000268,-0.00000972,-0.00000891,-0.00000011,0
 .00000495,-0.00000800,-0.00818743,0.04417231,-0.09019680,-0.04105783,-
 0.10486817,-0.00374127,0.04009604,0.04638266,0.08659980,-0.06302736,0.
 03772269,-0.33577992,-0.00243249,-0.00062639,0.00189143,-0.02185374,0.
 06477525,-0.23003524,-0.00366503,-0.00240681,0.00058954,0.15483843,-0.
 02165141,0.70545441,-0.00001438,-0.00036296,0.00050943,0.00004270,0.00
 005980,0.00003896,0.00004473,-0.00011301,-0.00001320,-0.00004220,0.000
 01647,-0.00001519,-0.00004238,-0.00000634,0.00001716,-0.00000129,0.000
 01240,-0.00002313,0.00001681,-0.00003472,0.00002046,-0.00000223,0.0000
 1238,-0.00001020,0.00000274,0.00000025,0.00001311,-0.00003246,0.000008
 39,-0.00000904,-0.00001859,-0.00000476,0.00001637,-0.00000609,-0.00000
 198,0.00000062,-0.00000575,-0.00000669,0.00000378,-0.00025122,-0.00016
 265,-0.00006522,0.00004727,-0.00005036,-0.00001890,0.00001765,-0.00000
 258,-0.00000806,-0.00000795,0.00005486,-0.00002157,-0.00000127,0.00000
 432,0.00000553,0.00004192,-0.00002711,0.00002095,-0.00001075,-0.000005
 65,-0.00000633,-0.00004029,-0.00002186,0.00003872,0.00000142,0.0000009
 4,-0.00000359,0.,-0.00000586,0.00000844,-0.00000012,-0.00000382,0.0000
 0119,0.00619675,-0.00456881,-0.00363654,0.00412812,-0.01254025,0.01034
 682,-0.00094444,0.00015396,-0.00025325,-0.05665804,-0.03245066,0.01343
 283,-0.00394492,0.00214556,0.00142048,0.00636727,-0.00265963,-0.004287
 08,-0.00100311,0.00035092,0.00038783,0.00663690,0.00960912,-0.00776830
 ,0.04317655,0.00020775,-0.00067219,0.00115604,0.00002328,-0.00000009,-
 0.00006043,0.00019606,-0.00011295,-0.00002098,-0.00005839,0.00003902,0
 .00001547,-0.00011192,0.00003739,-0.00001415,0.00000241,-0.00000974,-0
 .00001605,0.00003656,-0.00002716,-0.00002297,-0.00000892,0.00000144,-0
 .00002372,0.00001342,-0.00000747,0.00001392,-0.00003096,0.00000487,-0.
 00001319,-0.00001673,0.00000190,0.00001410,-0.00002030,-0.00001371,-0.
 00000605,-0.00001751,-0.00000464,-0.00000051,-0.00027967,-0.00010247,-
 0.00029989,-0.00001271,-0.00006538,0.00006118,0.00007696,-0.00009272,0
 .00002758,-0.00001397,0.00001346,0.00002093,-0.00001380,0.00001334,-0.
 00000540,0.00001277,0.00002667,0.00000806,-0.00000147,0.00000407,-0.00
 000686,0.00001778,-0.00003324,0.00001072,0.00002013,-0.00001661,0.0000
 0314,-0.00000358,-0.00001542,0.00001476,0.00000436,-0.00001450,0.00000
 516,-0.00498615,-0.00219067,-0.00245052,-0.00157882,-0.01705032,0.0223
 9941,0.00003514,0.00012910,-0.00116108,-0.03246105,-0.25607082,0.14500
 988,0.00175845,0.00053603,-0.00119743,-0.00247057,0.00228840,-0.000357
 27,0.00039907,-0.00018359,-0.00000909,-0.00129393,0.00644642,-0.005393
 98,0.03856477,0.26658756,0.00000706,-0.00052350,0.00038246,0.00005194,
 0.00004601,-0.00001580,0.00002339,0.00008825,0.00001884,0.00002085,-0.
 00000966,-0.00000992,0.00000738,-0.00000129,-0.00003891,-0.00002451,0.
 00000397,0.00001962,-0.00002696,0.00001421,-0.00000427,0.00001394,-0.0
 0001007,-0.00000293,-0.00000312,-0.00000345,-0.00000125,0.00001270,0.0
 0000832,0.00001613,0.00000995,0.00000102,-0.00001151,0.00000450,0.0000
 0008,0.00000467,0.00000824,0.00000314,0.00000116,-0.00002845,-0.000054
 89,-0.00008112,0.00000384,0.00001386,0.00001691,0.00000114,-0.00000379
 ,0.00003777,0.00001526,-0.00001420,0.00001475,0.00000387,-0.00000938,-
 0.00001589,-0.00000673,0.00001234,0.00001388,-0.00000912,-0.00000836,-
 0.00000689,0.00001639,-0.00000529,-0.00000597,-0.00000339,-0.00000133,
 0.00000007,-0.00000022,-0.00000157,-0.00000543,-0.00000238,0.00000235,
 -0.00000505,-0.00343670,-0.00201160,0.00058661,-0.00306798,-0.01348550
 ,0.01213319,-0.00022848,-0.00110809,-0.00038604,0.01351834,0.14524476,
 -0.18127717,0.00181020,-0.00000694,0.00076630,-0.00445294,-0.00086365,
 -0.00493310,0.00035132,-0.00003550,-0.00007584,0.00553662,0.03026550,-
 0.01316874,-0.01161005,-0.15766724,0.18614052,-0.00018248,0.00008278,-
 0.00052228,-0.00014129,-0.00020021,-0.00007031,0.00015176,-0.00006022,
 -0.00007645,-0.00008384,-0.00006628,-0.00002605,-0.00009443,0.00003061
 ,0.00000614,0.00000838,-0.00000696,0.00000331,0.00004126,0.00000641,-0
 .00003799,0.00000439,-0.00000729,-0.00000099,0.00000397,0.00001697,0.0
 0001165,-0.00001993,0.00000586,0.00000295,-0.00002742,0.00000794,0.000
 00183,-0.00000903,-0.00000151,0.00000062,-0.00000507,0.00000334,-0.000
 00225,-0.00003912,0.00019274,-0.00004636,0.00002482,0.00002688,0.00000
 354,0.00004084,-0.00007196,0.00005888,-0.00001322,-0.00002729,0.000017
 18,-0.00001210,0.00000310,0.00002048,-0.00002645,0.00002849,0.00000156
 ,-0.00001487,-0.00000142,-0.00001114,0.00003069,-0.00000887,-0.0000097
 0,0.00000004,0.00000455,0.00000522,-0.00000783,-0.00001718,0.00000665,
 0.00000248,-0.00000464,0.00000154,0.00619937,-0.00481902,-0.00218266,-
 0.00078679,-0.00000842,0.00058315,0.00106353,0.00085760,-0.01531633,0.
 00736516,-0.00323064,-0.00127175,-0.00102256,0.00040847,0.00026985,-0.
 08188079,-0.01053400,-0.09420676,-0.00385017,0.00157071,0.00183495,0.0
 0666758,-0.00135675,0.00499212,-0.00001069,0.00001254,0.00022658,0.070
 50152,-0.00011505,0.00044153,-0.00118616,-0.00012836,-0.00024885,-0.00
 019295,0.00007535,-0.00016173,-0.00005746,-0.00003566,0.00000760,0.000
 02394,-0.00008570,-0.00000558,0.00000864,-0.00000025,0.00000369,0.0000
 0101,0.00000130,0.00000556,-0.00001119,-0.00001265,0.00000527,-0.00001
 264,0.00000660,0.00000454,0.00001184,-0.00001485,-0.00000376,-0.000006
 37,-0.00000655,0.00000494,0.00000233,-0.00001030,-0.00000092,-0.000006
 37,-0.00000617,-0.00000035,0.00000028,-0.00003366,0.00021042,-0.000031
 29,0.00002935,-0.00003931,0.00002699,0.00001952,0.00000452,0.00003559,
 0.00000940,0.00001765,0.00000318,-0.00001750,0.00000084,-0.00000943,0.
 00001621,-0.00001110,0.00002595,-0.00001150,0.00000114,-0.00001776,0.0
 0001653,-0.00003686,0.00004296,0.00000675,-0.00001668,-0.00000771,-0.0
 0000841,-0.00001894,-0.00000021,-0.00000247,-0.00001355,-0.00000361,-0
 .00500349,-0.00404814,-0.00088842,-0.00007005,-0.00135018,0.00015089,-
 0.01015581,0.00430377,-0.03128403,-0.00332733,-0.00345998,0.00402329,0
 .00039721,-0.00004459,-0.00015434,-0.01060603,-0.07081208,-0.00842693,
 0.00206604,0.00066240,-0.00002643,0.00982104,0.00707063,0.02975426,0.0
 0045566,0.00008296,0.00134983,0.01509188,0.06689578,0.00010429,0.00048
 064,-0.00040793,-0.00008714,-0.00012850,-0.00009469,0.00009162,-0.0001
 7418,-0.00003183,-0.00006724,0.00000439,0.00002181,-0.00009068,0.00001
 321,0.00003211,0.00002249,-0.00002113,-0.00001326,0.00003568,-0.000005
 97,-0.00004573,-0.00001573,0.00000648,-0.00000859,0.00001169,0.0000066
 6,0.00000624,-0.00002192,-0.00000831,-0.00001193,-0.00001696,0.0000117
 9,0.00000395,-0.00001557,-0.00000361,-0.00001091,-0.00001547,-0.000000
 15,-0.00000431,-0.00011482,0.00010023,-0.00007210,0.00001840,-0.000059
 52,0.00002701,0.00004461,-0.00002767,-0.00001300,-0.00000712,0.0000345
 5,0.00000454,-0.00002620,0.00001438,-0.00000443,0.00002323,-0.00000236
 ,0.00000987,0.00000139,0.00000955,-0.00001381,0.00000464,-0.00003291,0
 .00004718,0.00001544,-0.00002341,-0.00001157,-0.00000789,-0.00001930,0
 .00000825,0.00000067,-0.00002101,0.00000214,-0.00259846,-0.00131624,0.
 00184028,0.00058576,0.00003250,0.00091009,-0.00209252,0.00436659,-0.00
 636636,-0.00106944,0.00450395,0.00017131,0.00027784,-0.00014473,-0.000
 21946,-0.09404116,-0.00859777,-0.34104990,0.00140023,-0.00107424,0.000
 75008,-0.00828359,-0.00595626,-0.01390533,-0.00031286,-0.00017176,-0.0
 0091805,0.10443008,0.00816293,0.35865865,-0.00094096,0.00023950,0.0002
 3495,0.00001659,0.00000569,0.00016725,0.00000554,-0.00015775,-0.000099
 37,-0.00004144,0.00000328,-0.00001176,-0.00007078,0.00002094,0.0000119
 4,0.00002343,-0.00000769,-0.00001641,0.00004164,-0.00002267,-0.0000111
 5,-0.00000936,0.00000290,-0.00000908,0.00000354,0.00000426,0.00000721,
 -0.00001650,-0.00000240,-0.00000808,-0.00001936,0.00000148,0.00001000,
 -0.00000871,-0.00000179,-0.00000241,-0.00000837,-0.00000269,-0.0000011
 4,-0.00003200,-0.00002231,-0.00000669,-0.00001695,-0.00002770,-0.00002
 851,0.00001806,-0.00000331,-0.00002974,-0.00001904,0.00000733,-0.00000
 327,-0.00000167,0.00000443,0.00001562,0.00000481,0.00000991,-0.0000063
 0,-0.00000144,0.00000482,0.00000552,0.00000338,-0.00000718,0.00000812,
 0.00000426,0.00000339,0.00000233,-0.00000441,-0.00000689,0.00000451,0.
 00000244,-0.00000426,0.00000361,-0.00054146,0.00082617,0.00031687,0.00
 679829,-0.00188048,-0.00387306,0.00756204,-0.00261918,-0.00150361,0.00
 080785,-0.01021047,-0.00148359,-0.00024833,-0.00038814,-0.00009725,0.0
 0365332,-0.00147108,-0.00326086,-0.00012749,-0.00004449,-0.00008615,-0
 .10496956,-0.11258204,-0.04994849,-0.00368264,0.00199901,0.00125754,-0
 .00387768,0.00163893,0.00181667,0.09569298,0.00040131,-0.00001651,-0.0
 0007779,-0.00003186,-0.00002604,-0.00010154,0.00007952,-0.00000732,0.0
 0002381,-0.00003695,0.00002795,0.00003146,-0.00002495,0.00001151,0.000
 01593,0.00002174,-0.00002146,-0.00002275,0.00003610,-0.00002547,-0.000
 02178,-0.00001114,0.00000644,0.00000277,0.00000696,0.00000233,0.000002
 57,-0.00001376,-0.00000607,-0.00001065,-0.00000925,0.00000653,0.000006
 56,-0.00000937,-0.00000629,-0.00000766,-0.00001448,-0.00000195,-0.0000
 0386,-0.00006715,0.00003012,-0.00005532,-0.00003357,-0.00001918,0.0000
 1845,0.00003541,-0.00006214,-0.00003103,-0.00002181,0.00000738,0.00001
 297,-0.00001120,0.00001629,0.00000422,-0.00000599,0.00002627,-0.000028
 71,0.00001979,0.00001606,0.00000585,0.00001546,-0.00000520,0.00000434,
 0.00001557,-0.00001317,-0.00000377,-0.00000418,-0.00000793,0.00001243,
 0.00000497,-0.00001535,0.00000664,0.00070687,0.00028590,0.00073746,-0.
 00205130,0.00240217,0.00091459,-0.00239121,-0.00171436,0.00505167,0.00
 073019,0.00364331,0.00408433,0.00002859,-0.00006786,0.00005628,-0.0127
 2771,-0.01685852,-0.01473125,-0.00051884,-0.00100285,-0.00058123,-0.11
 245996,-0.28127622,-0.08562371,0.00157988,0.00047108,-0.00122834,0.002
 07181,0.00054935,0.00004116,0.12469048,0.29365117,0.00029836,-0.000137
 98,-0.00000246,-0.00001758,0.00006936,0.00001539,0.00004807,-0.0000039
 6,0.00004990,-0.00001533,-0.00001846,0.00000989,0.00000762,-0.00000042
 ,0.00001834,0.00001405,-0.00000291,-0.00000014,-0.00000135,0.00001263,
 -0.00001711,-0.00000399,0.00000663,0.00000947,0.00000379,0.00000706,-0
 .00000116,-0.00000392,-0.00000272,-0.00000973,-0.00000324,0.00000231,0
 .00000389,-0.00000327,-0.00000225,-0.00000467,-0.00000658,-0.00000018,
 -0.00000087,-0.00005577,0.00002787,-0.00000744,0.00003736,-0.00001689,
 0.00001531,0.00001591,-0.00001949,0.00004209,-0.00000064,0.00000661,-0
 .00000065,-0.00001312,0.00000637,-0.00000214,0.00000729,-0.00001551,0.
 00001355,-0.00000386,-0.00000125,-0.00000904,-0.00000664,-0.00001003,0
 .00000526,0.00000350,-0.00000471,-0.00000032,0.00000016,-0.00000303,0.
 00000260,0.00000005,-0.00000253,0.00000172,0.00024686,0.00071336,-0.00
 108534,-0.00367790,0.00153389,-0.00527837,-0.00168796,0.00440891,-0.00
 160361,-0.01486718,-0.03168050,-0.00504214,-0.00064671,-0.00142805,-0.
 00055287,0.01010094,0.02104971,0.01273444,0.00045796,0.00085825,0.0003
 7025,-0.04993427,-0.08568558,-0.10781229,0.00177984,0.00013821,0.00081
 101,0.00130274,-0.00130062,0.00070969,0.05662481,0.09149588,0.10661754
 ||-0.00001283,0.00000561,0.00004209,0.00000463,-0.00000001,-0.00001137
 ,-0.00000998,-0.00001528,-0.00003246,-0.00000662,0.00001379,0.00001446
 ,0.00002334,0.00000822,0.00000299,0.00000376,0.00000436,0.00001046,-0.
 00000615,-0.00000870,-0.00001105,-0.00001899,-0.00000346,0.00001587,-0
 .00000329,0.00000357,0.00000380,-0.00000095,0.00000113,-0.00001908,0.0
 0000086,-0.00000474,-0.00000338,0.00000559,0.00000294,0.00000234,0.000
 00618,-0.00000009,0.00000264,0.00001049,-0.00001390,-0.00000886,-0.000
 00011,-0.00000070,-0.00000979,-0.00001381,0.00000964,-0.00000238,0.000
 00731,0.00001235,0.00001179,-0.00000478,-0.00000144,0.00000412,0.00000
 800,-0.00001004,0.00001094,0.00001479,-0.00000600,-0.00000248,-0.00001
 402,-0.00001180,-0.00000605,-0.00000558,0.00000228,-0.00000019,0.00000
 386,0.00000325,-0.00000247,-0.00000121,0.00000604,-0.00000207,0.000009
 61,0.00001648,-0.00002298,-0.00000221,-0.00001574,-0.00000484,0.000003
 37,-0.00000958,0.00001286,-0.00000562,0.00000936,0.00001220,0.00000182
 ,-0.00000039,0.00000577,-0.00000100,0.00000058,0.00000769,0.00000041,0
 .00001147,-0.00000891,0.00000987,0.00000100,-0.00000684,-0.00000097,-0
 .00000604,0.00000152,-0.00000243,0.00000119,-0.00000503,-0.00000335,-0
 .00000536,-0.00000133|||@


 A MAN THINKING OR WORKING IS ALWAYS ALONE, 
 LET HIM BE WHERE HE WILL.

                                    -- THOREAU
 Job cpu time:  0 days  0 hours  6 minutes 36.0 seconds.
 File lengths (MBytes):  RWF=    350 Int=      0 D2E=      0 Chk=      7 Scr=      1
 Normal termination of Gaussian 09 at Mon Sep 06 23:19:56 2021.
