 Entering Link 1 = b:\programy\g09w\l1.exe PID=      7352.
  
 Copyright (c) 1988,1990,1992,1993,1995,1998,2003,2009, Gaussian, Inc.
                  All Rights Reserved.
  
 This is part of the Gaussian(R) 09 program.  It is based on
 the Gaussian(R) 03 system (copyright 2003, Gaussian, Inc.),
 the Gaussian(R) 98 system (copyright 1998, Gaussian, Inc.),
 the Gaussian(R) 94 system (copyright 1995, Gaussian, Inc.),
 the Gaussian 92(TM) system (copyright 1992, Gaussian, Inc.),
 the Gaussian 90(TM) system (copyright 1990, Gaussian, Inc.),
 the Gaussian 88(TM) system (copyright 1988, Gaussian, Inc.),
 the Gaussian 86(TM) system (copyright 1986, Carnegie Mellon
 University), and the Gaussian 82(TM) system (copyright 1983,
 Carnegie Mellon University). Gaussian is a federally registered
 trademark of Gaussian, Inc.
  
 This software contains proprietary and confidential information,
 including trade secrets, belonging to Gaussian, Inc.
  
 This software is provided under written license and may be
 used, copied, transmitted, or stored only in accord with that
 written license.
  
 The following legend is applicable only to US Government
 contracts under FAR:
  
                    RESTRICTED RIGHTS LEGEND
  
 Use, reproduction and disclosure by the US Government is
 subject to restrictions as set forth in subparagraphs (a)
 and (c) of the Commercial Computer Software - Restricted
 Rights clause in FAR 52.227-19.
  
 Gaussian, Inc.
 340 Quinnipiac St., Bldg. 40, Wallingford CT 06492
  
  
 ---------------------------------------------------------------
 Warning -- This program may not be used in any manner that
 competes with the business of Gaussian, Inc. or will provide
 assistance to any competitor of Gaussian, Inc.  The licensee
 of this program is prohibited from giving any competitor of
 Gaussian, Inc. access to this program.  By using this program,
 the user acknowledges that Gaussian, Inc. is engaged in the
 business of creating and licensing software in the field of
 computational chemistry and represents and warrants to the
 licensee that it is not a competitor of Gaussian, Inc. and that
 it will not use this program in any manner prohibited above.
 ---------------------------------------------------------------
  

 Cite this work as:
 Gaussian 09, Revision A.02,
 M. J. Frisch, G. W. Trucks, H. B. Schlegel, G. E. Scuseria, 
 M. A. Robb, J. R. Cheeseman, G. Scalmani, V. Barone, B. Mennucci, 
 G. A. Petersson, H. Nakatsuji, M. Caricato, X. Li, H. P. Hratchian, 
 A. F. Izmaylov, J. Bloino, G. Zheng, J. L. Sonnenberg, M. Hada, 
 M. Ehara, K. Toyota, R. Fukuda, J. Hasegawa, M. Ishida, T. Nakajima, 
 Y. Honda, O. Kitao, H. Nakai, T. Vreven, J. A. Montgomery, Jr., 
 J. E. Peralta, F. Ogliaro, M. Bearpark, J. J. Heyd, E. Brothers, 
 K. N. Kudin, V. N. Staroverov, R. Kobayashi, J. Normand, 
 K. Raghavachari, A. Rendell, J. C. Burant, S. S. Iyengar, J. Tomasi, 
 M. Cossi, N. Rega, J. M. Millam, M. Klene, J. E. Knox, J. B. Cross, 
 V. Bakken, C. Adamo, J. Jaramillo, R. Gomperts, R. E. Stratmann, 
 O. Yazyev, A. J. Austin, R. Cammi, C. Pomelli, J. W. Ochterski, 
 R. L. Martin, K. Morokuma, V. G. Zakrzewski, G. A. Voth, 
 P. Salvador, J. J. Dannenberg, S. Dapprich, A. D. Daniels, 
 O. Farkas, J. B. Foresman, J. V. Ortiz, J. Cioslowski, 
 and D. J. Fox, Gaussian, Inc., Wallingford CT, 2009.
 
 ******************************************
 Gaussian 09:  IA32W-G09RevA.02 11-Jun-2009
                06-Sep-2021 
 ******************************************
 %nprocshared=12
 Will use up to   12 processors via shared memory.
 ----------------------------------------------
 # opt freq=noraman hf/6-311g geom=connectivity
 ----------------------------------------------
 1/18=20,19=15,38=1,57=2/1,3;
 2/9=110,12=2,17=6,18=5,40=1/2;
 3/5=4,6=6,11=9,16=1,25=1,30=1,71=1/1,2,3;
 4//1;
 5/5=2,38=5/2;
 6/7=2,8=2,9=2,10=2,28=1/1;
 7//1,2,3,16;
 1/18=20,19=15/3(2);
 2/9=110/2;
 99//99;
 2/9=110/2;
 3/5=4,6=6,11=9,16=1,25=1,30=1,71=1/1,2,3;
 4/5=5,16=3/1;
 5/5=2,38=5/2;
 7//1,2,3,16;
 1/18=20,19=15/3(-5);
 2/9=110/2;
 6/7=2,8=2,9=2,10=2,19=2,28=1/1;
 99/9=1/99;
 -----
 M0001
 -----
 Symbolic Z-matrix:
 Charge =  0 Multiplicity = 1
 C                     0.        0.       -0.79603 
 H                     0.        0.       -1.91872 
 C                    -1.21021   0.78565  -0.35557 
 C                    -1.8408    0.54757   0.86646 
 C                    -1.7104    1.78255  -1.19775 
 C                    -2.95378   1.2927    1.23978 
 H                    -1.45799  -0.24027   1.52856 
 C                    -2.8215    2.52737  -0.82079 
 H                    -1.2242    1.98186  -2.15979 
 C                    -3.44561   2.28393   0.39815 
 H                    -3.44321   1.09557   2.19907 
 H                    -3.2059    3.30715  -1.48625 
 H                    -4.3217    2.8702    0.69306 
 C                    -0.07529  -1.44089  -0.35557 
 C                    -0.68854  -2.37253  -1.19775 
 C                     0.44619  -1.86796   0.86646 
 C                    -0.77801  -3.70718  -0.82079 
 H                    -1.10424  -2.05112  -2.15979 
 C                     0.35738  -3.2044    1.23978 
 H                     0.93708  -1.14252   1.52856 
 C                    -0.25514  -4.12595   0.39815 
 H                    -1.26112  -4.42996  -1.48625 
 H                     0.77281  -3.52969   2.19907 
 H                    -0.32482  -5.1778    0.69306 
 C                     1.28549   0.65525  -0.35557 
 C                     2.39894   0.58997  -1.19775 
 C                     1.39461   1.32039   0.86646 
 C                     3.59952   1.17981  -0.82079 
 H                     2.32844   0.06926  -2.15979 
 C                     2.5964    1.9117    1.23978 
 H                     0.52092   1.38279   1.52856 
 C                     3.70075   1.84202   0.39815 
 H                     4.46702   1.12282  -1.48625 
 H                     2.6704    2.43412   2.19907 
 H                     4.64652   2.3076    0.69306 
 

 GradGradGradGradGradGradGradGradGradGradGradGradGradGradGradGradGradGrad
 Berny optimization.
 Initialization pass.
                           ----------------------------
                           !    Initial Parameters    !
                           ! (Angstroms and Degrees)  !
 --------------------------                            --------------------------
 ! Name  Definition              Value          Derivative Info.                !
 --------------------------------------------------------------------------------
 ! R1    R(1,2)                  1.1227         estimate D2E/DX2                !
 ! R2    R(1,3)                  1.5086         estimate D2E/DX2                !
 ! R3    R(1,14)                 1.5086         estimate D2E/DX2                !
 ! R4    R(1,25)                 1.5086         estimate D2E/DX2                !
 ! R5    R(3,4)                  1.3956         estimate D2E/DX2                !
 ! R6    R(3,5)                  1.3976         estimate D2E/DX2                !
 ! R7    R(4,6)                  1.3904         estimate D2E/DX2                !
 ! R8    R(4,7)                  1.098          estimate D2E/DX2                !
 ! R9    R(5,8)                  1.3897         estimate D2E/DX2                !
 ! R10   R(5,9)                  1.0962         estimate D2E/DX2                !
 ! R11   R(6,10)                 1.3902         estimate D2E/DX2                !
 ! R12   R(6,11)                 1.0948         estimate D2E/DX2                !
 ! R13   R(8,10)                 1.3909         estimate D2E/DX2                !
 ! R14   R(8,12)                 1.0948         estimate D2E/DX2                !
 ! R15   R(10,13)                1.0946         estimate D2E/DX2                !
 ! R16   R(14,15)                1.3976         estimate D2E/DX2                !
 ! R17   R(14,16)                1.3956         estimate D2E/DX2                !
 ! R18   R(15,17)                1.3897         estimate D2E/DX2                !
 ! R19   R(15,18)                1.0962         estimate D2E/DX2                !
 ! R20   R(16,19)                1.3904         estimate D2E/DX2                !
 ! R21   R(16,20)                1.098          estimate D2E/DX2                !
 ! R22   R(17,21)                1.3909         estimate D2E/DX2                !
 ! R23   R(17,22)                1.0948         estimate D2E/DX2                !
 ! R24   R(19,21)                1.3902         estimate D2E/DX2                !
 ! R25   R(19,23)                1.0948         estimate D2E/DX2                !
 ! R26   R(21,24)                1.0946         estimate D2E/DX2                !
 ! R27   R(25,26)                1.3976         estimate D2E/DX2                !
 ! R28   R(25,27)                1.3956         estimate D2E/DX2                !
 ! R29   R(26,28)                1.3897         estimate D2E/DX2                !
 ! R30   R(26,29)                1.0962         estimate D2E/DX2                !
 ! R31   R(27,30)                1.3904         estimate D2E/DX2                !
 ! R32   R(27,31)                1.098          estimate D2E/DX2                !
 ! R33   R(28,32)                1.3909         estimate D2E/DX2                !
 ! R34   R(28,33)                1.0948         estimate D2E/DX2                !
 ! R35   R(30,32)                1.3902         estimate D2E/DX2                !
 ! R36   R(30,34)                1.0948         estimate D2E/DX2                !
 ! R37   R(32,35)                1.0946         estimate D2E/DX2                !
 ! A1    A(2,1,3)              106.9756         estimate D2E/DX2                !
 ! A2    A(2,1,14)             106.9756         estimate D2E/DX2                !
 ! A3    A(2,1,25)             106.9756         estimate D2E/DX2                !
 ! A4    A(3,1,14)             111.8473         estimate D2E/DX2                !
 ! A5    A(3,1,25)             111.8473         estimate D2E/DX2                !
 ! A6    A(14,1,25)            111.8473         estimate D2E/DX2                !
 ! A7    A(1,3,4)              121.9572         estimate D2E/DX2                !
 ! A8    A(1,3,5)              118.8584         estimate D2E/DX2                !
 ! A9    A(4,3,5)              119.1843         estimate D2E/DX2                !
 ! A10   A(3,4,6)              120.3555         estimate D2E/DX2                !
 ! A11   A(3,4,7)              119.5307         estimate D2E/DX2                !
 ! A12   A(6,4,7)              120.1109         estimate D2E/DX2                !
 ! A13   A(3,5,8)              120.3294         estimate D2E/DX2                !
 ! A14   A(3,5,9)              119.9863         estimate D2E/DX2                !
 ! A15   A(8,5,9)              119.6841         estimate D2E/DX2                !
 ! A16   A(4,6,10)             120.18           estimate D2E/DX2                !
 ! A17   A(4,6,11)             119.7754         estimate D2E/DX2                !
 ! A18   A(10,6,11)            120.0446         estimate D2E/DX2                !
 ! A19   A(5,8,10)             120.1757         estimate D2E/DX2                !
 ! A20   A(5,8,12)             119.838          estimate D2E/DX2                !
 ! A21   A(10,8,12)            119.9864         estimate D2E/DX2                !
 ! A22   A(6,10,8)             119.775          estimate D2E/DX2                !
 ! A23   A(6,10,13)            120.126          estimate D2E/DX2                !
 ! A24   A(8,10,13)            120.0989         estimate D2E/DX2                !
 ! A25   A(1,14,15)            118.8584         estimate D2E/DX2                !
 ! A26   A(1,14,16)            121.9572         estimate D2E/DX2                !
 ! A27   A(15,14,16)           119.1843         estimate D2E/DX2                !
 ! A28   A(14,15,17)           120.3294         estimate D2E/DX2                !
 ! A29   A(14,15,18)           119.9863         estimate D2E/DX2                !
 ! A30   A(17,15,18)           119.6841         estimate D2E/DX2                !
 ! A31   A(14,16,19)           120.3555         estimate D2E/DX2                !
 ! A32   A(14,16,20)           119.5307         estimate D2E/DX2                !
 ! A33   A(19,16,20)           120.1109         estimate D2E/DX2                !
 ! A34   A(15,17,21)           120.1757         estimate D2E/DX2                !
 ! A35   A(15,17,22)           119.838          estimate D2E/DX2                !
 ! A36   A(21,17,22)           119.9864         estimate D2E/DX2                !
 ! A37   A(16,19,21)           120.18           estimate D2E/DX2                !
 ! A38   A(16,19,23)           119.7754         estimate D2E/DX2                !
 ! A39   A(21,19,23)           120.0446         estimate D2E/DX2                !
 ! A40   A(17,21,19)           119.775          estimate D2E/DX2                !
 ! A41   A(17,21,24)           120.0989         estimate D2E/DX2                !
 ! A42   A(19,21,24)           120.126          estimate D2E/DX2                !
 ! A43   A(1,25,26)            118.8584         estimate D2E/DX2                !
 ! A44   A(1,25,27)            121.9572         estimate D2E/DX2                !
 ! A45   A(26,25,27)           119.1843         estimate D2E/DX2                !
 ! A46   A(25,26,28)           120.3294         estimate D2E/DX2                !
 ! A47   A(25,26,29)           119.9863         estimate D2E/DX2                !
 ! A48   A(28,26,29)           119.6841         estimate D2E/DX2                !
 ! A49   A(25,27,30)           120.3555         estimate D2E/DX2                !
 ! A50   A(25,27,31)           119.5307         estimate D2E/DX2                !
 ! A51   A(30,27,31)           120.1109         estimate D2E/DX2                !
 ! A52   A(26,28,32)           120.1757         estimate D2E/DX2                !
 ! A53   A(26,28,33)           119.838          estimate D2E/DX2                !
 ! A54   A(32,28,33)           119.9864         estimate D2E/DX2                !
 ! A55   A(27,30,32)           120.18           estimate D2E/DX2                !
 ! A56   A(27,30,34)           119.7754         estimate D2E/DX2                !
 ! A57   A(32,30,34)           120.0446         estimate D2E/DX2                !
 ! A58   A(28,32,30)           119.775          estimate D2E/DX2                !
 ! A59   A(28,32,35)           120.0989         estimate D2E/DX2                !
 ! A60   A(30,32,35)           120.126          estimate D2E/DX2                !
 ! D1    D(2,1,3,4)            152.7015         estimate D2E/DX2                !
 ! D2    D(2,1,3,5)            -27.4262         estimate D2E/DX2                !
 ! D3    D(14,1,3,4)            35.8758         estimate D2E/DX2                !
 ! D4    D(14,1,3,5)          -144.2519         estimate D2E/DX2                !
 ! D5    D(25,1,3,4)           -90.4728         estimate D2E/DX2                !
 ! D6    D(25,1,3,5)            89.3995         estimate D2E/DX2                !
 ! D7    D(2,1,14,15)          -27.4262         estimate D2E/DX2                !
 ! D8    D(2,1,14,16)          152.7015         estimate D2E/DX2                !
 ! D9    D(3,1,14,15)           89.3995         estimate D2E/DX2                !
 ! D10   D(3,1,14,16)          -90.4728         estimate D2E/DX2                !
 ! D11   D(25,1,14,15)        -144.2519         estimate D2E/DX2                !
 ! D12   D(25,1,14,16)          35.8758         estimate D2E/DX2                !
 ! D13   D(2,1,25,26)          -27.4262         estimate D2E/DX2                !
 ! D14   D(2,1,25,27)          152.7015         estimate D2E/DX2                !
 ! D15   D(3,1,25,26)         -144.2519         estimate D2E/DX2                !
 ! D16   D(3,1,25,27)           35.8758         estimate D2E/DX2                !
 ! D17   D(14,1,25,26)          89.3995         estimate D2E/DX2                !
 ! D18   D(14,1,25,27)         -90.4728         estimate D2E/DX2                !
 ! D19   D(1,3,4,6)            179.9394         estimate D2E/DX2                !
 ! D20   D(1,3,4,7)             -0.667          estimate D2E/DX2                !
 ! D21   D(5,3,4,6)              0.0676         estimate D2E/DX2                !
 ! D22   D(5,3,4,7)            179.4611         estimate D2E/DX2                !
 ! D23   D(1,3,5,8)           -179.8234         estimate D2E/DX2                !
 ! D24   D(1,3,5,9)              0.0123         estimate D2E/DX2                !
 ! D25   D(4,3,5,8)              0.0525         estimate D2E/DX2                !
 ! D26   D(4,3,5,9)            179.8882         estimate D2E/DX2                !
 ! D27   D(3,4,6,10)            -0.1366         estimate D2E/DX2                !
 ! D28   D(3,4,6,11)           179.7863         estimate D2E/DX2                !
 ! D29   D(7,4,6,10)          -179.5266         estimate D2E/DX2                !
 ! D30   D(7,4,6,11)             0.3963         estimate D2E/DX2                !
 ! D31   D(3,5,8,10)            -0.1042         estimate D2E/DX2                !
 ! D32   D(3,5,8,12)           179.9302         estimate D2E/DX2                !
 ! D33   D(9,5,8,10)          -179.9403         estimate D2E/DX2                !
 ! D34   D(9,5,8,12)             0.0941         estimate D2E/DX2                !
 ! D35   D(4,6,10,8)             0.0847         estimate D2E/DX2                !
 ! D36   D(4,6,10,13)         -179.9828         estimate D2E/DX2                !
 ! D37   D(11,6,10,8)         -179.838          estimate D2E/DX2                !
 ! D38   D(11,6,10,13)           0.0945         estimate D2E/DX2                !
 ! D39   D(5,8,10,6)             0.0353         estimate D2E/DX2                !
 ! D40   D(5,8,10,13)         -179.8972         estimate D2E/DX2                !
 ! D41   D(12,8,10,6)         -179.9991         estimate D2E/DX2                !
 ! D42   D(12,8,10,13)           0.0684         estimate D2E/DX2                !
 ! D43   D(1,14,15,17)        -179.8234         estimate D2E/DX2                !
 ! D44   D(1,14,15,18)           0.0123         estimate D2E/DX2                !
 ! D45   D(16,14,15,17)          0.0525         estimate D2E/DX2                !
 ! D46   D(16,14,15,18)        179.8882         estimate D2E/DX2                !
 ! D47   D(1,14,16,19)         179.9394         estimate D2E/DX2                !
 ! D48   D(1,14,16,20)          -0.667          estimate D2E/DX2                !
 ! D49   D(15,14,16,19)          0.0676         estimate D2E/DX2                !
 ! D50   D(15,14,16,20)        179.4611         estimate D2E/DX2                !
 ! D51   D(14,15,17,21)         -0.1042         estimate D2E/DX2                !
 ! D52   D(14,15,17,22)        179.9302         estimate D2E/DX2                !
 ! D53   D(18,15,17,21)       -179.9403         estimate D2E/DX2                !
 ! D54   D(18,15,17,22)          0.0941         estimate D2E/DX2                !
 ! D55   D(14,16,19,21)         -0.1366         estimate D2E/DX2                !
 ! D56   D(14,16,19,23)        179.7863         estimate D2E/DX2                !
 ! D57   D(20,16,19,21)       -179.5266         estimate D2E/DX2                !
 ! D58   D(20,16,19,23)          0.3963         estimate D2E/DX2                !
 ! D59   D(15,17,21,19)          0.0353         estimate D2E/DX2                !
 ! D60   D(15,17,21,24)       -179.8972         estimate D2E/DX2                !
 ! D61   D(22,17,21,19)       -179.9991         estimate D2E/DX2                !
 ! D62   D(22,17,21,24)          0.0684         estimate D2E/DX2                !
 ! D63   D(16,19,21,17)          0.0847         estimate D2E/DX2                !
 ! D64   D(16,19,21,24)       -179.9828         estimate D2E/DX2                !
 ! D65   D(23,19,21,17)       -179.838          estimate D2E/DX2                !
 ! D66   D(23,19,21,24)          0.0945         estimate D2E/DX2                !
 ! D67   D(1,25,26,28)        -179.8234         estimate D2E/DX2                !
 ! D68   D(1,25,26,29)           0.0123         estimate D2E/DX2                !
 ! D69   D(27,25,26,28)          0.0525         estimate D2E/DX2                !
 ! D70   D(27,25,26,29)        179.8882         estimate D2E/DX2                !
 ! D71   D(1,25,27,30)         179.9394         estimate D2E/DX2                !
 ! D72   D(1,25,27,31)          -0.667          estimate D2E/DX2                !
 ! D73   D(26,25,27,30)          0.0676         estimate D2E/DX2                !
 ! D74   D(26,25,27,31)        179.4611         estimate D2E/DX2                !
 ! D75   D(25,26,28,32)         -0.1042         estimate D2E/DX2                !
 ! D76   D(25,26,28,33)        179.9302         estimate D2E/DX2                !
 ! D77   D(29,26,28,32)       -179.9403         estimate D2E/DX2                !
 ! D78   D(29,26,28,33)          0.0941         estimate D2E/DX2                !
 ! D79   D(25,27,30,32)         -0.1366         estimate D2E/DX2                !
 ! D80   D(25,27,30,34)        179.7863         estimate D2E/DX2                !
 ! D81   D(31,27,30,32)       -179.5266         estimate D2E/DX2                !
 ! D82   D(31,27,30,34)          0.3963         estimate D2E/DX2                !
 ! D83   D(26,28,32,30)          0.0353         estimate D2E/DX2                !
 ! D84   D(26,28,32,35)       -179.8972         estimate D2E/DX2                !
 ! D85   D(33,28,32,30)       -179.9991         estimate D2E/DX2                !
 ! D86   D(33,28,32,35)          0.0684         estimate D2E/DX2                !
 ! D87   D(27,30,32,28)          0.0847         estimate D2E/DX2                !
 ! D88   D(27,30,32,35)       -179.9828         estimate D2E/DX2                !
 ! D89   D(34,30,32,28)       -179.838          estimate D2E/DX2                !
 ! D90   D(34,30,32,35)          0.0945         estimate D2E/DX2                !
 --------------------------------------------------------------------------------
 Trust Radius=3.00D-01 FncErr=1.00D-07 GrdErr=1.00D-07
 Number of steps in this run= 197 maximum allowed number of steps= 210.
 GradGradGradGradGradGradGradGradGradGradGradGradGradGradGradGradGradGrad

                          Input orientation:                          
 ---------------------------------------------------------------------
 Center     Atomic      Atomic             Coordinates (Angstroms)
 Number     Number       Type             X           Y           Z
 ---------------------------------------------------------------------
      1          6           0        0.000000    0.000000   -0.796028
      2          1           0        0.000000    0.000000   -1.918722
      3          6           0       -1.210206    0.785648   -0.355573
      4          6           0       -1.840796    0.547569    0.866457
      5          6           0       -1.710401    1.782553   -1.197753
      6          6           0       -2.953784    1.292699    1.239785
      7          1           0       -1.457993   -0.240270    1.528562
      8          6           0       -2.821503    2.527369   -0.820790
      9          1           0       -1.224200    1.981855   -2.159792
     10          6           0       -3.445607    2.283932    0.398147
     11          1           0       -3.443210    1.095571    2.199070
     12          1           0       -3.205900    3.307145   -1.486255
     13          1           0       -4.321700    2.870200    0.693058
     14          6           0       -0.075288   -1.440893   -0.355573
     15          6           0       -0.688535   -2.372527   -1.197753
     16          6           0        0.446189   -1.867960    0.866457
     17          6           0       -0.778015   -3.707178   -0.820790
     18          1           0       -1.104237   -2.051116   -2.159792
     19          6           0        0.357382   -3.204401    1.239785
     20          1           0        0.937076   -1.142525    1.528562
     21          6           0       -0.255140   -4.125949    0.398147
     22          1           0       -1.261122   -4.429964   -1.486255
     23          1           0        0.772812   -3.529693    2.199070
     24          1           0       -0.324816   -5.177802    0.693058
     25          6           0        1.285494    0.655245   -0.355573
     26          6           0        2.398937    0.589975   -1.197753
     27          6           0        1.394606    1.320391    0.866457
     28          6           0        3.599517    1.179808   -0.820790
     29          1           0        2.328437    0.069261   -2.159792
     30          6           0        2.596402    1.911703    1.239785
     31          1           0        0.520917    1.382794    1.528562
     32          6           0        3.700747    1.842017    0.398147
     33          1           0        4.467022    1.122819   -1.486255
     34          1           0        2.670397    2.434121    2.199070
     35          1           0        4.646516    2.307602    0.693058
 ---------------------------------------------------------------------
                    Distance matrix (angstroms):
                    1          2          3          4          5
     1  C    0.000000
     2  H    1.122694   0.000000
     3  C    1.508590   2.127270   0.000000
     4  C    2.540122   3.383132   1.395594   0.000000
     5  C    2.502868   2.573473   1.397599   2.408973   0.000000
     6  C    3.813193   4.513543   2.417091   1.390444   2.779847
     7  H    2.754486   3.750632   2.159599   1.098002   3.404161
     8  C    3.788019   3.943847   2.417912   2.779964   1.389748
     9  H    2.699309   2.341908   2.164790   3.405224   1.096190
    10  C    4.302860   4.738822   2.794632   2.410330   2.410232
    11  H    4.693248   5.478337   3.407133   2.154969   3.874658
    12  H    4.657405   4.626233   3.408693   3.874794   2.155025
    13  H    5.397455   5.808316   3.889264   3.402877   3.402503
    14  C    1.508590   2.127270   2.499105   2.926492   3.711262
    15  C    2.502868   2.573473   3.309906   3.757077   4.278890
    16  C    2.540122   3.383132   3.358369   3.326422   4.715728
    17  C    3.788019   3.943847   4.537477   4.698848   5.581092
    18  H    2.699309   2.341908   3.363580   4.056337   3.998746
    19  C    3.813193   4.513543   4.574166   4.364475   5.923431
    20  H    2.754486   3.750632   3.446539   3.318339   4.795624
    21  C    4.302860   4.738822   5.060043   4.957357   6.290873
    22  H    4.657405   4.626233   5.337007   5.535983   6.235419
    23  H    4.693248   5.478337   5.392655   5.023033   6.776777
    24  H    5.397455   5.808316   6.119336   5.925211   7.344491
    25  C    1.508590   2.127270   2.499105   3.358369   3.309906
    26  C    2.502868   2.573473   3.711262   4.715728   4.278890
    27  C    2.540122   3.383132   2.926492   3.326422   3.757077
    28  C    3.788019   3.943847   4.848219   5.730928   5.357298
    29  H    2.699309   2.341908   4.036138   5.173922   4.491448
    30  C    3.813193   4.513543   4.278251   4.657140   4.950437
    31  H    2.754486   3.750632   2.627420   2.591075   3.545615
    32  C    4.302860   4.738822   5.079514   5.709956   5.641893
    33  H    4.657405   4.626233   5.798538   6.756828   6.219248
    34  H    4.693248   5.478337   4.929781   5.068116   5.581608
    35  H    5.397455   5.808316   6.141430   6.724061   6.652913
                    6          7          8          9         10
     6  C    0.000000
     7  H    2.161197   0.000000
     8  C    2.405801   3.877943   0.000000
     9  H    3.876019   4.312360   2.154504   0.000000
    10  C    1.390248   3.405883   1.390890   3.401316   0.000000
    11  H    1.094817   2.484982   3.399429   4.970833   2.157667
    12  H    3.398948   4.972771   1.094831   2.477334   2.157636
    13  H    2.158383   4.309745   2.158672   4.303768   1.094633
    14  C    4.278251   2.627420   4.848219   4.036138   5.079514
    15  C    4.950437   3.545615   5.357298   4.491448   5.641893
    16  C    4.657140   2.591075   5.730928   5.173922   5.709956
    17  C    5.829125   4.242791   6.560901   5.861493   6.670476
    18  H    5.114591   4.124108   5.069956   4.034755   5.551370
    19  C    5.584597   3.487844   6.870551   6.399670   6.729999
    20  H    4.599184   2.559379   5.754519   5.294981   5.676826
    21  C    6.111692   4.221753   7.234547   6.692339   7.160004
    22  H    6.560889   5.165405   7.161153   6.447204   7.307485
    23  H    6.169538   4.030680   7.663332   7.305128   7.405175
    24  H    7.005552   5.134334   8.239833   7.759403   8.093440
    25  C    4.574166   3.446539   4.537477   3.363579   5.060043
    26  C    5.923431   4.795624   5.581092   3.998746   6.290873
    27  C    4.364475   3.318339   4.698848   4.056337   4.957357
    28  C    6.870551   5.754519   6.560901   5.069956   7.234547
    29  H    6.399670   5.294981   5.861493   4.034755   6.692339
    30  C    5.584597   4.599184   5.829125   5.114591   6.111692
    31  H    3.487844   2.559379   4.242791   4.124107   4.221753
    32  C    6.729999   5.676826   6.670476   5.551370   7.160004
    33  H    7.907497   6.786231   7.452395   5.794964   8.216377
    34  H    5.818461   4.964429   6.268111   5.862773   6.377412
    35  H    7.687230   6.667440   7.623079   6.535302   8.097530
                   11         12         13         14         15
    11  H    0.000000
    12  H    4.304531   0.000000
    13  H    2.487795   2.487033   0.000000
    14  C    4.929781   5.798538   6.141430   0.000000
    15  C    5.581608   6.219247   6.652913   1.397599   0.000000
    16  C    5.068116   6.756828   6.724061   1.395594   2.408973
    17  C    6.268111   7.452395   7.623079   2.417912   1.389748
    18  H    5.862773   5.794964   6.535302   2.164790   1.096190
    19  C    5.818461   7.907497   7.687230   2.417091   2.779847
    20  H    4.964429   6.786231   6.667440   2.159599   3.404161
    21  C    6.377412   8.216377   8.097530   2.794632   2.410232
    22  H    6.991041   7.977783   8.210295   3.408693   2.155025
    23  H    6.258427   8.726633   8.317497   3.407133   3.874658
    24  H    7.165728   9.221951   8.985845   3.889264   3.402503
    25  C    5.392655   5.337007   6.119336   2.499105   3.711262
    26  C    6.776777   6.235419   7.344491   3.309906   4.278890
    27  C    5.023033   5.535983   5.925211   3.358369   4.715728
    28  C    7.663332   7.161153   8.239833   4.537477   5.581092
    29  H    7.305128   6.447204   7.759403   3.363580   3.998746
    30  C    6.169538   6.560889   7.005552   4.574166   5.923431
    31  H    4.030680   5.165405   5.134334   3.446539   4.795624
    32  C    7.405175   7.307485   8.093441   5.060043   6.290873
    33  H    8.726633   7.977783   9.221951   5.337007   6.235419
    34  H    6.258427   6.991041   7.165728   5.392655   6.776777
    35  H    8.317497   8.210295   8.985845   6.119336   7.344491
                   16         17         18         19         20
    16  C    0.000000
    17  C    2.779964   0.000000
    18  H    3.405224   2.154504   0.000000
    19  C    1.390444   2.405801   3.876019   0.000000
    20  H    1.098002   3.877943   4.312360   2.161197   0.000000
    21  C    2.410330   1.390890   3.401316   1.390248   3.405883
    22  H    3.874794   1.094831   2.477334   3.398948   4.972771
    23  H    2.154969   3.399429   4.970833   1.094817   2.484982
    24  H    3.402877   2.158672   4.303768   2.158382   4.309745
    25  C    2.926492   4.848219   4.036138   4.278251   2.627420
    26  C    3.757077   5.357298   4.491448   4.950437   3.545615
    27  C    3.326422   5.730928   5.173922   4.657140   2.591075
    28  C    4.698848   6.560901   5.861493   5.829125   4.242791
    29  H    4.056337   5.069956   4.034755   5.114591   4.124107
    30  C    4.364475   6.870551   6.399670   5.584597   3.487844
    31  H    3.318339   5.754519   5.294981   4.599184   2.559379
    32  C    4.957357   7.234547   6.692339   6.111692   4.221753
    33  H    5.535983   7.161153   6.447204   6.560889   5.165405
    34  H    5.023033   7.663332   7.305128   6.169538   4.030680
    35  H    5.925211   8.239833   7.759403   7.005552   5.134334
                   21         22         23         24         25
    21  C    0.000000
    22  H    2.157636   0.000000
    23  H    2.157667   4.304531   0.000000
    24  H    1.094633   2.487033   2.487795   0.000000
    25  C    5.079514   5.798538   4.929781   6.141430   0.000000
    26  C    5.641893   6.219248   5.581608   6.652913   1.397599
    27  C    5.709956   6.756828   5.068116   6.724061   1.395594
    28  C    6.670476   7.452395   6.268111   7.623079   2.417912
    29  H    5.551370   5.794964   5.862773   6.535302   2.164790
    30  C    6.729999   7.907497   5.818461   7.687230   2.417091
    31  H    5.676826   6.786231   4.964429   6.667440   2.159599
    32  C    7.160004   8.216377   6.377412   8.097530   2.794632
    33  H    7.307485   7.977783   6.991041   8.210295   3.408693
    34  H    7.405175   8.726633   6.258427   8.317497   3.407133
    35  H    8.093441   9.221951   7.165728   8.985845   3.889265
                   26         27         28         29         30
    26  C    0.000000
    27  C    2.408973   0.000000
    28  C    1.389748   2.779964   0.000000
    29  H    1.096190   3.405224   2.154504   0.000000
    30  C    2.779847   1.390444   2.405801   3.876019   0.000000
    31  H    3.404161   1.098002   3.877943   4.312360   2.161197
    32  C    2.410232   2.410330   1.390890   3.401316   1.390248
    33  H    2.155025   3.874794   1.094831   2.477334   3.398948
    34  H    3.874658   2.154969   3.399429   4.970833   1.094817
    35  H    3.402503   3.402877   2.158672   4.303768   2.158383
                   31         32         33         34         35
    31  H    0.000000
    32  C    3.405883   0.000000
    33  H    4.972771   2.157636   0.000000
    34  H    2.484982   2.157667   4.304531   0.000000
    35  H    4.309745   1.094633   2.487033   2.487795   0.000000
 Stoichiometry    C19H16
 Framework group  C3[C3(CH),X(C18H15)]
 Deg. of freedom    33
 Full point group                 C3      NOp   3
 Largest Abelian subgroup         C1      NOp   1
 Largest concise Abelian subgroup C1      NOp   1
                         Standard orientation:                         
 ---------------------------------------------------------------------
 Center     Atomic      Atomic             Coordinates (Angstroms)
 Number     Number       Type             X           Y           Z
 ---------------------------------------------------------------------
      1          6           0        0.000000    0.000000    0.780443
      2          1           0        0.000000    0.000000    1.903137
      3          6           0        0.000000    1.442859    0.339988
      4          6           0        0.543051    1.842133   -0.882042
      5          6           0       -0.563799    2.405223    1.182168
      6          6           0        0.524100    3.181388   -1.255370
      7          1           0        0.995416    1.092072   -1.544147
      8          6           0       -0.583515    3.742724    0.805205
      9          1           0       -0.995706    2.105941    2.144207
     10          6           0       -0.039501    4.133642   -0.413732
     11          1           0        0.955938    3.484559   -2.214655
     12          1           0       -1.028249    4.489734    1.470670
     13          1           0       -0.054197    5.187697   -0.708643
     14          6           0        1.249552   -0.721429    0.339988
     15          6           0        2.364884   -0.714347    1.182168
     16          6           0        1.323809   -1.391363   -0.882042
     17          6           0        3.533052   -1.366023    0.805205
     18          1           0        2.321651   -0.190664    2.144207
     19          6           0        2.493112   -2.044578   -1.255370
     20          1           0        0.448054   -1.408092   -1.544147
     21          6           0        3.599589   -2.032612   -0.413732
     22          1           0        4.402348   -1.354377    1.470670
     23          1           0        2.539748   -2.570146   -2.214655
     24          1           0        4.519776   -2.546913   -0.708643
     25          6           0       -1.249552   -0.721429    0.339988
     26          6           0       -1.801085   -1.690876    1.182168
     27          6           0       -1.866860   -0.450770   -0.882042
     28          6           0       -2.949536   -2.376701    0.805205
     29          1           0       -1.325945   -1.915277    2.144207
     30          6           0       -3.017213   -1.136810   -1.255370
     31          1           0       -1.443470    0.316020   -1.544147
     32          6           0       -3.560088   -2.101029   -0.413732
     33          1           0       -3.374099   -3.135356    1.470670
     34          1           0       -3.495686   -0.914413   -2.214655
     35          1           0       -4.465579   -2.640785   -0.708643
 ---------------------------------------------------------------------
 Rotational constants (GHZ):      0.3904400      0.3904400      0.2360015
 Standard basis: 6-311G (5D, 7F)
 There are   295 symmetry adapted basis functions of A   symmetry.
 Integral buffers will be    262144 words long.
 Raffenetti 1 integral format.
 Two-electron integral symmetry is turned on.
   295 basis functions,   574 primitive gaussians,   295 cartesian basis functions
    65 alpha electrons       65 beta electrons
       nuclear repulsion energy      1290.5334289620 Hartrees.
 NAtoms=   35 NActive=   35 NUniq=   13 SFac= 3.00D+00 NAtFMM=   80 NAOKFM=F Big=F
 One-electron integrals computed using PRISM.
 PrsmSu:  requested number of processors reduced to:  10 ShMem   1 Linda.
 NBasis=   295 RedAO= T  NBF=   295
 NBsUse=   295 1.00D-06 NBFU=   295
 Harris functional with IExCor=  205 diagonalized for initial guess.
 ExpMin= 1.03D-01 ExpMax= 4.56D+03 ExpMxC= 6.82D+02 IAcc=1 IRadAn=         1 AccDes= 0.00D+00
 HarFok:  IExCor=  205 AccDes= 0.00D+00 IRadAn=         1 IDoV= 1
 ScaDFX=  1.000000  1.000000  1.000000  1.000000
 FoFCou: FMM=F IPFlag=           0 FMFlag=      100000 FMFlg1=           0
         NFxFlg=           0 DoJE=T BraDBF=F KetDBF=T FulRan=T
         Omega=  0.000000  0.000000  1.000000  0.000000  0.000000 ICntrl=     500 IOpCl=  0
         NMat0=    1 NMatS0=    1 NMatT0=    0 NMatD0=    1 NMtDS0=    0 NMtDT0=    0
         I1Cent=           4 NGrid=           0.
 Petite list used in FoFCou.
 Initial guess orbital symmetries:
       Occupied  (E) (E) (A) (A) (E) (E) (A) (E) (E) (E) (E) (A)
                 (E) (E) (A) (E) (E) (A) (A) (A) (E) (E) (A) (A)
                 (E) (E) (E) (E) (A) (A) (E) (E) (E) (E) (A) (E)
                 (E) (A) (A) (E) (E) (E) (E) (A) (E) (E) (A) (E)
                 (E) (A) (E) (E) (A) (A) (E) (E) (E) (E) (A) (E)
                 (E) (A) (E) (E) (A)
       Virtual   (E) (E) (A) (E) (E) (A) (A) (A) (E) (E) (E) (E)
                 (A) (A) (E) (E) (E) (E) (A) (A) (E) (E) (E) (E)
                 (A) (A) (E) (E) (A) (E) (E) (A) (E) (E) (E) (E)
                 (A) (E) (E) (A) (E) (E) (A) (E) (E) (A) (A) (E)
                 (E) (E) (E) (A) (A) (E) (E) (A) (E) (E) (E) (E)
                 (A) (E) (E) (A) (E) (E) (A) (A) (E) (E) (E) (E)
                 (A) (A) (E) (E) (A) (A) (E) (E) (A) (E) (E) (A)
                 (E) (E) (A) (A) (E) (E) (E) (E) (A) (E) (E) (A)
                 (E) (E) (A) (E) (E) (A) (E) (E) (E) (E) (A) (E)
                 (E) (A) (E) (E) (E) (E) (A) (A) (E) (E) (A) (E)
                 (E) (A) (A) (E) (E) (E) (E) (A) (A) (E) (E) (A)
                 (E) (E) (A) (E) (E) (A) (E) (E) (A) (A) (E) (E)
                 (E) (E) (A) (A) (E) (E) (A) (E) (E) (A) (E) (E)
                 (A) (E) (E) (E) (E) (A) (A) (A) (E) (E) (A) (E)
                 (E) (A) (E) (E) (A) (E) (E) (A) (E) (E) (E) (E)
                 (A) (A) (E) (E) (E) (E) (A) (E) (E) (E) (E) (A)
                 (E) (E) (A) (A) (E) (E) (E) (E) (E) (E) (A) (A)
                 (E) (E) (A) (A) (E) (E) (A) (A) (E) (E) (E) (E)
                 (A) (A) (E) (E) (A) (E) (E) (A) (E) (E) (A) (A)
                 (E) (E)
 The electronic state of the initial guess is 1-A.
 Requested convergence on RMS density matrix=1.00D-08 within 128 cycles.
 Requested convergence on MAX density matrix=1.00D-06.
 Requested convergence on             energy=1.00D-06.
 No special actions if energy rises.
 Integral accuracy reduced to 1.0D-05 until final iterations.
 Initial convergence to 1.0D-05 achieved.  Increase integral accuracy.
 SCF Done:  E(RHF) =  -728.678008636     A.U. after   14 cycles
             Convg  =    0.6854D-08             -V/T =  2.0001

 **********************************************************************

            Population analysis using the SCF density.

 **********************************************************************

 Orbital symmetries:
       Occupied  (A) (E) (E) (A) (E) (E) (A) (A) (E) (E) (E) (E)
                 (A) (E) (E) (A) (E) (E) (A) (A) (E) (E) (A) (A)
                 (E) (E) (E) (E) (A) (A) (E) (E) (E) (E) (A) (E)
                 (E) (A) (A) (E) (E) (E) (E) (A) (A) (E) (E) (E)
                 (E) (A) (A) (E) (E) (A) (E) (E) (A) (E) (E) (E)
                 (E) (A) (E) (E) (A)
       Virtual   (E) (E) (A) (A) (E) (E) (A) (E) (E) (A) (A) (E)
                 (E) (E) (E) (A) (E) (E) (A) (E) (E) (A) (E) (E)
                 (A) (E) (E) (A) (A) (A) (E) (E) (E) (E) (E) (E)
                 (A) (A) (E) (E) (A) (E) (E) (E) (E) (A) (E) (E)
                 (A) (A) (E) (E) (A) (E) (E) (A) (E) (E) (A) (E)
                 (E) (E) (E) (A) (A) (E) (E) (A) (E) (E) (A) (E)
                 (E) (A) (E) (E) (A) (E) (E) (A) (A) (E) (E) (E)
                 (E) (A) (E) (E) (A) (E) (E) (A) (A) (E) (E) (A)
                 (E) (E) (A) (E) (E) (E) (E) (A) (E) (E) (A) (E)
                 (E) (A) (E) (E) (E) (E) (A) (A) (A) (E) (E) (A)
                 (E) (E) (A) (E) (E) (A) (E) (E) (A) (E) (E) (A)
                 (E) (E) (A) (E) (E) (A) (E) (E) (A) (E) (E) (A)
                 (E) (E) (A) (E) (E) (A) (A) (E) (E) (A) (A) (E)
                 (E) (E) (E) (A) (E) (E) (A) (A) (E) (E) (E) (E)
                 (A) (E) (E) (A) (A) (E) (E) (A) (E) (E) (E) (E)
                 (A) (A) (E) (E) (E) (E) (A) (E) (E) (A) (E) (E)
                 (A) (E) (E) (A) (E) (E) (E) (E) (E) (E) (A) (A)
                 (A) (E) (E) (A) (E) (E) (A) (A) (E) (E) (E) (E)
                 (A) (A) (E) (E) (A) (E) (E) (A) (E) (E) (A) (A)
                 (E) (E)
 The electronic state is 1-A.
 Alpha  occ. eigenvalues --  -11.25720 -11.25093 -11.25093 -11.25086 -11.24306
 Alpha  occ. eigenvalues --  -11.24306 -11.24306 -11.24283 -11.24283 -11.24283
 Alpha  occ. eigenvalues --  -11.24020 -11.24020 -11.24020 -11.23961 -11.23961
 Alpha  occ. eigenvalues --  -11.23961 -11.23816 -11.23816 -11.23815  -1.18582
 Alpha  occ. eigenvalues --   -1.15714  -1.15714  -1.09022  -1.02191  -1.02043
 Alpha  occ. eigenvalues --   -1.02043  -1.01367  -1.01367  -0.92882  -0.84084
 Alpha  occ. eigenvalues --   -0.82991  -0.82991  -0.81453  -0.81453  -0.77512
 Alpha  occ. eigenvalues --   -0.70624  -0.70624  -0.68789  -0.65640  -0.63789
 Alpha  occ. eigenvalues --   -0.63789  -0.61930  -0.61930  -0.61742  -0.59103
 Alpha  occ. eigenvalues --   -0.58737  -0.58737  -0.58058  -0.58058  -0.54339
 Alpha  occ. eigenvalues --   -0.51186  -0.50835  -0.50835  -0.49662  -0.49105
 Alpha  occ. eigenvalues --   -0.49105  -0.47444  -0.47177  -0.47177  -0.34453
 Alpha  occ. eigenvalues --   -0.34453  -0.34004  -0.33231  -0.33231  -0.31218
 Alpha virt. eigenvalues --    0.12200   0.12200   0.12408   0.14449   0.14461
 Alpha virt. eigenvalues --    0.14461   0.15131   0.16317   0.16317   0.17110
 Alpha virt. eigenvalues --    0.19070   0.19126   0.19126   0.21253   0.21253
 Alpha virt. eigenvalues --    0.21553   0.23845   0.23845   0.24472   0.26753
 Alpha virt. eigenvalues --    0.26753   0.28540   0.34018   0.34018   0.35101
 Alpha virt. eigenvalues --    0.39173   0.39173   0.39341   0.41082   0.43773
 Alpha virt. eigenvalues --    0.43879   0.43879   0.44971   0.44971   0.45562
 Alpha virt. eigenvalues --    0.45562   0.45808   0.48350   0.49767   0.49767
 Alpha virt. eigenvalues --    0.50698   0.50882   0.50882   0.55385   0.55385
 Alpha virt. eigenvalues --    0.57223   0.58704   0.58704   0.58768   0.59460
 Alpha virt. eigenvalues --    0.60070   0.60070   0.61459   0.61555   0.61555
 Alpha virt. eigenvalues --    0.61702   0.62244   0.62244   0.63519   0.63794
 Alpha virt. eigenvalues --    0.63794   0.65423   0.65423   0.66726   0.67125
 Alpha virt. eigenvalues --    0.67868   0.67868   0.69147   0.70654   0.70654
 Alpha virt. eigenvalues --    0.73050   0.74594   0.74594   0.74988   0.75572
 Alpha virt. eigenvalues --    0.75572   0.78155   0.80259   0.80259   0.80275
 Alpha virt. eigenvalues --    0.81938   0.82010   0.82010   0.82966   0.82966
 Alpha virt. eigenvalues --    0.83742   0.84373   0.84373   0.85145   0.86020
 Alpha virt. eigenvalues --    0.86020   0.86226   0.87295   0.87743   0.87743
 Alpha virt. eigenvalues --    0.88562   0.90870   0.90870   0.92786   0.94594
 Alpha virt. eigenvalues --    0.94594   0.97232   0.97232   0.97799   1.00025
 Alpha virt. eigenvalues --    1.00025   1.00729   1.04035   1.04035   1.06247
 Alpha virt. eigenvalues --    1.07017   1.07017   1.08768   1.08768   1.09864
 Alpha virt. eigenvalues --    1.11120   1.12260   1.12934   1.12934   1.14211
 Alpha virt. eigenvalues --    1.14662   1.14662   1.17909   1.20753   1.20753
 Alpha virt. eigenvalues --    1.26743   1.27487   1.27487   1.28640   1.30057
 Alpha virt. eigenvalues --    1.30057   1.39623   1.40632   1.40632   1.49093
 Alpha virt. eigenvalues --    1.52302   1.52302   1.54954   2.55829   2.55829
 Alpha virt. eigenvalues --    2.56444   2.61671   2.61671   2.61687   2.66502
 Alpha virt. eigenvalues --    2.66502   2.67963   2.70427   2.70427   2.70914
 Alpha virt. eigenvalues --    2.78500   2.84846   2.84846   2.88596   2.94548
 Alpha virt. eigenvalues --    2.94640   2.94640   2.97630   2.97630   2.97665
 Alpha virt. eigenvalues --    3.01456   3.01456   3.04370   3.06195   3.07554
 Alpha virt. eigenvalues --    3.07554   3.08636   3.08636   3.09336   3.15406
 Alpha virt. eigenvalues --    3.15406   3.15665   3.17440   3.18983   3.18983
 Alpha virt. eigenvalues --    3.23304   3.25379   3.25379   3.28853   3.28853
 Alpha virt. eigenvalues --    3.29675   3.33106   3.34953   3.34953   3.42284
 Alpha virt. eigenvalues --    3.42284   3.43279   3.48631   3.48631   3.53959
 Alpha virt. eigenvalues --    3.54094   3.54094   3.59981   3.60372   3.60372
 Alpha virt. eigenvalues --    3.63122   3.63604   3.63604   3.65840   3.65840
 Alpha virt. eigenvalues --    3.69787   3.69787   3.70514   3.70718   3.75211
 Alpha virt. eigenvalues --    3.75901   3.75901   3.84505   3.87411   3.87411
 Alpha virt. eigenvalues --    3.91519  24.25949  24.31582  24.31582  24.50735
 Alpha virt. eigenvalues --   24.50735  24.51246  24.54563  24.55844  24.55844
 Alpha virt. eigenvalues --   24.77627  24.79325  24.79325  24.79934  24.80812
 Alpha virt. eigenvalues --   24.80812  24.83371  25.05347  25.06158  25.06158
          Condensed to atoms (all electrons):
              1          2          3          4          5          6
     1  C    5.860141   0.483502   0.145298  -0.041026  -0.054775   0.004233
     2  H    0.483502   0.515245  -0.072023   0.005308  -0.001096  -0.000241
     3  C    0.145298  -0.072023   5.358215   0.479733   0.484070  -0.067613
     4  C   -0.041026   0.005308   0.479733   5.114403  -0.068565   0.468999
     5  C   -0.054775  -0.001096   0.484070  -0.068565   5.058595  -0.031794
     6  C    0.004233  -0.000241  -0.067613   0.468999  -0.031794   5.051869
     7  H   -0.000825  -0.000120  -0.042551   0.392268   0.004177  -0.029806
     8  C    0.007235   0.001483  -0.065750  -0.029449   0.463572  -0.075846
     9  H    0.000495   0.001470  -0.048776   0.004434   0.399240  -0.000423
    10  C    0.001168  -0.000011  -0.016419  -0.093823  -0.087619   0.496707
    11  H   -0.000337   0.000014   0.006125  -0.037815  -0.000379   0.396182
    12  H   -0.000372  -0.000026   0.006681  -0.000533  -0.039640   0.006117
    13  H   -0.000017  -0.000001  -0.001542   0.007825   0.007437  -0.042473
    14  C    0.145298  -0.072023  -0.097299  -0.018617   0.005716   0.000100
    15  C   -0.054775  -0.001096  -0.001110   0.000246   0.000841  -0.000167
    16  C   -0.041026   0.005308  -0.008186  -0.005111  -0.000166  -0.000018
    17  C    0.007235   0.001483  -0.000632   0.000382   0.000003  -0.000009
    18  H    0.000495   0.001470   0.000949   0.000222   0.000232   0.000007
    19  C    0.004233  -0.000241   0.000682  -0.001071   0.000022  -0.000022
    20  H   -0.000825  -0.000120  -0.000795   0.000740  -0.000017   0.000043
    21  C    0.001168  -0.000011   0.000038   0.000069  -0.000001   0.000005
    22  H   -0.000372  -0.000026   0.000024   0.000003   0.000000   0.000000
    23  H   -0.000337   0.000014  -0.000003   0.000016   0.000000   0.000001
    24  H   -0.000017  -0.000001   0.000000  -0.000001   0.000000   0.000000
    25  C    0.145298  -0.072023  -0.097299  -0.008186  -0.001110   0.000682
    26  C   -0.054775  -0.001096   0.005716  -0.000166   0.000841   0.000022
    27  C   -0.041026   0.005308  -0.018617  -0.005111   0.000246  -0.001071
    28  C    0.007235   0.001483  -0.000777   0.000027  -0.000034   0.000000
    29  H    0.000495   0.001470   0.000485  -0.000031   0.000044   0.000000
    30  C    0.004233  -0.000241   0.000100  -0.000018  -0.000167  -0.000022
    31  H   -0.000825  -0.000120  -0.001972   0.001437  -0.000873   0.000921
    32  C    0.001168  -0.000011   0.000097  -0.000018  -0.000009   0.000000
    33  H   -0.000372  -0.000026   0.000011   0.000000   0.000001   0.000000
    34  H   -0.000337   0.000014   0.000029   0.000019   0.000007   0.000000
    35  H   -0.000017  -0.000001  -0.000001   0.000000   0.000000   0.000000
              7          8          9         10         11         12
     1  C   -0.000825   0.007235   0.000495   0.001168  -0.000337  -0.000372
     2  H   -0.000120   0.001483   0.001470  -0.000011   0.000014  -0.000026
     3  C   -0.042551  -0.065750  -0.048776  -0.016419   0.006125   0.006681
     4  C    0.392268  -0.029449   0.004434  -0.093823  -0.037815  -0.000533
     5  C    0.004177   0.463572   0.399240  -0.087619  -0.000379  -0.039640
     6  C   -0.029806  -0.075846  -0.000423   0.496707   0.396182   0.006117
     7  H    0.474195  -0.000226  -0.000239   0.004623  -0.003310   0.000018
     8  C   -0.000226   5.055091  -0.036077   0.490332   0.005933   0.397077
     9  H   -0.000239  -0.036077   0.507671   0.005357   0.000022  -0.004230
    10  C    0.004623   0.490332   0.005357   5.033050  -0.040232  -0.040641
    11  H   -0.003310   0.005933   0.000022  -0.040232   0.515681  -0.000211
    12  H    0.000018   0.397077  -0.004230  -0.040641  -0.000211   0.517969
    13  H   -0.000174  -0.042940  -0.000179   0.399537  -0.004404  -0.004496
    14  C   -0.001972  -0.000777   0.000485   0.000097   0.000029   0.000011
    15  C   -0.000873  -0.000034   0.000044  -0.000009   0.000007   0.000001
    16  C    0.001437   0.000027  -0.000031  -0.000018   0.000019   0.000000
    17  C   -0.000190   0.000002   0.000001   0.000000   0.000001   0.000000
    18  H   -0.000038  -0.000005  -0.000001  -0.000009   0.000000   0.000000
    19  C    0.000921   0.000000   0.000000   0.000000   0.000000   0.000000
    20  H    0.000217   0.000003   0.000000   0.000000  -0.000007   0.000000
    21  C    0.000002   0.000000   0.000000   0.000000  -0.000001   0.000000
    22  H    0.000003   0.000000   0.000000   0.000000   0.000000   0.000000
    23  H    0.000007   0.000000   0.000000   0.000000   0.000000   0.000000
    24  H    0.000000   0.000000   0.000000   0.000000   0.000000   0.000000
    25  C   -0.000795  -0.000632   0.000949   0.000038  -0.000003   0.000024
    26  C   -0.000017   0.000003   0.000232  -0.000001   0.000000   0.000000
    27  C    0.000740   0.000382   0.000222   0.000069   0.000016   0.000003
    28  C    0.000003   0.000002  -0.000005   0.000000   0.000000   0.000000
    29  H    0.000000   0.000001  -0.000001   0.000000   0.000000   0.000000
    30  C    0.000043  -0.000009   0.000007   0.000005   0.000001   0.000000
    31  H    0.000217  -0.000190  -0.000038   0.000002   0.000007   0.000003
    32  C    0.000000   0.000000  -0.000009   0.000000   0.000000   0.000000
    33  H    0.000000   0.000000   0.000000   0.000000   0.000000   0.000000
    34  H   -0.000007   0.000001   0.000000  -0.000001   0.000000   0.000000
    35  H    0.000000   0.000000   0.000000   0.000000   0.000000   0.000000
             13         14         15         16         17         18
     1  C   -0.000017   0.145298  -0.054775  -0.041026   0.007235   0.000495
     2  H   -0.000001  -0.072023  -0.001096   0.005308   0.001483   0.001470
     3  C   -0.001542  -0.097299  -0.001110  -0.008186  -0.000632   0.000949
     4  C    0.007825  -0.018617   0.000246  -0.005111   0.000382   0.000222
     5  C    0.007437   0.005716   0.000841  -0.000166   0.000003   0.000232
     6  C   -0.042473   0.000100  -0.000167  -0.000018  -0.000009   0.000007
     7  H   -0.000174  -0.001972  -0.000873   0.001437  -0.000190  -0.000038
     8  C   -0.042940  -0.000777  -0.000034   0.000027   0.000002  -0.000005
     9  H   -0.000179   0.000485   0.000044  -0.000031   0.000001  -0.000001
    10  C    0.399537   0.000097  -0.000009  -0.000018   0.000000  -0.000009
    11  H   -0.004404   0.000029   0.000007   0.000019   0.000001   0.000000
    12  H   -0.004496   0.000011   0.000001   0.000000   0.000000   0.000000
    13  H    0.517949  -0.000001   0.000000   0.000000   0.000000   0.000000
    14  C   -0.000001   5.358215   0.484070   0.479733  -0.065750  -0.048776
    15  C    0.000000   0.484070   5.058595  -0.068565   0.463572   0.399240
    16  C    0.000000   0.479733  -0.068565   5.114403  -0.029449   0.004434
    17  C    0.000000  -0.065750   0.463572  -0.029449   5.055091  -0.036077
    18  H    0.000000  -0.048776   0.399240   0.004434  -0.036077   0.507671
    19  C    0.000000  -0.067613  -0.031794   0.468999  -0.075846  -0.000423
    20  H    0.000000  -0.042551   0.004177   0.392268  -0.000226  -0.000239
    21  C    0.000000  -0.016419  -0.087619  -0.093823   0.490332   0.005357
    22  H    0.000000   0.006681  -0.039640  -0.000533   0.397077  -0.004230
    23  H    0.000000   0.006125  -0.000379  -0.037815   0.005933   0.000022
    24  H    0.000000  -0.001542   0.007437   0.007825  -0.042940  -0.000179
    25  C    0.000000  -0.097299   0.005716  -0.018617  -0.000777   0.000485
    26  C    0.000000  -0.001110   0.000841   0.000246  -0.000034   0.000044
    27  C   -0.000001  -0.008186  -0.000166  -0.005111   0.000027  -0.000031
    28  C    0.000000  -0.000632   0.000003   0.000382   0.000002   0.000001
    29  H    0.000000   0.000949   0.000232   0.000222  -0.000005  -0.000001
    30  C    0.000000   0.000682   0.000022  -0.001071   0.000000   0.000000
    31  H    0.000000  -0.000795  -0.000017   0.000740   0.000003   0.000000
    32  C    0.000000   0.000038  -0.000001   0.000069   0.000000   0.000000
    33  H    0.000000   0.000024   0.000000   0.000003   0.000000   0.000000
    34  H    0.000000  -0.000003   0.000000   0.000016   0.000000   0.000000
    35  H    0.000000   0.000000   0.000000  -0.000001   0.000000   0.000000
             19         20         21         22         23         24
     1  C    0.004233  -0.000825   0.001168  -0.000372  -0.000337  -0.000017
     2  H   -0.000241  -0.000120  -0.000011  -0.000026   0.000014  -0.000001
     3  C    0.000682  -0.000795   0.000038   0.000024  -0.000003   0.000000
     4  C   -0.001071   0.000740   0.000069   0.000003   0.000016  -0.000001
     5  C    0.000022  -0.000017  -0.000001   0.000000   0.000000   0.000000
     6  C   -0.000022   0.000043   0.000005   0.000000   0.000001   0.000000
     7  H    0.000921   0.000217   0.000002   0.000003   0.000007   0.000000
     8  C    0.000000   0.000003   0.000000   0.000000   0.000000   0.000000
     9  H    0.000000   0.000000   0.000000   0.000000   0.000000   0.000000
    10  C    0.000000   0.000000   0.000000   0.000000   0.000000   0.000000
    11  H    0.000000  -0.000007  -0.000001   0.000000   0.000000   0.000000
    12  H    0.000000   0.000000   0.000000   0.000000   0.000000   0.000000
    13  H    0.000000   0.000000   0.000000   0.000000   0.000000   0.000000
    14  C   -0.067613  -0.042551  -0.016419   0.006681   0.006125  -0.001542
    15  C   -0.031794   0.004177  -0.087619  -0.039640  -0.000379   0.007437
    16  C    0.468999   0.392268  -0.093823  -0.000533  -0.037815   0.007825
    17  C   -0.075846  -0.000226   0.490332   0.397077   0.005933  -0.042940
    18  H   -0.000423  -0.000239   0.005357  -0.004230   0.000022  -0.000179
    19  C    5.051869  -0.029806   0.496707   0.006117   0.396182  -0.042473
    20  H   -0.029806   0.474195   0.004623   0.000018  -0.003310  -0.000174
    21  C    0.496707   0.004623   5.033050  -0.040641  -0.040232   0.399537
    22  H    0.006117   0.000018  -0.040641   0.517969  -0.000211  -0.004496
    23  H    0.396182  -0.003310  -0.040232  -0.000211   0.515681  -0.004404
    24  H   -0.042473  -0.000174   0.399537  -0.004496  -0.004404   0.517949
    25  C    0.000100  -0.001972   0.000097   0.000011   0.000029  -0.000001
    26  C   -0.000167  -0.000873  -0.000009   0.000001   0.000007   0.000000
    27  C   -0.000018   0.001437  -0.000018   0.000000   0.000019   0.000000
    28  C   -0.000009  -0.000190   0.000000   0.000000   0.000001   0.000000
    29  H    0.000007  -0.000038  -0.000009   0.000000   0.000000   0.000000
    30  C   -0.000022   0.000921   0.000000   0.000000   0.000000   0.000000
    31  H    0.000043   0.000217   0.000000   0.000000  -0.000007   0.000000
    32  C    0.000005   0.000002   0.000000   0.000000  -0.000001   0.000000
    33  H    0.000000   0.000003   0.000000   0.000000   0.000000   0.000000
    34  H    0.000001   0.000007   0.000000   0.000000   0.000000   0.000000
    35  H    0.000000   0.000000   0.000000   0.000000   0.000000   0.000000
             25         26         27         28         29         30
     1  C    0.145298  -0.054775  -0.041026   0.007235   0.000495   0.004233
     2  H   -0.072023  -0.001096   0.005308   0.001483   0.001470  -0.000241
     3  C   -0.097299   0.005716  -0.018617  -0.000777   0.000485   0.000100
     4  C   -0.008186  -0.000166  -0.005111   0.000027  -0.000031  -0.000018
     5  C   -0.001110   0.000841   0.000246  -0.000034   0.000044  -0.000167
     6  C    0.000682   0.000022  -0.001071   0.000000   0.000000  -0.000022
     7  H   -0.000795  -0.000017   0.000740   0.000003   0.000000   0.000043
     8  C   -0.000632   0.000003   0.000382   0.000002   0.000001  -0.000009
     9  H    0.000949   0.000232   0.000222  -0.000005  -0.000001   0.000007
    10  C    0.000038  -0.000001   0.000069   0.000000   0.000000   0.000005
    11  H   -0.000003   0.000000   0.000016   0.000000   0.000000   0.000001
    12  H    0.000024   0.000000   0.000003   0.000000   0.000000   0.000000
    13  H    0.000000   0.000000  -0.000001   0.000000   0.000000   0.000000
    14  C   -0.097299  -0.001110  -0.008186  -0.000632   0.000949   0.000682
    15  C    0.005716   0.000841  -0.000166   0.000003   0.000232   0.000022
    16  C   -0.018617   0.000246  -0.005111   0.000382   0.000222  -0.001071
    17  C   -0.000777  -0.000034   0.000027   0.000002  -0.000005   0.000000
    18  H    0.000485   0.000044  -0.000031   0.000001  -0.000001   0.000000
    19  C    0.000100  -0.000167  -0.000018  -0.000009   0.000007  -0.000022
    20  H   -0.001972  -0.000873   0.001437  -0.000190  -0.000038   0.000921
    21  C    0.000097  -0.000009  -0.000018   0.000000  -0.000009   0.000000
    22  H    0.000011   0.000001   0.000000   0.000000   0.000000   0.000000
    23  H    0.000029   0.000007   0.000019   0.000001   0.000000   0.000000
    24  H   -0.000001   0.000000   0.000000   0.000000   0.000000   0.000000
    25  C    5.358215   0.484070   0.479733  -0.065750  -0.048776  -0.067613
    26  C    0.484070   5.058595  -0.068565   0.463572   0.399240  -0.031794
    27  C    0.479733  -0.068565   5.114403  -0.029449   0.004434   0.468999
    28  C   -0.065750   0.463572  -0.029449   5.055091  -0.036077  -0.075846
    29  H   -0.048776   0.399240   0.004434  -0.036077   0.507671  -0.000423
    30  C   -0.067613  -0.031794   0.468999  -0.075846  -0.000423   5.051869
    31  H   -0.042551   0.004177   0.392268  -0.000226  -0.000239  -0.029806
    32  C   -0.016419  -0.087619  -0.093823   0.490332   0.005357   0.496707
    33  H    0.006681  -0.039640  -0.000533   0.397077  -0.004230   0.006117
    34  H    0.006125  -0.000379  -0.037815   0.005933   0.000022   0.396182
    35  H   -0.001542   0.007437   0.007825  -0.042940  -0.000179  -0.042473
             31         32         33         34         35
     1  C   -0.000825   0.001168  -0.000372  -0.000337  -0.000017
     2  H   -0.000120  -0.000011  -0.000026   0.000014  -0.000001
     3  C   -0.001972   0.000097   0.000011   0.000029  -0.000001
     4  C    0.001437  -0.000018   0.000000   0.000019   0.000000
     5  C   -0.000873  -0.000009   0.000001   0.000007   0.000000
     6  C    0.000921   0.000000   0.000000   0.000000   0.000000
     7  H    0.000217   0.000000   0.000000  -0.000007   0.000000
     8  C   -0.000190   0.000000   0.000000   0.000001   0.000000
     9  H   -0.000038  -0.000009   0.000000   0.000000   0.000000
    10  C    0.000002   0.000000   0.000000  -0.000001   0.000000
    11  H    0.000007   0.000000   0.000000   0.000000   0.000000
    12  H    0.000003   0.000000   0.000000   0.000000   0.000000
    13  H    0.000000   0.000000   0.000000   0.000000   0.000000
    14  C   -0.000795   0.000038   0.000024  -0.000003   0.000000
    15  C   -0.000017  -0.000001   0.000000   0.000000   0.000000
    16  C    0.000740   0.000069   0.000003   0.000016  -0.000001
    17  C    0.000003   0.000000   0.000000   0.000000   0.000000
    18  H    0.000000   0.000000   0.000000   0.000000   0.000000
    19  C    0.000043   0.000005   0.000000   0.000001   0.000000
    20  H    0.000217   0.000002   0.000003   0.000007   0.000000
    21  C    0.000000   0.000000   0.000000   0.000000   0.000000
    22  H    0.000000   0.000000   0.000000   0.000000   0.000000
    23  H   -0.000007  -0.000001   0.000000   0.000000   0.000000
    24  H    0.000000   0.000000   0.000000   0.000000   0.000000
    25  C   -0.042551  -0.016419   0.006681   0.006125  -0.001542
    26  C    0.004177  -0.087619  -0.039640  -0.000379   0.007437
    27  C    0.392268  -0.093823  -0.000533  -0.037815   0.007825
    28  C   -0.000226   0.490332   0.397077   0.005933  -0.042940
    29  H   -0.000239   0.005357  -0.004230   0.000022  -0.000179
    30  C   -0.029806   0.496707   0.006117   0.396182  -0.042473
    31  H    0.474195   0.004623   0.000018  -0.003310  -0.000174
    32  C    0.004623   5.033050  -0.040641  -0.040232   0.399537
    33  H    0.000018  -0.040641   0.517969  -0.000211  -0.004496
    34  H   -0.003310  -0.040232  -0.000211   0.515681  -0.004404
    35  H   -0.000174   0.399537  -0.004496  -0.004404   0.517949
 Mulliken atomic charges:
              1
     1  C   -0.526879
     2  H    0.196982
     3  C    0.053112
     4  C   -0.166590
     5  C   -0.138797
     6  C   -0.176385
     7  H    0.202274
     8  C   -0.169210
     9  H    0.169381
    10  C   -0.152204
    11  H    0.162662
    12  H    0.162245
    13  H    0.163478
    14  C    0.053112
    15  C   -0.138797
    16  C   -0.166590
    17  C   -0.169210
    18  H    0.169381
    19  C   -0.176385
    20  H    0.202274
    21  C   -0.152204
    22  H    0.162245
    23  H    0.162662
    24  H    0.163478
    25  C    0.053112
    26  C   -0.138797
    27  C   -0.166590
    28  C   -0.169210
    29  H    0.169381
    30  C   -0.176385
    31  H    0.202274
    32  C   -0.152204
    33  H    0.162245
    34  H    0.162662
    35  H    0.163478
 Sum of Mulliken atomic charges =   0.00000
 Mulliken charges with hydrogens summed into heavy atoms:
              1
     1  C   -0.329897
     3  C    0.053112
     4  C    0.035684
     5  C    0.030584
     6  C   -0.013723
     8  C   -0.006965
    10  C    0.011274
    14  C    0.053112
    15  C    0.030584
    16  C    0.035684
    17  C   -0.006965
    19  C   -0.013723
    21  C    0.011274
    25  C    0.053112
    26  C    0.030584
    27  C    0.035684
    28  C   -0.006965
    30  C   -0.013723
    32  C    0.011274
 Sum of Mulliken charges with hydrogens summed into heavy atoms =   0.00000
 Electronic spatial extent (au):  <R**2>=           4915.9432
 Charge=              0.0000 electrons
 Dipole moment (field-independent basis, Debye):
    X=              0.0000    Y=              0.0000    Z=              0.0246  Tot=              0.0246
 Quadrupole moment (field-independent basis, Debye-Ang):
   XX=           -111.4792   YY=           -111.4792   ZZ=           -104.6969
   XY=              0.0000   XZ=              0.0000   YZ=              0.0000
 Traceless Quadrupole moment (field-independent basis, Debye-Ang):
   XX=             -2.2608   YY=             -2.2608   ZZ=              4.5216
   XY=              0.0000   XZ=              0.0000   YZ=              0.0000
 Octapole moment (field-independent basis, Debye-Ang**2):
  XXX=             13.7715  YYY=             39.5016  ZZZ=              0.7857  XYY=            -13.7715
  XXY=            -39.5016  XXZ=             -3.6048  XZZ=              0.0000  YZZ=              0.0000
  YYZ=             -3.6048  XYZ=              0.0000
 Hexadecapole moment (field-independent basis, Debye-Ang**3):
 XXXX=          -2984.5801 YYYY=          -2984.5801 ZZZZ=           -746.5074 XXXY=              0.0000
 XXXZ=             76.0213 YYYX=              0.0000 YYYZ=            -17.5202 ZZZX=              0.0000
 ZZZY=              0.0000 XXYY=           -994.8600 XXZZ=           -612.5369 YYZZ=           -612.5369
 XXYZ=             17.5202 YYXZ=            -76.0213 ZZXY=              0.0000
 N-N= 1.290533428962D+03 E-N=-4.277169402573D+03  KE= 7.285977586818D+02
 PrsmSu:  requested number of processors reduced to:  10 ShMem   1 Linda.
 Calling FoFJK, ICntrl=      2127 FMM=F ISym2X=1 I1Cent= 0 IOpClX= 0 NMat=1 NMatS=1 NMatT=0.
 ***** Axes restored to original set *****
 -------------------------------------------------------------------
 Center     Atomic                   Forces (Hartrees/Bohr)
 Number     Number              X              Y              Z
 -------------------------------------------------------------------
      1        6           0.000000000    0.000000000   -0.022524421
      2        1           0.000000000    0.000000000    0.025908369
      3        6          -0.012164786    0.005729865   -0.003181006
      4        6           0.002059257   -0.008110319    0.006162258
      5        6           0.001952290    0.002206469   -0.005414188
      6        6          -0.005131744   -0.001330265    0.011166264
      7        1          -0.009958054    0.014964297   -0.012007132
      8        6          -0.004338308    0.009640212   -0.007726533
      9        1          -0.007272775   -0.003740847    0.015283329
     10        6          -0.010852225    0.007334107    0.003740923
     11        1           0.007371977    0.003048061   -0.014645990
     12        1           0.005658063   -0.011942675    0.010110109
     13        1           0.013285188   -0.009100896   -0.004616018
     14        6           0.001120184   -0.013399946   -0.003181006
     15        6          -0.002887003    0.000587498   -0.005414188
     16        6           0.005994114    0.005838528    0.006162258
     17        6          -0.006179515   -0.008577191   -0.007726533
     18        1           0.006876056   -0.004427985    0.015283329
     19        6           0.003717916   -0.003779088    0.011166264
     20        1          -0.007980435   -0.016106076   -0.012007132
     21        6          -0.000925410   -0.013065356    0.003740923
     22        1           0.007513628    0.010871364    0.010110109
     23        1          -0.006325687    0.004860288   -0.014645990
     24        1           0.001239013    0.016055758   -0.004616018
     25        6           0.011044602    0.007670081   -0.003181006
     26        6           0.000934713   -0.002793967   -0.005414188
     27        6          -0.008053371    0.002271791    0.006162258
     28        6           0.010517823   -0.001063021   -0.007726533
     29        1           0.000396719    0.008168831    0.015283329
     30        6           0.001413829    0.005109354    0.011166264
     31        1           0.017938488    0.001141779   -0.012007132
     32        6           0.011777635    0.005731249    0.003740923
     33        1          -0.013171692    0.001071311    0.010110109
     34        1          -0.001046290   -0.007908350   -0.014645990
     35        1          -0.014524201   -0.006954862   -0.004616018
 -------------------------------------------------------------------
 Cartesian Forces:  Max     0.025908369 RMS     0.009012592

 GradGradGradGradGradGradGradGradGradGradGradGradGradGradGradGradGradGrad
 Berny optimization.
 Internal  Forces:  Max     0.025908369 RMS     0.006583858
 Search for a local minimum.
 Step number   1 out of a maximum of  197
 All quantities printed in internal units (Hartrees-Bohrs-Radians)
 Mixed Optimization -- RFO/linear search
 Second derivative matrix not updated -- first step.
     Eigenvalues ---    0.00652   0.00652   0.00652   0.01538   0.01538
     Eigenvalues ---    0.01538   0.02143   0.02143   0.02143   0.02171
     Eigenvalues ---    0.02171   0.02171   0.02182   0.02182   0.02182
     Eigenvalues ---    0.02201   0.02201   0.02201   0.02213   0.02213
     Eigenvalues ---    0.02213   0.02215   0.02215   0.02215   0.02216
     Eigenvalues ---    0.02216   0.02216   0.02218   0.02218   0.02218
     Eigenvalues ---    0.04661   0.06497   0.06497   0.15999   0.15999
     Eigenvalues ---    0.15999   0.16000   0.16000   0.16000   0.16000
     Eigenvalues ---    0.16000   0.16000   0.16000   0.16000   0.16000
     Eigenvalues ---    0.16000   0.16000   0.16000   0.19003   0.19003
     Eigenvalues ---    0.22000   0.22000   0.22000   0.22000   0.22000
     Eigenvalues ---    0.22000   0.23478   0.23478   0.23478   0.25000
     Eigenvalues ---    0.25000   0.25000   0.31292   0.31493   0.31493
     Eigenvalues ---    0.31493   0.33904   0.33904   0.33904   0.34107
     Eigenvalues ---    0.34107   0.34107   0.34260   0.34260   0.34260
     Eigenvalues ---    0.34262   0.34262   0.34262   0.34283   0.34283
     Eigenvalues ---    0.34283   0.42456   0.42456   0.42456   0.42579
     Eigenvalues ---    0.42579   0.42579   0.46395   0.46395   0.46395
     Eigenvalues ---    0.46772   0.46772   0.46772   0.47230   0.47230
     Eigenvalues ---    0.47230   0.47314   0.47314   0.473141000.00000
     Eigenvalues --- 1000.000001000.000001000.000001000.000001000.00000
     Eigenvalues --- 1000.000001000.000001000.000001000.000001000.00000
     Eigenvalues --- 1000.000001000.000001000.000001000.000001000.00000
     Eigenvalues --- 1000.000001000.000001000.000001000.000001000.00000
     Eigenvalues --- 1000.000001000.000001000.000001000.000001000.00000
     Eigenvalues --- 1000.000001000.000001000.000001000.000001000.00000
     Eigenvalues --- 1000.000001000.000001000.000001000.000001000.00000
     Eigenvalues --- 1000.000001000.000001000.000001000.000001000.00000
     Eigenvalues --- 1000.000001000.000001000.000001000.000001000.00000
     Eigenvalues --- 1000.000001000.000001000.000001000.000001000.00000
     Eigenvalues --- 1000.000001000.000001000.000001000.000001000.00000
     Eigenvalues --- 1000.000001000.000001000.000001000.000001000.00000
     Eigenvalues --- 1000.000001000.000001000.000001000.000001000.00000
     Eigenvalues --- 1000.000001000.000001000.000001000.000001000.00000
     Eigenvalues --- 1000.000001000.000001000.000001000.000001000.00000
     Eigenvalues --- 1000.000001000.000001000.000001000.000001000.00000
     Eigenvalues --- 1000.000001000.000001000.000001000.000001000.00000
     Eigenvalues --- 1000.000001000.00000
 RFO step:  Lambda=-2.72851938D-02 EMin= 6.52323121D-03
 Linear search not attempted -- first point.
 Maximum step size (   0.300) exceeded in Quadratic search.
    -- Step size scaled by   0.780
 Iteration  1 RMS(Cart)=  0.10479304 RMS(Int)=  0.00169608
 Iteration  2 RMS(Cart)=  0.00454777 RMS(Int)=  0.00032250
 Iteration  3 RMS(Cart)=  0.00000486 RMS(Int)=  0.00032249
 Iteration  4 RMS(Cart)=  0.00000000 RMS(Int)=  0.00032249
 ClnCor:  largest displacement from symmetrization is 1.15D-10 for atom    34.
 Variable       Old X    -DE/DX   Delta X   Delta X   Delta X     New X
                                 (Linear)    (Quad)   (Total)
    R1        2.12158  -0.02591   0.00000  -0.05942  -0.05942   2.06216
    R2        2.85082   0.01976   0.00000   0.04505   0.04505   2.89587
    R3        2.85082   0.01976   0.00000   0.04505   0.04505   2.89587
    R4        2.85082   0.01976   0.00000   0.04505   0.04505   2.89587
    R5        2.63729  -0.00238   0.00000  -0.00373  -0.00372   2.63357
    R6        2.64108  -0.00446   0.00000  -0.00717  -0.00716   2.63392
    R7        2.62756  -0.00295   0.00000  -0.00450  -0.00451   2.62305
    R8        2.07492  -0.02145   0.00000  -0.04569  -0.04569   2.02923
    R9        2.62624  -0.00365   0.00000  -0.00578  -0.00577   2.62047
   R10        2.07150  -0.01732   0.00000  -0.03669  -0.03669   2.03481
   R11        2.62719  -0.00585   0.00000  -0.00908  -0.00910   2.61809
   R12        2.06890  -0.01668   0.00000  -0.03518  -0.03518   2.03372
   R13        2.62840  -0.00626   0.00000  -0.00985  -0.00986   2.61855
   R14        2.06893  -0.01664   0.00000  -0.03510  -0.03510   2.03383
   R15        2.06856  -0.01675   0.00000  -0.03532  -0.03532   2.03324
   R16        2.64108  -0.00446   0.00000  -0.00717  -0.00716   2.63392
   R17        2.63729  -0.00238   0.00000  -0.00373  -0.00372   2.63357
   R18        2.62624  -0.00365   0.00000  -0.00578  -0.00577   2.62047
   R19        2.07150  -0.01732   0.00000  -0.03669  -0.03669   2.03481
   R20        2.62756  -0.00295   0.00000  -0.00450  -0.00451   2.62305
   R21        2.07492  -0.02145   0.00000  -0.04569  -0.04569   2.02923
   R22        2.62840  -0.00626   0.00000  -0.00985  -0.00986   2.61855
   R23        2.06893  -0.01664   0.00000  -0.03510  -0.03510   2.03383
   R24        2.62719  -0.00585   0.00000  -0.00908  -0.00910   2.61809
   R25        2.06890  -0.01668   0.00000  -0.03518  -0.03518   2.03372
   R26        2.06856  -0.01675   0.00000  -0.03532  -0.03532   2.03324
   R27        2.64108  -0.00446   0.00000  -0.00717  -0.00716   2.63392
   R28        2.63729  -0.00238   0.00000  -0.00373  -0.00372   2.63357
   R29        2.62624  -0.00365   0.00000  -0.00578  -0.00577   2.62047
   R30        2.07150  -0.01732   0.00000  -0.03669  -0.03669   2.03481
   R31        2.62756  -0.00295   0.00000  -0.00450  -0.00451   2.62305
   R32        2.07492  -0.02145   0.00000  -0.04569  -0.04569   2.02923
   R33        2.62840  -0.00626   0.00000  -0.00985  -0.00986   2.61855
   R34        2.06893  -0.01664   0.00000  -0.03510  -0.03510   2.03383
   R35        2.62719  -0.00585   0.00000  -0.00908  -0.00910   2.61809
   R36        2.06890  -0.01668   0.00000  -0.03518  -0.03518   2.03372
   R37        2.06856  -0.01675   0.00000  -0.03532  -0.03532   2.03324
    A1        1.86708  -0.00351   0.00000  -0.03707  -0.03634   1.83073
    A2        1.86708  -0.00351   0.00000  -0.03707  -0.03634   1.83073
    A3        1.86708  -0.00351   0.00000  -0.03707  -0.03634   1.83073
    A4        1.95210   0.00317   0.00000   0.03346   0.03120   1.98331
    A5        1.95210   0.00317   0.00000   0.03346   0.03120   1.98331
    A6        1.95210   0.00317   0.00000   0.03346   0.03120   1.98331
    A7        2.12855   0.01009   0.00000   0.02858   0.02857   2.15712
    A8        2.07447  -0.00233   0.00000  -0.00638  -0.00638   2.06809
    A9        2.08016  -0.00776   0.00000  -0.02220  -0.02218   2.05798
   A10        2.10060   0.00332   0.00000   0.01036   0.01035   2.11095
   A11        2.08621   0.00073   0.00000   0.00479   0.00479   2.09099
   A12        2.09633  -0.00406   0.00000  -0.01518  -0.01518   2.08115
   A13        2.10014   0.00549   0.00000   0.01660   0.01661   2.11675
   A14        2.09416  -0.00349   0.00000  -0.01139  -0.01139   2.08276
   A15        2.08888  -0.00201   0.00000  -0.00522  -0.00523   2.08365
   A16        2.09754   0.00128   0.00000   0.00387   0.00385   2.10138
   A17        2.09048  -0.00054   0.00000  -0.00153  -0.00152   2.08895
   A18        2.09517  -0.00074   0.00000  -0.00235  -0.00234   2.09283
   A19        2.09746  -0.00004   0.00000  -0.00090  -0.00091   2.09655
   A20        2.09157   0.00014   0.00000   0.00093   0.00093   2.09250
   A21        2.09416  -0.00009   0.00000  -0.00003  -0.00002   2.09413
   A22        2.09047  -0.00229   0.00000  -0.00772  -0.00775   2.08272
   A23        2.09659   0.00116   0.00000   0.00392   0.00393   2.10053
   A24        2.09612   0.00113   0.00000   0.00379   0.00380   2.09992
   A25        2.07447  -0.00233   0.00000  -0.00638  -0.00638   2.06809
   A26        2.12855   0.01009   0.00000   0.02858   0.02857   2.15712
   A27        2.08016  -0.00776   0.00000  -0.02220  -0.02218   2.05798
   A28        2.10014   0.00549   0.00000   0.01660   0.01661   2.11675
   A29        2.09416  -0.00349   0.00000  -0.01139  -0.01139   2.08276
   A30        2.08888  -0.00201   0.00000  -0.00522  -0.00523   2.08365
   A31        2.10060   0.00332   0.00000   0.01036   0.01035   2.11095
   A32        2.08621   0.00073   0.00000   0.00479   0.00479   2.09099
   A33        2.09633  -0.00406   0.00000  -0.01518  -0.01518   2.08115
   A34        2.09746  -0.00004   0.00000  -0.00090  -0.00091   2.09655
   A35        2.09157   0.00014   0.00000   0.00093   0.00093   2.09250
   A36        2.09416  -0.00009   0.00000  -0.00003  -0.00002   2.09413
   A37        2.09754   0.00128   0.00000   0.00387   0.00385   2.10138
   A38        2.09048  -0.00054   0.00000  -0.00153  -0.00152   2.08895
   A39        2.09517  -0.00074   0.00000  -0.00235  -0.00234   2.09283
   A40        2.09047  -0.00229   0.00000  -0.00772  -0.00775   2.08272
   A41        2.09612   0.00113   0.00000   0.00379   0.00380   2.09992
   A42        2.09659   0.00116   0.00000   0.00392   0.00393   2.10053
   A43        2.07447  -0.00233   0.00000  -0.00638  -0.00638   2.06809
   A44        2.12855   0.01009   0.00000   0.02858   0.02857   2.15712
   A45        2.08016  -0.00776   0.00000  -0.02220  -0.02218   2.05798
   A46        2.10014   0.00549   0.00000   0.01660   0.01661   2.11675
   A47        2.09416  -0.00349   0.00000  -0.01139  -0.01139   2.08276
   A48        2.08888  -0.00201   0.00000  -0.00522  -0.00523   2.08365
   A49        2.10060   0.00332   0.00000   0.01036   0.01035   2.11095
   A50        2.08621   0.00073   0.00000   0.00479   0.00479   2.09099
   A51        2.09633  -0.00406   0.00000  -0.01518  -0.01518   2.08115
   A52        2.09746  -0.00004   0.00000  -0.00090  -0.00091   2.09655
   A53        2.09157   0.00014   0.00000   0.00093   0.00093   2.09250
   A54        2.09416  -0.00009   0.00000  -0.00003  -0.00002   2.09413
   A55        2.09754   0.00128   0.00000   0.00387   0.00385   2.10138
[...]
 057134,0.00008491,-0.00000655,-0.00023495,0.00104622,0.00010683,0.0004
 3403,0.00015227,0.00000713,0.00023252,-0.00017485,0.00025908,-0.000075
 22,-0.00018096,0.00018391,0.00008995,-0.00007250,-0.00010926,-0.000006
 67,0.00009003,-0.00004736,-0.00014622,-0.00003718,-0.00001005,0.000004
 75,-0.00007522,-0.00010606,0.00010790,0.00000536,0.00000533,-0.0000199
 5,0.00001737,-0.00001255,0.00003089,0.00003436,-0.00001744,0.00000113,
 -0.00061001,-0.00024057,-0.00081199,-0.00003623,-0.00037643,0.00013871
 ,-0.00024614,-0.00006859,-0.00019945,-0.00001633,0.00002652,-0.0000655
 0,0.00003258,0.00000188,0.00004893,0.00005273,-0.00002164,0.00008995,0
 .00004584,-0.00009216,0.00008478,0.00003563,0.00004058,0.00003973,0.00
 000505,-0.00000875,0.00001417,-0.00000102,-0.00002195,-0.00000134,0.00
 001112,0.00002154,0.00000949,-0.03729033,-0.01258548,0.00682635,0.0179
 6343,0.00431020,-0.00732579,-0.06755697,-0.06646939,-0.14795855,0.0191
 1113,-0.02685646,-0.03408935,0.00005088,0.00093341,0.00029801,-0.07377
 551,0.30435562,0.61510343,-0.00058913,0.00094213,-0.00054513,-0.000018
 30,0.00011934,0.00005583,-0.00146686,-0.00127058,-0.00199504,-0.000994
 08,-0.00052354,-0.00060068,-0.00013608,-0.00049208,-0.00017638,-0.0001
 0981,-0.00012692,0.00005689,0.00009072,0.00009511,0.00002075,0.0000348
 4,0.00002011,-0.00001153,0.00005046,0.00003073,0.00009148,-0.00000933,
 0.00013871,0.00001855,0.00002891,0.00001326,-0.00000581,0.00000574,-0.
 00001431,0.00001850,0.00002649,-0.00000468,0.00000734,0.00025947,-0.00
 006073,0.00023130,0.00000466,0.00010647,-0.00007123,0.00024479,0.00011
 053,0.00008307,-0.00000562,-0.00000489,0.00000410,-0.00001090,-0.00000
 867,-0.00001101,-0.00003207,-0.00002853,-0.00005837,-0.00017653,0.0000
 5919,0.00000901,-0.00000408,0.00000623,0.00000234,-0.00000322,0.000008
 95,-0.00000209,-0.00000457,0.00002107,-0.00000462,-0.00000751,-0.00000
 419,-0.00000347,0.00624090,-0.00193174,-0.00301708,0.00147701,-0.00196
 842,-0.00040507,-0.27138431,0.04432333,0.13927322,0.00024391,-0.000401
 78,-0.00096361,0.00021035,-0.00011923,-0.00018891,-0.01828119,0.008251
 82,0.01987272,0.28762759,0.00124427,-0.00237132,0.00268477,0.00041874,
 0.00043557,0.00026556,-0.00057885,-0.00002460,-0.00017727,-0.00003374,
 0.00007945,-0.00006344,-0.00031022,0.00030613,-0.00014688,-0.00031313,
 0.00037575,0.00008578,-0.00020402,-0.00032849,-0.00000437,0.00031073,-
 0.00029740,-0.00019737,0.00001482,0.00000643,0.00014309,-0.00002324,-0
 .00031103,0.00023881,0.00000181,0.00000889,-0.00000806,0.00004371,-0.0
 0001968,0.00003385,0.00003868,-0.00001965,0.00002339,-0.00062108,-0.00
 020541,-0.00047012,-0.00001530,-0.00021028,0.00012278,-0.00032641,-0.0
 0006988,-0.00016067,-0.00000050,0.00002956,-0.00006085,0.00001043,0.00
 000279,0.00001391,0.00003759,-0.00001334,0.00011741,0.00035831,-0.0000
 6124,-0.00002820,0.00002872,0.00000869,0.00002181,0.00001358,-0.000007
 07,0.00000827,0.00000172,-0.00001190,-0.00000936,0.00001291,0.00002199
 ,0.00000383,0.01970075,0.00193001,-0.01177377,-0.00238219,0.00272786,-
 0.00682970,0.04439180,-0.07006132,-0.04338371,-0.00028310,-0.00096882,
 0.00014417,0.00090615,-0.00021229,-0.00057984,-0.01514597,0.00804605,0
 .00901167,-0.04420956,0.06033558,0.00037814,0.00235760,-0.00116849,-0.
 00020209,-0.00009586,0.00005924,-0.00020648,-0.00048972,-0.00002263,-0
 .00007544,0.00008496,0.00063096,-0.00004715,0.00070306,-0.00016869,-0.
 00023376,0.00011281,0.00008478,0.00001991,0.00002190,-0.00004281,-0.00
 003649,0.00018620,-0.00010845,-0.00000695,-0.00008982,-0.00006017,-0.0
 0000359,-0.00021516,0.00006636,0.00006192,0.00001937,-0.00003664,0.000
 00329,-0.00003757,-0.00000064,0.00004051,-0.00001846,-0.00000777,0.000
 24975,0.00011747,0.00032588,-0.00001279,0.00009689,-0.00005980,0.00005
 107,0.00004549,0.00009838,-0.00001941,0.00000435,0.00000220,0.00001115
 ,-0.00000858,-0.00003722,-0.00004945,-0.00003085,-0.00000667,-0.000014
 16,-0.00001578,-0.00004281,0.00001426,0.00001394,0.00000274,-0.0000000
 6,0.00000679,-0.00000326,-0.00000080,0.00001547,-0.00001107,0.00000227
 ,-0.00000242,-0.00000887,0.02514550,-0.00441794,-0.00936012,-0.0001693
 8,-0.00715885,-0.00088937,0.13732295,-0.04273029,-0.15563843,-0.001086
 78,0.00002868,-0.00057563,0.00116060,-0.00012259,-0.00074807,-0.010649
 72,0.00050446,0.00992487,-0.14963512,0.05199617,0.15560316,0.00081916,
 0.00074064,0.00027639,-0.00025077,0.00002083,-0.00045491,0.00009579,-0
 .00041083,0.00014175,0.00011644,-0.00005233,-0.00023957,-0.00031322,0.
 00004072,0.00001923,-0.00010569,0.00017664,-0.00005296,0.00002064,0.00
 000804,-0.00001921,0.00022212,-0.00009295,-0.00012301,0.00001972,-0.00
 001526,0.00004031,-0.00009061,-0.00007324,0.00022444,-0.00002595,0.000
 00442,0.00002069,-0.00003018,0.00001934,-0.00002479,-0.00002439,0.0000
 0780,0.00000216,0.00019060,0.00031646,-0.00029098,0.00007132,-0.000381
 36,0.00008418,0.00005928,-0.00014696,-0.00015350,-0.00007872,0.0001095
 0,-0.00013232,0.00000646,0.00002633,0.00000339,-0.00010799,-0.00020221
 ,-0.00005424,-0.00028560,0.00002080,-0.00018454,0.00009449,-0.00003363
 ,0.00014575,-0.00002113,-0.00002775,0.00001720,0.00000334,-0.00005764,
 0.00002961,-0.00000156,-0.00001858,0.00000025,-0.02286268,0.02374821,0
 .03786070,0.04485728,-0.01835346,-0.03678599,-0.06605323,-0.02904090,-
 0.01129374,-0.15963695,-0.04662989,-0.03394574,-0.00482988,-0.00415960
 ,-0.00047831,-0.29923259,0.04098520,0.13739740,-0.00316665,-0.00421158
 ,-0.00117282,0.79454111,0.00014632,-0.00186856,-0.00023456,-0.00009367
 ,-0.00005666,0.00063709,-0.00004991,0.00010867,-0.00033115,-0.00015323
 ,0.00013013,0.00005735,0.00017899,-0.00005636,0.00009550,0.00010506,-0
 .00013416,0.00001057,-0.00001445,-0.00001602,0.00000538,-0.00013507,0.
 00007398,0.00014284,0.00001936,-0.00005943,-0.00003173,0.00000362,0.00
 011599,-0.00012311,-0.00001277,-0.00000206,-0.00000097,-0.00002627,0.0
 0000885,-0.00000615,-0.00000577,-0.00000069,-0.00000087,-0.00106118,0.
 00029988,0.00005616,-0.00003926,0.00005083,0.00020882,-0.00013960,-0.0
 0011338,-0.00005562,0.00010253,-0.00013803,0.00005238,-0.00000772,0.00
 002217,0.00000721,0.00013823,0.00021082,0.00011817,0.00018275,-0.00003
 476,0.00011069,-0.00011048,-0.00006911,-0.00013195,0.00001635,-0.00003
 186,-0.00001436,-0.00000971,-0.00000946,0.00002037,0.00000846,0.000001
 04,0.00000930,0.02423799,-0.02613811,-0.03567575,-0.05860541,-0.015104
 66,-0.01292649,0.01154571,0.03952366,0.03617022,0.00512961,-0.18631571
 ,-0.14126259,-0.00381447,0.00513743,-0.00389922,-0.01136881,-0.1208013
 7,-0.04515560,-0.00426070,0.00409782,-0.00462140,0.13790937,0.41012338
 ,-0.00054910,-0.00168218,-0.00115343,-0.00031792,-0.00020428,0.0009681
 8,-0.00016481,0.00021093,-0.00051962,-0.00032822,0.00022446,0.00023180
 ,0.00040487,-0.00000346,0.00010568,0.00020087,-0.00027864,0.00003973,-
 0.00002005,-0.00000888,0.00000274,-0.00029554,0.00017098,0.00024532,-0
 .00001577,-0.00004460,-0.00008394,0.00004139,0.00019219,-0.00027670,-0
 .00000660,-0.00000397,-0.00000760,-0.00000475,-0.00000501,0.00000988,0
 .00000670,-0.00000291,-0.00000719,-0.00114882,0.00029660,0.00037604,-0
 .00006068,0.00037463,0.00028443,-0.00034969,-0.00024083,0.00007312,0.0
 0019067,-0.00027641,0.00018608,-0.00000316,0.00001078,0.00000558,0.000
 18453,0.00043008,0.00010790,0.00019754,-0.00013547,0.00006636,-0.00021
 884,-0.00013281,-0.00027670,0.00003185,-0.00002731,-0.00002640,-0.0000
 2137,-0.00002099,0.00004701,0.00000730,-0.00000317,0.00000410,0.039299
 42,-0.03443712,-0.07029817,-0.09298371,-0.02706455,0.00650345,0.044367
 45,0.05102045,0.06269490,0.03651589,-0.12112700,-0.26232445,0.00017859
 ,-0.00364884,0.00405982,0.06733537,-0.06548929,-0.19712896,-0.00158387
 ,-0.00479625,0.00329743,-0.05046425,0.26569657,0.55410717,-0.00070192,
 0.00065453,0.00100995,0.00000973,0.00000568,-0.00006026,-0.00014114,-0
 .00037570,-0.00019261,-0.00008375,0.00009054,-0.00000814,-0.00007323,0
 .00001906,0.00005254,0.00002453,0.00001759,0.00000505,0.00000365,-0.00
 000498,-0.00000585,0.00001754,-0.00001014,0.00002323,0.00001253,-0.000
 01584,0.00000151,-0.00003412,0.00002025,0.00000772,-0.00001670,0.00000
 343,0.00001495,-0.00001411,0.00002144,-0.00000521,-0.00001449,0.000007
 32,0.00000267,-0.00010400,0.00019082,-0.00009550,0.00002374,-0.0001159
 8,0.00003034,0.00003310,-0.00005852,0.00003673,0.00000285,-0.00001745,
 -0.00001984,-0.00000622,0.00001867,0.00000941,-0.00000743,-0.00000276,
 -0.00001956,-0.00002606,0.00003267,-0.00003418,0.00000209,-0.00003797,
 -0.00000196,-0.00001588,-0.00002042,0.00000023,-0.00000130,-0.00001253
 ,0.00002156,-0.00000742,-0.00001669,0.00000553,-0.00296796,-0.00460982
 ,-0.00149669,-0.01861738,0.00840261,0.02081529,0.00020979,-0.00046519,
 -0.00106884,-0.26990295,0.03855581,0.13781010,0.00093633,0.00075068,-0
 .00135629,0.00183778,-0.00192235,0.00003089,-0.00011242,0.00028294,-0.
 00006567,0.00656383,-0.00322720,-0.00478861,0.28223921,-0.00046860,0.0
 0017954,0.00044851,0.00007589,0.00005741,0.00002139,-0.00018242,-0.000
 21029,0.00000438,0.00000594,0.00000948,-0.00000047,-0.00003048,0.00004
 134,-0.00003465,-0.00002038,0.00004371,0.00000875,-0.00000962,-0.00001
 394,-0.00000345,0.00004554,-0.00001100,-0.00001282,-0.00000020,0.00000
 146,-0.00000011,-0.00002384,-0.00001888,0.00004124,-0.00000467,0.00000
 223,0.00000405,0.00000192,-0.00000298,-0.00000273,-0.00000155,-0.00000
 145,-0.00000066,-0.00006198,0.00003428,-0.00001867,-0.00001291,-0.0000
 2281,0.00001230,0.00000611,-0.00003252,-0.00000837,0.00000869,-0.00000
 033,-0.00000845,-0.00000053,0.00000381,0.00000986,0.00001315,-0.000014
 91,-0.00000876,-0.00002536,0.00001212,0.00001594,0.00000763,-0.0000234
 2,0.00000662,-0.00000090,-0.00000121,0.00000328,-0.00000599,-0.0000079
 5,0.00001343,-0.00000500,0.00000084,0.00000376,-0.00405960,0.00425913,
 -0.00481397,-0.01461033,0.00807341,0.00902375,-0.00033462,-0.00097016,
 0.00005782,0.03864800,-0.06722968,-0.04014247,0.00153246,-0.00267213,0
 .00280280,-0.00227725,0.00282536,-0.00705928,0.00022650,-0.00072562,0.
 00062494,0.01965011,0.00222528,-0.01198843,-0.03958056,0.05688097,-0.0
 0042164,0.00015299,0.00021795,0.00002859,0.00002139,-0.00004029,0.0000
 0143,0.00001022,-0.00008307,-0.00001001,0.00001461,0.00003697,0.000022
 80,-0.00000554,0.00003059,0.00001978,-0.00001787,0.00001417,-0.0000061
 2,-0.00000594,-0.00000326,-0.00002920,0.00002538,0.00001371,-0.0000084
 0,-0.00000191,-0.00001780,0.00000384,0.00002207,-0.00002640,-0.0000004
 1,-0.00000266,-0.00000640,-0.00000295,-0.00000144,0.00000195,0.0000024
 3,-0.00000364,-0.00000373,0.00011358,0.00001542,0.00002033,0.00000622,
 -0.00000215,-0.00004488,-0.00000849,0.00002770,-0.00001370,-0.00001186
 ,0.00001336,-0.00000618,-0.00000398,-0.00000393,-0.00000358,-0.0000042
 8,-0.00001262,0.00003089,0.00002006,-0.00003294,-0.00000064,0.00000707
 ,0.00002455,0.00000988,0.00000024,0.00000587,0.00000195,0.00000471,0.0
 0000812,-0.00001894,0.00000576,0.00000745,-0.00000264,-0.00120484,-0.0
 0467836,0.00329791,-0.01043768,0.00000599,0.00975192,-0.00105600,0.000
 07400,-0.00044108,0.13803373,-0.04008079,-0.15684307,-0.00033279,0.003
 04616,-0.00090421,-0.00039706,-0.00716234,-0.00093626,-0.00007771,0.00
 059319,-0.00042461,0.02626324,-0.00305606,-0.00887148,-0.15032679,0.04
 856997,0.15675334,0.00045331,-0.00057768,-0.00107834,-0.00027281,-0.00
 017245,-0.00015666,0.00022284,-0.00006453,-0.00000548,-0.00000140,0.00
 003548,0.00003220,-0.00003138,0.00004137,0.00001222,-0.00000720,0.0000
 2098,0.00001952,-0.00000020,-0.00001855,-0.00001299,0.00001408,0.00000
 795,0.00000286,-0.00000104,-0.00001917,-0.00000062,-0.00003542,0.00003
 526,0.00002886,-0.00002098,-0.00000645,0.00000186,-0.00001431,0.000005
 01,-0.00000938,-0.00001334,-0.00000199,-0.00000344,-0.00014863,0.00007
 688,-0.00010065,-0.00001308,-0.00008389,0.00003800,-0.00000530,-0.0000
 3313,0.00003305,0.00000334,-0.00001537,-0.00000758,0.00000644,0.000009
 92,0.00001035,0.00000348,0.00000023,0.00000194,0.00000737,-0.00000082,
 -0.00001419,-0.00000441,-0.00001685,-0.00000014,-0.00000196,-0.0000119
 4,-0.00000210,0.00000431,-0.00000815,0.00000557,-0.00000067,-0.0000057
 5,0.00000220,-0.00490710,-0.00391627,-0.00003148,-0.00135936,0.0000230
 4,0.00014226,0.00414427,-0.02055977,-0.02714135,-0.00430463,-0.0006521
 0,0.00417356,0.00003914,0.00021658,-0.00019921,-0.07234393,-0.01154635
 ,-0.00677172,0.00102945,0.00145514,-0.00031960,0.00723142,0.01962655,0
 .02571442,0.00009524,0.00089008,0.00116853,0.06930142,0.00019800,-0.00
 030809,-0.00043121,-0.00022008,-0.00014759,-0.00003956,0.00018746,-0.0
 0010728,-0.00002416,-0.00007241,0.00007131,0.00002270,0.00001145,0.000
 02752,0.00000105,0.00002461,-0.00001909,0.00001010,0.00000080,-0.00001
 627,-0.00000843,-0.00001782,-0.00000746,0.00002039,0.00000496,-0.00001
 180,0.00002412,-0.00001268,0.00002930,-0.00000801,-0.00002195,-0.00000
 366,0.00001013,-0.00000152,0.00000506,0.00000002,-0.00000980,0.0000043
 8,0.00000077,-0.00007805,0.00013921,-0.00013362,0.00002063,-0.00010186
 ,0.00005348,-0.00007119,-0.00009250,0.00000966,-0.00000503,-0.00000035
 ,-0.00000281,0.00001799,0.00000890,0.00001010,-0.00001208,0.00001530,-
 0.00000730,0.00001063,0.00003043,-0.00006331,0.00000034,-0.00002360,0.
 00000770,-0.00000384,-0.00001251,0.00000168,0.00000735,-0.00002895,0.0
 0001351,0.00000218,-0.00001025,-0.00000008,-0.00390977,0.00505838,-0.0
 0335788,0.00004179,-0.00023545,0.00097300,0.00241750,-0.00353082,-0.01
 306763,-0.00038952,0.00604227,-0.00375782,0.00023081,-0.00081418,0.000
 50244,-0.01152688,-0.16724408,-0.15492547,0.00061487,-0.00257067,0.003
 02760,-0.00352516,0.00186019,-0.00368819,-0.00006330,-0.00021576,-0.00
 015924,0.01465838,0.16484486,0.00047803,0.00000127,-0.00029391,-0.0000
 7374,-0.00006103,-0.00006466,0.00003568,-0.00011397,-0.00001649,0.0000
 0208,0.00001845,-0.00003752,-0.00006662,0.00002547,0.00001639,-0.00000
 906,0.00003431,-0.00000134,0.00001042,0.00000067,-0.00001107,0.0000422
 1,-0.00000598,0.00000237,0.00001045,-0.00002553,-0.00000283,-0.0000324
 5,0.00001546,0.00004701,-0.00001448,-0.00000193,0.00000611,-0.00002241
 ,0.00001196,-0.00001894,-0.00001913,0.00000188,0.00000003,-0.00014913,
 0.00005056,-0.00003217,-0.00000559,-0.00004695,0.00004700,0.00002101,-
 0.00002799,0.00004327,0.00000720,-0.00001972,-0.00000190,0.00000202,0.
 00001038,-0.00000059,-0.00001478,0.00001436,-0.00001995,-0.00000407,0.
 00000906,-0.00003664,-0.00001119,-0.00001743,-0.00000760,-0.00000397,-
 0.00001498,-0.00000640,0.00000784,-0.00000667,0.00000611,-0.00000262,-
 0.00001347,0.00000119,-0.00053423,-0.00372998,0.00384415,0.00001193,0.
 00098694,0.00036806,0.00385648,-0.00421646,-0.00161179,0.00461142,-0.0
 0361455,0.00233449,-0.00019310,0.00050908,-0.00051143,-0.00694242,-0.1
 5474074,-0.25411753,-0.00117738,0.00272761,-0.00089868,-0.00528831,-0.
 01258212,-0.00926295,-0.00016116,-0.00051329,-0.00072526,0.00589398,0.
 17232521,0.26187565,0.00004744,0.00024932,-0.00014116,-0.00002782,-0.0
 0005254,-0.00007030,0.00002063,-0.00008523,-0.00002786,-0.00005594,0.0
 0002825,-0.00004954,-0.00002590,-0.00002718,0.00002439,0.00002783,-0.0
 0001784,-0.00002421,0.00001839,0.00001914,0.00000096,0.00000484,-0.000
 01878,0.00002017,0.00001496,-0.00000974,0.00001030,-0.00000399,0.00001
 717,-0.00000090,-0.00000940,0.00000071,0.00001298,-0.00001061,0.000014
 84,-0.00000933,-0.00001519,0.00000866,0.00000377,-0.00001606,0.0000792
 4,-0.00001684,0.00000948,-0.00002655,0.00002730,0.00002307,-0.00003102
 ,0.00004327,0.00000509,-0.00001133,0.00000573,0.00000323,0.00000763,0.
 00000099,-0.00001853,0.00001615,-0.00003228,-0.00002284,0.00003316,-0.
 00003624,-0.00000750,-0.00001755,-0.00000587,-0.00000721,-0.00001152,-
 0.00000437,0.00000505,-0.00000864,0.00001120,-0.00000375,-0.00001526,0
 .00000111,0.00039466,0.00083022,0.00057087,0.00196699,-0.00108133,0.00
 113885,-0.00243901,0.00044098,0.00496594,0.00349046,0.00223270,0.00362
 889,-0.00006401,0.00004719,0.00004774,-0.01835872,-0.01528057,-0.01154
 912,-0.00106267,-0.00061394,-0.00045362,-0.29779524,-0.11621521,-0.061
 35109,0.00083652,0.00060479,-0.00136179,0.00093104,0.00149134,-0.00026
 491,0.31214465,0.00008110,-0.00071084,0.00049515,0.00002657,0.00006622
 ,0.00015949,-0.00001885,-0.00003949,0.00000948,-0.00000138,0.00001449,
 -0.00001679,-0.00002885,-0.00000536,-0.00002388,0.00000248,0.00000726,
 -0.00000114,0.00000204,-0.00000392,0.00000318,0.00000666,-0.00001731,0
 .00000168,0.00000376,-0.00000052,0.00001468,-0.00000986,0.00000348,0.0
 0000790,-0.00000722,-0.00000151,0.00000447,0.00000315,0.00000403,0.000
 00126,-0.00000329,0.00000316,0.00000232,-0.00014366,0.00000061,-0.0000
 8864,0.00001097,-0.00005413,0.00003638,-0.00000977,-0.00004106,0.00000
 290,0.00000350,-0.00001079,-0.00000200,0.00000634,0.00000517,0.0000048
 9,-0.00000297,0.00001924,-0.00002104,-0.00001020,0.00002968,-0.0000258
 5,-0.00000398,-0.00001758,-0.00000435,-0.00000265,-0.00000873,-0.00000
 029,-0.00000082,-0.00001401,0.00001563,-0.00000331,-0.00000827,0.00000
 176,0.00093018,-0.00059850,0.00010023,-0.00070416,0.00331936,-0.007017
 32,0.00000399,0.00560268,-0.00455014,-0.02071851,-0.00324491,-0.003215
 60,-0.00086988,-0.00043916,-0.00017214,0.00797307,0.00767347,0.0002772
 8,0.00034219,0.00007743,0.00008715,-0.11635109,-0.11303974,-0.04331708
 ,0.00148334,-0.00247530,0.00258902,0.00060839,-0.00263492,0.00301017,0
 .12740274,0.10653976,-0.00013757,0.00057019,-0.00029646,0.00006024,-0.
 00004413,-0.00003243,0.00003047,-0.00004989,0.00000975,-0.00002145,0.0
 0002853,0.00003937,-0.00000468,0.00004534,0.00001033,-0.00001594,0.000
 01050,0.00000949,-0.00000158,-0.00000492,-0.00000887,0.00000479,0.0000
 0394,0.00000010,0.00000443,-0.00001459,-0.00000195,-0.00000818,-0.0000
 0443,0.00000410,-0.00000103,0.00000195,0.00000119,-0.00000602,0.000002
 91,-0.00000264,-0.00000208,0.00000008,0.00000083,0.00005009,0.00006842
 ,0.00006362,-0.00000374,0.00003237,0.00000368,-0.00001736,0.00000355,0
 .00001432,0.00000512,0.00000219,0.00001222,0.00000580,0.00000108,-0.00
 000368,-0.00000098,0.00000793,0.00000113,0.00001658,-0.00001805,-0.000
 00777,-0.00000183,-0.00000144,-0.00000719,-0.00000190,-0.00000198,-0.0
 0000373,0.00000239,0.00000260,0.00000003,0.00000012,-0.00000443,0.0000
 0083,0.00050087,0.00003049,-0.00113697,0.00168133,-0.00689749,-0.00136
 026,0.00442123,-0.00465656,0.00107621,-0.02751494,-0.01222050,-0.00083
 330,-0.00125676,-0.00054072,-0.00036583,0.01950310,0.00924606,0.010209
 47,0.00078900,0.00045378,0.00022490,-0.06136752,-0.04328893,-0.0831791
 1,-0.00017059,0.00294380,-0.00076407,-0.00142643,0.00266112,-0.0009121
 7,0.06488499,0.05163126,0.07723486||0.,0.,0.00004303,0.,0.,0.00001823,
 -0.00000953,0.00002750,-0.00007113,-0.00005837,0.00003064,0.00004727,0
 .00002914,-0.00004882,0.00001422,0.00005594,-0.00004579,0.00000538,0.0
 0000582,-0.00001159,0.00000587,-0.00004362,0.00001264,0.00004000,0.000
 00556,0.00000998,-0.00001140,0.00001365,0.00002892,-0.00005474,-0.0000
 1042,-0.00000200,0.00000431,0.00000421,0.00000629,-0.00000780,-0.00001
 222,0.00000108,0.00000760,-0.00001905,-0.00002201,-0.00007113,0.000027
 71,0.00004965,0.00001422,0.00000265,-0.00006587,0.00004727,0.00001086,
 -0.00004410,0.00004000,-0.00001143,-0.00000017,-0.00001140,0.00001169,
 0.00007134,0.00000538,0.00000713,0.00001083,0.00000587,-0.00003187,-0.
 00000263,-0.00005474,-0.00000755,0.00000050,-0.00000780,0.00000694,-0.
 00000802,0.00000431,0.00000518,-0.00001113,0.00000760,0.00002858,-0.00
 000550,-0.00007113,-0.00005685,-0.00000083,0.00001422,0.00005572,0.000
 03523,0.00004727,0.00003276,0.00003145,0.00004000,0.00000586,-0.000009
 81,-0.00001140,-0.00006763,-0.00002555,0.00000538,-0.00001295,0.000000
 76,0.00000587,0.00001822,-0.00002628,-0.00005474,0.00000334,-0.0000067
 9,-0.00000780,0.00000348,0.00001002,0.00000431,0.00000705,0.00001005,0
 .00000760|||@


 NOTHING MAKES A PERSON MORE PRODUCTIVE THAN THE LAST MINUTE.
 Job cpu time:  0 days  0 hours  3 minutes 22.0 seconds.
 File lengths (MBytes):  RWF=    178 Int=      0 D2E=      0 Chk=      7 Scr=      1
 Normal termination of Gaussian 09 at Mon Sep 06 13:11:08 2021.
