 Entering Link 1 = b:\programy\g09w\l1.exe PID=     15004.
  
 Copyright (c) 1988,1990,1992,1993,1995,1998,2003,2009, Gaussian, Inc.
                  All Rights Reserved.
  
 This is part of the Gaussian(R) 09 program.  It is based on
 the Gaussian(R) 03 system (copyright 2003, Gaussian, Inc.),
 the Gaussian(R) 98 system (copyright 1998, Gaussian, Inc.),
 the Gaussian(R) 94 system (copyright 1995, Gaussian, Inc.),
 the Gaussian 92(TM) system (copyright 1992, Gaussian, Inc.),
 the Gaussian 90(TM) system (copyright 1990, Gaussian, Inc.),
 the Gaussian 88(TM) system (copyright 1988, Gaussian, Inc.),
 the Gaussian 86(TM) system (copyright 1986, Carnegie Mellon
 University), and the Gaussian 82(TM) system (copyright 1983,
 Carnegie Mellon University). Gaussian is a federally registered
 trademark of Gaussian, Inc.
  
 This software contains proprietary and confidential information,
 including trade secrets, belonging to Gaussian, Inc.
  
 This software is provided under written license and may be
 used, copied, transmitted, or stored only in accord with that
 written license.
  
 The following legend is applicable only to US Government
 contracts under FAR:
  
                    RESTRICTED RIGHTS LEGEND
  
 Use, reproduction and disclosure by the US Government is
 subject to restrictions as set forth in subparagraphs (a)
 and (c) of the Commercial Computer Software - Restricted
 Rights clause in FAR 52.227-19.
  
 Gaussian, Inc.
 340 Quinnipiac St., Bldg. 40, Wallingford CT 06492
  
  
 ---------------------------------------------------------------
 Warning -- This program may not be used in any manner that
 competes with the business of Gaussian, Inc. or will provide
 assistance to any competitor of Gaussian, Inc.  The licensee
 of this program is prohibited from giving any competitor of
 Gaussian, Inc. access to this program.  By using this program,
 the user acknowledges that Gaussian, Inc. is engaged in the
 business of creating and licensing software in the field of
 computational chemistry and represents and warrants to the
 licensee that it is not a competitor of Gaussian, Inc. and that
 it will not use this program in any manner prohibited above.
 ---------------------------------------------------------------
  

 Cite this work as:
 Gaussian 09, Revision A.02,
 M. J. Frisch, G. W. Trucks, H. B. Schlegel, G. E. Scuseria, 
 M. A. Robb, J. R. Cheeseman, G. Scalmani, V. Barone, B. Mennucci, 
 G. A. Petersson, H. Nakatsuji, M. Caricato, X. Li, H. P. Hratchian, 
 A. F. Izmaylov, J. Bloino, G. Zheng, J. L. Sonnenberg, M. Hada, 
 M. Ehara, K. Toyota, R. Fukuda, J. Hasegawa, M. Ishida, T. Nakajima, 
 Y. Honda, O. Kitao, H. Nakai, T. Vreven, J. A. Montgomery, Jr., 
 J. E. Peralta, F. Ogliaro, M. Bearpark, J. J. Heyd, E. Brothers, 
 K. N. Kudin, V. N. Staroverov, R. Kobayashi, J. Normand, 
 K. Raghavachari, A. Rendell, J. C. Burant, S. S. Iyengar, J. Tomasi, 
 M. Cossi, N. Rega, J. M. Millam, M. Klene, J. E. Knox, J. B. Cross, 
 V. Bakken, C. Adamo, J. Jaramillo, R. Gomperts, R. E. Stratmann, 
 O. Yazyev, A. J. Austin, R. Cammi, C. Pomelli, J. W. Ochterski, 
 R. L. Martin, K. Morokuma, V. G. Zakrzewski, G. A. Voth, 
 P. Salvador, J. J. Dannenberg, S. Dapprich, A. D. Daniels, 
 O. Farkas, J. B. Foresman, J. V. Ortiz, J. Cioslowski, 
 and D. J. Fox, Gaussian, Inc., Wallingford CT, 2009.
 
 ******************************************
 Gaussian 09:  IA32W-G09RevA.02 11-Jun-2009
                06-Sep-2021 
 ******************************************
 %nprocshared=12
 Will use up to   12 processors via shared memory.
 ----------------------------------------------
 # opt freq=noraman hf/6-311g geom=connectivity
 ----------------------------------------------
 1/18=20,19=15,38=1,57=2/1,3;
 2/9=110,12=2,17=6,18=5,40=1/2;
 3/5=4,6=6,11=9,16=1,25=1,30=1,71=1/1,2,3;
 4//1;
 5/5=2,38=5/2;
 6/7=2,8=2,9=2,10=2,28=1/1;
 7//1,2,3,16;
 1/18=20,19=15/3(2);
 2/9=110/2;
 99//99;
 2/9=110/2;
 3/5=4,6=6,11=9,16=1,25=1,30=1,71=1/1,2,3;
 4/5=5,16=3/1;
 5/5=2,38=5/2;
 7//1,2,3,16;
 1/18=20,19=15/3(-5);
 2/9=110/2;
 6/7=2,8=2,9=2,10=2,19=2,28=1/1;
 99/9=1/99;
 -----
 M0001
 -----
 Symbolic Z-matrix:
 Charge =  0 Multiplicity = 1
 C                     0.46435   0.12484  -0.6005 
 H                     1.12876   0.37142  -1.47285 
 C                    -0.96005   0.3143   -1.06177 
 C                    -2.03742   0.23061  -0.17817 
 C                    -1.20563   0.60251  -2.40637 
 C                    -3.33571   0.44139  -0.62641 
 H                    -1.84385  -0.02574   0.87458 
 C                    -2.50537   0.81009  -2.85415 
 H                    -0.37121   0.66669  -3.11457 
 C                    -3.57198   0.73386  -1.96532 
 H                    -4.17212   0.37625   0.07687 
 H                    -2.68793   1.03594  -3.90987 
 H                    -4.5943    0.90185  -2.31872 
 C                     0.77814  -1.30004  -0.21763 
 C                    -0.0759   -2.07566   0.56824 
 C                     1.9767   -1.86091  -0.66912 
 C                     0.25803  -3.38558   0.89276 
 H                    -1.02521  -1.64469   0.92535 
 C                     2.31034  -3.16965  -0.3415 
 H                     2.66148  -1.2665   -1.28565 
 C                     1.45152  -3.93556   0.43943 
 H                    -0.42307  -3.98386   1.50664 
 H                     3.25183  -3.59786  -0.70064 
 H                     1.71394  -4.967     0.69517 
 C                     0.7988    1.11859   0.48604 
 C                     1.21516   2.39925   0.10782 
 C                     0.70099   0.81195   1.84279 
 C                     1.52514   3.35174   1.07025 
 H                     1.29416   2.65673  -0.95489 
 C                     1.01447   1.76645   2.80483 
 H                     0.38347  -0.19094   2.1555 
 C                     1.42588   3.03735   2.4218 
 H                     1.84833   4.35172   0.76326 
 H                     0.93668   1.51262   3.86703 
 H                     1.67156   3.78786   3.17975 
 

 GradGradGradGradGradGradGradGradGradGradGradGradGradGradGradGradGradGrad
 Berny optimization.
 Initialization pass.
                           ----------------------------
                           !    Initial Parameters    !
                           ! (Angstroms and Degrees)  !
 --------------------------                            --------------------------
 ! Name  Definition              Value          Derivative Info.                !
 --------------------------------------------------------------------------------
 ! R1    R(1,2)                  1.1239         estimate D2E/DX2                !
 ! R2    R(1,3)                  1.5092         estimate D2E/DX2                !
 ! R3    R(1,14)                 1.5084         estimate D2E/DX2                !
 ! R4    R(1,25)                 1.51           estimate D2E/DX2                !
 ! R5    R(3,4)                  1.3959         estimate D2E/DX2                !
 ! R6    R(3,5)                  1.3969         estimate D2E/DX2                !
 ! R7    R(4,6)                  1.3896         estimate D2E/DX2                !
 ! R8    R(4,7)                  1.1007         estimate D2E/DX2                !
 ! R9    R(5,8)                  1.3903         estimate D2E/DX2                !
 ! R10   R(5,9)                  1.0963         estimate D2E/DX2                !
 ! R11   R(6,10)                 1.3907         estimate D2E/DX2                !
 ! R12   R(6,11)                 1.0947         estimate D2E/DX2                !
 ! R13   R(8,10)                 1.3905         estimate D2E/DX2                !
 ! R14   R(8,12)                 1.0949         estimate D2E/DX2                !
 ! R15   R(10,13)                1.0947         estimate D2E/DX2                !
 ! R16   R(14,15)                1.3959         estimate D2E/DX2                !
 ! R17   R(14,16)                1.3982         estimate D2E/DX2                !
 ! R18   R(15,17)                1.3902         estimate D2E/DX2                !
 ! R19   R(15,18)                1.102          estimate D2E/DX2                !
 ! R20   R(16,19)                1.3898         estimate D2E/DX2                !
 ! R21   R(16,20)                1.0965         estimate D2E/DX2                !
 ! R22   R(17,21)                1.3901         estimate D2E/DX2                !
 ! R23   R(17,22)                1.0948         estimate D2E/DX2                !
 ! R24   R(19,21)                1.3907         estimate D2E/DX2                !
 ! R25   R(19,23)                1.0949         estimate D2E/DX2                !
 ! R26   R(21,24)                1.0946         estimate D2E/DX2                !
 ! R27   R(25,26)                1.3987         estimate D2E/DX2                !
 ! R28   R(25,27)                1.3944         estimate D2E/DX2                !
 ! R29   R(26,28)                1.3891         estimate D2E/DX2                !
 ! R30   R(26,29)                1.0963         estimate D2E/DX2                !
 ! R31   R(27,30)                1.391          estimate D2E/DX2                !
 ! R32   R(27,31)                1.0975         estimate D2E/DX2                !
 ! R33   R(28,32)                1.3912         estimate D2E/DX2                !
 ! R34   R(28,33)                1.0948         estimate D2E/DX2                !
 ! R35   R(30,32)                1.3897         estimate D2E/DX2                !
 ! R36   R(30,34)                1.0949         estimate D2E/DX2                !
 ! R37   R(32,35)                1.0946         estimate D2E/DX2                !
 ! A1    A(2,1,3)              107.0481         estimate D2E/DX2                !
 ! A2    A(2,1,14)             106.3359         estimate D2E/DX2                !
 ! A3    A(2,1,25)             106.4505         estimate D2E/DX2                !
 ! A4    A(3,1,14)             113.1103         estimate D2E/DX2                !
 ! A5    A(3,1,25)             110.2661         estimate D2E/DX2                !
 ! A6    A(14,1,25)            113.1384         estimate D2E/DX2                !
 ! A7    A(1,3,4)              121.8347         estimate D2E/DX2                !
 ! A8    A(1,3,5)              119.08           estimate D2E/DX2                !
 ! A9    A(4,3,5)              119.0773         estimate D2E/DX2                !
 ! A10   A(3,4,6)              120.5201         estimate D2E/DX2                !
 ! A11   A(3,4,7)              118.9257         estimate D2E/DX2                !
 ! A12   A(6,4,7)              120.5419         estimate D2E/DX2                !
 ! A13   A(3,5,8)              120.3431         estimate D2E/DX2                !
 ! A14   A(3,5,9)              120.0045         estimate D2E/DX2                !
 ! A15   A(8,5,9)              119.6523         estimate D2E/DX2                !
 ! A16   A(4,6,10)             120.0786         estimate D2E/DX2                !
 ! A17   A(4,6,11)             119.8409         estimate D2E/DX2                !
 ! A18   A(10,6,11)            120.0805         estimate D2E/DX2                !
 ! A19   A(5,8,10)             120.2012         estimate D2E/DX2                !
 ! A20   A(5,8,12)             119.8158         estimate D2E/DX2                !
 ! A21   A(10,8,12)            119.9829         estimate D2E/DX2                !
 ! A22   A(6,10,8)             119.7774         estimate D2E/DX2                !
 ! A23   A(6,10,13)            120.1165         estimate D2E/DX2                !
 ! A24   A(8,10,13)            120.106          estimate D2E/DX2                !
 ! A25   A(1,14,15)            122.7168         estimate D2E/DX2                !
 ! A26   A(1,14,16)            118.3774         estimate D2E/DX2                !
 ! A27   A(15,14,16)           118.9057         estimate D2E/DX2                !
 ! A28   A(14,15,17)           120.5307         estimate D2E/DX2                !
 ! A29   A(14,15,18)           119.484          estimate D2E/DX2                !
 ! A30   A(17,15,18)           119.9835         estimate D2E/DX2                !
 ! A31   A(14,16,19)           120.4917         estimate D2E/DX2                !
 ! A32   A(14,16,20)           119.9632         estimate D2E/DX2                !
 ! A33   A(19,16,20)           119.545          estimate D2E/DX2                !
 ! A34   A(15,17,21)           120.1912         estimate D2E/DX2                !
 ! A35   A(15,17,22)           119.7584         estimate D2E/DX2                !
 ! A36   A(21,17,22)           120.0504         estimate D2E/DX2                !
 ! A37   A(16,19,21)           120.1821         estimate D2E/DX2                !
 ! A38   A(16,19,23)           119.8286         estimate D2E/DX2                !
 ! A39   A(21,19,23)           119.9893         estimate D2E/DX2                !
 ! A40   A(17,21,19)           119.6983         estimate D2E/DX2                !
 ! A41   A(17,21,24)           120.1621         estimate D2E/DX2                !
 ! A42   A(19,21,24)           120.1396         estimate D2E/DX2                !
 ! A43   A(1,25,26)            118.2892         estimate D2E/DX2                !
 ! A44   A(1,25,27)            122.6764         estimate D2E/DX2                !
 ! A45   A(26,25,27)           119.0333         estimate D2E/DX2                !
 ! A46   A(25,26,28)           120.456          estimate D2E/DX2                !
 ! A47   A(25,26,29)           119.9077         estimate D2E/DX2                !
 ! A48   A(28,26,29)           119.6359         estimate D2E/DX2                !
 ! A49   A(25,27,30)           120.4137         estimate D2E/DX2                !
 ! A50   A(25,27,31)           119.9008         estimate D2E/DX2                !
 ! A51   A(30,27,31)           119.6832         estimate D2E/DX2                !
 ! A52   A(26,28,32)           120.1479         estimate D2E/DX2                !
 ! A53   A(26,28,33)           119.8597         estimate D2E/DX2                !
 ! A54   A(32,28,33)           119.9924         estimate D2E/DX2                !
 ! A55   A(27,30,32)           120.2417         estimate D2E/DX2                !
 ! A56   A(27,30,34)           119.7281         estimate D2E/DX2                !
 ! A57   A(32,30,34)           120.0303         estimate D2E/DX2                !
 ! A58   A(28,32,30)           119.7073         estimate D2E/DX2                !
 ! A59   A(28,32,35)           120.1172         estimate D2E/DX2                !
 ! A60   A(30,32,35)           120.1756         estimate D2E/DX2                !
 ! D1    D(2,1,3,4)           -172.9388         estimate D2E/DX2                !
 ! D2    D(2,1,3,5)              6.0222         estimate D2E/DX2                !
 ! D3    D(14,1,3,4)            70.2708         estimate D2E/DX2                !
 ! D4    D(14,1,3,5)          -110.7681         estimate D2E/DX2                !
 ! D5    D(25,1,3,4)           -57.5363         estimate D2E/DX2                !
 ! D6    D(25,1,3,5)           121.4248         estimate D2E/DX2                !
 ! D7    D(2,1,14,15)         -162.1478         estimate D2E/DX2                !
 ! D8    D(2,1,14,16)           17.9884         estimate D2E/DX2                !
 ! D9    D(3,1,14,15)          -44.9383         estimate D2E/DX2                !
 ! D10   D(3,1,14,16)          135.1979         estimate D2E/DX2                !
 ! D11   D(25,1,14,15)          81.3543         estimate D2E/DX2                !
 ! D12   D(25,1,14,16)         -98.5095         estimate D2E/DX2                !
 ! D13   D(2,1,25,26)           31.3911         estimate D2E/DX2                !
 ! D14   D(2,1,25,27)         -149.006          estimate D2E/DX2                !
 ! D15   D(3,1,25,26)          -84.387          estimate D2E/DX2                !
 ! D16   D(3,1,25,27)           95.2159         estimate D2E/DX2                !
 ! D17   D(14,1,25,26)         147.8213         estimate D2E/DX2                !
 ! D18   D(14,1,25,27)         -32.5757         estimate D2E/DX2                !
 ! D19   D(1,3,4,6)            178.4511         estimate D2E/DX2                !
 ! D20   D(1,3,4,7)             -2.8168         estimate D2E/DX2                !
 ! D21   D(5,3,4,6)             -0.51           estimate D2E/DX2                !
 ! D22   D(5,3,4,7)            178.2221         estimate D2E/DX2                !
 ! D23   D(1,3,5,8)           -178.6327         estimate D2E/DX2                !
 ! D24   D(1,3,5,9)              1.3271         estimate D2E/DX2                !
 ! D25   D(4,3,5,8)              0.3574         estimate D2E/DX2                !
 ! D26   D(4,3,5,9)           -179.6828         estimate D2E/DX2                !
 ! D27   D(3,4,6,10)             0.2258         estimate D2E/DX2                !
 ! D28   D(3,4,6,11)          -179.8004         estimate D2E/DX2                !
 ! D29   D(7,4,6,10)          -178.4857         estimate D2E/DX2                !
 ! D30   D(7,4,6,11)             1.4881         estimate D2E/DX2                !
 ! D31   D(3,5,8,10)             0.0791         estimate D2E/DX2                !
 ! D32   D(3,5,8,12)           179.9707         estimate D2E/DX2                !
 ! D33   D(9,5,8,10)          -179.8808         estimate D2E/DX2                !
 ! D34   D(9,5,8,12)             0.0108         estimate D2E/DX2                !
 ! D35   D(4,6,10,8)             0.2162         estimate D2E/DX2                !
 ! D36   D(4,6,10,13)         -179.8867         estimate D2E/DX2                !
 ! D37   D(11,6,10,8)         -179.7575         estimate D2E/DX2                !
 ! D38   D(11,6,10,13)           0.1396         estimate D2E/DX2                !
 ! D39   D(5,8,10,6)            -0.368          estimate D2E/DX2                !
 ! D40   D(5,8,10,13)          179.7349         estimate D2E/DX2                !
 ! D41   D(12,8,10,6)          179.7406         estimate D2E/DX2                !
 ! D42   D(12,8,10,13)          -0.1565         estimate D2E/DX2                !
 ! D43   D(1,14,15,17)         179.9271         estimate D2E/DX2                !
 ! D44   D(1,14,15,18)           0.4186         estimate D2E/DX2                !
 ! D45   D(16,14,15,17)         -0.2098         estimate D2E/DX2                !
 ! D46   D(16,14,15,18)       -179.7183         estimate D2E/DX2                !
 ! D47   D(1,14,16,19)         179.9447         estimate D2E/DX2                !
 ! D48   D(1,14,16,20)           0.0046         estimate D2E/DX2                !
 ! D49   D(15,14,16,19)          0.0756         estimate D2E/DX2                !
 ! D50   D(15,14,16,20)       -179.8645         estimate D2E/DX2                !
 ! D51   D(14,15,17,21)          0.1965         estimate D2E/DX2                !
 ! D52   D(14,15,17,22)       -179.7561         estimate D2E/DX2                !
 ! D53   D(18,15,17,21)        179.7025         estimate D2E/DX2                !
 ! D54   D(18,15,17,22)         -0.25           estimate D2E/DX2                !
 ! D55   D(14,16,19,21)          0.0727         estimate D2E/DX2                !
 ! D56   D(14,16,19,23)       -179.9815         estimate D2E/DX2                !
 ! D57   D(20,16,19,21)       -179.987          estimate D2E/DX2                !
 ! D58   D(20,16,19,23)         -0.0412         estimate D2E/DX2                !
 ! D59   D(15,17,21,19)         -0.0457         estimate D2E/DX2                !
 ! D60   D(15,17,21,24)       -179.9956         estimate D2E/DX2                !
 ! D61   D(22,17,21,19)        179.9068         estimate D2E/DX2                !
 ! D62   D(22,17,21,24)         -0.0432         estimate D2E/DX2                !
 ! D63   D(16,19,21,17)         -0.0882         estimate D2E/DX2                !
 ! D64   D(16,19,21,24)        179.8618         estimate D2E/DX2                !
 ! D65   D(23,19,21,17)        179.9661         estimate D2E/DX2                !
 ! D66   D(23,19,21,24)         -0.0839         estimate D2E/DX2                !
 ! D67   D(1,25,26,28)         179.548          estimate D2E/DX2                !
 ! D68   D(1,25,26,29)          -0.1963         estimate D2E/DX2                !
 ! D69   D(27,25,26,28)         -0.0697         estimate D2E/DX2                !
 ! D70   D(27,25,26,29)       -179.814          estimate D2E/DX2                !
 ! D71   D(1,25,27,30)        -179.6599         estimate D2E/DX2                !
 ! D72   D(1,25,27,31)           0.8871         estimate D2E/DX2                !
 ! D73   D(26,25,27,30)         -0.0598         estimate D2E/DX2                !
 ! D74   D(26,25,27,31)       -179.5128         estimate D2E/DX2                !
 ! D75   D(25,26,28,32)          0.1192         estimate D2E/DX2                !
 ! D76   D(25,26,28,33)       -179.8902         estimate D2E/DX2                !
 ! D77   D(29,26,28,32)        179.8642         estimate D2E/DX2                !
 ! D78   D(29,26,28,33)         -0.1451         estimate D2E/DX2                !
 ! D79   D(25,27,30,32)          0.1406         estimate D2E/DX2                !
 ! D80   D(25,27,30,34)       -179.812          estimate D2E/DX2                !
 ! D81   D(31,27,30,32)        179.5948         estimate D2E/DX2                !
 ! D82   D(31,27,30,34)         -0.3578         estimate D2E/DX2                !
 ! D83   D(26,28,32,30)         -0.0384         estimate D2E/DX2                !
 ! D84   D(26,28,32,35)        179.9173         estimate D2E/DX2                !
 ! D85   D(33,28,32,30)        179.9709         estimate D2E/DX2                !
 ! D86   D(33,28,32,35)         -0.0733         estimate D2E/DX2                !
 ! D87   D(27,30,32,28)         -0.0909         estimate D2E/DX2                !
 ! D88   D(27,30,32,35)        179.9534         estimate D2E/DX2                !
 ! D89   D(34,30,32,28)        179.8615         estimate D2E/DX2                !
 ! D90   D(34,30,32,35)         -0.0942         estimate D2E/DX2                !
 --------------------------------------------------------------------------------
 Trust Radius=3.00D-01 FncErr=1.00D-07 GrdErr=1.00D-07
 Number of steps in this run= 197 maximum allowed number of steps= 210.
 GradGradGradGradGradGradGradGradGradGradGradGradGradGradGradGradGradGrad

                          Input orientation:                          
 ---------------------------------------------------------------------
 Center     Atomic      Atomic             Coordinates (Angstroms)
 Number     Number       Type             X           Y           Z
 ---------------------------------------------------------------------
      1          6           0        0.464347    0.124844   -0.600500
      2          1           0        1.128761    0.371422   -1.472853
      3          6           0       -0.960053    0.314296   -1.061769
      4          6           0       -2.037419    0.230607   -0.178173
      5          6           0       -1.205631    0.602510   -2.406368
      6          6           0       -3.335714    0.441392   -0.626406
      7          1           0       -1.843849   -0.025740    0.874581
      8          6           0       -2.505373    0.810086   -2.854154
      9          1           0       -0.371210    0.666691   -3.114572
     10          6           0       -3.571977    0.733862   -1.965315
     11          1           0       -4.172115    0.376248    0.076869
     12          1           0       -2.687932    1.035935   -3.909866
     13          1           0       -4.594303    0.901852   -2.318718
     14          6           0        0.778138   -1.300042   -0.217627
     15          6           0       -0.075901   -2.075657    0.568240
     16          6           0        1.976704   -1.860906   -0.669119
     17          6           0        0.258033   -3.385582    0.892760
     18          1           0       -1.025210   -1.644692    0.925354
     19          6           0        2.310344   -3.169653   -0.341497
     20          1           0        2.661478   -1.266499   -1.285651
     21          6           0        1.451523   -3.935560    0.439431
     22          1           0       -0.423065   -3.983861    1.506641
     23          1           0        3.251833   -3.597856   -0.700638
     24          1           0        1.713938   -4.967000    0.695167
     25          6           0        0.798802    1.118586    0.486042
     26          6           0        1.215159    2.399246    0.107818
     27          6           0        0.700993    0.811953    1.842789
     28          6           0        1.525140    3.351736    1.070253
     29          1           0        1.294162    2.656732   -0.954888
     30          6           0        1.014474    1.766449    2.804828
     31          1           0        0.383472   -0.190940    2.155502
     32          6           0        1.425879    3.037351    2.421804
     33          1           0        1.848327    4.351716    0.763257
     34          1           0        0.936684    1.512619    3.867025
     35          1           0        1.671561    3.787856    3.179754
 ---------------------------------------------------------------------
                    Distance matrix (angstroms):
                    1          2          3          4          5
     1  C    0.000000
     2  H    1.123942   0.000000
     3  C    1.509164   2.129647   0.000000
     4  C    2.539366   3.423554   1.395873   0.000000
     5  C    2.505624   2.524725   1.396898   2.407288   0.000000
     6  C    3.813310   4.544546   2.418565   1.389572   2.780553
     7  H    2.743412   3.808489   2.155497   1.100670   3.400977
     8  C    3.790481   3.912460   2.417947   2.777706   1.390298
     9  H    2.704128   2.243287   2.164468   3.404242   1.096326
    10  C    4.304130   4.740340   2.795457   2.408737   2.410680
    11  H    4.692421   5.522766   3.408471   2.154805   3.875266
    12  H    4.660349   4.576871   3.408517   3.872629   2.155361
    13  H    5.398699   5.809501   3.890104   3.401493   3.402996
    14  C    1.508428   2.119509   2.517930   3.204966   3.513635
    15  C    2.549515   3.406679   3.024984   3.118260   4.158986
    16  C    2.497025   2.519580   3.675625   4.552872   4.383345
    17  C    3.820403   4.524309   4.358097   4.415068   5.378795
    18  H    2.770969   3.802066   2.791153   2.399810   4.022791
    19  C    3.785300   3.900682   4.832411   5.521910   5.554727
    20  H    2.689359   2.251011   3.957843   5.054450   4.438888
    21  C    4.306141   4.723462   5.111808   5.469105   5.979392
    22  H    4.702021   5.500367   5.035796   4.817311   6.079379
    23  H    4.651731   4.567157   5.759803   6.550290   6.357797
    24  H    5.400658   5.791501   6.174879   6.469198   7.011622
    25  C    1.509954   2.122356   2.477131   3.045298   3.556701
    26  C    2.497667   2.572559   3.232105   3.919701   3.925509
    27  C    2.549075   3.372022   3.382779   3.452702   4.662018
    28  C    3.785437   3.937865   4.466290   4.898146   5.205982
    29  H    2.687870   2.349104   3.252679   4.193900   3.546208
    30  C    3.820180   4.500858   4.578000   4.535544   5.782749
    31  H    2.775213   3.746554   3.522947   3.388873   4.895454
    32  C    4.305992   4.729039   5.024240   5.160632   6.013696
    33  H    4.652063   4.621765   5.245807   5.741851   5.781845
    34  H    4.701894   5.463838   5.415404   5.181937   6.691283
    35  H    5.400495   5.797707   6.081244   6.138911   7.044815
                    6          7          8          9         10
     6  C    0.000000
     7  H    2.167218   0.000000
     8  C    2.405881   3.878103   0.000000
     9  H    3.876856   4.308302   2.154770   0.000000
    10  C    1.390697   3.410049   1.390500   3.401502   0.000000
    11  H    1.094717   2.493745   3.399580   4.971573   2.158372
    12  H    3.399149   4.972983   1.094926   2.477102   2.157328
    13  H    2.158701   4.315389   2.158412   4.303859   1.094652
    14  C    4.485919   3.113130   4.710134   3.685285   5.110253
    15  C    4.288251   2.724270   5.093391   4.601172   5.151199
    16  C    5.790008   4.510817   5.656642   4.228675   6.261056
    17  C    5.465219   3.963178   6.267329   5.733722   6.309310
    18  H    3.478238   1.814870   4.743575   4.700129   4.527639
    19  C    6.708114   5.349799   6.733714   5.440424   7.244027
    20  H    6.270391   5.148209   5.785218   4.034770   6.581744
    21  C    6.573535   5.131815   7.001849   6.093768   7.267866
    22  H    5.711066   4.252628   6.806943   6.556366   6.650342
    23  H    7.727666   6.419291   7.563928   6.094250   8.180928
    24  H    7.516398   6.091476   7.985924   7.113398   8.216988
    25  C    4.334784   2.905865   4.708466   3.812815   5.026020
    26  C    5.008265   3.978193   5.014087   3.987745   5.476136
    27  C    4.746497   2.848750   5.687008   5.074066   5.724162
    28  C    5.914106   4.774486   6.173005   5.321500   6.484484
    29  H    5.143090   4.515498   4.631822   3.376087   5.328950
    30  C    5.696778   3.886877   6.732610   6.178097   6.697466
    31  H    4.687345   2.574687   5.868913   5.392472   5.786361
    32  C    6.221202   4.739995   6.946307   6.284983   7.037858
    33  H    6.640488   5.727712   6.677088   5.791658   7.064961
    34  H    6.292204   4.364932   7.583901   7.153242   7.412873
    35  H    7.124498   5.675865   7.919718   7.316633   7.955709
                   11         12         13         14         15
    11  H    0.000000
    12  H    4.304886   0.000000
    13  H    2.488642   2.486761   0.000000
    14  C    5.234662   5.577011   6.174628   0.000000
    15  C    4.799194   6.046333   6.133192   1.395904   0.000000
    16  C    6.585540   6.375968   7.316566   1.398204   2.406317
    17  C    5.868838   7.161965   7.227783   2.419286   1.390226
    18  H    3.834989   5.773194   5.454110   2.162696   1.102020
    19  C    7.400725   7.443319   8.255950   2.420423   2.778239
    20  H    7.159125   6.387792   7.642992   2.165356   3.403658
    21  C    7.095664   7.795335   8.219486   2.798415   2.410156
    22  H    5.925384   7.724411   7.476816   3.408647   2.154614
    23  H    8.456538   8.188527   9.188439   3.410633   3.873106
    24  H    7.973595   8.753172   9.128024   3.893006   3.402866
    25  C    5.042669   5.611431   6.082700   2.518996   3.312862
    26  C    5.754668   5.764939   6.471485   3.739203   4.680126
    27  C    5.201489   6.680420   6.735457   2.951574   3.250589
    28  C    6.503772   6.922029   7.411790   4.884228   5.680840
    29  H    6.012097   5.216891   6.293938   4.057819   5.156791
    30  C    6.022884   7.702505   7.645694   4.312130   4.577448
    31  H    5.039424   6.908505   6.781673   2.649078   2.506508
    32  C    6.627045   7.811476   7.954590   5.118510   5.642153
    33  H    7.247151   7.308223   7.931432   5.835221   6.712065
    34  H    6.461923   8.593317   8.320352   4.961913   4.978256
    35  H    7.444160   8.765897   8.821749   6.182808   6.652399
                   16         17         18         19         20
    16  C    0.000000
    17  C    2.778117   0.000000
    18  H    3.405962   2.162978   0.000000
    19  C    1.389774   2.404578   3.880250   0.000000
    20  H    1.096516   3.874601   4.315465   2.153304   0.000000
    21  C    2.410163   1.390108   3.408578   1.390696   3.400557
    22  H    3.872953   1.094844   2.484388   3.398540   4.969442
    23  H    2.154981   3.398061   4.975118   1.094871   2.475073
    24  H    3.402667   2.158607   4.312035   2.158895   4.302927
    25  C    3.405763   4.554710   3.340019   4.621534   3.506721
    26  C    4.396872   5.915781   4.694791   5.693326   4.179866
    27  C    3.883464   4.326439   3.139517   4.818123   4.236815
    28  C    5.513706   6.857734   5.611557   6.718489   5.307508
    29  H    4.577836   6.402884   5.236129   5.946061   4.167817
    30  C    5.113893   5.547219   4.396433   5.995311   5.351955
    31  H    3.647692   3.437440   2.368764   4.338268   4.264701
    32  C    5.818086   6.704917   5.492606   6.851643   5.813351
    33  H    6.376900   7.900101   6.651346   7.616097   6.035195
    34  H    5.747949   5.770546   4.740366   6.443778   6.103154
    35  H    6.842182   7.660720   6.470508   7.823950   6.816619
                   21         22         23         24         25
    21  C    0.000000
    22  H    2.157627   0.000000
    23  H    2.157526   4.304180   0.000000
    24  H    1.094592   2.488340   2.487559   0.000000
    25  C    5.096333   5.345050   5.447054   6.157562   0.000000
    26  C    6.347882   6.736805   6.384895   7.406439   1.398748
    27  C    5.007154   4.937240   5.694052   5.978244   1.394401
    28  C    7.314918   7.602428   7.376609   8.329328   2.419881
    29  H    6.739971   7.287350   6.558734   7.811542   2.165075
    30  C    6.188621   6.067774   6.787477   7.090787   2.417232
    31  H    4.255327   3.931638   5.290757   5.168507   2.162049
    32  C    7.249272   7.318028   7.557097   8.193527   2.796794
    33  H    8.303087   8.671430   8.204177   9.319934   3.410495
    34  H    6.457252   6.134462   7.234668   7.256051   3.406658
    35  H    8.198106   8.221092   8.491375   9.100686   3.891374
                   26         27         28         29         30
    26  C    0.000000
    27  C    2.407071   0.000000
    28  C    1.389102   2.779663   0.000000
    29  H    1.096305   3.403241   2.153503   0.000000
    30  C    2.777512   1.390990   2.404717   3.873796   0.000000
    31  H    3.404963   1.097453   3.877076   4.314292   2.156655
    32  C    2.409587   2.411040   1.391179   3.400627   1.389659
    33  H    2.154679   3.874492   1.094832   2.476306   3.398077
    34  H    3.872376   2.154998   3.398612   4.968665   1.094871
    35  H    3.401960   3.403744   2.159082   4.303154   2.158337
                   31         32         33         34         35
    31  H    0.000000
    32  C    3.402850   0.000000
    33  H    4.971908   2.157961   0.000000
    34  H    2.477391   2.157031   4.304062   0.000000
    35  H    4.305703   1.094580   2.487698   2.487789   0.000000
 Stoichiometry    C19H16
 Framework group  C1[X(C19H16)]
 Deg. of freedom    99
 Full point group                 C1      NOp   1
 Largest Abelian subgroup         C1      NOp   1
 Largest concise Abelian subgroup C1      NOp   1
                         Standard orientation:                         
 ---------------------------------------------------------------------
 Center     Atomic      Atomic             Coordinates (Angstroms)
 Number     Number       Type             X           Y           Z
 ---------------------------------------------------------------------
      1          6           0        0.024369   -0.011881   -0.754811
      2          1           0        0.001592   -0.006616   -1.878509
      3          6           0       -0.896241   -1.117364   -0.298784
      4          6           0       -1.211738   -1.304176    1.048074
      5          6           0       -1.465317   -1.963980   -1.253098
      6          6           0       -2.087890   -2.311110    1.434537
      7          1           0       -0.739078   -0.654749    1.800610
      8          6           0       -2.339333   -2.973057   -0.864782
      9          1           0       -1.223997   -1.834200   -2.314631
     10          6           0       -2.655286   -3.146307    0.478218
     11          1           0       -2.330076   -2.445622    2.493621
     12          1           0       -2.780808   -3.631423   -1.620108
     13          1           0       -3.347001   -3.938545    0.781784
     14          6           0        1.462609   -0.238746   -0.360661
     15          6           0        1.837211   -0.664061    0.915007
     16          6           0        2.457546   -0.009263   -1.315864
     17          6           0        3.177245   -0.860367    1.228854
     18          1           0        1.060551   -0.852277    1.673837
     19          6           0        3.796888   -0.203309   -0.999669
     20          1           0        2.182938    0.327303   -2.322671
     21          6           0        4.160063   -0.630197    0.273086
     22          1           0        3.456570   -1.198005    2.232179
     23          1           0        4.567084   -0.020053   -1.755947
     24          1           0        5.214989   -0.784979    0.520686
     25          6           0       -0.508283    1.329172   -0.310040
     26          6           0       -1.468769    1.958861   -1.108446
     27          6           0       -0.087336    1.955046    0.862751
     28          6           0       -1.996282    3.189086   -0.737122
     29          1           0       -1.812262    1.478200   -2.031951
     30          6           0       -0.614950    3.188200    1.231273
     31          1           0        0.671428    1.477508    1.495711
     32          6           0       -1.570130    3.807248    0.434052
     33          1           0       -2.748938    3.672396   -1.368453
     34          1           0       -0.274101    3.671023    2.152928
     35          1           0       -1.985145    4.777271    0.725470
 ---------------------------------------------------------------------
 Rotational constants (GHZ):      0.4006080      0.3718703      0.2368612
 Standard basis: 6-311G (5D, 7F)
 There are   295 symmetry adapted basis functions of A   symmetry.
 Integral buffers will be    262144 words long.
 Raffenetti 1 integral format.
 Two-electron integral symmetry is turned on.
   295 basis functions,   574 primitive gaussians,   295 cartesian basis functions
    65 alpha electrons       65 beta electrons
       nuclear repulsion energy      1288.4614244513 Hartrees.
 NAtoms=   35 NActive=   35 NUniq=   35 SFac= 7.50D-01 NAtFMM=   80 NAOKFM=F Big=F
 One-electron integrals computed using PRISM.
 PrsmSu:  requested number of processors reduced to:  10 ShMem   1 Linda.
 NBasis=   295 RedAO= T  NBF=   295
 NBsUse=   295 1.00D-06 NBFU=   295
 Harris functional with IExCor=  205 diagonalized for initial guess.
 ExpMin= 1.03D-01 ExpMax= 4.56D+03 ExpMxC= 6.82D+02 IAcc=1 IRadAn=         1 AccDes= 0.00D+00
 HarFok:  IExCor=  205 AccDes= 0.00D+00 IRadAn=         1 IDoV= 1
 ScaDFX=  1.000000  1.000000  1.000000  1.000000
 FoFCou: FMM=F IPFlag=           0 FMFlag=      100000 FMFlg1=           0
         NFxFlg=           0 DoJE=T BraDBF=F KetDBF=T FulRan=T
         Omega=  0.000000  0.000000  1.000000  0.000000  0.000000 ICntrl=     500 IOpCl=  0
         NMat0=    1 NMatS0=    1 NMatT0=    0 NMatD0=    1 NMtDS0=    0 NMtDT0=    0
         I1Cent=           4 NGrid=           0.
 Petite list used in FoFCou.
 Initial guess orbital symmetries:
       Occupied  (A) (A) (A) (A) (A) (A) (A) (A) (A) (A) (A) (A)
                 (A) (A) (A) (A) (A) (A) (A) (A) (A) (A) (A) (A)
                 (A) (A) (A) (A) (A) (A) (A) (A) (A) (A) (A) (A)
                 (A) (A) (A) (A) (A) (A) (A) (A) (A) (A) (A) (A)
                 (A) (A) (A) (A) (A) (A) (A) (A) (A) (A) (A) (A)
                 (A) (A) (A) (A) (A)
       Virtual   (A) (A) (A) (A) (A) (A) (A) (A) (A) (A) (A) (A)
                 (A) (A) (A) (A) (A) (A) (A) (A) (A) (A) (A) (A)
                 (A) (A) (A) (A) (A) (A) (A) (A) (A) (A) (A) (A)
                 (A) (A) (A) (A) (A) (A) (A) (A) (A) (A) (A) (A)
                 (A) (A) (A) (A) (A) (A) (A) (A) (A) (A) (A) (A)
                 (A) (A) (A) (A) (A) (A) (A) (A) (A) (A) (A) (A)
                 (A) (A) (A) (A) (A) (A) (A) (A) (A) (A) (A) (A)
                 (A) (A) (A) (A) (A) (A) (A) (A) (A) (A) (A) (A)
                 (A) (A) (A) (A) (A) (A) (A) (A) (A) (A) (A) (A)
                 (A) (A) (A) (A) (A) (A) (A) (A) (A) (A) (A) (A)
                 (A) (A) (A) (A) (A) (A) (A) (A) (A) (A) (A) (A)
                 (A) (A) (A) (A) (A) (A) (A) (A) (A) (A) (A) (A)
                 (A) (A) (A) (A) (A) (A) (A) (A) (A) (A) (A) (A)
                 (A) (A) (A) (A) (A) (A) (A) (A) (A) (A) (A) (A)
                 (A) (A) (A) (A) (A) (A) (A) (A) (A) (A) (A) (A)
                 (A) (A) (A) (A) (A) (A) (A) (A) (A) (A) (A) (A)
                 (A) (A) (A) (A) (A) (A) (A) (A) (A) (A) (A) (A)
                 (A) (A) (A) (A) (A) (A) (A) (A) (A) (A) (A) (A)
                 (A) (A) (A) (A) (A) (A) (A) (A) (A) (A) (A) (A)
                 (A) (A)
 The electronic state of the initial guess is 1-A.
 Requested convergence on RMS density matrix=1.00D-08 within 128 cycles.
 Requested convergence on MAX density matrix=1.00D-06.
 Requested convergence on             energy=1.00D-06.
 No special actions if energy rises.
 Integral accuracy reduced to 1.0D-05 until final iterations.
 Initial convergence to 1.0D-05 achieved.  Increase integral accuracy.
 SCF Done:  E(RHF) =  -728.671759076     A.U. after   14 cycles
             Convg  =    0.6112D-08             -V/T =  2.0001

 **********************************************************************

            Population analysis using the SCF density.

 **********************************************************************

 Orbital symmetries:
       Occupied  (A) (A) (A) (A) (A) (A) (A) (A) (A) (A) (A) (A)
                 (A) (A) (A) (A) (A) (A) (A) (A) (A) (A) (A) (A)
                 (A) (A) (A) (A) (A) (A) (A) (A) (A) (A) (A) (A)
                 (A) (A) (A) (A) (A) (A) (A) (A) (A) (A) (A) (A)
                 (A) (A) (A) (A) (A) (A) (A) (A) (A) (A) (A) (A)
                 (A) (A) (A) (A) (A)
       Virtual   (A) (A) (A) (A) (A) (A) (A) (A) (A) (A) (A) (A)
                 (A) (A) (A) (A) (A) (A) (A) (A) (A) (A) (A) (A)
                 (A) (A) (A) (A) (A) (A) (A) (A) (A) (A) (A) (A)
                 (A) (A) (A) (A) (A) (A) (A) (A) (A) (A) (A) (A)
                 (A) (A) (A) (A) (A) (A) (A) (A) (A) (A) (A) (A)
                 (A) (A) (A) (A) (A) (A) (A) (A) (A) (A) (A) (A)
                 (A) (A) (A) (A) (A) (A) (A) (A) (A) (A) (A) (A)
                 (A) (A) (A) (A) (A) (A) (A) (A) (A) (A) (A) (A)
                 (A) (A) (A) (A) (A) (A) (A) (A) (A) (A) (A) (A)
                 (A) (A) (A) (A) (A) (A) (A) (A) (A) (A) (A) (A)
                 (A) (A) (A) (A) (A) (A) (A) (A) (A) (A) (A) (A)
                 (A) (A) (A) (A) (A) (A) (A) (A) (A) (A) (A) (A)
                 (A) (A) (A) (A) (A) (A) (A) (A) (A) (A) (A) (A)
                 (A) (A) (A) (A) (A) (A) (A) (A) (A) (A) (A) (A)
                 (A) (A) (A) (A) (A) (A) (A) (A) (A) (A) (A) (A)
                 (A) (A) (A) (A) (A) (A) (A) (A) (A) (A) (A) (A)
                 (A) (A) (A) (A) (A) (A) (A) (A) (A) (A) (A) (A)
                 (A) (A) (A) (A) (A) (A) (A) (A) (A) (A) (A) (A)
                 (A) (A) (A) (A) (A) (A) (A) (A) (A) (A) (A) (A)
                 (A) (A)
 The electronic state is 1-A.
 Alpha  occ. eigenvalues --  -11.25829 -11.25272 -11.25257 -11.25127 -11.24444
 Alpha  occ. eigenvalues --  -11.24436 -11.24359 -11.24348 -11.24206 -11.24185
 Alpha  occ. eigenvalues --  -11.24123 -11.24121 -11.24107 -11.24058 -11.24031
 Alpha  occ. eigenvalues --  -11.24016 -11.23909 -11.23830 -11.23728  -1.18593
 Alpha  occ. eigenvalues --   -1.15828  -1.15679  -1.09038  -1.02410  -1.02118
 Alpha  occ. eigenvalues --   -1.01889  -1.01496  -1.01384  -0.92961  -0.84532
 Alpha  occ. eigenvalues --   -0.82951  -0.82540  -0.81708  -0.81555  -0.77730
 Alpha  occ. eigenvalues --   -0.70735  -0.70447  -0.69104  -0.65992  -0.63624
 Alpha  occ. eigenvalues --   -0.63506  -0.62368  -0.62024  -0.61897  -0.59569
 Alpha  occ. eigenvalues --   -0.58776  -0.58516  -0.58428  -0.57607  -0.53935
 Alpha  occ. eigenvalues --   -0.51738  -0.51083  -0.50839  -0.49674  -0.49173
 Alpha  occ. eigenvalues --   -0.48680  -0.47785  -0.47480  -0.46754  -0.34699
 Alpha  occ. eigenvalues --   -0.34244  -0.33701  -0.33579  -0.33277  -0.31180
 Alpha virt. eigenvalues --    0.11645   0.12021   0.13573   0.13752   0.14069
 Alpha virt. eigenvalues --    0.14928   0.15135   0.16272   0.16377   0.16887
 Alpha virt. eigenvalues --    0.18814   0.19130   0.19284   0.21283   0.21421
 Alpha virt. eigenvalues --    0.21510   0.23631   0.24249   0.24981   0.27100
 Alpha virt. eigenvalues --    0.28513   0.29485   0.34023   0.34200   0.35865
 Alpha virt. eigenvalues --    0.37486   0.38504   0.39681   0.40979   0.43675
 Alpha virt. eigenvalues --    0.44103   0.44375   0.45018   0.45387   0.45580
 Alpha virt. eigenvalues --    0.45866   0.46411   0.48399   0.49854   0.50372
 Alpha virt. eigenvalues --    0.50816   0.51040   0.51442   0.54962   0.55777
 Alpha virt. eigenvalues --    0.56808   0.57908   0.58950   0.59044   0.59613
 Alpha virt. eigenvalues --    0.59698   0.60668   0.61089   0.61498   0.61704
 Alpha virt. eigenvalues --    0.61853   0.62386   0.62460   0.63298   0.63473
 Alpha virt. eigenvalues --    0.64161   0.64998   0.65171   0.65409   0.66906
 Alpha virt. eigenvalues --    0.67401   0.68249   0.68438   0.70104   0.71458
 Alpha virt. eigenvalues --    0.72348   0.73789   0.74462   0.75052   0.76250
 Alpha virt. eigenvalues --    0.77314   0.78322   0.78550   0.80467   0.81154
 Alpha virt. eigenvalues --    0.81850   0.82202   0.82339   0.82823   0.82926
 Alpha virt. eigenvalues --    0.83499   0.83950   0.84059   0.84787   0.85603
 Alpha virt. eigenvalues --    0.86028   0.86379   0.86891   0.87445   0.88076
 Alpha virt. eigenvalues --    0.89730   0.90522   0.91282   0.92974   0.94369
 Alpha virt. eigenvalues --    0.96107   0.96843   0.97694   0.98197   0.98978
 Alpha virt. eigenvalues --    0.99322   1.00333   1.02815   1.05735   1.06221
 Alpha virt. eigenvalues --    1.06774   1.07144   1.08034   1.08356   1.10554
 Alpha virt. eigenvalues --    1.11121   1.12214   1.12485   1.13041   1.14255
 Alpha virt. eigenvalues --    1.14629   1.15424   1.18582   1.19440   1.21690
 Alpha virt. eigenvalues --    1.25290   1.26783   1.27724   1.28182   1.28784
 Alpha virt. eigenvalues --    1.30320   1.35082   1.39368   1.45260   1.46681
 Alpha virt. eigenvalues --    1.51716   1.52311   1.56547   2.54611   2.55623
 Alpha virt. eigenvalues --    2.56186   2.59148   2.61980   2.62493   2.64445
 Alpha virt. eigenvalues --    2.66961   2.67757   2.68478   2.72307   2.76743
 Alpha virt. eigenvalues --    2.77749   2.83504   2.87950   2.88574   2.94137
 Alpha virt. eigenvalues --    2.94285   2.94430   2.97087   2.97458   2.98028
 Alpha virt. eigenvalues --    3.00390   3.00801   3.04039   3.05749   3.07185
 Alpha virt. eigenvalues --    3.08138   3.08411   3.08924   3.09983   3.14316
 Alpha virt. eigenvalues --    3.14824   3.16344   3.16845   3.17558   3.18868
 Alpha virt. eigenvalues --    3.22637   3.25636   3.25815   3.28303   3.28838
 Alpha virt. eigenvalues --    3.30933   3.33372   3.34274   3.35183   3.42622
 Alpha virt. eigenvalues --    3.43055   3.44397   3.46877   3.49522   3.52268
 Alpha virt. eigenvalues --    3.53403   3.54464   3.59154   3.60633   3.60697
 Alpha virt. eigenvalues --    3.63093   3.63582   3.63787   3.65957   3.66677
 Alpha virt. eigenvalues --    3.68329   3.70251   3.70501   3.71412   3.73468
 Alpha virt. eigenvalues --    3.74194   3.75534   3.80864   3.85839   3.86677
 Alpha virt. eigenvalues --    3.92980  24.24865  24.30698  24.31565  24.50532
 Alpha virt. eigenvalues --   24.50843  24.51121  24.54013  24.54653  24.56133
 Alpha virt. eigenvalues --   24.77297  24.78580  24.79156  24.79614  24.80645
 Alpha virt. eigenvalues --   24.81840  24.83278  25.05553  25.05825  25.06126
          Condensed to atoms (all electrons):
              1          2          3          4          5          6
     1  C    5.832617   0.464285   0.184919  -0.054365  -0.026119   0.001398
     2  H    0.464285   0.512422  -0.074291   0.005566   0.001975  -0.000281
     3  C    0.184919  -0.074291   5.374529   0.439228   0.503436  -0.061712
     4  C   -0.054365   0.005566   0.439228   5.095218  -0.065628   0.479425
     5  C   -0.026119   0.001975   0.503436  -0.065628   5.070764  -0.033305
     6  C    0.001398  -0.000281  -0.061712   0.479425  -0.033305   5.035383
     7  H    0.003066   0.000067  -0.048253   0.388535   0.004045  -0.027240
     8  C    0.007645   0.001757  -0.072618  -0.029591   0.459382  -0.076838
     9  H   -0.000469   0.002394  -0.046750   0.004624   0.395898  -0.000241
    10  C    0.001273  -0.000013  -0.017887  -0.092026  -0.086333   0.494300
    11  H   -0.000319   0.000012   0.006074  -0.039087  -0.000451   0.396704
    12  H   -0.000367  -0.000037   0.007056  -0.000618  -0.039725   0.006221
    13  H   -0.000013  -0.000001  -0.001592   0.008010   0.007537  -0.042921
    14  C    0.170077  -0.074071  -0.112543  -0.006370  -0.000301   0.001777
    15  C   -0.046153   0.005100  -0.004699  -0.017139   0.001474  -0.001718
    16  C   -0.045006   0.002924   0.001836   0.000230   0.000207   0.000028
    17  C    0.003528  -0.000274   0.001550  -0.000018   0.000043  -0.000089
    18  H   -0.000232  -0.000139  -0.003018   0.002933  -0.000254   0.001155
    19  C    0.008286   0.001516  -0.000681   0.000029  -0.000004  -0.000001
    20  H   -0.000770   0.002694   0.000354  -0.000025  -0.000020   0.000002
    21  C    0.001151  -0.000016   0.000022  -0.000004  -0.000011   0.000001
    22  H   -0.000296   0.000014   0.000011   0.000031   0.000002   0.000000
    23  H   -0.000390  -0.000029   0.000014   0.000000   0.000001   0.000000
    24  H   -0.000019  -0.000001  -0.000002   0.000001   0.000000   0.000000
    25  C    0.156160  -0.059807  -0.153833  -0.007909  -0.005640   0.000699
    26  C   -0.051087  -0.003374   0.000706   0.000747   0.002060  -0.000074
    27  C   -0.039534   0.004878  -0.013972   0.000020  -0.000329  -0.000026
    28  C    0.006237   0.001537  -0.000433   0.000196  -0.000036   0.000002
    29  H    0.001817   0.001023   0.000581  -0.000049   0.001470  -0.000019
    30  C    0.004962  -0.000248   0.000596  -0.000644   0.000027  -0.000015
    31  H   -0.001838  -0.000073  -0.000962   0.000479  -0.000079   0.000056
    32  C    0.000983   0.000009   0.000077   0.000031  -0.000003   0.000003
    33  H   -0.000351  -0.000026   0.000012   0.000004  -0.000001   0.000000
    34  H   -0.000326   0.000013   0.000005   0.000013   0.000000   0.000000
    35  H   -0.000012  -0.000002  -0.000001  -0.000001   0.000000   0.000000
              7          8          9         10         11         12
     1  C    0.003066   0.007645  -0.000469   0.001273  -0.000319  -0.000367
     2  H    0.000067   0.001757   0.002394  -0.000013   0.000012  -0.000037
     3  C   -0.048253  -0.072618  -0.046750  -0.017887   0.006074   0.007056
     4  C    0.388535  -0.029591   0.004624  -0.092026  -0.039087  -0.000618
     5  C    0.004045   0.459382   0.395898  -0.086333  -0.000451  -0.039725
     6  C   -0.027240  -0.076838  -0.000241   0.494300   0.396704   0.006221
     7  H    0.494835  -0.000168  -0.000260   0.004549  -0.003424   0.000020
     8  C   -0.000168   5.055295  -0.035086   0.496937   0.006001   0.396801
     9  H   -0.000260  -0.035086   0.510858   0.005168   0.000024  -0.004177
    10  C    0.004549   0.496937   0.005168   5.031128  -0.039563  -0.040763
    11  H   -0.003424   0.006001   0.000024  -0.039563   0.515364  -0.000211
    12  H    0.000020   0.396801  -0.004177  -0.040763  -0.000211   0.518289
    13  H   -0.000169  -0.042754  -0.000186   0.399633  -0.004456  -0.004583
    14  C   -0.003186  -0.000597   0.000562  -0.000036   0.000009   0.000020
    15  C    0.000276   0.000127   0.000003   0.000044   0.000017  -0.000001
    16  C   -0.000196  -0.000009   0.000138  -0.000001   0.000000   0.000000
    17  C    0.000858   0.000000   0.000003   0.000003   0.000001   0.000000
    18  H    0.003446  -0.000138  -0.000004   0.000078  -0.000105   0.000000
    19  C    0.000016   0.000001   0.000003   0.000000   0.000000   0.000000
    20  H   -0.000007   0.000001  -0.000024   0.000000   0.000000   0.000000
    21  C   -0.000011   0.000000  -0.000001   0.000000   0.000000   0.000000
    22  H   -0.000052   0.000000   0.000000  -0.000001   0.000001   0.000000
    23  H    0.000000   0.000000   0.000000   0.000000   0.000000   0.000000
    24  H    0.000000   0.000000   0.000000   0.000000   0.000000   0.000000
    25  C   -0.001815  -0.000460   0.000154   0.000098   0.000018   0.000010
    26  C   -0.000274  -0.000102   0.000255  -0.000013   0.000006   0.000003
    27  C    0.004606   0.000047  -0.000048  -0.000004  -0.000002   0.000000
    28  C   -0.000101   0.000007  -0.000006   0.000000   0.000001   0.000000
    29  H   -0.000038   0.000031   0.000257  -0.000012   0.000000  -0.000003
    30  C    0.000438  -0.000001   0.000000   0.000000  -0.000001   0.000000
    31  H    0.000943   0.000002   0.000000   0.000002  -0.000008   0.000000
    32  C   -0.000013   0.000000   0.000000   0.000000   0.000000   0.000000
    33  H    0.000001   0.000000  -0.000001   0.000000   0.000000   0.000000
    34  H    0.000001   0.000000   0.000000   0.000000   0.000000   0.000000
    35  H   -0.000001   0.000000   0.000000   0.000000   0.000000   0.000000
             13         14         15         16         17         18
     1  C   -0.000013   0.170077  -0.046153  -0.045006   0.003528  -0.000232
     2  H   -0.000001  -0.074071   0.005100   0.002924  -0.000274  -0.000139
     3  C   -0.001592  -0.112543  -0.004699   0.001836   0.001550  -0.003018
     4  C    0.008010  -0.006370  -0.017139   0.000230  -0.000018   0.002933
     5  C    0.007537  -0.000301   0.001474   0.000207   0.000043  -0.000254
     6  C   -0.042921   0.001777  -0.001718   0.000028  -0.000089   0.001155
     7  H   -0.000169  -0.003186   0.000276  -0.000196   0.000858   0.003446
     8  C   -0.042754  -0.000597   0.000127  -0.000009   0.000000  -0.000138
     9  H   -0.000186   0.000562   0.000003   0.000138   0.000003  -0.000004
    10  C    0.399633  -0.000036   0.000044  -0.000001   0.000003   0.000078
    11  H   -0.004456   0.000009   0.000017   0.000000   0.000001  -0.000105
    12  H   -0.004583   0.000020  -0.000001   0.000000   0.000000   0.000000
    13  H    0.517498  -0.000001   0.000001   0.000000   0.000000   0.000000
    14  C   -0.000001   5.366728   0.449951   0.495578  -0.064567  -0.053051
    15  C    0.000001   0.449951   5.122330  -0.061339   0.473332   0.386664
    16  C    0.000000   0.495578  -0.061339   5.040584  -0.036162   0.004508
    17  C    0.000000  -0.064567   0.473332  -0.036162   5.056606  -0.025334
    18  H    0.000000  -0.053051   0.386664   0.004508  -0.025334   0.498289
    19  C    0.000000  -0.071706  -0.031268   0.471754  -0.075076  -0.000213
    20  H    0.000000  -0.045624   0.004763   0.394425  -0.000404  -0.000243
    21  C    0.000000  -0.017666  -0.094846  -0.086792   0.495665   0.004793
    22  H    0.000000   0.006025  -0.036773  -0.000390   0.395581  -0.003440
    23  H    0.000000   0.007152  -0.000599  -0.039675   0.006229   0.000020
    24  H    0.000000  -0.001596   0.008122   0.007491  -0.042554  -0.000183
    25  C   -0.000002  -0.102779  -0.005521  -0.001513   0.000890  -0.000490
    26  C    0.000000   0.006567  -0.000166   0.000418   0.000023  -0.000026
    27  C    0.000000  -0.014391  -0.007516   0.001918  -0.001491   0.000378
    28  C    0.000000  -0.000762   0.000024  -0.000016   0.000000   0.000006
    29  H    0.000000   0.000702  -0.000038   0.000012   0.000000   0.000007
    30  C    0.000000   0.000497   0.000010  -0.000090  -0.000031   0.000050
    31  H    0.000000  -0.003196   0.000938  -0.000908   0.000979   0.000134
    32  C    0.000000   0.000046  -0.000020  -0.000013   0.000000   0.000001
    33  H    0.000000   0.000011   0.000000   0.000001   0.000000   0.000000
    34  H    0.000000   0.000038   0.000029   0.000007  -0.000001  -0.000017
    35  H    0.000000  -0.000001   0.000001   0.000000   0.000000   0.000000
             19         20         21         22         23         24
     1  C    0.008286  -0.000770   0.001151  -0.000296  -0.000390  -0.000019
     2  H    0.001516   0.002694  -0.000016   0.000014  -0.000029  -0.000001
     3  C   -0.000681   0.000354   0.000022   0.000011   0.000014  -0.000002
     4  C    0.000029  -0.000025  -0.000004   0.000031   0.000000   0.000001
     5  C   -0.000004  -0.000020  -0.000011   0.000002   0.000001   0.000000
     6  C   -0.000001   0.000002   0.000001   0.000000   0.000000   0.000000
     7  H    0.000016  -0.000007  -0.000011  -0.000052   0.000000   0.000000
     8  C    0.000001   0.000001   0.000000   0.000000   0.000000   0.000000
     9  H    0.000003  -0.000024  -0.000001   0.000000   0.000000   0.000000
    10  C    0.000000   0.000000   0.000000  -0.000001   0.000000   0.000000
    11  H    0.000000   0.000000   0.000000   0.000001   0.000000   0.000000
    12  H    0.000000   0.000000   0.000000   0.000000   0.000000   0.000000
    13  H    0.000000   0.000000   0.000000   0.000000   0.000000   0.000000
    14  C   -0.071706  -0.045624  -0.017666   0.006025   0.007152  -0.001596
    15  C   -0.031268   0.004763  -0.094846  -0.036773  -0.000599   0.008122
    16  C    0.471754   0.394425  -0.086792  -0.000390  -0.039675   0.007491
    17  C   -0.075076  -0.000404   0.495665   0.395581   0.006229  -0.042554
    18  H   -0.000213  -0.000243   0.004793  -0.003440   0.000020  -0.000183
    19  C    5.044512  -0.034665   0.494756   0.005894   0.396653  -0.042951
    20  H   -0.034665   0.507605   0.005349   0.000022  -0.004214  -0.000183
    21  C    0.494756   0.005349   5.030351  -0.039650  -0.041063   0.399184
    22  H    0.005894   0.000022  -0.039650   0.515439  -0.000212  -0.004352
    23  H    0.396653  -0.004214  -0.041063  -0.000212   0.517937  -0.004549
    24  H   -0.042951  -0.000183   0.399184  -0.004352  -0.004549   0.517619
    25  C   -0.000717   0.000481   0.000022  -0.000007   0.000022   0.000001
    26  C    0.000003   0.000106  -0.000001  -0.000001   0.000000   0.000000
    27  C    0.000228   0.000190   0.000079   0.000014  -0.000001  -0.000001
    28  C    0.000001  -0.000008   0.000000   0.000000   0.000000   0.000000
    29  H    0.000001   0.000002   0.000000   0.000000   0.000000   0.000000
    30  C   -0.000004   0.000009   0.000004   0.000001   0.000000   0.000000
    31  H   -0.000135  -0.000036   0.000047  -0.000002   0.000001   0.000001
    32  C    0.000000  -0.000004   0.000000   0.000000   0.000000   0.000000
    33  H    0.000000   0.000000   0.000000   0.000000   0.000000   0.000000
    34  H    0.000001   0.000000  -0.000001   0.000000   0.000000   0.000000
    35  H    0.000000   0.000000   0.000000   0.000000   0.000000   0.000000
             25         26         27         28         29         30
     1  C    0.156160  -0.051087  -0.039534   0.006237   0.001817   0.004962
     2  H   -0.059807  -0.003374   0.004878   0.001537   0.001023  -0.000248
     3  C   -0.153833   0.000706  -0.013972  -0.000433   0.000581   0.000596
     4  C   -0.007909   0.000747   0.000020   0.000196  -0.000049  -0.000644
     5  C   -0.005640   0.002060  -0.000329  -0.000036   0.001470   0.000027
     6  C    0.000699  -0.000074  -0.000026   0.000002  -0.000019  -0.000015
     7  H   -0.001815  -0.000274   0.004606  -0.000101  -0.000038   0.000438
     8  C   -0.000460  -0.000102   0.000047   0.000007   0.000031  -0.000001
     9  H    0.000154   0.000255  -0.000048  -0.000006   0.000257   0.000000
    10  C    0.000098  -0.000013  -0.000004   0.000000  -0.000012   0.000000
    11  H    0.000018   0.000006  -0.000002   0.000001   0.000000  -0.000001
    12  H    0.000010   0.000003   0.000000   0.000000  -0.000003   0.000000
    13  H   -0.000002   0.000000   0.000000   0.000000   0.000000   0.000000
    14  C   -0.102779   0.006567  -0.014391  -0.000762   0.000702   0.000497
    15  C   -0.005521  -0.000166  -0.007516   0.000024  -0.000038   0.000010
    16  C   -0.001513   0.000418   0.001918  -0.000016   0.000012  -0.000090
    17  C    0.000890   0.000023  -0.001491   0.000000   0.000000  -0.000031
    18  H   -0.000490  -0.000026   0.000378   0.000006   0.000007   0.000050
    19  C   -0.000717   0.000003   0.000228   0.000001   0.000001  -0.000004
    20  H    0.000481   0.000106   0.000190  -0.000008   0.000002   0.000009
    21  C    0.000022  -0.000001   0.000079   0.000000   0.000000   0.000004
    22  H   -0.000007  -0.000001   0.000014   0.000000   0.000000   0.000001
    23  H    0.000022   0.000000  -0.000001   0.000000   0.000000   0.000000
    24  H    0.000001   0.000000  -0.000001   0.000000   0.000000   0.000000
    25  C    5.365544   0.472583   0.487082  -0.065039  -0.050650  -0.064739
    26  C    0.472583   5.072035  -0.072178   0.466457   0.399612  -0.031589
    27  C    0.487082  -0.072178   5.088048  -0.027895   0.004139   0.471015
    28  C   -0.065039   0.466457  -0.027895   5.050173  -0.035601  -0.076852
    29  H   -0.050650   0.399612   0.004139  -0.035601   0.509729  -0.000339
    30  C   -0.064739  -0.031589   0.471015  -0.076852  -0.000339   5.051157
    31  H   -0.042420   0.004201   0.390256  -0.000184  -0.000248  -0.030072
    32  C   -0.018535  -0.086080  -0.093482   0.488584   0.005345   0.499418
    33  H    0.006693  -0.039634  -0.000522   0.397100  -0.004289   0.006123
    34  H    0.006186  -0.000423  -0.037556   0.005999   0.000024   0.395888
    35  H   -0.001479   0.007371   0.007824  -0.042966  -0.000185  -0.042196
             31         32         33         34         35
     1  C   -0.001838   0.000983  -0.000351  -0.000326  -0.000012
     2  H   -0.000073   0.000009  -0.000026   0.000013  -0.000002
     3  C   -0.000962   0.000077   0.000012   0.000005  -0.000001
     4  C    0.000479   0.000031   0.000004   0.000013  -0.000001
     5  C   -0.000079  -0.000003  -0.000001   0.000000   0.000000
     6  C    0.000056   0.000003   0.000000   0.000000   0.000000
     7  H    0.000943  -0.000013   0.000001   0.000001  -0.000001
     8  C    0.000002   0.000000   0.000000   0.000000   0.000000
     9  H    0.000000   0.000000  -0.000001   0.000000   0.000000
    10  C    0.000002   0.000000   0.000000   0.000000   0.000000
    11  H   -0.000008   0.000000   0.000000   0.000000   0.000000
    12  H    0.000000   0.000000   0.000000   0.000000   0.000000
    13  H    0.000000   0.000000   0.000000   0.000000   0.000000
    14  C   -0.003196   0.000046   0.000011   0.000038  -0.000001
    15  C    0.000938  -0.000020   0.000000   0.000029   0.000001
    16  C   -0.000908  -0.000013   0.000001   0.000007   0.000000
    17  C    0.000979   0.000000   0.000000  -0.000001   0.000000
    18  H    0.000134   0.000001   0.000000  -0.000017   0.000000
    19  C   -0.000135   0.000000   0.000000   0.000001   0.000000
    20  H   -0.000036  -0.000004   0.000000   0.000000   0.000000
    21  C    0.000047   0.000000   0.000000  -0.000001   0.000000
    22  H   -0.000002   0.000000   0.000000   0.000000   0.000000
    23  H    0.000001   0.000000   0.000000   0.000000   0.000000
    24  H    0.000001   0.000000   0.000000   0.000000   0.000000
    25  C   -0.042420  -0.018535   0.006693   0.006186  -0.001479
    26  C    0.004201  -0.086080  -0.039634  -0.000423   0.007371
    27  C    0.390256  -0.093482  -0.000522  -0.037556   0.007824
    28  C   -0.000184   0.488584   0.397100   0.005999  -0.042966
    29  H   -0.000248   0.005345  -0.004289   0.000024  -0.000185
    30  C   -0.030072   0.499418   0.006123   0.395888  -0.042196
    31  H    0.481056   0.004712   0.000020  -0.003329  -0.000182
    32  C    0.004712   5.033576  -0.040733  -0.040273   0.399203
    33  H    0.000020  -0.040733   0.518567  -0.000213  -0.004485
    34  H   -0.003329  -0.040273  -0.000213   0.516834  -0.004445
    35  H   -0.000182   0.399203  -0.004485  -0.004445   0.518545
 Mulliken atomic charges:
              1
     1  C   -0.580737
     2  H    0.204500
     3  C    0.092241
     4  C   -0.111845
     5  C   -0.190078
     6  C   -0.172677
     7  H    0.179507
     8  C   -0.165672
     9  H    0.166913
    10  C   -0.156561
    11  H    0.163396
    12  H    0.162063
    13  H    0.163999
    14  C    0.066704
    15  C   -0.145408
    16  C   -0.149947
    17  C   -0.189289
    18  H    0.184426
    19  C   -0.166233
    20  H    0.170224
    21  C   -0.151360
    22  H    0.162141
    23  H    0.162705
    24  H    0.163975
    25  C    0.086711
    26  C   -0.148133
    27  C   -0.151777
    28  C   -0.166426
    29  H    0.166721
    30  C   -0.183375
    31  H    0.199847
    32  C   -0.152831
    33  H    0.161720
    34  H    0.161546
    35  H    0.163010
 Sum of Mulliken atomic charges =   0.00000
 Mulliken charges with hydrogens summed into heavy atoms:
              1
     1  C   -0.376237
     3  C    0.092241
     4  C    0.067662
     5  C   -0.023165
     6  C   -0.009281
     8  C   -0.003609
    10  C    0.007438
    14  C    0.066704
    15  C    0.039018
    16  C    0.020277
    17  C   -0.027148
    19  C   -0.003528
    21  C    0.012615
    25  C    0.086711
    26  C    0.018588
    27  C    0.048070
    28  C   -0.004706
    30  C   -0.021829
    32  C    0.010179
 Sum of Mulliken charges with hydrogens summed into heavy atoms =   0.00000
 Electronic spatial extent (au):  <R**2>=           4939.0095
 Charge=              0.0000 electrons
 Dipole moment (field-independent basis, Debye):
    X=             -0.0111    Y=             -0.0698    Z=             -0.0420  Tot=              0.0822
 Quadrupole moment (field-independent basis, Debye-Ang):
   XX=           -110.5337   YY=           -114.0832   ZZ=           -102.9161
   XY=              0.8420   XZ=              2.2844   YZ=             -0.0236
 Traceless Quadrupole moment (field-independent basis, Debye-Ang):
   XX=             -1.3560   YY=             -4.9055   ZZ=              6.2615
   XY=              0.8420   XZ=              2.2844   YZ=             -0.0236
 Octapole moment (field-independent basis, Debye-Ang**2):
  XXX=             40.1897  YYY=             16.2271  ZZZ=             -0.1895  XYY=            -45.1691
  XXY=            -12.2197  XXZ=             -6.5182  XZZ=              0.9692  YZZ=             -5.0565
  YYZ=             10.5090  XYZ=              0.0401
 Hexadecapole moment (field-independent basis, Debye-Ang**3):
 XXXX=          -3094.0029 YYYY=          -2905.4406 ZZZZ=           -785.2638 XXXY=             -8.6214
 XXXZ=              3.4081 YYYX=              5.4196 YYYZ=             60.9768 ZZZX=              6.0214
 ZZZY=             -3.7798 XXYY=           -973.1575 XXZZ=           -631.6519 YYZZ=           -601.0271
 XXYZ=            -50.3035 YYXZ=             19.9076 ZZXY=             16.1191
 N-N= 1.288461424451D+03 E-N=-4.272934605701D+03  KE= 7.285924812827D+02
 PrsmSu:  requested number of processors reduced to:  10 ShMem   1 Linda.
 Calling FoFJK, ICntrl=      2127 FMM=F ISym2X=0 I1Cent= 0 IOpClX= 0 NMat=1 NMatS=1 NMatT=0.
 ***** Axes restored to original set *****
 -------------------------------------------------------------------
 Center     Atomic                   Forces (Hartrees/Bohr)
 Number     Number              X              Y              Z
 -------------------------------------------------------------------
      1        6           0.013802403    0.004082296   -0.019101792
      2        1          -0.016934386   -0.005869768    0.020786923
      3        6          -0.007398732    0.003096382   -0.011665675
      4        6           0.000074591   -0.001866505    0.011523369
      5        6           0.004472914    0.000353542   -0.004050467
      6        6          -0.007899968   -0.001734782    0.009427522
      7        1          -0.009432309    0.013474603   -0.021569555
      8        6          -0.004227230    0.002781336   -0.012405569
      9        1          -0.013054184   -0.001119227    0.011818653
     10        6          -0.011972075    0.002316659   -0.006099758
     11        1           0.012678076    0.000955223   -0.010798488
     12        1           0.002642221   -0.003384311    0.016142861
     13        1           0.015723482   -0.002533320    0.005459890
     14        6           0.007159630   -0.010832218   -0.003191187
     15        6          -0.012501222    0.002620711    0.004324685
     16        6           0.004578325    0.002808674   -0.003296296
     17        6          -0.007542770   -0.006122968    0.007285779
     18        1           0.023715994   -0.017466417   -0.008051323
     19        6           0.011187690   -0.005832807   -0.003505578
     20        1          -0.011566779   -0.009113960    0.009909984
     21        6           0.003906611   -0.012591314    0.002766835
     22        1           0.010434860    0.009081154   -0.009377539
     23        1          -0.014450086    0.006418725    0.005387418
     24        1          -0.004079747    0.015765619   -0.004024098
     25        6           0.008195516    0.010072620    0.006703292
     26        6           0.000882717    0.003127482   -0.005571861
     27        6          -0.002813147   -0.010080032    0.004047701
     28        6           0.003280814    0.011664188   -0.004152030
     29        1          -0.001269417   -0.004667216    0.016709589
     30        6          -0.001478875   -0.001405490    0.011989878
     31        1           0.008064626    0.020002351   -0.004250306
     32        6           0.002892771    0.008865572    0.009882978
     33        1          -0.004736509   -0.015241697    0.004716557
     34        1           0.001248277    0.003909249   -0.016198578
     35        1          -0.003584081   -0.011534356   -0.011573814
 -------------------------------------------------------------------
 Cartesian Forces:  Max     0.023715994 RMS     0.009558638

 GradGradGradGradGradGradGradGradGradGradGradGradGradGradGradGradGradGrad
 Berny optimization.
 Internal  Forces:  Max     0.029869193 RMS     0.007834221
 Search for a local minimum.
 Step number   1 out of a maximum of  197
 All quantities printed in internal units (Hartrees-Bohrs-Radians)
 Mixed Optimization -- RFO/linear search
 Second derivative matrix not updated -- first step.
     Eigenvalues ---    0.00634   0.00645   0.00654   0.01530   0.01533
     Eigenvalues ---    0.01536   0.02137   0.02140   0.02146   0.02168
     Eigenvalues ---    0.02170   0.02172   0.02181   0.02185   0.02186
     Eigenvalues ---    0.02202   0.02203   0.02203   0.02213   0.02213
     Eigenvalues ---    0.02215   0.02216   0.02216   0.02217   0.02217
     Eigenvalues ---    0.02218   0.02219   0.02219   0.02220   0.02222
     Eigenvalues ---    0.04522   0.06369   0.06677   0.15996   0.15999
     Eigenvalues ---    0.15999   0.16000   0.16000   0.16000   0.16000
     Eigenvalues ---    0.16000   0.16000   0.16000   0.16000   0.16000
     Eigenvalues ---    0.16000   0.16000   0.16000   0.18931   0.19364
     Eigenvalues ---    0.22000   0.22000   0.22000   0.22000   0.22000
     Eigenvalues ---    0.22000   0.23476   0.23476   0.23477   0.24996
     Eigenvalues ---    0.24999   0.25000   0.31167   0.31355   0.31435
     Eigenvalues ---    0.31509   0.33460   0.33608   0.33965   0.34070
     Eigenvalues ---    0.34092   0.34094   0.34250   0.34256   0.34256
     Eigenvalues ---    0.34259   0.34260   0.34273   0.34281   0.34287
     Eigenvalues ---    0.34289   0.42411   0.42429   0.42489   0.42569
     Eigenvalues ---    0.42584   0.42623   0.46341   0.46353   0.46436
     Eigenvalues ---    0.46763   0.46774   0.46836   0.47221   0.47231
     Eigenvalues ---    0.47260   0.47325   0.47340   0.473771000.00000
     Eigenvalues --- 1000.000001000.000001000.000001000.000001000.00000
     Eigenvalues --- 1000.000001000.000001000.000001000.000001000.00000
     Eigenvalues --- 1000.000001000.000001000.000001000.000001000.00000
     Eigenvalues --- 1000.000001000.000001000.000001000.000001000.00000
     Eigenvalues --- 1000.000001000.000001000.000001000.000001000.00000
     Eigenvalues --- 1000.000001000.000001000.000001000.000001000.00000
     Eigenvalues --- 1000.000001000.000001000.000001000.000001000.00000
     Eigenvalues --- 1000.000001000.000001000.000001000.000001000.00000
     Eigenvalues --- 1000.000001000.000001000.000001000.000001000.00000
     Eigenvalues --- 1000.000001000.000001000.000001000.000001000.00000
     Eigenvalues --- 1000.000001000.000001000.000001000.000001000.00000
     Eigenvalues --- 1000.000001000.000001000.000001000.000001000.00000
     Eigenvalues --- 1000.000001000.000001000.000001000.000001000.00000
     Eigenvalues --- 1000.000001000.000001000.000001000.000001000.00000
     Eigenvalues --- 1000.000001000.000001000.000001000.000001000.00000
     Eigenvalues --- 1000.000001000.000001000.000001000.000001000.00000
     Eigenvalues --- 1000.000001000.000001000.000001000.000001000.00000
     Eigenvalues --- 1000.000001000.00000
 RFO step:  Lambda=-4.28727593D-02 EMin= 6.34281389D-03
 Linear search not attempted -- first point.
 Maximum step size (   0.300) exceeded in Quadratic search.
    -- Step size scaled by   0.575
 Iteration  1 RMS(Cart)=  0.12586495 RMS(Int)=  0.00284223
 Iteration  2 RMS(Cart)=  0.00585094 RMS(Int)=  0.00028900
 Iteration  3 RMS(Cart)=  0.00000908 RMS(Int)=  0.00028895
 Iteration  4 RMS(Cart)=  0.00000000 RMS(Int)=  0.00028895
 Variable       Old X    -DE/DX   Delta X   Delta X   Delta X     New X
                                 (Linear)    (Quad)   (Total)
    R1        2.12394  -0.02743   0.00000  -0.04450  -0.04450   2.07944
    R2        2.85191   0.02264   0.00000   0.03646   0.03646   2.88837
    R3        2.85052   0.02567   0.00000   0.04125   0.04125   2.89176
    R4        2.85340   0.02090   0.00000   0.03373   0.03373   2.88713
    R5        2.63782   0.00070   0.00000   0.00094   0.00096   2.63878
    R6        2.63975  -0.00419   0.00000  -0.00470  -0.00469   2.63507
    R7        2.62591  -0.00455   0.00000  -0.00500  -0.00499   2.62092
    R8        2.07996  -0.02543   0.00000  -0.03859  -0.03859   2.04137
    R9        2.62728  -0.00274   0.00000  -0.00312  -0.00313   2.62415
   R10        2.07176  -0.01764   0.00000  -0.02643  -0.02643   2.04533
   R11        2.62804  -0.00548   0.00000  -0.00620  -0.00621   2.62182
   R12        2.06872  -0.01668   0.00000  -0.02488  -0.02488   2.04384
   R13        2.62766  -0.00835   0.00000  -0.00946  -0.00948   2.61818
   R14        2.06911  -0.01670   0.00000  -0.02493  -0.02493   2.04418
   R15        2.06859  -0.01684   0.00000  -0.02511  -0.02511   2.04348
   R16        2.63788   0.00075   0.00000   0.00104   0.00105   2.63892
   R17        2.64222  -0.00355   0.00000  -0.00400  -0.00398   2.63824
   R18        2.62715  -0.00323   0.00000  -0.00348  -0.00349   2.62366
   R19        2.08252  -0.02987   0.00000  -0.04551  -0.04551   2.03700
   R20        2.62629  -0.00358   0.00000  -0.00411  -0.00410   2.62219
   R21        2.07211  -0.01774   0.00000  -0.02659  -0.02659   2.04552
   R22        2.62692  -0.00672   0.00000  -0.00756  -0.00758   2.61935
   R23        2.06895  -0.01671   0.00000  -0.02494  -0.02494   2.04402
   R24        2.62803  -0.00843   0.00000  -0.00960  -0.00961   2.61842
   R25        2.06901  -0.01670   0.00000  -0.02493  -0.02493   2.04408
   R26        2.06848  -0.01677   0.00000  -0.02501  -0.02501   2.04347
   R27        2.64325  -0.00427   0.00000  -0.00492  -0.00491   2.63834
   R28        2.63504  -0.00247   0.00000  -0.00273  -0.00272   2.63231
   R29        2.62502  -0.00415   0.00000  -0.00469  -0.00469   2.62033
   R30        2.07172  -0.01739   0.00000  -0.02605  -0.02605   2.04566
   R31        2.62859  -0.00264   0.00000  -0.00288  -0.00288   2.62571
   R32        2.07389  -0.02182   0.00000  -0.03281  -0.03281   2.04107
   R33        2.62895  -0.00593   0.00000  -0.00669  -0.00670   2.62225
   R34        2.06893  -0.01664   0.00000  -0.02483  -0.02483   2.04410
   R35        2.62607  -0.00633   0.00000  -0.00703  -0.00704   2.61904
   R36        2.06901  -0.01671   0.00000  -0.02494  -0.02494   2.04407
   R37        2.06846  -0.01673   0.00000  -0.02494  -0.02494   2.04352
    A1        1.86834  -0.00596   0.00000  -0.03559  -0.03484   1.83350
    A2        1.85591  -0.00923   0.00000  -0.04558  -0.04464   1.81127
    A3        1.85791  -0.00024   0.00000  -0.01877  -0.01860   1.83932
    A4        1.97415   0.01472   0.00000   0.05372   0.05254   2.02669
    A5        1.92451  -0.00402   0.00000   0.00969   0.00735   1.93186
    A6        1.97464   0.00300   0.00000   0.02542   0.02351   1.99815
    A7        2.12642   0.01648   0.00000   0.03226   0.03217   2.15859
    A8        2.07834  -0.00629   0.00000  -0.01247  -0.01254   2.06580
    A9        2.07829  -0.01021   0.00000  -0.02008  -0.02009   2.05820
   A10        2.10347   0.00380   0.00000   0.00846   0.00839   2.11186
   A11        2.07564   0.00413   0.00000   0.01304   0.01292   2.08857
   A12        2.10385  -0.00787   0.00000  -0.02099  -0.02111   2.08275
   A13        2.10038   0.00694   0.00000   0.01484   0.01484   2.11522
   A14        2.09447  -0.00406   0.00000  -0.00909  -0.00910   2.08537
   A15        2.08833  -0.00288   0.00000  -0.00574  -0.00576   2.08257
   A16        2.09577   0.00213   0.00000   0.00427   0.00427   2.10003
   A17        2.09162  -0.00096   0.00000  -0.00185  -0.00186   2.08975
   A18        2.09580  -0.00116   0.00000  -0.00241  -0.00242   2.09338
   A19        2.09791  -0.00010   0.00000  -0.00099  -0.00101   2.09689
   A20        2.09118   0.00020   0.00000   0.00094   0.00095   2.09213
   A21        2.09410  -0.00011   0.00000   0.00005   0.00006   2.09416
   A22        2.09051  -0.00254   0.00000  -0.00636  -0.00640   2.08411
   A23        2.09643   0.00126   0.00000   0.00314   0.00314   2.09957
   A24        2.09625   0.00129   0.00000   0.00323   0.00324   2.09948
   A25        2.14181   0.02505   0.00000   0.04918   0.04916   2.19098
   A26        2.06608  -0.01293   0.00000  -0.02540  -0.02542   2.04065
   A27        2.07530  -0.01213   0.00000  -0.02377  -0.02374   2.05156
   A28        2.10366   0.00441   0.00000   0.00980   0.00980   2.11346
   A29        2.08539   0.00421   0.00000   0.01329   0.01329   2.09868
   A30        2.09411  -0.00863   0.00000  -0.02312  -0.02312   2.07099
   A31        2.10298   0.00831   0.00000   0.01761   0.01764   2.12061
   A32        2.09375  -0.00487   0.00000  -0.01084  -0.01086   2.08290
   A33        2.08645  -0.00343   0.00000  -0.00677  -0.00678   2.07967
   A34        2.09773   0.00244   0.00000   0.00500   0.00497   2.10270
   A35        2.09018  -0.00115   0.00000  -0.00231  -0.00230   2.08788
   A36        2.09527  -0.00129   0.00000  -0.00269  -0.00268   2.09260
   A37        2.09757   0.00003   0.00000  -0.00100  -0.00100   2.09657
   A38        2.09140   0.00006   0.00000   0.00072   0.00072   2.09212
   A39        2.09421  -0.00009   0.00000   0.00028   0.00028   2.09449
   A40        2.08913  -0.00306   0.00000  -0.00763  -0.00767   2.08146
   A41        2.09722   0.00153   0.00000   0.00382   0.00383   2.10106
   A42        2.09683   0.00153   0.00000   0.00381   0.00383   2.10066
   A43        2.06454  -0.00206   0.00000  -0.00396  -0.00397   2.06057
   A44        2.14111   0.00962   0.00000   0.01898   0.01898   2.16008
   A45        2.07752  -0.00756   0.00000  -0.01502  -0.01501   2.06251
   A46        2.10235   0.00529   0.00000   0.01111   0.01111   2.11347
   A47        2.09278  -0.00324   0.00000  -0.00725  -0.00726   2.08553
   A48        2.08804  -0.00205   0.00000  -0.00386  -0.00386   2.08418
   A49        2.10162   0.00314   0.00000   0.00685   0.00685   2.10847
   A50        2.09266   0.00056   0.00000   0.00261   0.00261   2.09527
   A51        2.08887  -0.00370   0.00000  -0.00949  -0.00949   2.07937
   A52        2.09698   0.00011   0.00000  -0.00031  -0.00032   2.09666
   A53        2.09195   0.00000   0.00000   0.00031   0.00031   2.09226
   A54        2.09426  -0.00011   0.00000   0.00000   0.00000   2.09427
   A55        2.09861   0.00131   0.00000   0.00277   0.00275   2.10137
   A56        2.08965  -0.00060   0.00000  -0.00123  -0.00122   2.08843
   A57        2.09492  -0.00071   0.00000  -0.00154  -0.00154   2.09338
[...]
 0.00002412,-0.00030946,-0.00032409,-0.00008979,-0.00012449,0.00006467,
 0.00006856,0.00011791,0.00032919,-0.00030315,0.00017171,0.00011022,-0.
 00010036,0.00008474,0.00006140,-0.00002330,0.00003554,0.00006886,0.000
 05904,-0.00003918,-0.00010130,-0.00001534,-0.00001444,-0.00000849,0.00
 000121,0.00002286,0.00000595,0.00001792,0.00000345,0.00003665,0.000142
 70,0.00087298,0.00055955,-0.00011631,-0.00022947,0.00036485,0.00020059
 ,0.00010736,0.00024315,-0.00008422,-0.00005504,0.00004526,-0.00007521,
 -0.00005007,-0.00007352,0.00004860,-0.00015732,0.00004482,0.00001972,-
 0.00000826,-0.00014587,0.00007860,-0.00001055,-0.00007700,0.00002540,0
 .00001774,-0.00001131,-0.00003029,-0.00000048,0.00001617,-0.00001224,0
 .00004696,0.00000143,-0.00883800,-0.00069015,-0.05936522,-0.00655360,-
 0.02657507,-0.01066749,-0.05517315,-0.13323311,-0.26002628,0.01267698,
 0.04710537,0.01506005,0.00002151,-0.00069809,0.00081786,0.06795474,-0.
 05094633,0.81863581,-0.00424200,0.00076370,0.00080097,0.00025998,0.000
 28605,0.00052016,0.00009040,-0.00040393,-0.00078044,0.00002638,-0.0002
 0343,-0.00028095,-0.00025793,0.00001354,-0.00001490,-0.00004830,0.0000
 2807,0.00009829,-0.00001746,0.00028450,0.00008102,0.00004727,0.0000176
 1,-0.00002531,-0.00001257,-0.00000805,0.00002917,-0.00000899,0.0000103
 2,0.00001791,-0.00001339,0.00000602,-0.00000984,-0.00001189,0.00001035
 ,0.00000562,0.00001169,0.00000194,0.00001932,0.00027066,-0.00039133,-0
 .00022602,0.00024051,0.00008204,-0.00036114,-0.00013341,-0.00017283,-0
 .00019551,0.00017551,-0.00018416,0.00010017,-0.00024869,-0.00010492,-0
 .00018676,-0.00021554,0.00036803,-0.00016750,-0.00004050,-0.00003549,0
 .00015905,-0.00019568,-0.00002744,0.00005303,-0.00001206,-0.00003314,-
 0.00000171,-0.00001118,0.00002390,0.00003677,-0.00001797,0.00000473,0.
 00001915,0.00595601,0.00228009,-0.00069066,0.00792909,-0.00182237,-0.0
 0138287,-0.06216292,-0.05957205,0.01187624,-0.00089012,0.00046426,0.00
 001141,-0.00005160,0.00013074,-0.00007276,0.00360426,-0.00910172,0.003
 18231,0.04793395,0.00111821,-0.00086358,-0.00053838,0.00003979,-0.0000
 6143,-0.00002161,-0.00015456,0.00025214,0.00028072,0.00005242,0.000227
 06,0.00022628,0.00014820,0.00000200,0.00000569,0.00003132,-0.00000071,
 -0.00008002,0.00003350,-0.00025415,-0.00002455,-0.00002022,-0.00000170
 ,0.00000705,-0.00000386,-0.00001196,-0.00001192,0.00000159,-0.00001243
 ,-0.00000743,0.00001473,-0.00000870,0.00000868,0.00000827,-0.00000694,
 -0.00000013,-0.00000636,-0.00000755,-0.00000946,0.00010490,-0.00041210
 ,-0.00239295,-0.00007774,-0.00054825,-0.00114132,-0.00053538,0.0001449
 2,-0.00045677,-0.00019815,0.00007798,-0.00010303,0.00011971,0.00007485
 ,0.00015147,-0.00000340,-0.00005252,0.00005964,0.00000469,0.00001418,0
 .00009505,0.00024150,-0.00004825,0.00009066,0.00000184,0.00000767,0.00
 001103,-0.00000528,-0.00000782,0.00000604,0.00000227,0.00000334,0.0000
 0713,-0.00247713,-0.00506583,-0.00054378,-0.00126274,0.00165637,0.0014
 4143,-0.06086208,-0.34329020,0.07512799,0.00034718,0.00077324,-0.00051
 072,-0.00012434,-0.00031727,-0.00000606,-0.00380582,-0.01519488,0.0102
 9070,0.06844193,0.36347258,0.00063172,0.00040802,0.00097188,0.00004500
 ,-0.00004577,0.00027788,-0.00008163,-0.00005188,0.00003734,0.00001561,
 -0.00005797,0.00002026,0.00000511,-0.00001417,-0.00000987,-0.00005560,
 -0.00002791,-0.00000322,0.00001170,0.00012563,-0.00000879,0.00002950,-
 0.00001309,-0.00001938,0.00000835,0.00001822,-0.00002081,0.00000749,0.
 00001559,0.00002878,0.00001926,-0.00000041,-0.00000547,0.00000353,0.00
 000423,0.00000526,0.00001047,0.00000526,0.00000146,-0.00028017,-0.0005
 1252,-0.00137633,-0.00022416,-0.00043828,0.00002442,0.00058656,-0.0002
 8783,-0.00001077,0.00010469,-0.00044908,0.00009752,-0.00008626,-0.0000
 2059,-0.00010615,0.00011422,0.00018504,-0.00010189,-0.00007879,0.00001
 659,0.00002293,-0.00033734,0.00000255,-0.00001112,0.00004272,0.0000588
 4,0.00000547,-0.00004856,0.00003006,0.00000436,-0.00002347,0.00006113,
 0.00001372,0.00726822,0.03451795,-0.00207549,-0.00153260,0.00141560,-0
 .00626402,0.01201964,0.07352582,-0.09165541,-0.00015414,-0.00053808,-0
 .00118361,0.00041049,0.00166231,-0.00038122,-0.00595900,-0.02765235,0.
 01127750,-0.01093013,-0.07806599,0.09218855,-0.00069251,0.00044914,0.0
 0025125,0.00009070,0.00008189,0.00002892,0.00016996,-0.00017218,-0.000
 16516,0.00008826,0.00009736,-0.00002566,-0.00016383,0.00004592,-0.0000
 8610,-0.00008538,0.00001362,-0.00001529,0.00001682,-0.00000032,0.00006
 853,0.00007832,-0.00002024,-0.00003818,0.00000913,-0.00000778,0.000007
 83,-0.00001593,0.00001787,0.00006581,0.00000613,0.00000592,-0.00000452
 ,-0.00001248,-0.00000363,-0.00000502,-0.00000146,0.00000080,0.00000601
 ,-0.00005631,0.00005824,0.00001682,0.00003902,0.00009233,-0.00006519,-
 0.00005052,-0.00008783,-0.00004044,0.00005457,-0.00004017,0.00000551,-
 0.00000737,0.00000182,-0.00000232,-0.00001427,0.00008063,-0.00002044,-
 0.00003211,0.00002390,0.00001466,-0.00005401,-0.00003648,0.00003500,-0
 .00000233,-0.00000887,0.00000126,0.00001486,-0.00001870,-0.00001045,-0
 .00000125,-0.00001039,0.00000018,-0.00788688,-0.00634567,0.00822170,0.
 01121031,0.01011265,-0.00920210,0.00441046,-0.01667694,-0.01046963,-0.
 09009815,-0.01086565,-0.02877364,0.00797693,-0.00327505,-0.00233854,-0
 .09878687,-0.06546529,0.01156018,0.00794577,-0.00250092,-0.00235365,0.
 22357274,0.00097647,0.00030784,0.00158153,0.00052841,0.00006231,-0.000
 64343,0.00037832,0.00073338,0.00002350,0.00005163,0.00021583,-0.000084
 31,-0.00035374,0.00020419,-0.00024353,-0.00023432,-0.00006197,-0.00032
 482,0.00015530,-0.00029888,-0.00025919,0.00026514,-0.00013808,-0.00008
 646,0.00001421,0.00000423,0.00001185,-0.00011167,0.00009522,0.00025287
 ,-0.00004417,0.00001813,-0.00001189,-0.00002612,-0.00003373,0.00000364
 ,-0.00001247,-0.00000033,-0.00001288,-0.00056874,0.00015601,0.00007402
 ,0.00006858,0.00032094,-0.00022630,0.00003889,-0.00041615,-0.00014556,
 0.00024650,-0.00021022,0.00003159,0.00002377,0.00002804,0.00000092,0.0
 0001414,0.00038335,-0.00013538,-0.00002821,-0.00000240,0.00006381,-0.0
 0029938,-0.00013542,0.00013422,-0.00000861,-0.00002531,0.00001318,0.00
 002710,-0.00001767,-0.00001718,0.00000331,-0.00002479,-0.00000042,-0.0
 0639803,-0.05896679,0.05499545,0.01713572,0.08442628,-0.00268551,-0.02
 447827,-0.05108179,-0.07879389,-0.02149930,-0.17457983,0.01374462,-0.0
 0328578,-0.00236067,-0.00387967,-0.05409238,-0.34500039,0.09134141,-0.
 00261897,-0.00041726,-0.00314108,0.15078935,0.75394881,-0.00114989,0.0
 0063774,-0.00181808,-0.00070014,-0.00055393,0.00050731,0.00021057,-0.0
 0147512,-0.00003646,-0.00024679,-0.00023202,-0.00028412,-0.00005067,-0
 .00017636,0.00036630,0.00024669,0.00004900,0.00035767,-0.00011525,0.00
 015901,0.00002744,-0.00027020,0.00019096,0.00002898,0.00001830,-0.0000
 1310,0.00002085,-0.00000020,-0.00009019,-0.00033020,-0.00006728,-0.000
 02446,0.00001669,-0.00002496,0.00004136,-0.00003328,-0.00001090,0.0000
 0892,0.00000530,0.00036369,-0.00000009,-0.00041509,0.00009666,-0.00036
 451,0.00011858,-0.00007930,0.00025501,0.00020239,-0.00018920,0.0002138
 4,-0.00004461,-0.00001022,-0.00001194,-0.00001334,-0.00002342,-0.00030
 228,0.00017276,-0.00001909,0.00003802,-0.00008928,0.00026949,0.0000119
 3,-0.00006190,-0.00000355,-0.00001891,-0.00000799,0.00000681,-0.000026
 67,-0.00000864,0.00000276,-0.00000432,-0.00000625,0.00959416,0.0563921
 0,-0.05244206,-0.02531245,-0.07101298,-0.05938132,0.00610856,-0.010753
 92,0.08283578,-0.00663119,0.10003162,-0.34333367,-0.00204053,-0.003155
 52,-0.00124171,-0.01052687,0.00505627,-0.17366438,-0.00259838,-0.00349
 798,-0.00330741,0.08425517,0.03476233,0.78129714,-0.00009991,-0.000265
 07,0.00021790,0.00000996,0.00002608,0.00006351,0.00003568,-0.00011201,
 -0.00005067,-0.00003830,0.00002066,-0.00001766,-0.00004084,-0.00001620
 ,0.00001258,0.00001099,0.00001977,-0.00001848,0.00001652,-0.00004151,0
 .00001366,-0.00000399,0.00001631,-0.00000325,-0.00000078,-0.00000271,0
 .00001209,-0.00002853,0.00001038,-0.00001769,-0.00002303,-0.00001025,0
 .00000917,-0.00000538,-0.00000071,-0.00000210,-0.00000673,-0.00000749,
 -0.00000109,-0.00019327,-0.00011292,-0.00012396,0.00001598,0.00001069,
 -0.00001283,0.00005381,-0.00003701,-0.00002812,0.00003760,-0.00003591,
 0.00001492,-0.00000633,-0.00000174,-0.00000677,-0.00000718,0.00006150,
 -0.00000735,-0.00000425,0.00000202,0.00001047,-0.00005145,-0.00002824,
 0.00001651,-0.00000171,-0.00000693,0.00000637,0.00000171,0.00000345,-0
 .00000226,-0.00000012,-0.00000388,0.00000084,0.00808990,-0.00250570,-0
 .00248287,0.00379175,-0.00893590,0.00356715,-0.00082999,0.00045411,-0.
 00014071,-0.06385602,-0.06531701,0.01301557,-0.00468573,0.00161055,0.0
 0063243,0.00808072,-0.00158662,-0.00136538,-0.00117057,0.00023368,0.00
 018555,0.00573514,0.00193017,-0.00165267,0.04960039,-0.00003171,-0.000
 74061,0.00074618,0.00001742,0.00000137,-0.00005256,0.00018340,-0.00012
 108,-0.00002177,-0.00006584,0.00003245,0.00001371,-0.00010453,0.000036
 82,-0.00001666,0.00001663,-0.00000324,-0.00001985,0.00004885,-0.000021
 65,-0.00001705,-0.00000744,0.00001179,-0.00002087,0.00001003,-0.000010
 39,0.00001344,-0.00002668,0.00000842,-0.00002414,-0.00002235,-0.000003
 73,0.00001060,-0.00001689,-0.00000889,-0.00001644,-0.00001778,-0.00000
 398,-0.00000781,-0.00016501,0.00002659,-0.00031666,0.00007078,-0.00008
 695,0.00000177,-0.00002360,-0.00007812,0.00002100,0.00001057,0.0000191
 2,0.00001277,0.00000259,0.00000772,-0.00000058,-0.00002248,0.00001016,
 0.00001420,-0.00001481,0.00001500,0.00000173,0.00001080,-0.00003104,0.
 00000338,-0.00000632,-0.00001813,0.00000837,0.00001946,-0.00001587,0.0
 0000295,0.00000395,-0.00001582,0.00000235,-0.00283342,-0.00020522,-0.0
 0355759,-0.00414488,-0.01594992,0.01098591,0.00035193,0.00079125,-0.00
 064600,-0.06529594,-0.33887454,0.07098978,0.00144919,0.00087160,-0.000
 83182,-0.00149620,0.00187983,0.00195075,0.00028260,-0.00017069,0.00002
 343,-0.00282553,-0.00422037,-0.00274329,0.07322930,0.35651004,-0.00010
 719,-0.00105342,0.00053644,0.00006634,0.00006035,0.00001547,0.00009382
 ,0.00000472,0.00003602,-0.00001059,0.00001150,-0.00000728,-0.00003272,
 0.00002275,-0.00003990,-0.00002259,0.00000194,0.00000081,-0.00000504,-
 0.00000309,-0.00000950,0.00001246,-0.00000054,-0.00001152,0.00000090,-
 0.00000778,0.00000521,-0.00001030,0.00000831,0.00000863,-0.00000139,0.
 00000072,-0.00000142,-0.00000460,-0.00000548,-0.00000087,-0.00000054,-
 0.00000116,0.00000149,-0.00012249,-0.00004778,-0.00026799,0.00002231,-
 0.00004872,0.00003363,0.00000479,-0.00003295,0.00002314,0.00000288,0.0
 0000461,0.00002579,-0.00000798,-0.00000329,-0.00001497,0.00000232,0.00
 000089,0.00001723,0.00000252,0.00000255,-0.00001456,0.00000878,-0.0000
 2392,0.00000303,-0.00000145,-0.00000853,-0.00000102,0.00000442,-0.0000
 0638,-0.00000097,0.00000023,-0.00000274,-0.00000373,-0.00242450,-0.003
 01287,-0.00328920,-0.00632217,-0.02731540,0.01137272,-0.00015831,-0.00
 056232,-0.00116264,0.01309839,0.07122256,-0.09126119,0.00090057,0.0004
 4184,0.00116977,-0.00147125,0.00140267,-0.00624120,0.00016695,-0.00001
 705,0.00007876,0.00814803,0.03532001,-0.00160367,-0.01269101,-0.077015
 38,0.08978007,-0.00009977,0.00004497,-0.00036463,-0.00008358,-0.000120
 10,-0.00010398,0.00012888,0.00001622,-0.00002445,-0.00004569,-0.000048
 40,-0.00006786,-0.00006008,0.00002764,-0.00001031,0.00000046,-0.000003
 65,0.00000607,0.00003495,0.00001424,-0.00001082,0.00000887,-0.00000951
 ,0.00000130,-0.00000294,0.00001034,0.00001288,-0.00001420,0.00000573,0
 .00000516,-0.00002115,0.00000442,-0.00000383,-0.00000477,-0.00000164,0
 .00000229,-0.00000033,0.00000345,0.00000006,-0.00000840,0.00014474,0.0
 0002683,0.00001426,-0.00007912,0.00003792,0.00001504,0.00004264,0.0000
 1469,-0.00003253,0.00002890,-0.00000148,-0.00001159,-0.00000124,-0.000
 01044,-0.00001262,-0.00003907,-0.00000192,-0.00000906,-0.00000812,0.00
 001811,0.00003245,0.00001003,-0.00001393,-0.00000517,-0.00001090,-0.00
 000098,-0.00000731,0.00000808,0.00001048,0.00000185,0.00000136,0.00000
 235,0.00764329,-0.00311896,-0.00176853,-0.00095877,-0.00001072,0.00006
 287,0.00508877,0.00317339,-0.00953521,0.00797618,-0.00351634,-0.000726
 13,-0.00115735,0.00032719,0.00015141,-0.05107162,-0.00122777,-0.015939
 75,-0.00457809,0.00122677,0.00087901,0.00595762,-0.00268670,0.00793520
 ,-0.00006053,-0.00008088,0.00036284,0.03593105,0.00010177,0.00056472,-
 0.00081456,-0.00003245,-0.00011850,-0.00021712,0.00004963,-0.00007102,
 -0.00005773,-0.00001199,0.00000194,0.00001471,-0.00004286,-0.00000758,
 -0.00001892,-0.00001011,0.00000866,0.00000641,-0.00001407,0.00000480,0
 .00000492,-0.00000418,0.00000600,-0.00000874,-0.00000039,-0.00000168,0
 .00000877,-0.00000496,0.00000006,-0.00000357,0.00000032,0.00000003,0.0
 0000094,-0.00000329,0.00000129,-0.00000293,-0.00000072,-0.00000098,0.0
 0000144,-0.00000050,0.00014786,0.00005325,-0.00000895,0.00000246,0.000
 03840,0.00001658,-0.00002213,0.00001394,0.00000288,-0.00001725,0.00001
 739,-0.00000724,0.00000226,-0.00001406,0.00001064,0.00000442,0.0000058
 0,-0.00000437,-0.00000106,-0.00001048,0.00000764,-0.00003029,0.0000175
 5,-0.00000320,-0.00000865,-0.00000786,0.00000235,-0.00000607,-0.000005
 41,-0.00000108,-0.00000345,-0.00000627,-0.00325649,-0.00238998,-0.0034
 2468,-0.00010135,-0.00112518,-0.00067275,-0.00165893,0.01183348,-0.025
 55156,-0.00354242,-0.00561648,0.00097777,0.00031672,0.00001325,0.00001
 192,-0.00139806,-0.09897089,0.08688963,0.00153939,0.00095564,0.0004381
 3,0.00229873,-0.00342466,0.03549942,0.00009217,-0.00043278,0.00161093,
 0.00431266,0.09780250,0.00020541,0.00088317,-0.00061398,-0.00009299,-0
 .00017505,-0.00028293,0.00017656,-0.00019466,-0.00009962,-0.00009651,-
 0.00001491,-0.00001074,-0.00014119,0.00000963,-0.00000019,0.00002571,-
 0.00001541,-0.00001032,0.00005670,0.00001613,-0.00003863,-0.00001381,0
 .00001009,-0.00001381,0.00000919,0.00000652,0.00001937,-0.00002540,-0.
 00000165,-0.00002149,-0.00002619,0.00001262,0.00000260,-0.00001586,0.0
 0000096,-0.00001737,-0.00001564,0.00000265,-0.00000841,-0.00011168,0.0
 0023484,-0.00004020,0.00005418,-0.00004748,0.00001563,0.00002690,-0.00
 006895,0.00001961,0.00001373,-0.00000519,0.00002215,-0.00000135,0.0000
 1570,-0.00001822,-0.00001104,0.00002474,0.00001715,-0.00003208,0.00001
 478,-0.00000554,0.00000602,-0.00006122,0.00003880,-0.00001217,-0.00002
 949,-0.00000470,0.00002035,-0.00002042,-0.00001483,0.00000175,-0.00002
 366,-0.00000734,-0.00223724,-0.00381468,-0.00126462,0.00003933,-0.0007
 7074,0.00085723,0.00015208,0.01252565,-0.01792385,-0.00055378,0.001479
 03,0.00171975,0.00015535,0.00002453,-0.00014248,-0.01581656,0.08675529
 ,-0.34368540,0.00061036,-0.00072887,0.00118657,-0.00174255,-0.00268276
 ,-0.00269799,-0.00003608,-0.00000569,-0.00035254,0.01851463,-0.0938646
 1,0.36230774,-0.00105138,0.00020211,0.00002829,-0.00002040,-0.00006764
 ,0.00014960,0.00002677,-0.00010267,-0.00015403,-0.00002845,0.00001235,
 -0.00002129,-0.00006875,0.00001840,-0.00000665,0.00002091,-0.00000051,
 -0.00000995,0.00003949,-0.00002152,-0.00000211,-0.00000404,0.00000477,
 -0.00001202,-0.00000010,-0.00000054,0.00000762,-0.00001218,0.00000085,
 -0.00000826,-0.00001872,-0.00000195,0.00000288,-0.00000646,-0.00000026
 ,-0.00000264,-0.00000487,-0.00000189,-0.00000283,-0.00000898,-0.000028
 15,-0.00001451,0.00001996,0.00001834,-0.00002900,-0.00001309,-0.000007
 65,-0.00004301,0.00000426,0.00001376,-0.00000209,-0.00000378,0.0000011
 9,0.00000747,-0.00001543,0.00000636,-0.00000629,-0.00000165,-0.0000039
 5,0.00001502,0.00000249,-0.00000595,0.00000527,-0.00000426,-0.00000585
 ,-0.00000033,0.00000106,0.00000407,0.00000473,0.00000141,-0.00000324,0
 .00000205,-0.00078980,0.00038387,0.00051873,0.00814343,-0.00162783,-0.
 00091236,0.00817727,-0.00311725,-0.00031883,0.00467424,-0.00164550,0.0
 0032271,-0.00008118,-0.00000851,0.00002637,0.00346724,-0.00362262,-0.0
 0650647,-0.00015061,-0.00013451,-0.00025334,-0.06941507,-0.05590015,-0
 .05738490,-0.00436554,0.00149478,0.00049556,-0.00458809,0.00135615,0.0
 0091386,0.05607432,0.00031000,0.00004149,0.00001827,0.00000751,-0.0000
 0830,-0.00011826,0.00005357,-0.00000515,0.00002263,-0.00003614,0.00002
 220,0.00002736,-0.00002581,0.00000754,0.00000453,0.00002098,-0.0000109
 8,-0.00002120,0.00003737,-0.00002198,-0.00001329,-0.00000860,0.0000038
 3,-0.00000147,0.00000427,-0.00000141,0.00000358,-0.00000866,-0.0000018
 5,-0.00001031,-0.00000824,0.00000361,0.00000399,-0.00000534,-0.0000026
 3,-0.00000867,-0.00000966,-0.00000011,-0.00000650,-0.00002957,0.000036
 36,-0.00004915,0.00004075,-0.00003432,-0.00004875,-0.00004487,-0.00001
 372,-0.00000403,-0.00000169,0.00003898,-0.00002042,0.00001597,0.000010
 88,0.00001821,-0.00002247,0.00000040,0.00000748,-0.00000765,0.00001086
 ,0.00000661,0.00001563,-0.00000231,0.00000589,-0.00000608,-0.00000935,
 0.00000643,0.00001440,-0.00000935,-0.00000327,0.00000383,-0.00001461,0
 .00000164,0.00029436,-0.00038667,0.00111077,-0.00168050,0.00072837,0.0
 0289715,-0.00302190,-0.00464842,0.00326065,0.00314301,0.01164505,0.011
 62071,0.00015451,0.00032101,0.00044215,-0.00868890,-0.01487366,-0.0283
 5183,-0.00035996,-0.00090775,-0.00119742,-0.05580853,-0.19948785,-0.13
 888992,0.00130698,0.00079089,-0.00094755,0.00156035,0.00089921,0.00050
 909,0.06279110,0.20587972,0.00014182,-0.00007796,0.00004972,-0.0000313
 8,0.00004401,0.00003476,0.00006549,-0.00005672,0.00002651,-0.00004006,
 -0.00001037,0.00000263,-0.00002710,0.00000054,0.00002022,0.00002939,-0
 .00000779,-0.00000808,0.00002846,0.00000506,-0.00001842,-0.00001197,0.
 00000625,0.00000671,0.00000548,0.00000697,0.00000623,-0.00000803,0.000
 00056,-0.00001828,-0.00001338,0.00000183,0.00000617,-0.00000590,-0.000
 00153,-0.00001058,-0.00001189,-0.00000022,-0.00000622,-0.00007344,0.00
 003945,-0.00003656,0.00002762,-0.00004479,0.00001234,0.00001567,-0.000
 03219,0.00000596,0.00000557,-0.00000264,0.00000142,0.00000362,0.000006
 81,-0.00000151,-0.00001410,0.00000916,0.00000269,-0.00001728,0.0000109
 1,0.00000327,-0.00000118,-0.00001485,0.00000328,-0.00000394,-0.0000094
 5,0.00000388,0.00001000,-0.00000729,-0.00000093,0.00000162,-0.00000985
 ,0.00000200,0.00041105,0.00111466,-0.00016427,-0.00076910,0.00355117,-
 0.00495276,-0.00043124,0.00256953,0.00071809,-0.00954350,-0.02655792,-
 0.01691339,-0.00039062,-0.00113212,-0.00110886,0.00322620,0.00992426,0
 .01093797,0.00013698,0.00034848,0.00029833,-0.05732798,-0.13898070,-0.
 22513573,0.00088223,0.00051186,0.00117597,0.00054016,-0.00093009,0.001
 06859,0.06319075,0.14972494,0.23398883||0.00001191,-0.00001380,0.00000
 965,-0.00000383,0.00000586,-0.00000070,-0.00000669,-0.00000545,0.00000
 008,0.00001986,-0.00000146,-0.00000427,-0.00000026,0.00000369,-0.00000
 139,-0.00000984,0.00000233,-0.00001239,-0.00000181,0.00000101,0.000003
 82,0.00000324,-0.00000432,0.00000262,0.00000136,-0.00000098,-0.0000002
 5,-0.00000625,-0.00000057,0.00000925,-0.00000015,-0.00000181,0.0000032
 8,0.00000047,0.00000162,-0.00000141,-0.00000058,0.00000079,-0.00000183
 ,-0.00004370,0.00000575,0.00001498,0.00001972,0.00005475,-0.00001744,0
 .00002944,-0.00003094,0.00000051,0.00003662,-0.00004028,0.00000078,-0.
 00000834,-0.00000033,-0.00000066,0.00000723,0.00003940,-0.00001584,-0.
 00000233,0.00000484,-0.00000040,-0.00004402,-0.00001173,0.00001730,-0.
 00000392,0.00000251,0.00000079,-0.00000028,-0.00000279,0.00000126,0.00
 000354,-0.00000103,-0.00000093,-0.00001236,-0.00001972,0.00002424,0.00
 001387,0.00002855,0.00000526,-0.00000924,-0.00001011,-0.00004658,0.000
 00066,-0.00001108,-0.00003706,-0.00000103,-0.00000386,-0.00000187,0.00
 001811,0.00003927,0.00001276,0.00000233,-0.00000581,0.00000203,-0.0000
 1365,-0.00002722,0.00003139,0.00000056,0.00000145,0.00000474,-0.000001
 50,-0.00000312,0.00000002,0.00000088,0.00000460,-0.00000174|||@


 SCIENCE IS LONG AND LIFE IS SHORT.

                     DON MOSER IN THE FEBRUARY 1979 SMITHSONIAN
 Job cpu time:  0 days  0 hours  6 minutes 12.0 seconds.
 File lengths (MBytes):  RWF=    350 Int=      0 D2E=      0 Chk=      7 Scr=      1
 Normal termination of Gaussian 09 at Mon Sep 06 20:33:59 2021.
