 Entering Link 1 = b:\programy\g09w\l1.exe PID=      4008.
  
 Copyright (c) 1988,1990,1992,1993,1995,1998,2003,2009, Gaussian, Inc.
                  All Rights Reserved.
  
 This is part of the Gaussian(R) 09 program.  It is based on
 the Gaussian(R) 03 system (copyright 2003, Gaussian, Inc.),
 the Gaussian(R) 98 system (copyright 1998, Gaussian, Inc.),
 the Gaussian(R) 94 system (copyright 1995, Gaussian, Inc.),
 the Gaussian 92(TM) system (copyright 1992, Gaussian, Inc.),
 the Gaussian 90(TM) system (copyright 1990, Gaussian, Inc.),
 the Gaussian 88(TM) system (copyright 1988, Gaussian, Inc.),
 the Gaussian 86(TM) system (copyright 1986, Carnegie Mellon
 University), and the Gaussian 82(TM) system (copyright 1983,
 Carnegie Mellon University). Gaussian is a federally registered
 trademark of Gaussian, Inc.
  
 This software contains proprietary and confidential information,
 including trade secrets, belonging to Gaussian, Inc.
  
 This software is provided under written license and may be
 used, copied, transmitted, or stored only in accord with that
 written license.
  
 The following legend is applicable only to US Government
 contracts under FAR:
  
                    RESTRICTED RIGHTS LEGEND
  
 Use, reproduction and disclosure by the US Government is
 subject to restrictions as set forth in subparagraphs (a)
 and (c) of the Commercial Computer Software - Restricted
 Rights clause in FAR 52.227-19.
  
 Gaussian, Inc.
 340 Quinnipiac St., Bldg. 40, Wallingford CT 06492
  
  
 ---------------------------------------------------------------
 Warning -- This program may not be used in any manner that
 competes with the business of Gaussian, Inc. or will provide
 assistance to any competitor of Gaussian, Inc.  The licensee
 of this program is prohibited from giving any competitor of
 Gaussian, Inc. access to this program.  By using this program,
 the user acknowledges that Gaussian, Inc. is engaged in the
 business of creating and licensing software in the field of
 computational chemistry and represents and warrants to the
 licensee that it is not a competitor of Gaussian, Inc. and that
 it will not use this program in any manner prohibited above.
 ---------------------------------------------------------------
  

 Cite this work as:
 Gaussian 09, Revision A.02,
 M. J. Frisch, G. W. Trucks, H. B. Schlegel, G. E. Scuseria, 
 M. A. Robb, J. R. Cheeseman, G. Scalmani, V. Barone, B. Mennucci, 
 G. A. Petersson, H. Nakatsuji, M. Caricato, X. Li, H. P. Hratchian, 
 A. F. Izmaylov, J. Bloino, G. Zheng, J. L. Sonnenberg, M. Hada, 
 M. Ehara, K. Toyota, R. Fukuda, J. Hasegawa, M. Ishida, T. Nakajima, 
 Y. Honda, O. Kitao, H. Nakai, T. Vreven, J. A. Montgomery, Jr., 
 J. E. Peralta, F. Ogliaro, M. Bearpark, J. J. Heyd, E. Brothers, 
 K. N. Kudin, V. N. Staroverov, R. Kobayashi, J. Normand, 
 K. Raghavachari, A. Rendell, J. C. Burant, S. S. Iyengar, J. Tomasi, 
 M. Cossi, N. Rega, J. M. Millam, M. Klene, J. E. Knox, J. B. Cross, 
 V. Bakken, C. Adamo, J. Jaramillo, R. Gomperts, R. E. Stratmann, 
 O. Yazyev, A. J. Austin, R. Cammi, C. Pomelli, J. W. Ochterski, 
 R. L. Martin, K. Morokuma, V. G. Zakrzewski, G. A. Voth, 
 P. Salvador, J. J. Dannenberg, S. Dapprich, A. D. Daniels, 
 O. Farkas, J. B. Foresman, J. V. Ortiz, J. Cioslowski, 
 and D. J. Fox, Gaussian, Inc., Wallingford CT, 2009.
 
 ******************************************
 Gaussian 09:  IA32W-G09RevA.02 11-Jun-2009
                07-Sep-2021 
 ******************************************
 %nprocshared=12
 Will use up to   12 processors via shared memory.
 ----------------------------------------------
 # opt freq=noraman hf/6-311g geom=connectivity
 ----------------------------------------------
 1/18=20,19=15,38=1,57=2/1,3;
 2/9=110,12=2,17=6,18=5,40=1/2;
 3/5=4,6=6,11=9,16=1,25=1,30=1,71=1/1,2,3;
 4//1;
 5/5=2,38=5/2;
 6/7=2,8=2,9=2,10=2,28=1/1;
 7//1,2,3,16;
 1/18=20,19=15/3(2);
 2/9=110/2;
 99//99;
 2/9=110/2;
 3/5=4,6=6,11=9,16=1,25=1,30=1,71=1/1,2,3;
 4/5=5,16=3/1;
 5/5=2,38=5/2;
 7//1,2,3,16;
 1/18=20,19=15/3(-5);
 2/9=110/2;
 6/7=2,8=2,9=2,10=2,19=2,28=1/1;
 99/9=1/99;
 -----
 M0001
 -----
 Symbolic Z-matrix:
 Charge =  0 Multiplicity = 1
 C                    -0.08485   0.75072   0.18718 
 H                    -0.23749   1.83343   0.443 
 C                     1.39322   0.53346  -0.02231 
 C                     2.26388   1.62119   0.07387 
 C                     1.91163  -0.72897  -0.3202 
 C                     3.62939   1.44639  -0.12348 
 H                     1.87229   2.61888   0.30509 
 C                     3.27623  -0.90114  -0.5163 
 H                     1.221    -1.5821   -0.41268 
 C                     4.13793   0.18646  -0.41773 
 H                     4.30458   2.30468  -0.04681 
 H                     3.67181  -1.89476  -0.7504 
 H                     5.213     0.05076  -0.57311 
 C                    -0.65284  -0.00302   1.36401 
 C                     0.16726  -0.53997   2.35689 
 C                    -2.0405   -0.10725   1.50202 
 C                    -0.3886   -1.17423   3.4628 
 H                     1.25788  -0.46343   2.26407 
 C                    -2.59355  -0.742     2.60672 
 H                    -2.6933    0.31299   0.7273 
 C                    -1.7686   -1.27751   3.59056 
 H                     0.26596  -1.59206   4.23456 
 H                    -3.68143  -0.81936   2.70224 
 H                    -2.20493  -1.77697   4.46138 
 C                    -0.83982   0.46225  -1.08813 
 C                    -1.45232   1.51192  -1.77589 
 C                    -0.93754  -0.83486  -1.59613 
 C                    -2.15394   1.26479  -2.95091 
 H                    -1.38081   2.53603  -1.39119 
 C                    -1.64099  -1.07956  -2.76903 
 H                    -0.43495  -1.65678  -1.06327 
 C                    -2.2515   -0.03006  -3.44803 
 H                    -2.63016   2.09342  -3.48494 
 H                    -1.71238  -2.10025  -3.15893 
 H                    -2.80557  -0.22308  -4.3722 
 

 GradGradGradGradGradGradGradGradGradGradGradGradGradGradGradGradGradGrad
 Berny optimization.
 Initialization pass.
                           ----------------------------
                           !    Initial Parameters    !
                           ! (Angstroms and Degrees)  !
 --------------------------                            --------------------------
 ! Name  Definition              Value          Derivative Info.                !
 --------------------------------------------------------------------------------
 ! R1    R(1,2)                  1.1229         estimate D2E/DX2                !
 ! R2    R(1,3)                  1.5086         estimate D2E/DX2                !
 ! R3    R(1,14)                 1.5085         estimate D2E/DX2                !
 ! R4    R(1,25)                 1.5098         estimate D2E/DX2                !
 ! R5    R(3,4)                  1.3966         estimate D2E/DX2                !
 ! R6    R(3,5)                  1.3969         estimate D2E/DX2                !
 ! R7    R(4,6)                  1.3907         estimate D2E/DX2                !
 ! R8    R(4,7)                  1.0964         estimate D2E/DX2                !
 ! R9    R(5,8)                  1.3893         estimate D2E/DX2                !
 ! R10   R(5,9)                  1.1015         estimate D2E/DX2                !
 ! R11   R(6,10)                 1.3902         estimate D2E/DX2                !
 ! R12   R(6,11)                 1.0947         estimate D2E/DX2                !
 ! R13   R(8,10)                 1.3911         estimate D2E/DX2                !
 ! R14   R(8,12)                 1.0948         estimate D2E/DX2                !
 ! R15   R(10,13)                1.0947         estimate D2E/DX2                !
 ! R16   R(14,15)                1.3952         estimate D2E/DX2                !
 ! R17   R(14,16)                1.3984         estimate D2E/DX2                !
 ! R18   R(15,17)                1.3908         estimate D2E/DX2                !
 ! R19   R(15,18)                1.0972         estimate D2E/DX2                !
 ! R20   R(16,19)                1.3889         estimate D2E/DX2                !
 ! R21   R(16,20)                1.0968         estimate D2E/DX2                !
 ! R22   R(17,21)                1.3897         estimate D2E/DX2                !
 ! R23   R(17,22)                1.0948         estimate D2E/DX2                !
 ! R24   R(19,21)                1.3911         estimate D2E/DX2                !
 ! R25   R(19,23)                1.0948         estimate D2E/DX2                !
 ! R26   R(21,24)                1.0946         estimate D2E/DX2                !
 ! R27   R(25,26)                1.3964         estimate D2E/DX2                !
 ! R28   R(25,27)                1.3965         estimate D2E/DX2                !
 ! R29   R(26,28)                1.3907         estimate D2E/DX2                !
 ! R30   R(26,29)                1.0963         estimate D2E/DX2                !
 ! R31   R(27,30)                1.3894         estimate D2E/DX2                !
 ! R32   R(27,31)                1.101          estimate D2E/DX2                !
 ! R33   R(28,32)                1.3904         estimate D2E/DX2                !
 ! R34   R(28,33)                1.0948         estimate D2E/DX2                !
 ! R35   R(30,32)                1.3911         estimate D2E/DX2                !
 ! R36   R(30,34)                1.095          estimate D2E/DX2                !
 ! R37   R(32,35)                1.0947         estimate D2E/DX2                !
 ! A1    A(2,1,3)              107.6781         estimate D2E/DX2                !
 ! A2    A(2,1,14)             104.6466         estimate D2E/DX2                !
 ! A3    A(2,1,25)             107.9795         estimate D2E/DX2                !
 ! A4    A(3,1,14)             113.9082         estimate D2E/DX2                !
 ! A5    A(3,1,25)             110.1886         estimate D2E/DX2                !
 ! A6    A(14,1,25)            112.0371         estimate D2E/DX2                !
 ! A7    A(1,3,4)              119.2806         estimate D2E/DX2                !
 ! A8    A(1,3,5)              121.5604         estimate D2E/DX2                !
 ! A9    A(4,3,5)              119.1573         estimate D2E/DX2                !
 ! A10   A(3,4,6)              120.2953         estimate D2E/DX2                !
 ! A11   A(3,4,7)              120.0376         estimate D2E/DX2                !
 ! A12   A(6,4,7)              119.6671         estimate D2E/DX2                !
 ! A13   A(3,5,8)              120.439          estimate D2E/DX2                !
 ! A14   A(3,5,9)              119.0246         estimate D2E/DX2                !
 ! A15   A(8,5,9)              120.5296         estimate D2E/DX2                !
 ! A16   A(4,6,10)             120.2067         estimate D2E/DX2                !
 ! A17   A(4,6,11)             119.8086         estimate D2E/DX2                !
 ! A18   A(10,6,11)            119.9847         estimate D2E/DX2                !
 ! A19   A(5,8,10)             120.1013         estimate D2E/DX2                !
 ! A20   A(5,8,12)             119.8382         estimate D2E/DX2                !
 ! A21   A(10,8,12)            120.0604         estimate D2E/DX2                !
 ! A22   A(6,10,8)             119.8003         estimate D2E/DX2                !
 ! A23   A(6,10,13)            120.109          estimate D2E/DX2                !
 ! A24   A(8,10,13)            120.0906         estimate D2E/DX2                !
 ! A25   A(1,14,15)            121.744          estimate D2E/DX2                !
 ! A26   A(1,14,16)            119.1997         estimate D2E/DX2                !
 ! A27   A(15,14,16)           118.9706         estimate D2E/DX2                !
 ! A28   A(14,15,17)           120.4269         estimate D2E/DX2                !
 ! A29   A(14,15,18)           119.8146         estimate D2E/DX2                !
 ! A30   A(17,15,18)           119.7584         estimate D2E/DX2                !
 ! A31   A(14,16,19)           120.5098         estimate D2E/DX2                !
 ! A32   A(14,16,20)           119.4952         estimate D2E/DX2                !
 ! A33   A(19,16,20)           119.9944         estimate D2E/DX2                !
 ! A34   A(15,17,21)           120.2557         estimate D2E/DX2                !
 ! A35   A(15,17,22)           119.7107         estimate D2E/DX2                !
 ! A36   A(21,17,22)           120.0336         estimate D2E/DX2                !
 ! A37   A(16,19,21)           120.1515         estimate D2E/DX2                !
 ! A38   A(16,19,23)           119.8254         estimate D2E/DX2                !
 ! A39   A(21,19,23)           120.0231         estimate D2E/DX2                !
 ! A40   A(17,21,19)           119.6847         estimate D2E/DX2                !
 ! A41   A(17,21,24)           120.19           estimate D2E/DX2                !
 ! A42   A(19,21,24)           120.1253         estimate D2E/DX2                !
 ! A43   A(1,25,26)            119.454          estimate D2E/DX2                !
 ! A44   A(1,25,27)            121.3143         estimate D2E/DX2                !
 ! A45   A(26,25,27)           119.2317         estimate D2E/DX2                !
 ! A46   A(25,26,28)           120.2556         estimate D2E/DX2                !
 ! A47   A(25,26,29)           120.0493         estimate D2E/DX2                !
 ! A48   A(28,26,29)           119.6951         estimate D2E/DX2                !
 ! A49   A(25,27,30)           120.4055         estimate D2E/DX2                !
 ! A50   A(25,27,31)           119.0401         estimate D2E/DX2                !
 ! A51   A(30,27,31)           120.5462         estimate D2E/DX2                !
 ! A52   A(26,28,32)           120.1965         estimate D2E/DX2                !
 ! A53   A(26,28,33)           119.8081         estimate D2E/DX2                !
 ! A54   A(32,28,33)           119.9954         estimate D2E/DX2                !
 ! A55   A(27,30,32)           120.0903         estimate D2E/DX2                !
 ! A56   A(27,30,34)           119.8541         estimate D2E/DX2                !
 ! A57   A(32,30,34)           120.0555         estimate D2E/DX2                !
 ! A58   A(28,32,30)           119.8196         estimate D2E/DX2                !
 ! A59   A(28,32,35)           120.1031         estimate D2E/DX2                !
 ! A60   A(30,32,35)           120.0772         estimate D2E/DX2                !
 ! D1    D(2,1,3,4)             -2.2356         estimate D2E/DX2                !
 ! D2    D(2,1,3,5)            178.2425         estimate D2E/DX2                !
 ! D3    D(14,1,3,4)          -117.8041         estimate D2E/DX2                !
 ! D4    D(14,1,3,5)            62.6741         estimate D2E/DX2                !
 ! D5    D(25,1,3,4)           115.3049         estimate D2E/DX2                !
 ! D6    D(25,1,3,5)           -64.2169         estimate D2E/DX2                !
 ! D7    D(2,1,14,15)         -100.9152         estimate D2E/DX2                !
 ! D8    D(2,1,14,16)           75.6824         estimate D2E/DX2                !
 ! D9    D(3,1,14,15)           16.4195         estimate D2E/DX2                !
 ! D10   D(3,1,14,16)         -166.983          estimate D2E/DX2                !
 ! D11   D(25,1,14,15)         142.3425         estimate D2E/DX2                !
 ! D12   D(25,1,14,16)         -41.0599         estimate D2E/DX2                !
 ! D13   D(2,1,25,26)            5.8241         estimate D2E/DX2                !
 ! D14   D(2,1,25,27)         -174.2392         estimate D2E/DX2                !
 ! D15   D(3,1,25,26)         -111.5299         estimate D2E/DX2                !
 ! D16   D(3,1,25,27)           68.4068         estimate D2E/DX2                !
 ! D17   D(14,1,25,26)         120.5419         estimate D2E/DX2                !
 ! D18   D(14,1,25,27)         -59.5214         estimate D2E/DX2                !
 ! D19   D(1,3,4,6)           -179.6037         estimate D2E/DX2                !
 ! D20   D(1,3,4,7)              0.3493         estimate D2E/DX2                !
 ! D21   D(5,3,4,6)             -0.0703         estimate D2E/DX2                !
 ! D22   D(5,3,4,7)            179.8827         estimate D2E/DX2                !
 ! D23   D(1,3,5,8)            179.6227         estimate D2E/DX2                !
 ! D24   D(1,3,5,9)              0.567          estimate D2E/DX2                !
 ! D25   D(4,3,5,8)              0.1003         estimate D2E/DX2                !
 ! D26   D(4,3,5,9)           -178.9554         estimate D2E/DX2                !
 ! D27   D(3,4,6,10)            -0.0207         estimate D2E/DX2                !
 ! D28   D(3,4,6,11)           179.9617         estimate D2E/DX2                !
 ! D29   D(7,4,6,10)          -179.9738         estimate D2E/DX2                !
 ! D30   D(7,4,6,11)             0.0085         estimate D2E/DX2                !
 ! D31   D(3,5,8,10)            -0.0394         estimate D2E/DX2                !
 ! D32   D(3,5,8,12)          -179.9334         estimate D2E/DX2                !
 ! D33   D(9,5,8,10)           179.002          estimate D2E/DX2                !
 ! D34   D(9,5,8,12)            -0.892          estimate D2E/DX2                !
 ! D35   D(4,6,10,8)             0.0825         estimate D2E/DX2                !
 ! D36   D(4,6,10,13)          179.9788         estimate D2E/DX2                !
 ! D37   D(11,6,10,8)         -179.8999         estimate D2E/DX2                !
 ! D38   D(11,6,10,13)          -0.0035         estimate D2E/DX2                !
 ! D39   D(5,8,10,6)            -0.0525         estimate D2E/DX2                !
 ! D40   D(5,8,10,13)         -179.9489         estimate D2E/DX2                !
 ! D41   D(12,8,10,6)          179.8413         estimate D2E/DX2                !
 ! D42   D(12,8,10,13)          -0.0551         estimate D2E/DX2                !
 ! D43   D(1,14,15,17)         176.9072         estimate D2E/DX2                !
 ! D44   D(1,14,15,18)          -3.2194         estimate D2E/DX2                !
 ! D45   D(16,14,15,17)          0.3021         estimate D2E/DX2                !
 ! D46   D(16,14,15,18)       -179.8245         estimate D2E/DX2                !
 ! D47   D(1,14,16,19)        -177.0463         estimate D2E/DX2                !
 ! D48   D(1,14,16,20)           3.2271         estimate D2E/DX2                !
 ! D49   D(15,14,16,19)         -0.3535         estimate D2E/DX2                !
 ! D50   D(15,14,16,20)        179.9199         estimate D2E/DX2                !
 ! D51   D(14,15,17,21)         -0.1002         estimate D2E/DX2                !
 ! D52   D(14,15,17,22)        179.9531         estimate D2E/DX2                !
 ! D53   D(18,15,17,21)       -179.9736         estimate D2E/DX2                !
 ! D54   D(18,15,17,22)          0.0796         estimate D2E/DX2                !
 ! D55   D(14,16,19,21)          0.2024         estimate D2E/DX2                !
 ! D56   D(14,16,19,23)       -179.8521         estimate D2E/DX2                !
 ! D57   D(20,16,19,21)        179.9277         estimate D2E/DX2                !
 ! D58   D(20,16,19,23)         -0.1268         estimate D2E/DX2                !
 ! D59   D(15,17,21,19)         -0.0556         estimate D2E/DX2                !
 ! D60   D(15,17,21,24)        179.997          estimate D2E/DX2                !
 ! D61   D(22,17,21,19)        179.891          estimate D2E/DX2                !
 ! D62   D(22,17,21,24)         -0.0564         estimate D2E/DX2                !
 ! D63   D(16,19,21,17)          0.0046         estimate D2E/DX2                !
 ! D64   D(16,19,21,24)        179.9519         estimate D2E/DX2                !
 ! D65   D(23,19,21,17)       -179.9407         estimate D2E/DX2                !
 ! D66   D(23,19,21,24)          0.0066         estimate D2E/DX2                !
 ! D67   D(1,25,26,28)        -179.8865         estimate D2E/DX2                !
 ! D68   D(1,25,26,29)           0.1738         estimate D2E/DX2                !
 ! D69   D(27,25,26,28)          0.1754         estimate D2E/DX2                !
 ! D70   D(27,25,26,29)       -179.7642         estimate D2E/DX2                !
 ! D71   D(1,25,27,30)         179.7769         estimate D2E/DX2                !
 ! D72   D(1,25,27,31)          -1.261          estimate D2E/DX2                !
 ! D73   D(26,25,27,30)         -0.2862         estimate D2E/DX2                !
 ! D74   D(26,25,27,31)        178.6758         estimate D2E/DX2                !
 ! D75   D(25,26,28,32)          0.0749         estimate D2E/DX2                !
 ! D76   D(25,26,28,33)       -179.9162         estimate D2E/DX2                !
 ! D77   D(29,26,28,32)       -179.9853         estimate D2E/DX2                !
 ! D78   D(29,26,28,33)          0.0236         estimate D2E/DX2                !
 ! D79   D(25,27,30,32)          0.1467         estimate D2E/DX2                !
 ! D80   D(25,27,30,34)       -179.9626         estimate D2E/DX2                !
 ! D81   D(31,27,30,32)       -178.7996         estimate D2E/DX2                !
 ! D82   D(31,27,30,34)          1.0911         estimate D2E/DX2                !
 ! D83   D(26,28,32,30)         -0.2166         estimate D2E/DX2                !
 ! D84   D(26,28,32,35)        179.8977         estimate D2E/DX2                !
 ! D85   D(33,28,32,30)        179.7746         estimate D2E/DX2                !
 ! D86   D(33,28,32,35)         -0.1111         estimate D2E/DX2                !
 ! D87   D(27,30,32,28)          0.106          estimate D2E/DX2                !
 ! D88   D(27,30,32,35)        179.9918         estimate D2E/DX2                !
 ! D89   D(34,30,32,28)       -179.7844         estimate D2E/DX2                !
 ! D90   D(34,30,32,35)          0.1014         estimate D2E/DX2                !
 --------------------------------------------------------------------------------
 Trust Radius=3.00D-01 FncErr=1.00D-07 GrdErr=1.00D-07
 Number of steps in this run= 197 maximum allowed number of steps= 210.
 GradGradGradGradGradGradGradGradGradGradGradGradGradGradGradGradGradGrad

                          Input orientation:                          
 ---------------------------------------------------------------------
 Center     Atomic      Atomic             Coordinates (Angstroms)
 Number     Number       Type             X           Y           Z
 ---------------------------------------------------------------------
      1          6           0       -0.084855    0.750724    0.187178
      2          1           0       -0.237488    1.833425    0.442996
      3          6           0        1.393218    0.533460   -0.022310
      4          6           0        2.263882    1.621185    0.073868
      5          6           0        1.911629   -0.728966   -0.320196
      6          6           0        3.629390    1.446389   -0.123478
      7          1           0        1.872294    2.618876    0.305090
      8          6           0        3.276227   -0.901137   -0.516304
      9          1           0        1.221001   -1.582105   -0.412677
     10          6           0        4.137930    0.186463   -0.417732
     11          1           0        4.304578    2.304677   -0.046808
     12          1           0        3.671807   -1.894758   -0.750396
     13          1           0        5.213004    0.050760   -0.573108
     14          6           0       -0.652840   -0.003024    1.364012
     15          6           0        0.167262   -0.539967    2.356891
     16          6           0       -2.040502   -0.107251    1.502022
     17          6           0       -0.388596   -1.174230    3.462798
     18          1           0        1.257884   -0.463426    2.264065
     19          6           0       -2.593554   -0.741997    2.606718
     20          1           0       -2.693295    0.312988    0.727302
     21          6           0       -1.768599   -1.277509    3.590559
     22          1           0        0.265961   -1.592065    4.234556
     23          1           0       -3.681432   -0.819362    2.702240
     24          1           0       -2.204931   -1.776968    4.461377
     25          6           0       -0.839819    0.462253   -1.088130
     26          6           0       -1.452319    1.511915   -1.775891
     27          6           0       -0.937544   -0.834861   -1.596135
     28          6           0       -2.153937    1.264793   -2.950913
     29          1           0       -1.380813    2.536027   -1.391194
     30          6           0       -1.640992   -1.079563   -2.769028
     31          1           0       -0.434948   -1.656783   -1.063267
     32          6           0       -2.251495   -0.030058   -3.448032
     33          1           0       -2.630162    2.093422   -3.484938
     34          1           0       -1.712377   -2.100248   -3.158934
     35          1           0       -2.805570   -0.223082   -4.372200
 ---------------------------------------------------------------------
                    Distance matrix (angstroms):
                    1          2          3          4          5
     1  C    0.000000
     2  H    1.122934   0.000000
     3  C    1.508572   2.136731   0.000000
     4  C    2.507411   2.537351   1.396586   0.000000
     5  C    2.536308   3.430308   1.396856   2.408855   0.000000
     6  C    3.791580   3.927268   2.417466   1.390724   2.778772
     7  H    2.708196   2.255466   2.164639   1.096445   3.405962
     8  C    3.810565   4.554589   2.418227   2.781232   1.389327
     9  H    2.739922   3.811195   2.158161   3.403732   1.101529
    10  C    4.303048   4.753695   2.794675   2.410841   2.409137
    11  H    4.662257   4.592640   3.407906   2.155496   3.873491
    12  H    4.689363   5.532280   3.408566   3.876019   2.154616
    13  H    5.397712   5.823936   3.889363   3.403254   3.401620
    14  C    1.508536   2.096028   2.529043   3.579077   3.152785
    15  C    2.537144   3.075679   2.883715   3.778702   3.200833
    16  C    2.507886   2.852827   3.811106   4.853333   4.396174
    17  C    3.811482   4.264742   4.270486   5.131748   4.449758
    18  H    2.755098   3.290585   2.497921   3.186628   2.678862
    19  C    3.791564   4.106767   4.942967   5.966124   5.372492
    20  H    2.699501   2.902335   4.160543   5.168362   4.836140
    21  C    4.304849   4.682880   5.131230   6.085265   5.398054
    22  H    4.689670   5.134527   4.889732   5.623877   4.919241
    23  H    4.661124   4.899205   5.916534   6.943441   6.358115
    24  H    5.399326   5.749187   6.195821   7.125164   6.395922
    25  C    1.509834   2.141790   2.475378   3.510887   3.095027
    26  C    2.510580   2.550029   3.482744   4.152554   4.296132
    27  C    2.534040   3.430435   3.127567   4.366944   3.123623
    28  C    3.793809   3.938876   4.657668   5.365952   5.236848
    29  H    2.712577   2.272685   3.685019   4.033255   4.758928
    30  C    3.809287   4.557677   4.399174   5.533908   4.329066
    31  H    2.735373   3.806491   3.036931   4.395661   2.630480
    32  C    4.303336   4.761187   5.033593   5.959784   5.253897
    33  H    4.665390   4.606643   5.532708   6.069578   6.213641
    34  H    4.687572   5.533804   5.139995   6.333302   4.803360
    35  H    5.398010   5.831842   6.092923   6.990578   6.239120
                    6          7          8          9         10
     6  C    0.000000
     7  H    2.155408   0.000000
     8  C    2.406224   3.877654   0.000000
     9  H    3.880174   4.311335   2.167582   0.000000
    10  C    1.390184   3.401795   1.391087   3.411208   0.000000
    11  H    1.094721   2.477611   3.399290   4.974875   2.156892
    12  H    3.399719   4.972443   1.094790   2.493644   2.158568
    13  H    2.158190   4.304277   2.158805   4.316026   1.094688
    14  C    4.759298   3.791038   4.447445   3.026781   5.114880
    15  C    4.699380   4.134647   4.248688   3.141166   4.898207
    16  C    6.099486   4.916745   5.742081   4.059392   6.476476
    17  C    5.989427   5.428664   5.416526   4.216215   6.115508
    18  H    3.869341   3.703466   3.463488   2.901336   3.988616
    19  C    7.139190   6.044563   6.650783   4.936938   7.437890
    20  H    6.479566   5.132249   6.217383   4.495847   6.927680
    21  C    7.095913   6.263563   6.515999   5.005635   7.286748
    22  H    6.287871   5.979384   5.666547   4.744363   6.308652
    23  H    8.158825   6.957850   7.666468   5.858185   8.478699
    24  H    8.090131   7.295335   7.455701   5.960820   8.239700
    25  C    4.676849   3.734654   4.373518   2.980371   5.030257
    26  C    5.344019   4.075401   5.456055   4.310215   5.903585
    27  C    5.313164   4.841295   4.350436   2.572598   5.309631
    28  C    6.440050   5.352161   6.332871   5.092904   6.867852
    29  H    5.281719   3.669734   5.853850   4.968495   6.076562
    30  C    6.415318   5.955823   5.411622   3.741115   6.366110
    31  H    5.199205   5.047477   3.826617   1.780733   4.972474
    32  C    6.915011   6.173201   6.317399   4.866257   7.074911
    33  H    7.134428   5.908682   7.257107   6.146522   7.671461
    34  H    7.094160   6.864361   5.771268   4.051555   6.853417
    35  H    7.889708   7.199734   7.232977   5.808445   8.001108
                   11         12         13         14         15
    11  H    0.000000
    12  H    4.304728   0.000000
    13  H    2.486438   2.488324   0.000000
    14  C    5.647290   5.172229   6.177658   0.000000
    15  C    5.566610   4.875707   5.864586   1.395236   0.000000
    16  C    6.962493   6.395236   7.546157   1.398397   2.406713
    17  C    6.815131   5.895510   7.011923   2.417944   1.390791
    18  H    4.720686   4.118582   4.894581   2.161696   1.097237
    19  C    7.994225   7.200960   8.466529   2.420076   2.779449
    20  H    7.316850   6.897265   8.016820   2.160722   3.400865
    21  C    7.933850   6.987339   8.236699   2.797631   2.411113
    22  H    7.058690   6.044928   7.091245   3.407238   2.154595
    23  H    9.005178   8.194346   9.518194   3.410225   3.874245
    24  H    8.908269   7.855730   9.149447   3.892240   3.403870
    25  C    5.562706   5.101406   6.088616   2.502888   3.726504
    26  C    6.063007   6.238088   6.928795   3.576759   4.890108
    27  C    6.303725   4.804662   6.297631   3.087957   4.115090
    28  C    7.157345   6.983146   7.835793   4.741227   6.067776
    29  H    5.846757   6.750663   7.093959   3.816790   5.089834
    30  C    7.362972   5.741538   7.285394   4.383766   5.462233
    31  H    6.260149   4.125526   5.920754   2.945179   3.647933
    32  C    7.746057   6.770514   7.999405   5.070720   6.309320
    33  H    7.743124   7.943432   8.611996   5.640674   6.991944
    34  H    8.080373   5.901925   7.698976   5.096863   6.032565
    35  H    8.697860   7.607127   8.877253   6.130808   7.363342
                   16         17         18         19         20
    16  C    0.000000
    17  C    2.777027   0.000000
    18  H    3.403956   2.157104   0.000000
    19  C    1.388928   2.404483   3.876671   0.000000
    20  H    1.096783   3.873809   4.310020   2.157579   0.000000
    21  C    2.409444   1.389747   3.403221   1.391139   3.403379
    22  H    3.871845   1.094824   2.478018   3.398425   4.968627
    23  H    2.154130   3.398110   4.971471   1.094801   2.481736
    24  H    3.401878   2.158593   4.306351   2.159156   4.306940
    25  C    2.911162   4.857225   4.061336   4.263532   2.598740
    26  C    3.703022   5.982537   5.250564   5.058636   3.040300
    27  C    3.368160   5.099933   4.456345   4.518292   3.130267
    28  C    4.660902   7.085263   6.467090   5.925178   3.837461
    29  H    3.974016   6.189648   5.414827   5.310318   3.339541
    30  C    4.398507   6.357131   5.840816   5.469914   3.907795
    31  H    3.399935   4.551952   3.919301   4.354905   3.490883
    32  C    4.955150   7.248386   6.718006   6.106051   4.212633
    33  H    5.482739   7.998325   7.396310   6.719316   4.573499
    34  H    5.079785   6.815955   6.396136   5.988661   4.678540
    35  H    5.924966   8.254310   7.785206   7.001394   5.128830
                   21         22         23         24         25
    21  C    0.000000
    22  H    2.157107   0.000000
    23  H    2.158226   4.304297   0.000000
    24  H    1.094609   2.488160   2.488298   0.000000
    25  C    5.077355   5.811537   4.907566   6.137970   0.000000
    26  C    6.056378   6.979445   5.518827   7.091311   1.396411
    27  C    5.271468   6.001561   5.099528   6.259974   1.396468
    28  C    7.028702   8.102377   6.215713   8.012300   2.416803
    29  H    6.285801   7.169524   5.771281   7.316671   2.164500
    30  C    6.363946   7.276628   5.845158   7.285818   2.417538
    31  H    4.855982   5.344379   5.041822   5.802497   2.157511
    32  C    7.164571   8.234052   6.363455   8.100161   2.793624
    33  H    7.884677   9.031109   6.918862   8.848992   3.407451
    34  H    6.799685   7.670448   6.314365   7.643053   3.408225
    35  H    8.098929   9.240382   7.153348   8.989294   3.888312
                   26         27         28         29         30
    26  C    0.000000
    27  C    2.409287   0.000000
    28  C    1.390688   2.779133   0.000000
    29  H    1.096316   3.406079   2.155570   0.000000
    30  C    2.781668   1.389387   2.406699   3.877965   0.000000
    31  H    3.403458   1.100958   3.879915   4.310668   2.167336
    32  C    2.410896   2.409087   1.390426   3.401980   1.391122
    33  H    2.155529   3.873935   1.094805   2.478010   3.399826
    34  H    3.876617   2.154974   3.400257   4.972915   1.094952
    35  H    3.403281   3.401519   2.158345   4.304534   2.158695
                   31         32         33         34         35
    31  H    0.000000
    32  C    3.410745   0.000000
    33  H    4.974685   2.157294   0.000000
    34  H    2.494054   2.158682   4.305284   0.000000
    35  H    4.315598   1.094688   2.486803   2.488139   0.000000
 Stoichiometry    C19H16
 Framework group  C1[X(C19H16)]
 Deg. of freedom    99
 Full point group                 C1      NOp   1
 Largest Abelian subgroup         C1      NOp   1
 Largest concise Abelian subgroup C1      NOp   1
                         Standard orientation:                         
 ---------------------------------------------------------------------
 Center     Atomic      Atomic             Coordinates (Angstroms)
 Number     Number       Type             X           Y           Z
 ---------------------------------------------------------------------
      1          6           0        0.004909    0.014929   -0.763702
      2          1           0       -0.017610    0.025037   -1.886366
      3          6           0        1.440290   -0.165220   -0.335899
      4          6           0        2.427888   -0.328777   -1.309733
      5          6           0        1.804666   -0.182259    1.012488
      6          6           0        3.756629   -0.504709   -0.938778
      7          1           0        2.157733   -0.319701   -2.372335
      8          6           0        3.132842   -0.357555    1.380521
      9          1           0        1.021662   -0.070460    1.779150
     10          6           0        4.111627   -0.518603    0.405243
     11          1           0        4.524198   -0.632812   -1.708740
     12          1           0        3.407286   -0.370403    2.440276
     13          1           0        5.157963   -0.657548    0.695445
     14          6           0       -0.592217    1.339596   -0.358264
     15          6           0        0.205184    2.413569    0.038493
     16          6           0       -1.975944    1.520366   -0.448472
     17          6           0       -0.369813    3.642230    0.345202
     18          1           0        1.292781    2.287939    0.111157
     19          6           0       -2.548258    2.747907   -0.140703
     20          1           0       -2.610796    0.682298   -0.760780
     21          6           0       -1.746260    3.812673    0.257218
     22          1           0        0.266929    4.476844    0.656038
     23          1           0       -3.633108    2.876303   -0.212845
     24          1           0       -2.197674    4.780132    0.498911
     25          6           0       -0.829859   -1.151084   -0.291294
     26          6           0       -1.352254   -2.045606   -1.227722
     27          6           0       -1.089984   -1.354953    1.065503
     28          6           0       -2.125319   -3.123995   -0.811237
     29          1           0       -1.153177   -1.900523   -2.296005
     30          6           0       -1.864513   -2.431778    1.478963
     31          1           0       -0.658339   -0.660422    1.802670
     32          6           0       -2.384575   -3.317763    0.540993
     33          1           0       -2.530090   -3.821589   -1.551590
     34          1           0       -2.063313   -2.582705    2.545086
     35          1           0       -2.994682   -4.166191    0.867003
 ---------------------------------------------------------------------
 Rotational constants (GHZ):      0.4018088      0.3859483      0.2321150
 Standard basis: 6-311G (5D, 7F)
 There are   295 symmetry adapted basis functions of A   symmetry.
 Integral buffers will be    262144 words long.
 Raffenetti 1 integral format.
 Two-electron integral symmetry is turned on.
   295 basis functions,   574 primitive gaussians,   295 cartesian basis functions
    65 alpha electrons       65 beta electrons
       nuclear repulsion energy      1291.0746472401 Hartrees.
 NAtoms=   35 NActive=   35 NUniq=   35 SFac= 7.50D-01 NAtFMM=   80 NAOKFM=F Big=F
 One-electron integrals computed using PRISM.
 PrsmSu:  requested number of processors reduced to:  10 ShMem   1 Linda.
 NBasis=   295 RedAO= T  NBF=   295
 NBsUse=   295 1.00D-06 NBFU=   295
 Harris functional with IExCor=  205 diagonalized for initial guess.
 ExpMin= 1.03D-01 ExpMax= 4.56D+03 ExpMxC= 6.82D+02 IAcc=1 IRadAn=         1 AccDes= 0.00D+00
 HarFok:  IExCor=  205 AccDes= 0.00D+00 IRadAn=         1 IDoV= 1
 ScaDFX=  1.000000  1.000000  1.000000  1.000000
 FoFCou: FMM=F IPFlag=           0 FMFlag=      100000 FMFlg1=           0
         NFxFlg=           0 DoJE=T BraDBF=F KetDBF=T FulRan=T
         Omega=  0.000000  0.000000  1.000000  0.000000  0.000000 ICntrl=     500 IOpCl=  0
         NMat0=    1 NMatS0=    1 NMatT0=    0 NMatD0=    1 NMtDS0=    0 NMtDT0=    0
         I1Cent=           4 NGrid=           0.
 Petite list used in FoFCou.
 Initial guess orbital symmetries:
       Occupied  (A) (A) (A) (A) (A) (A) (A) (A) (A) (A) (A) (A)
                 (A) (A) (A) (A) (A) (A) (A) (A) (A) (A) (A) (A)
                 (A) (A) (A) (A) (A) (A) (A) (A) (A) (A) (A) (A)
                 (A) (A) (A) (A) (A) (A) (A) (A) (A) (A) (A) (A)
                 (A) (A) (A) (A) (A) (A) (A) (A) (A) (A) (A) (A)
                 (A) (A) (A) (A) (A)
       Virtual   (A) (A) (A) (A) (A) (A) (A) (A) (A) (A) (A) (A)
                 (A) (A) (A) (A) (A) (A) (A) (A) (A) (A) (A) (A)
                 (A) (A) (A) (A) (A) (A) (A) (A) (A) (A) (A) (A)
                 (A) (A) (A) (A) (A) (A) (A) (A) (A) (A) (A) (A)
                 (A) (A) (A) (A) (A) (A) (A) (A) (A) (A) (A) (A)
                 (A) (A) (A) (A) (A) (A) (A) (A) (A) (A) (A) (A)
                 (A) (A) (A) (A) (A) (A) (A) (A) (A) (A) (A) (A)
                 (A) (A) (A) (A) (A) (A) (A) (A) (A) (A) (A) (A)
                 (A) (A) (A) (A) (A) (A) (A) (A) (A) (A) (A) (A)
                 (A) (A) (A) (A) (A) (A) (A) (A) (A) (A) (A) (A)
                 (A) (A) (A) (A) (A) (A) (A) (A) (A) (A) (A) (A)
                 (A) (A) (A) (A) (A) (A) (A) (A) (A) (A) (A) (A)
                 (A) (A) (A) (A) (A) (A) (A) (A) (A) (A) (A) (A)
                 (A) (A) (A) (A) (A) (A) (A) (A) (A) (A) (A) (A)
                 (A) (A) (A) (A) (A) (A) (A) (A) (A) (A) (A) (A)
                 (A) (A) (A) (A) (A) (A) (A) (A) (A) (A) (A) (A)
                 (A) (A) (A) (A) (A) (A) (A) (A) (A) (A) (A) (A)
                 (A) (A) (A) (A) (A) (A) (A) (A) (A) (A) (A) (A)
                 (A) (A) (A) (A) (A) (A) (A) (A) (A) (A) (A) (A)
                 (A) (A)
 The electronic state of the initial guess is 1-A.
 Requested convergence on RMS density matrix=1.00D-08 within 128 cycles.
 Requested convergence on MAX density matrix=1.00D-06.
 Requested convergence on             energy=1.00D-06.
 No special actions if energy rises.
 Integral accuracy reduced to 1.0D-05 until final iterations.
 Initial convergence to 1.0D-05 achieved.  Increase integral accuracy.
 SCF Done:  E(RHF) =  -728.672584947     A.U. after   14 cycles
             Convg  =    0.8981D-08             -V/T =  2.0001

 **********************************************************************

            Population analysis using the SCF density.

 **********************************************************************

 Orbital symmetries:
       Occupied  (A) (A) (A) (A) (A) (A) (A) (A) (A) (A) (A) (A)
                 (A) (A) (A) (A) (A) (A) (A) (A) (A) (A) (A) (A)
                 (A) (A) (A) (A) (A) (A) (A) (A) (A) (A) (A) (A)
                 (A) (A) (A) (A) (A) (A) (A) (A) (A) (A) (A) (A)
                 (A) (A) (A) (A) (A) (A) (A) (A) (A) (A) (A) (A)
                 (A) (A) (A) (A) (A)
       Virtual   (A) (A) (A) (A) (A) (A) (A) (A) (A) (A) (A) (A)
                 (A) (A) (A) (A) (A) (A) (A) (A) (A) (A) (A) (A)
                 (A) (A) (A) (A) (A) (A) (A) (A) (A) (A) (A) (A)
                 (A) (A) (A) (A) (A) (A) (A) (A) (A) (A) (A) (A)
                 (A) (A) (A) (A) (A) (A) (A) (A) (A) (A) (A) (A)
                 (A) (A) (A) (A) (A) (A) (A) (A) (A) (A) (A) (A)
                 (A) (A) (A) (A) (A) (A) (A) (A) (A) (A) (A) (A)
                 (A) (A) (A) (A) (A) (A) (A) (A) (A) (A) (A) (A)
                 (A) (A) (A) (A) (A) (A) (A) (A) (A) (A) (A) (A)
                 (A) (A) (A) (A) (A) (A) (A) (A) (A) (A) (A) (A)
                 (A) (A) (A) (A) (A) (A) (A) (A) (A) (A) (A) (A)
                 (A) (A) (A) (A) (A) (A) (A) (A) (A) (A) (A) (A)
                 (A) (A) (A) (A) (A) (A) (A) (A) (A) (A) (A) (A)
                 (A) (A) (A) (A) (A) (A) (A) (A) (A) (A) (A) (A)
                 (A) (A) (A) (A) (A) (A) (A) (A) (A) (A) (A) (A)
                 (A) (A) (A) (A) (A) (A) (A) (A) (A) (A) (A) (A)
                 (A) (A) (A) (A) (A) (A) (A) (A) (A) (A) (A) (A)
                 (A) (A) (A) (A) (A) (A) (A) (A) (A) (A) (A) (A)
                 (A) (A) (A) (A) (A) (A) (A) (A) (A) (A) (A) (A)
                 (A) (A)
 The electronic state is 1-A.
 Alpha  occ. eigenvalues --  -11.25749 -11.25214 -11.25180 -11.24894 -11.24505
 Alpha  occ. eigenvalues --  -11.24435 -11.24426 -11.24386 -11.24210 -11.24153
 Alpha  occ. eigenvalues --  -11.24139 -11.24129 -11.24083 -11.24057 -11.24003
 Alpha  occ. eigenvalues --  -11.23958 -11.23726 -11.23589 -11.23511  -1.18618
 Alpha  occ. eigenvalues --   -1.15870  -1.15564  -1.09025  -1.02363  -1.02247
 Alpha  occ. eigenvalues --   -1.01876  -1.01486  -1.01054  -0.92913  -0.84237
 Alpha  occ. eigenvalues --   -0.83409  -0.82272  -0.81981  -0.81078  -0.77568
 Alpha  occ. eigenvalues --   -0.70884  -0.70354  -0.68977  -0.65632  -0.63924
 Alpha  occ. eigenvalues --   -0.63634  -0.62528  -0.61678  -0.61534  -0.59739
 Alpha  occ. eigenvalues --   -0.58843  -0.58507  -0.58301  -0.56582  -0.55286
 Alpha  occ. eigenvalues --   -0.51724  -0.50879  -0.50166  -0.49892  -0.49366
 Alpha  occ. eigenvalues --   -0.48357  -0.48028  -0.47478  -0.46291  -0.35063
 Alpha  occ. eigenvalues --   -0.34307  -0.34045  -0.33301  -0.32326  -0.31584
 Alpha virt. eigenvalues --    0.11614   0.12313   0.12603   0.13362   0.15087
 Alpha virt. eigenvalues --    0.15216   0.15776   0.16238   0.16495   0.16886
 Alpha virt. eigenvalues --    0.18905   0.19173   0.19262   0.21198   0.21280
 Alpha virt. eigenvalues --    0.21624   0.23517   0.24103   0.24781   0.25379
 Alpha virt. eigenvalues --    0.26501   0.31898   0.32951   0.34175   0.35797
 Alpha virt. eigenvalues --    0.37823   0.39429   0.40719   0.41470   0.43023
 Alpha virt. eigenvalues --    0.44111   0.44432   0.45060   0.45374   0.45513
 Alpha virt. eigenvalues --    0.45978   0.46779   0.47282   0.47712   0.50552
 Alpha virt. eigenvalues --    0.51096   0.51353   0.52498   0.55040   0.56251
 Alpha virt. eigenvalues --    0.57109   0.57802   0.58504   0.58709   0.59402
 Alpha virt. eigenvalues --    0.60340   0.60552   0.60751   0.61107   0.61570
 Alpha virt. eigenvalues --    0.61973   0.62080   0.62783   0.63037   0.63516
 Alpha virt. eigenvalues --    0.64240   0.64775   0.65217   0.65931   0.66336
 Alpha virt. eigenvalues --    0.67359   0.67879   0.68666   0.69755   0.72232
 Alpha virt. eigenvalues --    0.73033   0.73786   0.74984   0.75397   0.75737
 Alpha virt. eigenvalues --    0.77048   0.78744   0.79734   0.80132   0.81032
 Alpha virt. eigenvalues --    0.81467   0.82318   0.82462   0.82781   0.83499
 Alpha virt. eigenvalues --    0.83855   0.84410   0.85027   0.85247   0.85486
 Alpha virt. eigenvalues --    0.85814   0.86142   0.86731   0.87900   0.88026
 Alpha virt. eigenvalues --    0.89902   0.90661   0.92395   0.93596   0.95161
 Alpha virt. eigenvalues --    0.95802   0.96320   0.96834   0.98627   0.99831
 Alpha virt. eigenvalues --    1.00486   1.02593   1.03386   1.05331   1.06290
 Alpha virt. eigenvalues --    1.07156   1.07863   1.09470   1.09955   1.10980
 Alpha virt. eigenvalues --    1.11527   1.11985   1.12247   1.13066   1.13812
 Alpha virt. eigenvalues --    1.14949   1.16584   1.19979   1.20399   1.22220
 Alpha virt. eigenvalues --    1.22888   1.24314   1.27707   1.27929   1.29028
 Alpha virt. eigenvalues --    1.29601   1.31783   1.32486   1.47573   1.48013
 Alpha virt. eigenvalues --    1.51462   1.54675   1.56237   2.53444   2.55735
 Alpha virt. eigenvalues --    2.55864   2.57731   2.62115   2.62560   2.63778
 Alpha virt. eigenvalues --    2.66459   2.67183   2.68290   2.72576   2.74202
 Alpha virt. eigenvalues --    2.78442   2.83253   2.87078   2.92167   2.94304
 Alpha virt. eigenvalues --    2.94663   2.94745   2.96047   2.98391   2.98586
 Alpha virt. eigenvalues --    2.99776   3.02388   3.03847   3.04376   3.07022
 Alpha virt. eigenvalues --    3.08379   3.09407   3.09765   3.10172   3.13250
 Alpha virt. eigenvalues --    3.14946   3.15837   3.17876   3.18248   3.19662
 Alpha virt. eigenvalues --    3.21674   3.24029   3.24636   3.27821   3.28790
 Alpha virt. eigenvalues --    3.31764   3.33858   3.34574   3.35895   3.40406
 Alpha virt. eigenvalues --    3.40910   3.44185   3.44763   3.50233   3.52650
 Alpha virt. eigenvalues --    3.53636   3.56088   3.58051   3.58841   3.59317
 Alpha virt. eigenvalues --    3.62571   3.63751   3.65246   3.66177   3.67248
 Alpha virt. eigenvalues --    3.67793   3.69246   3.71301   3.71574   3.74823
 Alpha virt. eigenvalues --    3.77170   3.77409   3.78362   3.85827   3.88690
 Alpha virt. eigenvalues --    3.90729  24.26280  24.30002  24.31543  24.50564
 Alpha virt. eigenvalues --   24.50772  24.51096  24.52834  24.54652  24.56404
 Alpha virt. eigenvalues --   24.75959  24.77055  24.79122  24.80253  24.80885
 Alpha virt. eigenvalues --   24.83084  24.87788  25.04670  25.05797  25.07101
          Condensed to atoms (all electrons):
              1          2          3          4          5          6
     1  C    6.140003   0.469707   0.116833  -0.023160  -0.074465   0.007924
     2  H    0.469707   0.499493  -0.072717   0.005821   0.004476   0.001426
     3  C    0.116833  -0.072717   5.403753   0.494197   0.451469  -0.076000
     4  C   -0.023160   0.005821   0.494197   5.058506  -0.065428   0.465447
     5  C   -0.074465   0.004476   0.451469  -0.065428   5.089670  -0.029114
     6  C    0.007924   0.001426  -0.076000   0.465447  -0.029114   5.049617
     7  H   -0.001794   0.002857  -0.046876   0.395784   0.004740  -0.033839
     8  C    0.003502  -0.000225  -0.061135  -0.033229   0.479435  -0.077628
     9  H   -0.000155   0.000018  -0.045928   0.004560   0.386554  -0.000087
    10  C    0.001558   0.000008  -0.016759  -0.088840  -0.093175   0.499976
    11  H   -0.000391  -0.000035   0.006940  -0.039383  -0.000639   0.396389
    12  H   -0.000370   0.000011   0.005997  -0.000399  -0.038597   0.005909
    13  H   -0.000026  -0.000002  -0.001688   0.007584   0.008004  -0.042566
    14  C    0.026373  -0.061303  -0.063710   0.000011   0.005914  -0.000708
    15  C   -0.041587  -0.000368  -0.013124   0.000988  -0.018834   0.000254
    16  C   -0.081571  -0.004044   0.011217  -0.000344   0.001102   0.000007
    17  C    0.012462  -0.000053  -0.001946  -0.000099  -0.001054   0.000006
    18  H   -0.011561  -0.000241   0.002039  -0.000663  -0.000580  -0.000126
    19  C    0.009667   0.000379  -0.000886   0.000009  -0.000020   0.000000
    20  H   -0.005896  -0.000120   0.000730  -0.000007  -0.000037   0.000000
    21  C    0.000234   0.000046   0.000134  -0.000004  -0.000006   0.000000
    22  H   -0.000364   0.000013   0.000056   0.000003   0.000018   0.000000
    23  H   -0.000357   0.000008   0.000012   0.000000   0.000000   0.000000
    24  H   -0.000014  -0.000002   0.000001   0.000000   0.000001   0.000000
    25  C    0.140882  -0.070021  -0.147950  -0.004714  -0.003021  -0.000556
    26  C   -0.024126   0.002741  -0.002878   0.000638   0.000542  -0.000015
    27  C   -0.061170   0.005049  -0.002599   0.000779  -0.011354   0.000068
    28  C    0.006914   0.001501  -0.000527  -0.000017   0.000112   0.000002
    29  H   -0.000410   0.002533   0.000287   0.000287  -0.000011   0.000004
    30  C    0.003694  -0.000247   0.001893   0.000027  -0.000244   0.000000
    31  H   -0.000338   0.000077  -0.003168  -0.000204  -0.000319  -0.000009
    32  C    0.001300   0.000002  -0.000090  -0.000011  -0.000026   0.000000
    33  H   -0.000343  -0.000038   0.000026   0.000001   0.000000   0.000000
    34  H   -0.000356   0.000011   0.000030   0.000001   0.000054   0.000000
    35  H   -0.000015  -0.000002  -0.000003   0.000000   0.000000   0.000000
              7          8          9         10         11         12
     1  C   -0.001794   0.003502  -0.000155   0.001558  -0.000391  -0.000370
     2  H    0.002857  -0.000225   0.000018   0.000008  -0.000035   0.000011
     3  C   -0.046876  -0.061135  -0.045928  -0.016759   0.006940   0.005997
     4  C    0.395784  -0.033229   0.004560  -0.088840  -0.039383  -0.000399
     5  C    0.004740   0.479435   0.386554  -0.093175  -0.000639  -0.038597
     6  C   -0.033839  -0.077628  -0.000087   0.499976   0.396389   0.005909
     7  H    0.506981  -0.000293  -0.000272   0.005090  -0.004083   0.000025
     8  C   -0.000293   5.046117  -0.027888   0.490396   0.006254   0.397061
     9  H   -0.000272  -0.027888   0.497411   0.004609   0.000015  -0.003379
    10  C    0.005090   0.490396   0.004609   5.033180  -0.040899  -0.039780
    11  H   -0.004083   0.006254   0.000015  -0.040899   0.517917  -0.000206
    12  H    0.000025   0.397061  -0.003379  -0.039780  -0.000206   0.514301
    13  H   -0.000178  -0.043054  -0.000168   0.399513  -0.004561  -0.004392
    14  C    0.000453   0.000395   0.001872  -0.000054   0.000020   0.000023
    15  C    0.000133  -0.001332   0.002020   0.000187  -0.000008  -0.000004
    16  C    0.000008   0.000011  -0.000073   0.000000   0.000000   0.000000
    17  C    0.000001  -0.000039   0.000192   0.000004   0.000000  -0.000003
    18  H    0.000126  -0.000136   0.000185   0.000138   0.000012   0.000024
    19  C    0.000000   0.000000  -0.000097   0.000000   0.000000   0.000000
    20  H   -0.000001   0.000000   0.000024   0.000000   0.000000   0.000000
    21  C    0.000000   0.000000  -0.000003   0.000000   0.000000   0.000000
    22  H    0.000000  -0.000001   0.000002  -0.000001   0.000000   0.000000
    23  H    0.000000   0.000000  -0.000001   0.000000   0.000000   0.000000
    24  H    0.000000   0.000000   0.000000   0.000000   0.000000   0.000000
    25  C    0.000143   0.001938  -0.003864  -0.000080   0.000023   0.000032
    26  C    0.000272   0.000035  -0.000205  -0.000012   0.000001   0.000001
    27  C   -0.000023  -0.000124   0.001185  -0.000013   0.000000   0.000044
    28  C   -0.000001   0.000001  -0.000041   0.000000   0.000000   0.000000
    29  H    0.000082  -0.000001   0.000001  -0.000001   0.000000   0.000000
    30  C    0.000000  -0.000102   0.001093   0.000002   0.000000   0.000000
    31  H    0.000000   0.000961   0.001026  -0.000017   0.000001  -0.000030
    32  C   -0.000001   0.000001  -0.000006   0.000000   0.000000   0.000000
    33  H    0.000000   0.000000   0.000001   0.000000   0.000000   0.000000
    34  H    0.000000   0.000001  -0.000046   0.000000   0.000000   0.000001
    35  H    0.000000   0.000000   0.000000   0.000000   0.000000   0.000000
             13         14         15         16         17         18
     1  C   -0.000026   0.026373  -0.041587  -0.081571   0.012462  -0.011561
     2  H   -0.000002  -0.061303  -0.000368  -0.004044  -0.000053  -0.000241
     3  C   -0.001688  -0.063710  -0.013124   0.011217  -0.001946   0.002039
     4  C    0.007584   0.000011   0.000988  -0.000344  -0.000099  -0.000663
     5  C    0.008004   0.005914  -0.018834   0.001102  -0.001054  -0.000580
     6  C   -0.042566  -0.000708   0.000254   0.000007   0.000006  -0.000126
     7  H   -0.000178   0.000453   0.000133   0.000008   0.000001   0.000126
     8  C   -0.043054   0.000395  -0.001332   0.000011  -0.000039  -0.000136
     9  H   -0.000168   0.001872   0.002020  -0.000073   0.000192   0.000185
    10  C    0.399513  -0.000054   0.000187   0.000000   0.000004   0.000138
    11  H   -0.004561   0.000020  -0.000008   0.000000   0.000000   0.000012
    12  H   -0.004392   0.000023  -0.000004   0.000000  -0.000003   0.000024
    13  H    0.517047   0.000002  -0.000003   0.000000   0.000000   0.000010
    14  C    0.000002   5.345961   0.494484   0.475220  -0.066023  -0.035681
    15  C   -0.000003   0.494484   5.108138  -0.086307   0.453878   0.395087
    16  C    0.000000   0.475220  -0.086307   5.129370  -0.033170   0.005026
    17  C    0.000000  -0.066023   0.453878  -0.033170   5.078785  -0.036715
    18  H    0.000010  -0.035681   0.395087   0.005026  -0.036715   0.479188
    19  C    0.000000  -0.057661  -0.031055   0.460391  -0.073242  -0.000486
    20  H    0.000000  -0.042370   0.004669   0.397027  -0.000496  -0.000188
    21  C    0.000000  -0.021126  -0.088485  -0.085496   0.492037   0.005130
    22  H    0.000000   0.006424  -0.037001  -0.000399   0.395853  -0.003609
    23  H    0.000000   0.006145  -0.000410  -0.037857   0.005970   0.000017
    24  H    0.000000  -0.001442   0.007598   0.007473  -0.042290  -0.000170
    25  C   -0.000002  -0.083473   0.004878  -0.009749  -0.000863   0.000498
    26  C    0.000000  -0.000963  -0.000444   0.000534   0.000007  -0.000015
    27  C    0.000000  -0.003577   0.001565  -0.011801   0.000037   0.000016
    28  C    0.000000  -0.000455   0.000016  -0.000050   0.000000   0.000000
    29  H    0.000000   0.000208  -0.000026   0.000260   0.000000   0.000001
    30  C    0.000000  -0.000407   0.000012  -0.000467   0.000002   0.000001
    31  H    0.000000   0.001401  -0.000345   0.000873  -0.000155   0.000033
    32  C    0.000000   0.000010  -0.000001   0.000155   0.000000   0.000000
    33  H    0.000000   0.000012   0.000000  -0.000004   0.000000   0.000000
    34  H    0.000000   0.000028   0.000000   0.000011   0.000000   0.000000
    35  H    0.000000   0.000001   0.000000  -0.000001   0.000000   0.000000
             19         20         21         22         23         24
     1  C    0.009667  -0.005896   0.000234  -0.000364  -0.000357  -0.000014
     2  H    0.000379  -0.000120   0.000046   0.000013   0.000008  -0.000002
     3  C   -0.000886   0.000730   0.000134   0.000056   0.000012   0.000001
     4  C    0.000009  -0.000007  -0.000004   0.000003   0.000000   0.000000
     5  C   -0.000020  -0.000037  -0.000006   0.000018   0.000000   0.000001
     6  C    0.000000   0.000000   0.000000   0.000000   0.000000   0.000000
     7  H    0.000000  -0.000001   0.000000   0.000000   0.000000   0.000000
     8  C    0.000000   0.000000   0.000000  -0.000001   0.000000   0.000000
     9  H   -0.000097   0.000024  -0.000003   0.000002  -0.000001   0.000000
    10  C    0.000000   0.000000   0.000000  -0.000001   0.000000   0.000000
    11  H    0.000000   0.000000   0.000000   0.000000   0.000000   0.000000
    12  H    0.000000   0.000000   0.000000   0.000000   0.000000   0.000000
    13  H    0.000000   0.000000   0.000000   0.000000   0.000000   0.000000
    14  C   -0.057661  -0.042370  -0.021126   0.006424   0.006145  -0.001442
    15  C   -0.031055   0.004669  -0.088485  -0.037001  -0.000410   0.007598
    16  C    0.460391   0.397027  -0.085496  -0.000399  -0.037857   0.007473
    17  C   -0.073242  -0.000496   0.492037   0.395853   0.005970  -0.042290
    18  H   -0.000486  -0.000188   0.005130  -0.003609   0.000017  -0.000170
    19  C    5.067457  -0.035445   0.482137   0.005996   0.396776  -0.043010
    20  H   -0.035445   0.486094   0.005224   0.000017  -0.003778  -0.000172
    21  C    0.482137   0.005224   5.043463  -0.041243  -0.040893   0.399458
    22  H    0.005996   0.000017  -0.041243   0.517752  -0.000214  -0.004445
    23  H    0.396776  -0.003778  -0.040893  -0.000214   0.517432  -0.004404
    24  H   -0.043010  -0.000172   0.399458  -0.004445  -0.004404   0.519428
    25  C   -0.001925   0.004292   0.000139   0.000012   0.000024   0.000002
    26  C   -0.000055   0.000988  -0.000003   0.000000  -0.000003   0.000000
    27  C   -0.000547  -0.000684   0.000024   0.000000   0.000013   0.000000
    28  C    0.000013   0.000092   0.000000   0.000000   0.000000   0.000000
    29  H   -0.000007   0.000194   0.000001   0.000000   0.000000   0.000000
    30  C   -0.000020  -0.000347   0.000002   0.000000   0.000002   0.000000
    31  H    0.000159   0.000020  -0.000028  -0.000001   0.000004   0.000000
    32  C    0.000003  -0.000041   0.000000   0.000000   0.000000   0.000000
    33  H    0.000000   0.000010   0.000000   0.000000   0.000000   0.000000
    34  H    0.000000   0.000006   0.000000   0.000000   0.000000   0.000000
    35  H    0.000000   0.000003   0.000000   0.000000   0.000000   0.000000
             25         26         27         28         29         30
     1  C    0.140882  -0.024126  -0.061170   0.006914  -0.000410   0.003694
     2  H   -0.070021   0.002741   0.005049   0.001501   0.002533  -0.000247
     3  C   -0.147950  -0.002878  -0.002599  -0.000527   0.000287   0.001893
     4  C   -0.004714   0.000638   0.000779  -0.000017   0.000287   0.000027
     5  C   -0.003021   0.000542  -0.011354   0.000112  -0.000011  -0.000244
     6  C   -0.000556  -0.000015   0.000068   0.000002   0.000004   0.000000
     7  H    0.000143   0.000272  -0.000023  -0.000001   0.000082   0.000000
     8  C    0.001938   0.000035  -0.000124   0.000001  -0.000001  -0.000102
     9  H   -0.003864  -0.000205   0.001185  -0.000041   0.000001   0.001093
    10  C   -0.000080  -0.000012  -0.000013   0.000000  -0.000001   0.000002
    11  H    0.000023   0.000001   0.000000   0.000000   0.000000   0.000000
    12  H    0.000032   0.000001   0.000044   0.000000   0.000000   0.000000
    13  H   -0.000002   0.000000   0.000000   0.000000   0.000000   0.000000
    14  C   -0.083473  -0.000963  -0.003577  -0.000455   0.000208  -0.000407
    15  C    0.004878  -0.000444   0.001565   0.000016  -0.000026   0.000012
    16  C   -0.009749   0.000534  -0.011801  -0.000050   0.000260  -0.000467
    17  C   -0.000863   0.000007   0.000037   0.000000   0.000000   0.000002
    18  H    0.000498  -0.000015   0.000016   0.000000   0.000001   0.000001
    19  C   -0.001925  -0.000055  -0.000547   0.000013  -0.000007  -0.000020
    20  H    0.004292   0.000988  -0.000684   0.000092   0.000194  -0.000347
    21  C    0.000139  -0.000003   0.000024   0.000000   0.000001   0.000002
    22  H    0.000012   0.000000   0.000000   0.000000   0.000000   0.000000
    23  H    0.000024  -0.000003   0.000013   0.000000   0.000000   0.000002
    24  H    0.000002   0.000000   0.000000   0.000000   0.000000   0.000000
    25  C    5.401923   0.491114   0.451686  -0.074962  -0.050130  -0.057632
    26  C    0.491114   5.087594  -0.071753   0.456511   0.399763  -0.030922
    27  C    0.451686  -0.071753   5.065697  -0.026339   0.004407   0.478346
    28  C   -0.074962   0.456511  -0.026339   5.056904  -0.034490  -0.078890
    29  H   -0.050130   0.399763   0.004407  -0.034490   0.508813  -0.000283
    30  C   -0.057632  -0.030922   0.478346  -0.078890  -0.000283   5.042953
    31  H   -0.044217   0.004209   0.387717   0.000037  -0.000273  -0.028845
    32  C   -0.018627  -0.087043  -0.091843   0.498848   0.005199   0.490883
    33  H    0.006904  -0.039599  -0.000688   0.396835  -0.004178   0.006248
    34  H    0.006021  -0.000463  -0.038764   0.005941   0.000025   0.397235
    35  H   -0.001572   0.007507   0.007924  -0.042559  -0.000183  -0.042951
             31         32         33         34         35
     1  C   -0.000338   0.001300  -0.000343  -0.000356  -0.000015
     2  H    0.000077   0.000002  -0.000038   0.000011  -0.000002
     3  C   -0.003168  -0.000090   0.000026   0.000030  -0.000003
     4  C   -0.000204  -0.000011   0.000001   0.000001   0.000000
     5  C   -0.000319  -0.000026   0.000000   0.000054   0.000000
     6  C   -0.000009   0.000000   0.000000   0.000000   0.000000
     7  H    0.000000  -0.000001   0.000000   0.000000   0.000000
     8  C    0.000961   0.000001   0.000000   0.000001   0.000000
     9  H    0.001026  -0.000006   0.000001  -0.000046   0.000000
    10  C   -0.000017   0.000000   0.000000   0.000000   0.000000
    11  H    0.000001   0.000000   0.000000   0.000000   0.000000
    12  H   -0.000030   0.000000   0.000000   0.000001   0.000000
    13  H    0.000000   0.000000   0.000000   0.000000   0.000000
    14  C    0.001401   0.000010   0.000012   0.000028   0.000001
    15  C   -0.000345  -0.000001   0.000000   0.000000   0.000000
    16  C    0.000873   0.000155  -0.000004   0.000011  -0.000001
    17  C   -0.000155   0.000000   0.000000   0.000000   0.000000
    18  H    0.000033   0.000000   0.000000   0.000000   0.000000
    19  C    0.000159   0.000003   0.000000   0.000000   0.000000
    20  H    0.000020  -0.000041   0.000010   0.000006   0.000003
    21  C   -0.000028   0.000000   0.000000   0.000000   0.000000
    22  H   -0.000001   0.000000   0.000000   0.000000   0.000000
    23  H    0.000004   0.000000   0.000000   0.000000   0.000000
    24  H    0.000000   0.000000   0.000000   0.000000   0.000000
    25  C   -0.044217  -0.018627   0.006904   0.006021  -0.001572
    26  C    0.004209  -0.087043  -0.039599  -0.000463   0.007507
    27  C    0.387717  -0.091843  -0.000688  -0.038764   0.007924
    28  C    0.000037   0.498848   0.396835   0.005941  -0.042559
    29  H   -0.000273   0.005199  -0.004178   0.000025  -0.000183
    30  C   -0.028845   0.490883   0.006248   0.397235  -0.042951
    31  H    0.498448   0.004574   0.000014  -0.003323  -0.000174
    32  C    0.004574   5.034033  -0.040707  -0.039843   0.399609
    33  H    0.000014  -0.040707   0.518023  -0.000205  -0.004581
    34  H   -0.003323  -0.039843  -0.000205   0.514601  -0.004451
    35  H   -0.000174   0.399609  -0.004581  -0.004451   0.517358
 Mulliken atomic charges:
              1
     1  C   -0.612584
     2  H    0.213240
     3  C    0.062370
     4  C   -0.178140
     5  C   -0.095167
     6  C   -0.166382
     7  H    0.170665
     8  C   -0.180923
     9  H    0.181443
    10  C   -0.155029
    11  H    0.162634
    12  H    0.163728
    13  H    0.164479
    14  C    0.073995
    15  C   -0.154570
    16  C   -0.137349
    17  C   -0.183085
    18  H    0.202641
    19  C   -0.178529
    20  H    0.190194
    21  C   -0.150740
    22  H    0.161132
    23  H    0.161513
    24  H    0.161987
    25  C    0.062848
    26  C   -0.193958
    27  C   -0.083278
    28  C   -0.165393
    29  H    0.167930
    30  C   -0.181033
    31  H    0.181893
    32  C   -0.156375
    33  H    0.162270
    34  H    0.163486
    35  H    0.164088
 Sum of Mulliken atomic charges =   0.00000
 Mulliken charges with hydrogens summed into heavy atoms:
              1
     1  C   -0.399344
     3  C    0.062370
     4  C   -0.007475
     5  C    0.086276
     6  C   -0.003748
     8  C   -0.017195
    10  C    0.009449
    14  C    0.073995
    15  C    0.048071
    16  C    0.052845
    17  C   -0.021953
    19  C   -0.017016
    21  C    0.011246
    25  C    0.062848
    26  C   -0.026028
    27  C    0.098616
    28  C   -0.003123
    30  C   -0.017547
    32  C    0.007713
 Sum of Mulliken charges with hydrogens summed into heavy atoms =   0.00000
 Electronic spatial extent (au):  <R**2>=           4929.7026
 Charge=              0.0000 electrons
 Dipole moment (field-independent basis, Debye):
    X=              0.0867    Y=             -0.1790    Z=             -0.0171  Tot=              0.1997
 Quadrupole moment (field-independent basis, Debye-Ang):
   XX=           -107.1398   YY=           -113.2762   ZZ=           -107.3825
   XY=              2.6838   XZ=              0.3939   YZ=              2.5177
 Traceless Quadrupole moment (field-independent basis, Debye-Ang):
   XX=              2.1264   YY=             -4.0101   ZZ=              1.8837
   XY=              2.6838   XZ=              0.3939   YZ=              2.5177
 Octapole moment (field-independent basis, Debye-Ang**2):
  XXX=             25.9883  YYY=             18.5264  ZZZ=              1.0578  XYY=            -33.7546
  XXY=             -5.6927  XXZ=             -0.4239  XZZ=              9.4389  YZZ=            -20.9464
  YYZ=              9.9393  XYZ=              1.2174
 Hexadecapole moment (field-independent basis, Debye-Ang**3):
 XXXX=          -3049.4619 YYYY=          -2951.0378 ZZZZ=           -646.6413 XXXY=            -69.9882
 XXXZ=              7.4673 YYYX=             74.8237 YYYZ=             66.3480 ZZZX=             -5.0649
 ZZZY=             -0.7313 XXYY=          -1004.0566 XXZZ=           -621.8052 YYZZ=           -648.8043
 XXYZ=             -0.8243 YYXZ=            -10.7073 ZZXY=             30.4452
 N-N= 1.291074647240D+03 E-N=-4.278234187760D+03  KE= 7.286020586411D+02
 PrsmSu:  requested number of processors reduced to:  10 ShMem   1 Linda.
 Calling FoFJK, ICntrl=      2127 FMM=F ISym2X=0 I1Cent= 0 IOpClX= 0 NMat=1 NMatS=1 NMatT=0.
 ***** Axes restored to original set *****
 -------------------------------------------------------------------
 Center     Atomic                   Forces (Hartrees/Bohr)
 Number     Number              X              Y              Z
 -------------------------------------------------------------------
      1        6          -0.002310205    0.022508404    0.004464548
      2        1           0.005169270   -0.022331856   -0.010017668
      3        6           0.011226298    0.008182821    0.000709775
      4        6          -0.002803512    0.005031718    0.001544883
      5        6          -0.005636917   -0.010450350   -0.002708901
      6        6           0.010316463    0.009041674    0.000291418
      7        1           0.005763702   -0.016443602   -0.003553002
      8        6           0.001902407   -0.012166343   -0.002549827
      9        1           0.023049511    0.017356500    0.005348364
     10        6           0.013668740    0.000584153   -0.001483226
     11        1          -0.010103333   -0.013090134   -0.001223165
     12        1          -0.005955354    0.015205158    0.003543074
     13        1          -0.016517324    0.002114992    0.002414054
     14        6          -0.004302229   -0.007397291    0.012121379
     15        6           0.011601198    0.001104282   -0.000013429
     16        6          -0.007377418    0.003051539   -0.005088081
     17        6           0.005401146   -0.005345074    0.010131021
     18        1          -0.021082568   -0.001642069    0.003422795
     19        6          -0.012555566    0.000179735    0.000342058
     20        1           0.010546206   -0.007910900    0.014195066
     21        6          -0.003981569   -0.006598506    0.011279406
     22        1          -0.009991607    0.006335508   -0.011715337
     23        1           0.016532739    0.001198336   -0.001440717
     24        1           0.006682048    0.007449726   -0.013305774
     25        6          -0.008008214    0.007563315   -0.009259415
     26        6           0.000935486    0.005305317    0.002304167
     27        6           0.004252734   -0.009947862    0.004134931
     28        6          -0.006607709    0.008465796   -0.008504199
     29        1          -0.000877991   -0.016632947   -0.005591849
     30        6           0.000953650   -0.012220630   -0.002383356
     31        1          -0.019163581    0.015602163   -0.013924758
     32        6          -0.007335513   -0.000131431   -0.011630136
     33        1           0.007088630   -0.012703914    0.007994076
     34        1           0.001049339    0.015721859    0.005927825
     35        1           0.008471043    0.003009912    0.014224001
 -------------------------------------------------------------------
 Cartesian Forces:  Max     0.023049511 RMS     0.009544328

 GradGradGradGradGradGradGradGradGradGradGradGradGradGradGradGradGradGrad
 Berny optimization.
 Internal  Forces:  Max     0.028343125 RMS     0.007779652
 Search for a local minimum.
 Step number   1 out of a maximum of  197
 All quantities printed in internal units (Hartrees-Bohrs-Radians)
 Mixed Optimization -- RFO/linear search
 Second derivative matrix not updated -- first step.
     Eigenvalues ---    0.00636   0.00653   0.00653   0.01533   0.01537
     Eigenvalues ---    0.01542   0.02139   0.02142   0.02146   0.02171
     Eigenvalues ---    0.02172   0.02172   0.02182   0.02182   0.02184
     Eigenvalues ---    0.02201   0.02201   0.02203   0.02210   0.02212
     Eigenvalues ---    0.02213   0.02214   0.02214   0.02215   0.02215
     Eigenvalues ---    0.02217   0.02218   0.02219   0.02220   0.02223
     Eigenvalues ---    0.04574   0.06429   0.06587   0.15997   0.15998
     Eigenvalues ---    0.16000   0.16000   0.16000   0.16000   0.16000
     Eigenvalues ---    0.16000   0.16000   0.16000   0.16000   0.16000
     Eigenvalues ---    0.16000   0.16000   0.16000   0.18860   0.19309
     Eigenvalues ---    0.22000   0.22000   0.22000   0.22000   0.22000
     Eigenvalues ---    0.22000   0.23461   0.23478   0.23479   0.24955
     Eigenvalues ---    0.24999   0.25000   0.31268   0.31367   0.31494
     Eigenvalues ---    0.31498   0.33514   0.33576   0.33989   0.34040
     Eigenvalues ---    0.34078   0.34093   0.34247   0.34261   0.34263
     Eigenvalues ---    0.34264   0.34265   0.34273   0.34276   0.34276
     Eigenvalues ---    0.34285   0.42427   0.42464   0.42477   0.42560
     Eigenvalues ---    0.42569   0.42596   0.46358   0.46395   0.46429
     Eigenvalues ---    0.46734   0.46741   0.46781   0.47193   0.47209
     Eigenvalues ---    0.47232   0.47339   0.47347   0.473981000.00000
     Eigenvalues --- 1000.000001000.000001000.000001000.000001000.00000
     Eigenvalues --- 1000.000001000.000001000.000001000.000001000.00000
     Eigenvalues --- 1000.000001000.000001000.000001000.000001000.00000
     Eigenvalues --- 1000.000001000.000001000.000001000.000001000.00000
     Eigenvalues --- 1000.000001000.000001000.000001000.000001000.00000
     Eigenvalues --- 1000.000001000.000001000.000001000.000001000.00000
     Eigenvalues --- 1000.000001000.000001000.000001000.000001000.00000
     Eigenvalues --- 1000.000001000.000001000.000001000.000001000.00000
     Eigenvalues --- 1000.000001000.000001000.000001000.000001000.00000
     Eigenvalues --- 1000.000001000.000001000.000001000.000001000.00000
     Eigenvalues --- 1000.000001000.000001000.000001000.000001000.00000
     Eigenvalues --- 1000.000001000.000001000.000001000.000001000.00000
     Eigenvalues --- 1000.000001000.000001000.000001000.000001000.00000
     Eigenvalues --- 1000.000001000.000001000.000001000.000001000.00000
     Eigenvalues --- 1000.000001000.000001000.000001000.000001000.00000
     Eigenvalues --- 1000.000001000.000001000.000001000.000001000.00000
     Eigenvalues --- 1000.000001000.000001000.000001000.000001000.00000
     Eigenvalues --- 1000.000001000.00000
 RFO step:  Lambda=-4.17415153D-02 EMin= 6.35867285D-03
 Linear search not attempted -- first point.
 Maximum step size (   0.300) exceeded in Quadratic search.
    -- Step size scaled by   0.595
 Iteration  1 RMS(Cart)=  0.12587142 RMS(Int)=  0.00306405
 Iteration  2 RMS(Cart)=  0.00620388 RMS(Int)=  0.00028255
 Iteration  3 RMS(Cart)=  0.00001089 RMS(Int)=  0.00028249
 Iteration  4 RMS(Cart)=  0.00000000 RMS(Int)=  0.00028249
 Variable       Old X    -DE/DX   Delta X   Delta X   Delta X     New X
                                 (Linear)    (Quad)   (Total)
    R1        2.12204  -0.02452   0.00000  -0.04113  -0.04113   2.08091
    R2        2.85079   0.02331   0.00000   0.03885   0.03885   2.88964
    R3        2.85072   0.02354   0.00000   0.03924   0.03924   2.88996
    R4        2.85317   0.02296   0.00000   0.03842   0.03842   2.89159
    R5        2.63916  -0.00444   0.00000  -0.00519  -0.00518   2.63399
    R6        2.63968   0.00055   0.00000   0.00077   0.00079   2.64046
    R7        2.62809  -0.00235   0.00000  -0.00279  -0.00279   2.62529
    R8        2.07198  -0.01777   0.00000  -0.02762  -0.02762   2.04436
    R9        2.62545  -0.00458   0.00000  -0.00520  -0.00520   2.62025
   R10        2.08159  -0.02834   0.00000  -0.04471  -0.04471   2.03687
   R11        2.62707  -0.00906   0.00000  -0.01059  -0.01060   2.61646
   R12        2.06872  -0.01658   0.00000  -0.02564  -0.02564   2.04308
   R13        2.62877  -0.00545   0.00000  -0.00636  -0.00638   2.62239
   R14        2.06885  -0.01671   0.00000  -0.02584  -0.02584   2.04301
   R15        2.06866  -0.01683   0.00000  -0.02602  -0.02602   2.04264
   R16        2.63661  -0.00206   0.00000  -0.00228  -0.00228   2.63434
   R17        2.64259  -0.00189   0.00000  -0.00216  -0.00216   2.64043
   R18        2.62821  -0.00186   0.00000  -0.00210  -0.00210   2.62611
   R19        2.07348  -0.02136   0.00000  -0.03328  -0.03328   2.04020
   R20        2.62469  -0.00419   0.00000  -0.00487  -0.00487   2.61982
   R21        2.07262  -0.01933   0.00000  -0.03008  -0.03008   2.04254
   R22        2.62624  -0.00710   0.00000  -0.00828  -0.00828   2.61796
   R23        2.06892  -0.01665   0.00000  -0.02576  -0.02576   2.04316
   R24        2.62887  -0.00528   0.00000  -0.00625  -0.00626   2.62261
   R25        2.06887  -0.01664   0.00000  -0.02574  -0.02574   2.04314
   R26        2.06851  -0.01665   0.00000  -0.02574  -0.02574   2.04277
   R27        2.63883  -0.00433   0.00000  -0.00505  -0.00504   2.63380
   R28        2.63894  -0.00007   0.00000   0.00003   0.00004   2.63899
   R29        2.62802  -0.00226   0.00000  -0.00267  -0.00267   2.62535
   R30        2.07174  -0.01756   0.00000  -0.02728  -0.02728   2.04446
   R31        2.62556  -0.00470   0.00000  -0.00537  -0.00537   2.62019
   R32        2.08051  -0.02714   0.00000  -0.04274  -0.04274   2.03777
   R33        2.62752  -0.00897   0.00000  -0.01047  -0.01049   2.61703
   R34        2.06888  -0.01660   0.00000  -0.02567  -0.02567   2.04321
   R35        2.62884  -0.00536   0.00000  -0.00627  -0.00628   2.62256
   R36        2.06916  -0.01683   0.00000  -0.02605  -0.02605   2.04311
   R37        2.06866  -0.01683   0.00000  -0.02602  -0.02602   2.04264
    A1        1.87934  -0.00987   0.00000  -0.05168  -0.05078   1.82856
    A2        1.82643   0.00432   0.00000   0.00234   0.00259   1.82902
    A3        1.88460  -0.00927   0.00000  -0.05061  -0.04977   1.83483
    A4        1.98807  -0.00029   0.00000   0.01906   0.01709   2.00517
    A5        1.92315   0.01568   0.00000   0.05530   0.05416   1.97731
    A6        1.95542  -0.00250   0.00000   0.01396   0.01185   1.96726
    A7        2.08184  -0.01048   0.00000  -0.02130  -0.02133   2.06051
    A8        2.12163   0.02204   0.00000   0.04498   0.04495   2.16658
    A9        2.07969  -0.01155   0.00000  -0.02362  -0.02359   2.05609
   A10        2.09955   0.00801   0.00000   0.01768   0.01770   2.11725
   A11        2.09505  -0.00468   0.00000  -0.01083  -0.01084   2.08421
   A12        2.08859  -0.00333   0.00000  -0.00685  -0.00687   2.08172
   A13        2.10206   0.00445   0.00000   0.01007   0.01005   2.11210
   A14        2.07737   0.00428   0.00000   0.01421   0.01416   2.09153
   A15        2.10364  -0.00870   0.00000  -0.02403  -0.02408   2.07955
   A16        2.09800  -0.00029   0.00000  -0.00152  -0.00153   2.09647
   A17        2.09105   0.00031   0.00000   0.00125   0.00126   2.09231
   A18        2.09413  -0.00002   0.00000   0.00027   0.00027   2.09440
   A19        2.09616   0.00234   0.00000   0.00490   0.00488   2.10105
   A20        2.09157  -0.00108   0.00000  -0.00217  -0.00216   2.08941
   A21        2.09545  -0.00126   0.00000  -0.00273  -0.00272   2.09273
   A22        2.09091  -0.00295   0.00000  -0.00750  -0.00754   2.08337
   A23        2.09630   0.00144   0.00000   0.00365   0.00367   2.09996
   A24        2.09598   0.00151   0.00000   0.00386   0.00387   2.09984
   A25        2.12483   0.00597   0.00000   0.01203   0.01201   2.13684
   A26        2.08043   0.00194   0.00000   0.00380   0.00379   2.08421
   A27        2.07643  -0.00794   0.00000  -0.01620  -0.01619   2.06024
   A28        2.10185   0.00371   0.00000   0.00849   0.00850   2.11034
   A29        2.09116  -0.00031   0.00000   0.00032   0.00031   2.09147
   A30        2.09018  -0.00340   0.00000  -0.00880  -0.00881   2.08137
   A31        2.10329   0.00441   0.00000   0.00979   0.00980   2.11310
   A32        2.08558  -0.00096   0.00000  -0.00123  -0.00124   2.08435
   A33        2.09430  -0.00345   0.00000  -0.00856  -0.00857   2.08573
   A34        2.09886   0.00106   0.00000   0.00206   0.00205   2.10091
   A35        2.08935  -0.00048   0.00000  -0.00089  -0.00088   2.08846
   A36        2.09498  -0.00058   0.00000  -0.00117  -0.00117   2.09381
   A37        2.09704   0.00094   0.00000   0.00148   0.00147   2.09851
   A38        2.09135  -0.00047   0.00000  -0.00074  -0.00074   2.09061
   A39        2.09480  -0.00047   0.00000  -0.00074  -0.00073   2.09407
   A40        2.08889  -0.00217   0.00000  -0.00565  -0.00566   2.08323
   A41        2.09771   0.00104   0.00000   0.00268   0.00269   2.10040
   A42        2.09658   0.00114   0.00000   0.00296   0.00297   2.09955
   A43        2.08487  -0.00867   0.00000  -0.01761  -0.01766   2.06721
   A44        2.11733   0.01961   0.00000   0.04002   0.03996   2.15730
   A45        2.08099  -0.01095   0.00000  -0.02240  -0.02239   2.05860
   A46        2.09886   0.00756   0.00000   0.01675   0.01676   2.11561
   A47        2.09526  -0.00446   0.00000  -0.01039  -0.01040   2.08485
   A48        2.08907  -0.00309   0.00000  -0.00636  -0.00637   2.08270
   A49        2.10147   0.00425   0.00000   0.00958   0.00954   2.11101
   A50        2.07764   0.00390   0.00000   0.01308   0.01298   2.09063
   A51        2.10393  -0.00810   0.00000  -0.02230  -0.02239   2.08154
   A52        2.09782  -0.00032   0.00000  -0.00148  -0.00149   2.09633
   A53        2.09105   0.00037   0.00000   0.00136   0.00137   2.09242
   A54        2.09432  -0.00005   0.00000   0.00011   0.00012   2.09444
   A55        2.09597   0.00233   0.00000   0.00484   0.00483   2.10080
   A56        2.09185  -0.00107   0.00000  -0.00215  -0.00216   2.08969
   A57        2.09536  -0.00125   0.00000  -0.00268  -0.00268   2.09269
[...]
 0.00057700,-0.00056892,0.00016233,-0.00201430,0.00020236,0.00040640,-0
 .00002428,-0.00024345,-0.00010911,-0.00065052,-0.00029326,0.00007879,0
 .00026801,0.00001309,0.00003018,-0.00001487,0.00050362,0.00033866,0.00
 032517,-0.00017011,0.00011389,0.00048391,-0.00004017,-0.00031727,-0.00
 026730,-0.00001903,-0.00003272,0.00003894,-0.00001987,0.00003477,-0.00
 002943,0.00002136,0.00002031,0.00001943,0.00039517,-0.00055082,-0.0004
 8448,0.00010962,0.00016080,-0.00052711,-0.00027364,0.00002242,0.000661
 78,-0.00041871,-0.00015739,0.00044827,0.00001279,0.00005955,-0.0000162
 6,0.00006076,0.00045659,-0.00041795,0.00000567,-0.00015535,-0.00002810
 ,0.00040969,-0.00036027,0.00001034,0.00000335,-0.00000550,0.00000548,-
 0.00000248,0.00001675,-0.00000315,0.00000616,-0.00000644,0.00001604,-0
 .02753481,-0.10409228,0.03972664,-0.02720761,0.02103599,-0.09552799,-0
 .08595185,0.00690419,-0.29345432,0.05281924,0.07827083,0.05976012,-0.0
 0000229,0.00024007,-0.00116050,0.17648308,-0.07117893,0.66568184,-0.00
 312855,0.00194873,0.00163202,0.00044044,0.00030977,0.00042777,-0.00018
 826,-0.00048085,-0.00065416,-0.00023444,0.00006923,0.00002462,-0.00006
 043,-0.00014918,-0.00030653,0.00003985,-0.00005064,-0.00000656,-0.0000
 0048,0.00002013,0.00000821,-0.00002835,0.00009758,0.00005682,-0.000001
 66,-0.00005796,0.00032609,0.00000402,0.00001927,0.00002561,-0.00000738
 ,0.00000524,0.00001431,-0.00001020,-0.00000994,0.00000164,0.00002068,0
 .00000918,0.00000942,-0.00005922,-0.00035275,-0.00072902,0.00003864,-0
 .00025943,-0.00016977,0.00006241,-0.00007452,-0.00032476,0.00026191,0.
 00017032,-0.00028310,-0.00032491,-0.00004923,-0.00015620,-0.00023906,-
 0.00026997,0.00032136,-0.00000511,0.00016323,0.00003852,-0.00027870,0.
 00015614,0.00002675,0.00000449,0.00000207,-0.00000933,-0.00001459,0.00
 002708,0.00004712,-0.00001668,0.00001782,0.00003557,0.00648482,-0.0099
 5433,0.01247315,0.00510271,-0.00506294,-0.00322282,-0.05584046,0.00006
 689,-0.01546889,-0.00099188,-0.00009333,0.00012089,-0.00001184,-0.0005
 0386,0.00059796,0.00454851,0.01203274,-0.01407645,0.04375448,0.0017535
 4,-0.00009530,0.00049904,-0.00003722,0.00012071,-0.00007813,0.00003469
 ,0.00018483,0.00008170,0.00003496,-0.00001139,-0.00002211,-0.00000127,
 0.00005609,-0.00004690,0.00001200,-0.00000791,-0.00002085,0.00000242,-
 0.00003351,0.00001100,-0.00003998,0.00002227,-0.00002907,-0.00001199,-
 0.00006426,0.00008533,0.00001530,0.00000904,0.00002024,0.00000454,-0.0
 0000030,0.00000295,0.00001264,-0.00000967,-0.00000243,0.00000564,-0.00
 000684,0.00000471,-0.00040164,0.00004854,-0.00014978,-0.00000253,0.000
 66387,0.00007405,0.00079943,0.00002672,-0.00020649,0.00014520,0.000171
 71,-0.00029648,-0.00005882,-0.00005543,-0.00003648,0.00014210,-0.00012
 332,0.00000657,-0.00007868,-0.00005178,-0.00000294,-0.00031371,0.00004
 490,0.00003544,0.00003454,-0.00003619,0.00005055,-0.00003805,-0.000005
 20,0.00001760,-0.00001504,-0.00001209,0.00004734,0.00268435,-0.0147210
 5,0.02708121,-0.00541421,-0.00376129,-0.00055773,0.00052336,-0.1985671
 2,0.15193575,-0.00020504,-0.00035187,-0.00116161,0.00020416,-0.0009769
 5,0.00121832,-0.00218417,0.01111101,-0.01106570,0.00350435,0.20429734,
 0.00153167,-0.00050199,-0.00090841,0.00004259,0.00005787,-0.00008470,-
 0.00005321,0.00026495,0.00038347,0.00015389,-0.00005396,-0.00001978,0.
 00012707,0.00010887,0.00027784,-0.00001031,0.00000899,-0.00000575,-0.0
 0000700,-0.00001751,-0.00001135,-0.00001858,-0.00007110,-0.00004613,0.
 00003251,0.00004121,-0.00021431,0.00000598,0.00000261,-0.00000573,0.00
 001018,-0.00000024,-0.00000589,0.00002356,0.00000138,-0.00000768,-0.00
 000629,-0.00000549,-0.00000825,-0.00099682,-0.00207612,-0.00150727,-0.
 00050301,-0.00052732,-0.00098652,-0.00039040,-0.00026884,-0.00008824,-
 0.00017029,0.00002993,-0.00008251,0.00013510,0.00003609,0.00010022,0.0
 0007021,0.00001237,-0.00000794,0.00000845,0.00006698,0.00005351,0.0001
 3564,0.00003777,-0.00002104,0.00002063,-0.00000887,0.00003281,-0.00001
 932,0.00001017,0.00000516,-0.00000227,0.00000016,0.00002786,-0.0009686
 0,-0.00414160,0.00704994,-0.00279607,-0.00073174,0.00197790,-0.0159398
 4,0.15388676,-0.24272136,-0.00003371,-0.00108485,0.00004311,-0.0000256
 2,-0.00026224,0.00023877,0.00039176,0.02269774,-0.01597100,0.02239168,
 -0.16542734,0.25556311,-0.00125249,-0.00028521,0.00050369,-0.00008850,
 0.00032909,-0.00000760,0.00017574,0.00006586,-0.00076322,-0.00011658,0
 .00012332,0.00001087,-0.00005548,-0.00009937,-0.00005044,-0.00004695,-
 0.00002597,0.00004958,0.00001932,0.00001178,-0.00000730,0.00006808,0.0
 0009192,0.00007887,-0.00000379,0.00005746,0.00010292,-0.00003420,-0.00
 005003,-0.00004586,-0.00002497,-0.00001279,0.00000789,-0.00001447,0.00
 000980,-0.00000138,-0.00000162,0.00000706,0.00000727,0.00004759,-0.000
 17593,-0.00002121,0.00006443,-0.00000469,-0.00006765,-0.00005794,0.000
 05243,0.00005411,-0.00003582,-0.00001982,0.00004557,-0.00001335,-0.000
 00026,-0.00000524,0.00000045,0.00007261,-0.00002886,-0.00004284,-0.000
 02038,0.00002850,0.00006115,-0.00001095,-0.00002617,-0.00000303,0.0000
 0443,-0.00001342,0.00001078,-0.00000537,-0.00003023,-0.00000058,0.0000
 0221,-0.00000998,-0.00935713,-0.01775963,0.01122816,-0.00976865,-0.017
 71270,-0.03056723,0.01682667,0.02472013,-0.00707372,-0.13698032,-0.113
 71286,-0.01697900,0.00564783,-0.00291972,-0.00536237,-0.10537002,0.000
 55223,-0.05100938,0.00508269,-0.00370439,-0.00518336,0.34217362,-0.001
 86733,-0.00161952,-0.00049642,-0.00050227,0.00106992,-0.00014665,0.000
 05316,0.00059819,-0.00134968,0.00031370,0.00041219,-0.00007635,-0.0003
 0098,0.00004553,-0.00033986,-0.00031970,0.00010284,0.00026865,0.000010
 60,0.00001025,-0.00000596,0.00046423,0.00022909,0.00018718,-0.00012860
 ,0.00004534,0.00028501,-0.00009617,-0.00031310,-0.00026727,-0.00001884
 ,-0.00004056,0.00003571,-0.00003035,0.00004401,-0.00001562,-0.00000132
 ,0.00000476,0.00001001,0.00037245,-0.00049350,-0.00027634,0.00013934,0
 .00034622,-0.00035423,0.00000917,0.00007089,0.00047490,-0.00028900,-0.
 00005377,0.00026345,-0.00001714,0.00000461,-0.00002252,0.00007824,0.00
 035120,-0.00031960,-0.00003433,-0.00010180,-0.00001788,0.00029185,-0.0
 0025856,-0.00001122,-0.00000330,-0.00000969,-0.00000764,-0.00000773,0.
 00000969,-0.00000630,-0.00000098,-0.00000871,0.00000675,-0.01633627,-0
 .09163479,0.03992044,-0.04204162,0.00966172,-0.10323659,0.04974328,0.0
 7793409,0.05349611,-0.08067136,-0.31722071,0.03227419,-0.00256752,0.00
 249685,0.00025879,-0.03271681,-0.23844334,0.07302268,-0.00392216,0.001
 53420,-0.00165169,0.18154518,0.67423842,0.00074513,0.00025661,0.000669
 00,0.00005779,-0.00035704,-0.00032099,0.00038390,-0.00017747,0.0000925
 4,-0.00033911,0.00000583,0.00011120,-0.00012215,-0.00017490,0.00003000
 ,0.00010362,-0.00008234,-0.00008669,0.00002433,0.00000862,0.00000463,-
 0.00016355,-0.00008218,-0.00008663,0.00001538,-0.00015129,-0.00029645,
 -0.00005947,0.00010232,0.00009620,-0.00003239,0.00000987,-0.00001392,-
 0.00006382,0.00001750,0.00001142,-0.00001833,-0.00000455,0.00000034,-0
 .00039316,0.00000526,0.00013092,0.00002408,-0.00022503,0.00006779,0.00
 000412,0.00005834,-0.00027713,0.00014891,-0.00000130,-0.00011071,0.000
 01496,-0.00001825,0.00001607,-0.00002716,-0.00014009,0.00019005,-0.000
 01967,0.00002688,0.00002090,-0.00011524,0.00018726,-0.00005379,-0.0000
 0365,0.00002231,-0.00002291,0.00001877,-0.00001511,-0.00003193,0.00000
 404,0.00000523,-0.00002302,0.01121636,0.03857322,-0.01830513,-0.006514
 27,-0.04153352,0.03636227,-0.03150783,-0.00767761,-0.05859574,-0.04815
 845,-0.04508905,-0.15391950,-0.00551397,-0.00042402,-0.00377280,-0.019
 17994,0.15011221,-0.27353523,-0.00525078,-0.00126559,-0.00239288,0.220
 42530,-0.05000641,0.74242248,0.00004088,0.00058565,-0.00039873,0.00005
 280,0.00002763,0.00006475,0.00004706,-0.00001135,-0.00010691,-0.000041
 96,0.00001744,-0.00000416,-0.00004196,-0.00001237,0.00001622,-0.000001
 84,-0.00001128,0.00001077,0.00000398,0.00001281,0.00000033,-0.00000573
 ,-0.00002137,0.00001161,0.00001590,0.00001956,-0.00003288,-0.00003195,
 -0.00000474,0.00000964,-0.00000586,0.00000171,-0.00000202,-0.00001615,
 0.00001728,-0.00000344,-0.00000486,0.00000470,-0.00000609,-0.00026743,
 -0.00004325,-0.00016692,0.00001846,-0.00000530,-0.00000519,0.00004440,
 -0.00001818,-0.00005162,0.00004287,0.00001931,-0.00002503,-0.00001245,
 -0.00000557,-0.00000649,-0.00000762,-0.00002144,0.00005247,-0.00000065
 ,0.00000367,0.00000376,-0.00003431,0.00004289,-0.00002014,0.00000063,0
 .00000837,-0.00000586,0.00000106,-0.00000365,0.00000030,-0.00000028,0.
 00000097,-0.00000377,0.00523154,-0.00391913,-0.00508861,0.00471779,0.0
 1219440,-0.01365461,-0.00098822,-0.00021432,0.00004866,-0.05590164,0.0
 0405532,-0.02070329,-0.00349530,0.00173079,0.00229588,0.00525712,-0.00
 520577,-0.00305376,-0.00090405,0.00045546,0.00038171,0.00639101,-0.010
 49308,0.01216296,0.04317604,0.00001784,0.00029070,-0.00043537,0.000044
 80,-0.00002321,0.00003770,0.00001275,0.00001480,0.00010556,0.00001306,
 -0.00004107,-0.00000482,0.00002662,-0.00001123,-0.00001432,0.00001418,
 -0.00000158,-0.00001168,-0.00000443,-0.00000269,-0.00000313,-0.0000217
 9,0.00002484,0.00000481,-0.00003037,-0.00000299,0.00001944,0.00001933,
 0.00001535,0.00000760,0.00000661,0.00000418,0.00000107,0.00001115,-0.0
 0001509,0.00000044,0.00000976,-0.00000040,0.00000385,0.00000476,-0.000
 05793,-0.00003581,-0.00000068,0.00003711,0.00000309,0.00000165,0.00001
 445,0.00002294,-0.00001013,0.00001167,0.00001446,-0.00000860,-0.000004
 61,-0.00000802,0.00001785,0.00001501,-0.00001996,0.00000279,-0.0000159
 1,-0.00001130,0.00001828,-0.00001228,-0.00000230,-0.00000076,-0.000006
 94,-0.00000053,-0.00000449,0.00000077,-0.00000046,-0.00000306,-0.00000
 528,0.00000325,-0.00368836,0.00152989,-0.00128046,-0.00255502,0.010717
 73,-0.01068567,-0.00018264,-0.00022689,-0.00113312,0.00414825,-0.19778
 465,0.15068982,0.00216587,0.00046956,-0.00026824,-0.00539226,-0.003876
 58,-0.00080298,0.00041599,-0.00015463,-0.00007714,0.00413659,-0.013891
 01,0.02802882,-0.00089724,0.20341431,0.00031437,0.00116705,-0.00063572
 ,0.00001825,-0.00006415,-0.00000279,0.00019085,-0.00003432,-0.00011122
 ,-0.00011086,-0.00000688,0.00003910,-0.00005377,0.00001906,0.00004008,
 -0.00001056,-0.00002264,-0.00000029,0.00001438,0.00001248,-0.00000727,
 -0.00000043,-0.00001409,-0.00001055,0.00003173,-0.00002573,-0.00002754
 ,-0.00003056,-0.00000933,0.00000515,-0.00002064,-0.00000307,-0.0000134
 5,-0.00001431,0.00001457,0.00000305,-0.00001699,0.00000141,-0.00000396
 ,-0.00030628,-0.00026669,-0.00010939,0.00007747,0.00002619,-0.00009287
 ,-0.00000820,0.00006657,-0.00006008,0.00001275,0.00000560,0.00002793,-
 0.00000231,-0.00000701,0.00000349,-0.00001046,0.00002271,0.00001287,-0
 .00001391,-0.00000552,0.00001276,0.00001976,0.00000915,-0.00003288,-0.
 00000236,0.00001533,-0.00001454,0.00001983,0.00000200,-0.00001695,0.00
 000446,0.00000514,-0.00001412,-0.00553792,-0.00167008,-0.00216813,0.00
 022154,0.02363166,-0.01622352,-0.00007405,-0.00117286,0.00001367,-0.02
 073501,0.15046103,-0.24031408,0.00180923,-0.00140541,0.00038292,-0.002
 82308,-0.00032162,0.00234165,0.00043044,-0.00005652,-0.00020391,-0.001
 63503,-0.00607495,0.00741409,0.02608685,-0.16398045,0.24930791,-0.0002
 2937,-0.00056834,0.00011530,-0.00016343,-0.00005616,-0.00021703,0.0001
 5109,-0.00009227,-0.00008815,-0.00010266,0.00001863,0.00003450,-0.0000
 9404,-0.00001050,-0.00006430,0.00000217,-0.00000202,-0.00000663,0.0000
 0684,0.00001093,0.00001810,0.00001063,0.00000130,-0.00000917,0.0000402
 2,-0.00004730,0.00000276,-0.00002198,0.00000362,0.00000548,-0.00001081
 ,0.00000058,-0.00000167,-0.00002859,0.00000477,0.00000996,-0.00000693,
 -0.00000213,0.00000332,-0.00005300,-0.00005886,0.00020409,0.00004998,0
 .00005654,-0.00007242,0.00002803,0.00000297,0.00001949,-0.00002265,0.0
 0000402,0.00002850,-0.00001610,-0.00001120,-0.00000069,-0.00001224,0.0
 0002004,-0.00002202,-0.00001284,0.00002092,0.00000588,0.00003044,-0.00
 000652,-0.00001377,-0.00000828,0.00000929,-0.00001883,0.00000218,0.000
 00357,0.00000196,0.00000252,0.00000178,-0.00000698,0.00548126,-0.00232
 352,-0.00522329,-0.00064976,0.00074732,0.00002099,-0.00101430,-0.01647
 750,0.00056670,0.00694433,-0.00175653,-0.00302755,-0.00094377,0.000321
 81,0.00042422,-0.10433615,-0.11819734,-0.01675009,-0.00340552,0.002187
 84,0.00163653,0.00630551,0.00352156,-0.00177536,-0.00001874,0.00015747
 ,0.00000452,0.09554023,0.00010516,-0.00032581,0.00042914,-0.00007494,-
 0.00006516,-0.00009677,0.00006638,-0.00002011,-0.00016114,-0.00007234,
 0.00003790,0.00001349,-0.00005357,0.00002821,0.00001313,-0.00001604,-0
 .00000651,0.00000689,0.00001136,0.00000304,0.00000461,0.00001962,-0.00
 001464,-0.00002159,0.00002664,-0.00004357,-0.00000955,-0.00002027,-0.0
 0000938,-0.00000879,-0.00001510,-0.00000890,-0.00000357,-0.00001308,0.
 00000447,0.00001112,-0.00001489,-0.00000253,-0.00000033,-0.00011330,-0
 .00005731,0.00006849,0.00003644,-0.00002357,-0.00002226,0.00001572,0.0
 0002650,-0.00005891,0.00002559,0.00000597,-0.00000485,0.00000242,-0.00
 001245,0.00000892,-0.00000524,0.00000138,0.00003643,-0.00002415,-0.000
 00424,0.00001416,0.00000485,0.00004685,-0.00002768,-0.00000609,0.00000
 899,-0.00001592,0.00001331,-0.00001194,-0.00002375,0.00000039,0.000003
 07,-0.00001961,-0.00274070,0.00241508,-0.00044137,0.00075015,0.0007585
 7,0.00012603,-0.00192177,-0.00319499,0.00391242,-0.00153870,0.00001353
 ,0.00501454,0.00033060,-0.00026377,-0.00020276,-0.11803258,-0.31781884
 ,-0.01784799,0.00170584,0.00044781,-0.00127060,-0.01109475,-0.01445360
 ,-0.00667628,-0.00043732,-0.00095398,-0.00021678,0.13091166,0.33306256
 ,-0.00021974,-0.00119705,0.00040639,-0.00015310,-0.00016854,-0.0002563
 1,0.00006692,-0.00005604,-0.00017274,-0.00008636,0.00001923,-0.0000031
 5,-0.00003393,0.00002871,0.00001138,-0.00001465,-0.00001184,0.00000542
 ,0.00000833,0.00001083,0.00000487,0.00000072,0.00000008,0.00000282,0.0
 0000087,-0.00001291,0.00000447,-0.00001614,-0.00000517,-0.00000427,-0.
 00001150,-0.00000569,-0.00000115,-0.00000634,0.00000287,0.00000559,-0.
 00000674,0.00000084,-0.00000027,-0.00003777,-0.00004014,0.00020949,0.0
 0002415,0.00003096,0.00000599,0.00003162,0.00002711,-0.00004200,0.0000
 2033,0.00002496,-0.00001096,-0.00001288,-0.00001698,0.00000100,0.00000
 995,0.00000102,0.00001983,-0.00001939,-0.00000821,0.00000139,0.0000199
 7,0.00004541,-0.00003631,-0.00000890,0.00000190,-0.00001924,0.00000626
 ,-0.00000818,-0.00001844,-0.00000310,-0.00000253,-0.00001454,-0.005383
 59,-0.00000489,-0.00390534,-0.00002894,0.00025051,-0.00133560,-0.01334
 614,-0.03017133,0.00320935,-0.00316197,0.00454989,-0.00288111,0.000412
 42,-0.00021095,-0.00007902,-0.01679652,-0.01766694,-0.07158041,0.00221
 359,-0.00028751,0.00052029,0.01230537,0.02744862,0.00798070,0.00057269
 ,0.00124130,0.00012691,0.02197549,0.01768695,0.06744689,-0.00086512,0.
 00031082,0.00025520,0.00003137,0.00016292,0.00001999,-0.00000060,-0.00
 008592,-0.00016206,-0.00006786,0.00002008,0.00002323,-0.00004424,-0.00
 000570,0.00000237,-0.00001064,-0.00000713,0.00000353,0.00000484,0.0000
 0638,0.00000525,0.00002313,-0.00001878,-0.00000970,0.00003995,-0.00001
 636,-0.00002327,-0.00001798,-0.00000729,-0.00000284,-0.00000947,-0.000
 00195,-0.00000206,-0.00001854,0.00001233,0.00000278,-0.00000940,-0.000
 00020,-0.00000257,-0.00003972,-0.00000353,-0.00001827,0.00001735,-0.00
 002738,-0.00000812,-0.00001682,-0.00002338,-0.00003055,0.00000499,-0.0
 0000636,0.00000835,-0.00000090,0.00000453,0.00000520,-0.00001947,-0.00
 000146,0.00000838,-0.00000151,0.00001535,0.00000616,0.00000371,0.00000
 874,-0.00000791,-0.00000403,0.00000577,-0.00000696,0.00000513,0.000001
 58,0.00000264,0.00000282,0.00000385,-0.00000464,-0.00045937,0.00022073
 ,0.00092065,0.00582931,-0.00491366,-0.00202458,0.00706311,-0.00219615,
 -0.00242115,-0.00114788,-0.00116150,-0.01340987,-0.00033658,-0.0000927
 7,-0.00053372,0.00420397,-0.00265354,0.00019771,-0.00009387,-0.0000497
 7,0.00002555,-0.11960616,-0.04417587,-0.12609137,-0.00326053,0.0015542
 3,0.00215032,-0.00344427,0.00216870,0.00167901,0.11224527,0.00036497,-
 0.00005221,-0.00017007,-0.00001585,0.00000163,0.00007013,0.00004921,0.
 00005307,0.00001440,0.00001759,0.00001459,-0.00000271,-0.00000846,0.00
 001132,-0.00001939,-0.00000127,0.00001007,0.00000650,0.00000294,-0.000
 00264,0.00000629,0.00001066,0.00000165,-0.00000112,-0.00000861,-0.0000
 1471,0.00001559,-0.00000240,-0.00000798,-0.00000252,-0.00000232,-0.000
 00369,-0.00000188,-0.00000048,0.00000248,0.00000195,-0.00000498,-0.000
 00005,0.00000028,-0.00004839,-0.00000031,0.00002933,0.00001663,0.00004
 565,-0.00001386,0.00004189,0.00001359,-0.00001309,0.00000833,0.0000156
 4,-0.00001716,-0.00000573,-0.00000917,-0.00000291,0.00000239,-0.000001
 50,0.00000536,-0.00001254,-0.00000290,0.00000514,-0.00000743,0.0000054
 1,-0.00000857,0.00000094,0.00000150,-0.00000185,0.00000212,-0.00000037
 ,-0.00000442,-0.00000037,0.00000111,-0.00000125,0.00015595,-0.00119818
 ,0.00054760,-0.00469652,-0.00451105,0.00145285,-0.00240558,-0.00168460
 ,0.00469852,-0.01587712,-0.00196646,-0.03047578,-0.00069576,-0.0004061
 0,-0.00138583,0.01205428,0.01148081,0.02230931,0.00054950,0.00030703,0
 .00091478,-0.04416727,-0.09066736,-0.06331825,0.00212741,0.00052857,-0
 .00010187,0.00160357,0.00042739,-0.00149628,0.05095270,0.08760775,0.00
 042532,-0.00012580,-0.00004267,-0.00004404,-0.00009925,-0.00002703,0.0
 0008403,0.00002013,-0.00000431,-0.00002088,0.00001819,0.00001229,-0.00
 003268,0.00003436,0.00002931,-0.00001056,0.00000420,0.00000709,0.00000
 730,0.00000148,0.00000252,0.00001904,-0.00002337,-0.00002294,0.0000321
 0,-0.00002453,-0.00002616,-0.00001471,-0.00000915,-0.00000635,-0.00001
 018,-0.00000649,-0.00000651,-0.00000811,0.00000705,0.00000711,-0.00001
 493,-0.00000226,-0.00000174,-0.00007380,-0.00004960,0.00003079,0.00003
 147,-0.00002856,-0.00006505,-0.00002944,0.00002387,-0.00001762,-0.0000
 0816,-0.00002839,0.00002401,0.00002034,0.00000244,0.00001566,-0.000019
 76,0.00001473,0.00000863,-0.00001102,0.00000409,0.00001689,0.00001532,
 0.00000310,-0.00000562,-0.00000290,0.00001317,-0.00000719,0.00001489,-
 0.00000473,-0.00001398,0.00000529,0.00000686,-0.00001513,0.00080128,0.
 00058255,0.00031672,-0.00224721,0.00085776,0.00260334,-0.00213841,0.00
 531126,-0.00113409,0.00043141,0.00372596,0.00252342,0.00000390,0.00003
 763,-0.00012634,-0.01396462,-0.01187583,-0.01615590,-0.00056518,-0.000
 45814,-0.00097333,-0.12595945,-0.06326931,-0.28377513,0.00162092,-0.00
 140840,0.00033168,0.00222017,-0.00021583,0.00039808,0.13944329,0.06696
 081,0.29609954||0.00000433,0.00000815,-0.00000129,0.00000033,-0.000004
 88,-0.00000278,-0.00000005,0.00001480,0.00001820,-0.00001890,-0.000007
 92,-0.00000278,0.00001955,-0.00001081,-0.00001003,0.00001742,-0.000000
 79,-0.00001075,0.00000229,-0.00000043,-0.00000140,-0.00001953,-0.00000
 443,-0.00001085,-0.00000151,0.00000170,0.00000203,0.00000302,0.0000091
 2,0.00001982,-0.00000291,-0.00000136,-0.00000103,0.00000075,0.00000241
 ,0.00000222,-0.00000235,-0.00000132,-0.00000130,-0.00002587,0.00001126
 ,-0.00000480,0.00000484,-0.00002508,0.00003206,0.00002820,0.00000741,-
 0.00002349,0.00002866,0.00000180,-0.00002990,-0.00000262,0.00000296,-0
 .00000032,0.00000281,-0.00002413,0.00003050,-0.00000220,-0.00000211,0.
 00000230,-0.00003724,0.00001975,-0.00000268,-0.00000332,0.00000223,0.0
 0000207,0.00000139,0.00000200,-0.00000482,0.00000596,-0.00000033,-0.00
 000105,-0.00000059,-0.00000453,-0.00000441,-0.00000243,0.00000507,0.00
 000283,-0.00000083,0.00000050,0.00000213,-0.00000403,0.00000258,-0.000
 00125,0.00000047,-0.00000329,-0.00000090,-0.00000265,-0.00000124,0.000
 00323,0.00000101,0.00000150,-0.00000202,0.00000409,-0.00000124,-0.0000
 0417,0.00000080,-0.00000213,0.00000205,0.00000082,0.00000255,-0.000000
 06,0.00000028,0.00000023,0.00000262|||@


 SACRED COWS MAKE GREAT HAMBURGERS -- ROBERT REISNER
 Job cpu time:  0 days  0 hours  6 minutes 23.0 seconds.
 File lengths (MBytes):  RWF=    350 Int=      0 D2E=      0 Chk=      7 Scr=      1
 Normal termination of Gaussian 09 at Tue Sep 07 09:05:08 2021.
