 Entering Link 1 = b:\programy\g09w\l1.exe PID=     17964.
  
 Copyright (c) 1988,1990,1992,1993,1995,1998,2003,2009, Gaussian, Inc.
                  All Rights Reserved.
  
 This is part of the Gaussian(R) 09 program.  It is based on
 the Gaussian(R) 03 system (copyright 2003, Gaussian, Inc.),
 the Gaussian(R) 98 system (copyright 1998, Gaussian, Inc.),
 the Gaussian(R) 94 system (copyright 1995, Gaussian, Inc.),
 the Gaussian 92(TM) system (copyright 1992, Gaussian, Inc.),
 the Gaussian 90(TM) system (copyright 1990, Gaussian, Inc.),
 the Gaussian 88(TM) system (copyright 1988, Gaussian, Inc.),
 the Gaussian 86(TM) system (copyright 1986, Carnegie Mellon
 University), and the Gaussian 82(TM) system (copyright 1983,
 Carnegie Mellon University). Gaussian is a federally registered
 trademark of Gaussian, Inc.
  
 This software contains proprietary and confidential information,
 including trade secrets, belonging to Gaussian, Inc.
  
 This software is provided under written license and may be
 used, copied, transmitted, or stored only in accord with that
 written license.
  
 The following legend is applicable only to US Government
 contracts under FAR:
  
                    RESTRICTED RIGHTS LEGEND
  
 Use, reproduction and disclosure by the US Government is
 subject to restrictions as set forth in subparagraphs (a)
 and (c) of the Commercial Computer Software - Restricted
 Rights clause in FAR 52.227-19.
  
 Gaussian, Inc.
 340 Quinnipiac St., Bldg. 40, Wallingford CT 06492
  
  
 ---------------------------------------------------------------
 Warning -- This program may not be used in any manner that
 competes with the business of Gaussian, Inc. or will provide
 assistance to any competitor of Gaussian, Inc.  The licensee
 of this program is prohibited from giving any competitor of
 Gaussian, Inc. access to this program.  By using this program,
 the user acknowledges that Gaussian, Inc. is engaged in the
 business of creating and licensing software in the field of
 computational chemistry and represents and warrants to the
 licensee that it is not a competitor of Gaussian, Inc. and that
 it will not use this program in any manner prohibited above.
 ---------------------------------------------------------------
  

 Cite this work as:
 Gaussian 09, Revision A.02,
 M. J. Frisch, G. W. Trucks, H. B. Schlegel, G. E. Scuseria, 
 M. A. Robb, J. R. Cheeseman, G. Scalmani, V. Barone, B. Mennucci, 
 G. A. Petersson, H. Nakatsuji, M. Caricato, X. Li, H. P. Hratchian, 
 A. F. Izmaylov, J. Bloino, G. Zheng, J. L. Sonnenberg, M. Hada, 
 M. Ehara, K. Toyota, R. Fukuda, J. Hasegawa, M. Ishida, T. Nakajima, 
 Y. Honda, O. Kitao, H. Nakai, T. Vreven, J. A. Montgomery, Jr., 
 J. E. Peralta, F. Ogliaro, M. Bearpark, J. J. Heyd, E. Brothers, 
 K. N. Kudin, V. N. Staroverov, R. Kobayashi, J. Normand, 
 K. Raghavachari, A. Rendell, J. C. Burant, S. S. Iyengar, J. Tomasi, 
 M. Cossi, N. Rega, J. M. Millam, M. Klene, J. E. Knox, J. B. Cross, 
 V. Bakken, C. Adamo, J. Jaramillo, R. Gomperts, R. E. Stratmann, 
 O. Yazyev, A. J. Austin, R. Cammi, C. Pomelli, J. W. Ochterski, 
 R. L. Martin, K. Morokuma, V. G. Zakrzewski, G. A. Voth, 
 P. Salvador, J. J. Dannenberg, S. Dapprich, A. D. Daniels, 
 O. Farkas, J. B. Foresman, J. V. Ortiz, J. Cioslowski, 
 and D. J. Fox, Gaussian, Inc., Wallingford CT, 2009.
 
 ******************************************
 Gaussian 09:  IA32W-G09RevA.02 11-Jun-2009
                07-Sep-2021 
 ******************************************
 %nprocshared=12
 Will use up to   12 processors via shared memory.
 ----------------------------------------------
 # opt freq=noraman hf/6-311g geom=connectivity
 ----------------------------------------------
 1/18=20,19=15,38=1,57=2/1,3;
 2/9=110,12=2,17=6,18=5,40=1/2;
 3/5=4,6=6,11=9,16=1,25=1,30=1,71=1/1,2,3;
 4//1;
 5/5=2,38=5/2;
 6/7=2,8=2,9=2,10=2,28=1/1;
 7//1,2,3,16;
 1/18=20,19=15/3(2);
 2/9=110/2;
 99//99;
 2/9=110/2;
 3/5=4,6=6,11=9,16=1,25=1,30=1,71=1/1,2,3;
 4/5=5,16=3/1;
 5/5=2,38=5/2;
 7//1,2,3,16;
 1/18=20,19=15/3(-5);
 2/9=110/2;
 6/7=2,8=2,9=2,10=2,19=2,28=1/1;
 99/9=1/99;
 -----
 M0001
 -----
 Symbolic Z-matrix:
 Charge =  0 Multiplicity = 1
 C                    -0.08522   0.02571   0.77134 
 H                    -0.16655   0.06547   1.8907 
 C                     0.13255  -1.4332    0.4547 
 C                     1.36195  -2.01684   0.77819 
 C                    -0.87236  -2.2323   -0.09018 
 C                     1.58081  -3.36979   0.55449 
 H                     2.15736  -1.39562   1.20692 
 C                    -0.6514   -3.58761  -0.31252 
 H                    -1.84333  -1.78996  -0.34665 
 C                     0.57374  -4.15933   0.00822 
 H                     2.54791  -3.81483   0.81003 
 H                    -1.44827  -4.20384  -0.74128 
 H                     0.74625  -5.22588  -0.1672 
 C                    -1.35999   0.59636   0.20168 
 C                    -1.57297   0.683    -1.17608 
 C                    -2.34884   1.0585    1.07295 
 C                    -2.75371   1.2201   -1.67371 
 H                    -0.78484   0.33384  -1.86168 
 C                    -3.52988   1.59596   0.5727 
 H                    -2.19587   0.99959   2.15713 
 C                    -3.73503   1.67701  -0.79995 
 H                    -2.90951   1.28442  -2.75549 
 H                    -4.29916   1.95652   1.26329 
 H                    -4.66506   2.10076  -1.19212 
 C                     1.09756   0.86945   0.36045 
 C                     1.53555   0.90947  -0.96486 
 C                     1.76885   1.62555   1.32352 
 C                     2.62989   1.68806  -1.32073 
 H                     0.9911    0.32917  -1.7255 
 C                     2.8624    2.40602   0.96446 
 H                     1.43405   1.6068    2.36743 
 C                     3.29582   2.43731  -0.35631 
 H                     2.96635   1.71167  -2.36239 
 H                     3.38211   2.99742   1.72538 
 H                     4.15773   3.05103  -0.63693 
 

 GradGradGradGradGradGradGradGradGradGradGradGradGradGradGradGradGradGrad
 Berny optimization.
 Initialization pass.
                           ----------------------------
                           !    Initial Parameters    !
                           ! (Angstroms and Degrees)  !
 --------------------------                            --------------------------
 ! Name  Definition              Value          Derivative Info.                !
 --------------------------------------------------------------------------------
 ! R1    R(1,2)                  1.123          estimate D2E/DX2                !
 ! R2    R(1,3)                  1.5087         estimate D2E/DX2                !
 ! R3    R(1,14)                 1.5084         estimate D2E/DX2                !
 ! R4    R(1,25)                 1.5099         estimate D2E/DX2                !
 ! R5    R(3,4)                  1.3988         estimate D2E/DX2                !
 ! R6    R(3,5)                  1.3947         estimate D2E/DX2                !
 ! R7    R(4,6)                  1.3887         estimate D2E/DX2                !
 ! R8    R(4,7)                  1.0965         estimate D2E/DX2                !
 ! R9    R(5,8)                  1.3911         estimate D2E/DX2                !
 ! R10   R(5,9)                  1.0974         estimate D2E/DX2                !
 ! R11   R(6,10)                 1.3914         estimate D2E/DX2                !
 ! R12   R(6,11)                 1.0948         estimate D2E/DX2                !
 ! R13   R(8,10)                 1.3895         estimate D2E/DX2                !
 ! R14   R(8,12)                 1.0948         estimate D2E/DX2                !
 ! R15   R(10,13)                1.0946         estimate D2E/DX2                !
 ! R16   R(14,15)                1.3968         estimate D2E/DX2                !
 ! R17   R(14,16)                1.3966         estimate D2E/DX2                !
 ! R18   R(15,17)                1.3893         estimate D2E/DX2                !
 ! R19   R(15,18)                1.1014         estimate D2E/DX2                !
 ! R20   R(16,19)                1.3907         estimate D2E/DX2                !
 ! R21   R(16,20)                1.0965         estimate D2E/DX2                !
 ! R22   R(17,21)                1.3911         estimate D2E/DX2                !
 ! R23   R(17,22)                1.0948         estimate D2E/DX2                !
 ! R24   R(19,21)                1.3903         estimate D2E/DX2                !
 ! R25   R(19,23)                1.0949         estimate D2E/DX2                !
 ! R26   R(21,24)                1.0947         estimate D2E/DX2                !
 ! R27   R(25,26)                1.3964         estimate D2E/DX2                !
 ! R28   R(25,27)                1.3964         estimate D2E/DX2                !
 ! R29   R(26,28)                1.3894         estimate D2E/DX2                !
 ! R30   R(26,29)                1.1008         estimate D2E/DX2                !
 ! R31   R(27,30)                1.3907         estimate D2E/DX2                !
 ! R32   R(27,31)                1.0964         estimate D2E/DX2                !
 ! R33   R(28,32)                1.391          estimate D2E/DX2                !
 ! R34   R(28,33)                1.0949         estimate D2E/DX2                !
 ! R35   R(30,32)                1.3904         estimate D2E/DX2                !
 ! R36   R(30,34)                1.0949         estimate D2E/DX2                !
 ! R37   R(32,35)                1.0947         estimate D2E/DX2                !
 ! A1    A(2,1,3)              104.7076         estimate D2E/DX2                !
 ! A2    A(2,1,14)             107.5676         estimate D2E/DX2                !
 ! A3    A(2,1,25)             107.951          estimate D2E/DX2                !
 ! A4    A(3,1,14)             114.1146         estimate D2E/DX2                !
 ! A5    A(3,1,25)             111.7278         estimate D2E/DX2                !
 ! A6    A(14,1,25)            110.3562         estimate D2E/DX2                !
 ! A7    A(1,3,4)              118.8028         estimate D2E/DX2                !
 ! A8    A(1,3,5)              122.1432         estimate D2E/DX2                !
 ! A9    A(4,3,5)              118.9814         estimate D2E/DX2                !
 ! A10   A(3,4,6)              120.5152         estimate D2E/DX2                !
 ! A11   A(3,4,7)              119.4434         estimate D2E/DX2                !
 ! A12   A(6,4,7)              120.0408         estimate D2E/DX2                !
 ! A13   A(3,5,8)              120.411          estimate D2E/DX2                !
 ! A14   A(3,5,9)              119.859          estimate D2E/DX2                !
 ! A15   A(8,5,9)              119.7299         estimate D2E/DX2                !
 ! A16   A(4,6,10)             120.1338         estimate D2E/DX2                !
 ! A17   A(4,6,11)             119.845          estimate D2E/DX2                !
 ! A18   A(10,6,11)            120.0211         estimate D2E/DX2                !
 ! A19   A(5,8,10)             120.2677         estimate D2E/DX2                !
 ! A20   A(5,8,12)             119.6946         estimate D2E/DX2                !
 ! A21   A(10,8,12)            120.0377         estimate D2E/DX2                !
 ! A22   A(6,10,8)             119.6903         estimate D2E/DX2                !
 ! A23   A(6,10,13)            120.1173         estimate D2E/DX2                !
 ! A24   A(8,10,13)            120.1924         estimate D2E/DX2                !
 ! A25   A(1,14,15)            121.6573         estimate D2E/DX2                !
 ! A26   A(1,14,16)            119.2069         estimate D2E/DX2                !
 ! A27   A(15,14,16)           119.1343         estimate D2E/DX2                !
 ! A28   A(14,15,17)           120.4542         estimate D2E/DX2                !
 ! A29   A(14,15,18)           119.0272         estimate D2E/DX2                !
 ! A30   A(17,15,18)           120.5119         estimate D2E/DX2                !
 ! A31   A(14,16,19)           120.3169         estimate D2E/DX2                !
 ! A32   A(14,16,20)           120.0187         estimate D2E/DX2                !
 ! A33   A(19,16,20)           119.6644         estimate D2E/DX2                !
 ! A34   A(15,17,21)           120.0996         estimate D2E/DX2                !
 ! A35   A(15,17,22)           119.8384         estimate D2E/DX2                !
 ! A36   A(21,17,22)           120.062          estimate D2E/DX2                !
 ! A37   A(16,19,21)           120.1993         estimate D2E/DX2                !
 ! A38   A(16,19,23)           119.8077         estimate D2E/DX2                !
 ! A39   A(21,19,23)           119.9929         estimate D2E/DX2                !
 ! A40   A(17,21,19)           119.7956         estimate D2E/DX2                !
 ! A41   A(17,21,24)           120.0949         estimate D2E/DX2                !
 ! A42   A(19,21,24)           120.1094         estimate D2E/DX2                !
 ! A43   A(1,25,26)            121.3329         estimate D2E/DX2                !
 ! A44   A(1,25,27)            119.4387         estimate D2E/DX2                !
 ! A45   A(26,25,27)           119.2284         estimate D2E/DX2                !
 ! A46   A(25,26,28)           120.4113         estimate D2E/DX2                !
 ! A47   A(25,26,29)           119.0508         estimate D2E/DX2                !
 ! A48   A(28,26,29)           120.5298         estimate D2E/DX2                !
 ! A49   A(25,27,30)           120.2551         estimate D2E/DX2                !
 ! A50   A(25,27,31)           120.04           estimate D2E/DX2                !
 ! A51   A(30,27,31)           119.7049         estimate D2E/DX2                !
 ! A52   A(26,28,32)           120.0875         estimate D2E/DX2                !
 ! A53   A(26,28,33)           119.8545         estimate D2E/DX2                !
 ! A54   A(32,28,33)           120.0579         estimate D2E/DX2                !
 ! A55   A(27,30,32)           120.1995         estimate D2E/DX2                !
 ! A56   A(27,30,34)           119.7983         estimate D2E/DX2                !
 ! A57   A(32,30,34)           120.0022         estimate D2E/DX2                !
 ! A58   A(28,32,30)           119.8176         estimate D2E/DX2                !
 ! A59   A(28,32,35)           120.0785         estimate D2E/DX2                !
 ! A60   A(30,32,35)           120.1039         estimate D2E/DX2                !
 ! D1    D(2,1,3,4)            -71.1103         estimate D2E/DX2                !
 ! D2    D(2,1,3,5)            105.7585         estimate D2E/DX2                !
 ! D3    D(14,1,3,4)           171.542          estimate D2E/DX2                !
 ! D4    D(14,1,3,5)           -11.5893         estimate D2E/DX2                !
 ! D5    D(25,1,3,4)            45.4808         estimate D2E/DX2                !
 ! D6    D(25,1,3,5)          -137.6505         estimate D2E/DX2                !
 ! D7    D(2,1,14,15)         -179.781          estimate D2E/DX2                !
 ! D8    D(2,1,14,16)            0.6724         estimate D2E/DX2                !
 ! D9    D(3,1,14,15)          -64.0919         estimate D2E/DX2                !
 ! D10   D(3,1,14,16)          116.3615         estimate D2E/DX2                !
 ! D11   D(25,1,14,15)          62.6845         estimate D2E/DX2                !
 ! D12   D(25,1,14,16)        -116.8621         estimate D2E/DX2                !
 ! D13   D(2,1,25,26)          173.5569         estimate D2E/DX2                !
 ! D14   D(2,1,25,27)           -6.4226         estimate D2E/DX2                !
 ! D15   D(3,1,25,26)           58.9495         estimate D2E/DX2                !
 ! D16   D(3,1,25,27)         -121.03           estimate D2E/DX2                !
 ! D17   D(14,1,25,26)         -69.1454         estimate D2E/DX2                !
 ! D18   D(14,1,25,27)         110.8751         estimate D2E/DX2                !
 ! D19   D(1,3,4,6)            177.2679         estimate D2E/DX2                !
 ! D20   D(1,3,4,7)             -3.0346         estimate D2E/DX2                !
 ! D21   D(5,3,4,6)              0.2986         estimate D2E/DX2                !
 ! D22   D(5,3,4,7)            179.9962         estimate D2E/DX2                !
 ! D23   D(1,3,5,8)           -177.1126         estimate D2E/DX2                !
 ! D24   D(1,3,5,9)              2.9648         estimate D2E/DX2                !
 ! D25   D(4,3,5,8)             -0.2493         estimate D2E/DX2                !
 ! D26   D(4,3,5,9)            179.8282         estimate D2E/DX2                !
 ! D27   D(3,4,6,10)            -0.1831         estimate D2E/DX2                !
 ! D28   D(3,4,6,11)           179.884          estimate D2E/DX2                !
 ! D29   D(7,4,6,10)          -179.8789         estimate D2E/DX2                !
 ! D30   D(7,4,6,11)             0.1882         estimate D2E/DX2                !
 ! D31   D(3,5,8,10)             0.085          estimate D2E/DX2                !
 ! D32   D(3,5,8,12)          -179.9678         estimate D2E/DX2                !
 ! D33   D(9,5,8,10)          -179.9923         estimate D2E/DX2                !
 ! D34   D(9,5,8,12)            -0.0451         estimate D2E/DX2                !
 ! D35   D(4,6,10,8)             0.0145         estimate D2E/DX2                !
 ! D36   D(4,6,10,13)         -179.9486         estimate D2E/DX2                !
 ! D37   D(11,6,10,8)          179.9473         estimate D2E/DX2                !
 ! D38   D(11,6,10,13)          -0.0159         estimate D2E/DX2                !
 ! D39   D(5,8,10,6)             0.0344         estimate D2E/DX2                !
 ! D40   D(5,8,10,13)          179.9976         estimate D2E/DX2                !
 ! D41   D(12,8,10,6)         -179.9126         estimate D2E/DX2                !
 ! D42   D(12,8,10,13)           0.0505         estimate D2E/DX2                !
 ! D43   D(1,14,15,17)        -179.6362         estimate D2E/DX2                !
 ! D44   D(1,14,15,18)          -0.5793         estimate D2E/DX2                !
 ! D45   D(16,14,15,17)         -0.0892         estimate D2E/DX2                !
 ! D46   D(16,14,15,18)        178.9676         estimate D2E/DX2                !
 ! D47   D(1,14,16,19)         179.6365         estimate D2E/DX2                !
 ! D48   D(1,14,16,20)          -0.3028         estimate D2E/DX2                !
 ! D49   D(15,14,16,19)          0.0783         estimate D2E/DX2                !
 ! D50   D(15,14,16,20)       -179.861          estimate D2E/DX2                !
 ! D51   D(14,15,17,21)          0.0124         estimate D2E/DX2                !
 ! D52   D(14,15,17,22)        179.9165         estimate D2E/DX2                !
 ! D53   D(18,15,17,21)       -179.0304         estimate D2E/DX2                !
 ! D54   D(18,15,17,22)          0.8737         estimate D2E/DX2                !
 ! D55   D(14,16,19,21)          0.0094         estimate D2E/DX2                !
 ! D56   D(14,16,19,23)       -179.95           estimate D2E/DX2                !
 ! D57   D(20,16,19,21)        179.949          estimate D2E/DX2                !
 ! D58   D(20,16,19,23)         -0.0104         estimate D2E/DX2                !
 ! D59   D(15,17,21,19)          0.0762         estimate D2E/DX2                !
 ! D60   D(15,17,21,24)        179.9617         estimate D2E/DX2                !
 ! D61   D(22,17,21,19)       -179.8276         estimate D2E/DX2                !
 ! D62   D(22,17,21,24)          0.0578         estimate D2E/DX2                !
 ! D63   D(16,19,21,17)         -0.0871         estimate D2E/DX2                !
 ! D64   D(16,19,21,24)       -179.9726         estimate D2E/DX2                !
 ! D65   D(23,19,21,17)        179.8722         estimate D2E/DX2                !
 ! D66   D(23,19,21,24)         -0.0132         estimate D2E/DX2                !
 ! D67   D(1,25,26,28)        -179.7159         estimate D2E/DX2                !
 ! D68   D(1,25,26,29)           1.3143         estimate D2E/DX2                !
 ! D69   D(27,25,26,28)          0.2636         estimate D2E/DX2                !
 ! D70   D(27,25,26,29)       -178.7062         estimate D2E/DX2                !
 ! D71   D(1,25,27,30)         179.8363         estimate D2E/DX2                !
 ! D72   D(1,25,27,31)          -0.2376         estimate D2E/DX2                !
 ! D73   D(26,25,27,30)         -0.1436         estimate D2E/DX2                !
 ! D74   D(26,25,27,31)        179.7825         estimate D2E/DX2                !
 ! D75   D(25,26,28,32)         -0.1585         estimate D2E/DX2                !
 ! D76   D(25,26,28,33)        179.9201         estimate D2E/DX2                !
 ! D77   D(29,26,28,32)        178.796          estimate D2E/DX2                !
 ! D78   D(29,26,28,33)         -1.1254         estimate D2E/DX2                !
 ! D79   D(25,27,30,32)         -0.0816         estimate D2E/DX2                !
 ! D80   D(25,27,30,34)        179.8862         estimate D2E/DX2                !
 ! D81   D(31,27,30,32)        179.992          estimate D2E/DX2                !
 ! D82   D(31,27,30,34)         -0.0402         estimate D2E/DX2                !
 ! D83   D(26,28,32,30)         -0.0689         estimate D2E/DX2                !
 ! D84   D(26,28,32,35)       -179.9728         estimate D2E/DX2                !
 ! D85   D(33,28,32,30)        179.8523         estimate D2E/DX2                !
 ! D86   D(33,28,32,35)         -0.0516         estimate D2E/DX2                !
 ! D87   D(27,30,32,28)          0.1887         estimate D2E/DX2                !
 ! D88   D(27,30,32,35)       -179.9075         estimate D2E/DX2                !
 ! D89   D(34,30,32,28)       -179.7791         estimate D2E/DX2                !
 ! D90   D(34,30,32,35)          0.1248         estimate D2E/DX2                !
 --------------------------------------------------------------------------------
 Trust Radius=3.00D-01 FncErr=1.00D-07 GrdErr=1.00D-07
 Number of steps in this run= 197 maximum allowed number of steps= 210.
 GradGradGradGradGradGradGradGradGradGradGradGradGradGradGradGradGradGrad

                          Input orientation:                          
 ---------------------------------------------------------------------
 Center     Atomic      Atomic             Coordinates (Angstroms)
 Number     Number       Type             X           Y           Z
 ---------------------------------------------------------------------
      1          6           0       -0.085216    0.025712    0.771342
      2          1           0       -0.166552    0.065471    1.890696
      3          6           0        0.132549   -1.433202    0.454700
      4          6           0        1.361950   -2.016843    0.778188
      5          6           0       -0.872357   -2.232303   -0.090180
      6          6           0        1.580810   -3.369789    0.554490
      7          1           0        2.157355   -1.395622    1.206922
      8          6           0       -0.651395   -3.587606   -0.312518
      9          1           0       -1.843328   -1.789965   -0.346654
     10          6           0        0.573737   -4.159333    0.008222
     11          1           0        2.547908   -3.814830    0.810033
     12          1           0       -1.448267   -4.203841   -0.741283
     13          1           0        0.746250   -5.225880   -0.167204
     14          6           0       -1.359992    0.596361    0.201679
     15          6           0       -1.572966    0.683001   -1.176080
     16          6           0       -2.348842    1.058502    1.072950
     17          6           0       -2.753712    1.220103   -1.673711
     18          1           0       -0.784844    0.333844   -1.861684
     19          6           0       -3.529879    1.595965    0.572699
     20          1           0       -2.195873    0.999588    2.157134
     21          6           0       -3.735028    1.677008   -0.799947
     22          1           0       -2.909510    1.284419   -2.755493
     23          1           0       -4.299159    1.956523    1.263292
     24          1           0       -4.665058    2.100759   -1.192124
     25          6           0        1.097560    0.869454    0.360452
     26          6           0        1.535549    0.909466   -0.964861
     27          6           0        1.768847    1.625554    1.323523
     28          6           0        2.629895    1.688056   -1.320733
     29          1           0        0.991104    0.329171   -1.725500
     30          6           0        2.862403    2.406025    0.964463
     31          1           0        1.434055    1.606803    2.367429
     32          6           0        3.295822    2.437310   -0.356307
     33          1           0        2.966352    1.711669   -2.362389
     34          1           0        3.382108    2.997423    1.725382
     35          1           0        4.157726    3.051028   -0.636930
 ---------------------------------------------------------------------
                    Distance matrix (angstroms):
                    1          2          3          4          5
     1  C    0.000000
     2  H    1.123009   0.000000
     3  C    1.508679   2.097037   0.000000
     4  C    2.503271   2.812476   1.398824   0.000000
     5  C    2.541740   3.114770   1.394738   2.406785   0.000000
     6  C    3.788416   4.079182   2.420287   1.388670   2.779839
     7  H    2.690547   2.828937   2.160345   1.096539   3.400245
     8  C    3.814626   4.293505   2.417571   2.776778   1.391080
     9  H    2.763613   3.355585   2.161837   3.404490   1.097373
    10  C    4.304784   4.684090   2.797459   2.409230   2.411289
    11  H    4.656672   4.857248   3.410626   2.154128   3.874660
    12  H    4.694151   5.176594   3.406728   3.871572   2.154662
    13  H    5.399205   5.750352   3.892017   3.401584   3.404016
    14  C    1.508380   2.135163   2.531961   3.817089   2.885189
    15  C    2.537298   3.429935   3.169627   4.440951   3.188891
    16  C    2.506318   2.533221   3.570452   4.828521   3.789760
    17  C    3.811263   4.553193   4.461016   5.781721   4.238653
    18  H    2.741760   3.812435   3.054455   4.135623   3.119455
    19  C    3.790892   3.923200   4.754278   6.084785   4.707172
    20  H    2.706239   2.249824   3.773367   4.863996   4.152979
    21  C    4.303122   4.750856   5.119150   6.489548   4.897077
    22  H    4.690367   5.531430   5.190850   6.452178   4.860166
    23  H    4.661262   4.587827   5.637739   6.933334   5.578631
    24  H    5.397775   5.820887   6.182066   7.560529   5.862959
    25  C    1.509864   2.141498   2.498470   2.928329   3.701964
    26  C    2.534226   3.429822   3.077606   3.410519   4.053862
    27  C    2.510368   2.549768   3.576075   3.705403   4.884422
    28  C    3.809461   4.556992   4.373917   4.442907   5.399004
    29  H    2.735831   3.806123   2.931953   3.451052   3.564816
    30  C    3.793632   3.938359   4.738314   4.674164   6.047710
    31  H    2.712108   2.272647   3.820220   3.957486   5.108632
    32  C    4.303350   4.760534   5.064079   4.986624   6.264969
    33  H    4.687727   5.532973   5.084943   5.132166   5.954288
    34  H    4.665147   4.606155   5.639566   5.488267   6.981890
    35  H    5.397993   5.831109   6.123890   5.958375   7.315345
                    6          7          8          9         10
     6  C    0.000000
     7  H    2.157639   0.000000
     8  C    2.404556   3.873315   0.000000
     9  H    3.877193   4.309823   2.157170   0.000000
    10  C    1.391397   3.403355   1.389495   3.403240   0.000000
    11  H    1.094825   2.482463   3.398130   4.972017   2.158456
    12  H    3.398526   4.968109   1.094801   2.477620   2.156905
    13  H    2.159261   4.307008   2.158349   4.306231   1.094558
    14  C    4.950065   4.165362   4.274586   2.495764   5.137447
    15  C    5.419066   4.890262   4.453438   2.622328   5.427623
    16  C    5.943125   5.132883   5.136844   3.222512   6.074612
    17  C    6.694779   6.265672   5.420945   3.413267   6.545162
    18  H    5.015089   4.589546   4.218470   2.815363   5.052814
    19  C    7.125882   6.457280   5.994888   3.892838   7.090963
    20  H    5.993601   5.058708   5.433869   3.764949   6.237229
    21  C    7.454046   6.941812   6.120664   3.975412   7.299415
    22  H    7.265026   6.968247   5.899477   4.048590   7.028909
    23  H    7.965302   7.275069   6.821050   4.760168   7.919849
    24  H    8.484599   8.032772   7.017171   4.880032   8.250730
    25  C    4.271108   2.640122   4.834988   4.027571   5.068249
    26  C    4.541200   3.227494   5.043008   4.368744   5.250209
    27  C    5.057689   3.048285   5.975888   5.244337   6.051712
    28  C    5.495347   4.015147   6.294122   5.749364   6.339232
    29  H    4.385021   3.596408   4.476099   3.798152   4.829767
    30  C    5.930479   3.874067   7.064068   6.439663   7.018284
    31  H    5.298562   3.299166   6.205892   5.444770   6.289223
    32  C    6.123171   4.293153   7.202920   6.654384   7.145511
    33  H    6.020725   4.801012   6.735902   6.281533   6.768535
    34  H    6.719900   4.589953   7.986538   7.383604   7.877483
    35  H    7.020461   5.212866   8.203923   7.715707   8.077778
                   11         12         13         14         15
    11  H    0.000000
    12  H    4.304338   0.000000
    13  H    2.488378   2.487978   0.000000
    14  C    5.924558   4.892741   6.202485   0.000000
    15  C    6.415350   4.907730   6.427399   1.396812   0.000000
    16  C    6.913512   5.638682   7.114144   1.396607   2.408552
    17  C    7.721833   5.656215   7.487990   2.418387   1.389344
    18  H    5.954562   4.720806   6.010494   2.158049   1.101407
    19  C    8.140794   6.300587   8.085191   2.417700   2.778712
    20  H    6.891789   6.002949   7.267399   2.164507   3.405665
    21  C    8.498682   6.310079   8.254216   2.794968   2.409158
    22  H    8.276395   6.026049   7.902392   3.408708   2.154669
    23  H    8.966398   7.077852   8.893221   3.408191   3.873568
    24  H    9.540948   7.092177   9.165825   3.889648   3.401666
    25  C    4.924241   5.782160   6.128208   2.477771   3.086649
    26  C    5.147241   5.924446   6.237124   3.137358   3.123902
    27  C    5.519818   6.971018   7.085910   3.479570   4.278333
    28  C    5.901579   7.188993   7.258185   4.407804   4.323782
    29  H    5.101500   5.240936   5.774671   3.051732   2.646037
    30  C    6.230713   8.073522   8.000296   4.656752   5.217588
    31  H    5.749805   7.192736   7.320041   3.676706   4.738358
    32  C    6.403826   8.170648   8.078401   5.037564   5.239726
    33  H    6.386043   7.557123   7.607711   5.151273   4.803217
    34  H    6.923911   9.015274   8.840381   5.529402   6.190944
    35  H    7.198974   9.169033   8.964709   6.097038   6.224071
                   16         17         18         19         20
    16  C    0.000000
    17  C    2.781040   0.000000
    18  H    3.403424   2.167309   0.000000
    19  C    1.390671   2.406256   3.879998   0.000000
    20  H    1.096506   3.877523   4.311045   2.155382   0.000000
    21  C    2.410768   1.391117   3.411005   1.390256   3.401797
    22  H    3.875869   1.094833   2.493329   3.399820   4.972354
    23  H    2.155553   3.399517   4.974834   1.094858   2.477597
    24  H    3.403192   2.158871   4.315826   2.158251   4.304298
    25  C    3.524355   4.369561   2.961116   4.688930   3.753892
    26  C    4.389007   4.358523   2.553401   5.337971   4.866055
    27  C    4.164096   5.440711   4.281985   5.351739   4.099482
    28  C    5.560025   5.415421   3.713079   6.444872   5.988120
    29  H    4.417973   3.849687   1.781169   5.227407   5.067655
    30  C    5.383740   6.317208   5.058008   6.455304   5.383929
    31  H    4.035668   5.832473   4.942604   5.278429   3.686368
    32  C    5.983822   6.309834   4.831415   6.939821   6.208313
    33  H    6.362348   5.782304   4.027478   7.129457   6.897950
    34  H    6.085136   7.236089   6.109434   7.146212   5.940677
    35  H    7.016358   7.224623   5.771665   7.917051   7.237640
                   21         22         23         24         25
    21  C    0.000000
    22  H    2.158649   0.000000
    23  H    2.157158   4.305053   0.000000
    24  H    1.094679   2.488469   2.486716   0.000000
    25  C    5.035134   5.092928   5.578657   6.093797   0.000000
    26  C    5.328724   4.806818   6.332837   6.318098   1.396385
    27  C    5.899527   6.216250   6.077324   6.924553   1.396360
    28  C    6.386202   5.736415   7.400071   7.307749   2.417549
    29  H    5.000964   4.145863   6.290313   5.951066   2.157413
    30  C    6.868093   6.957805   7.181875   7.836244   2.416723
    31  H    6.062724   6.724196   5.849031   7.079095   2.164456
    32  C    7.085742   6.752140   7.780617   8.011709   2.793614
    33  H    6.881200   5.904475   8.123618   7.730416   3.408163
    34  H    7.666447   7.911832   7.765235   8.606552   3.407411
    35  H    8.013119   7.586504   8.736573   8.891163   3.888272
                   26         27         28         29         30
    26  C    0.000000
    27  C    2.409130   0.000000
    28  C    1.389402   2.781618   0.000000
    29  H    1.100788   3.403238   2.167034   0.000000
    30  C    2.778942   1.390656   2.406586   3.879559   0.000000
    31  H    3.405986   1.096439   3.878038   4.310524   2.155748
    32  C    2.408985   2.410898   1.391028   3.410376   1.390419
    33  H    2.154950   3.876517   1.094902   2.493698   3.400129
    34  H    3.873855   2.155488   3.399865   4.974440   1.094917
    35  H    3.401417   3.403248   2.158599   4.315204   2.158321
                   31         32         33         34         35
    31  H    0.000000
    32  C    3.402156   0.000000
    33  H    4.972939   2.158581   0.000000
    34  H    2.478097   2.157452   4.305333   0.000000
    35  H    4.304689   1.094658   2.488065   2.486961   0.000000
 Stoichiometry    C19H16
 Framework group  C1[X(C19H16)]
 Deg. of freedom    99
 Full point group                 C1      NOp   1
 Largest Abelian subgroup         C1      NOp   1
 Largest concise Abelian subgroup C1      NOp   1
                         Standard orientation:                         
 ---------------------------------------------------------------------
 Center     Atomic      Atomic             Coordinates (Angstroms)
 Number     Number       Type             X           Y           Z
 ---------------------------------------------------------------------
      1          6           0       -0.007114    0.014592   -0.761926
      2          1           0        0.019934    0.021027   -1.884591
      3          6           0        0.655836    1.307395   -0.355392
      4          6           0        2.036644    1.442015   -0.534147
      5          6           0       -0.071506    2.393049    0.132076
      6          6           0        2.674547    2.636163   -0.225125
      7          1           0        2.615892    0.593269   -0.916901
      8          6           0        0.569300    3.588715    0.440057
      9          1           0       -1.155879    2.304214    0.275148
     10          6           0        1.941809    3.713549    0.263054
     11          1           0        3.756111    2.728844   -0.367499
     12          1           0       -0.013006    4.433273    0.822460
     13          1           0        2.444757    4.654932    0.505746
     14          6           0       -1.451627   -0.095904   -0.341945
     15          6           0       -1.823580   -0.124647    1.004127
     16          6           0       -2.441975   -0.181034   -1.323002
     17          6           0       -3.161300   -0.234594    1.362865
     18          1           0       -1.039816   -0.074696    1.776342
     19          6           0       -3.780362   -0.291257   -0.961703
     20          1           0       -2.166086   -0.162143   -2.384065
     21          6           0       -4.142574   -0.317331    0.380286
     22          1           0       -3.441409   -0.257564    2.421011
     23          1           0       -4.549825   -0.358272   -1.737685
     24          1           0       -5.196504   -0.404589    0.663027
     25          6           0        0.772057   -1.187364   -0.284555
     26          6           0        1.030335   -1.393229    1.072207
     27          6           0        1.245319   -2.112947   -1.216832
     28          6           0        1.754479   -2.503025    1.489825
     29          1           0        0.637517   -0.673208    1.806372
     30          6           0        1.967758   -3.224289   -0.796208
     31          1           0        1.047116   -1.966268   -2.285185
     32          6           0        2.225177   -3.420327    0.556037
     33          1           0        1.952834   -2.654809    2.555858
     34          1           0        2.333714   -3.946317   -1.533497
     35          1           0        2.795307   -4.294877    0.885265
 ---------------------------------------------------------------------
 Rotational constants (GHZ):      0.4029266      0.3838025      0.2323862
 Standard basis: 6-311G (5D, 7F)
 There are   295 symmetry adapted basis functions of A   symmetry.
 Integral buffers will be    262144 words long.
 Raffenetti 1 integral format.
 Two-electron integral symmetry is turned on.
   295 basis functions,   574 primitive gaussians,   295 cartesian basis functions
    65 alpha electrons       65 beta electrons
       nuclear repulsion energy      1290.8582676391 Hartrees.
 NAtoms=   35 NActive=   35 NUniq=   35 SFac= 7.50D-01 NAtFMM=   80 NAOKFM=F Big=F
 One-electron integrals computed using PRISM.
 PrsmSu:  requested number of processors reduced to:  10 ShMem   1 Linda.
 NBasis=   295 RedAO= T  NBF=   295
 NBsUse=   295 1.00D-06 NBFU=   295
 Harris functional with IExCor=  205 diagonalized for initial guess.
 ExpMin= 1.03D-01 ExpMax= 4.56D+03 ExpMxC= 6.82D+02 IAcc=1 IRadAn=         1 AccDes= 0.00D+00
 HarFok:  IExCor=  205 AccDes= 0.00D+00 IRadAn=         1 IDoV= 1
 ScaDFX=  1.000000  1.000000  1.000000  1.000000
 FoFCou: FMM=F IPFlag=           0 FMFlag=      100000 FMFlg1=           0
         NFxFlg=           0 DoJE=T BraDBF=F KetDBF=T FulRan=T
         Omega=  0.000000  0.000000  1.000000  0.000000  0.000000 ICntrl=     500 IOpCl=  0
         NMat0=    1 NMatS0=    1 NMatT0=    0 NMatD0=    1 NMtDS0=    0 NMtDT0=    0
         I1Cent=           4 NGrid=           0.
 Petite list used in FoFCou.
 Initial guess orbital symmetries:
       Occupied  (A) (A) (A) (A) (A) (A) (A) (A) (A) (A) (A) (A)
                 (A) (A) (A) (A) (A) (A) (A) (A) (A) (A) (A) (A)
                 (A) (A) (A) (A) (A) (A) (A) (A) (A) (A) (A) (A)
                 (A) (A) (A) (A) (A) (A) (A) (A) (A) (A) (A) (A)
                 (A) (A) (A) (A) (A) (A) (A) (A) (A) (A) (A) (A)
                 (A) (A) (A) (A) (A)
       Virtual   (A) (A) (A) (A) (A) (A) (A) (A) (A) (A) (A) (A)
                 (A) (A) (A) (A) (A) (A) (A) (A) (A) (A) (A) (A)
                 (A) (A) (A) (A) (A) (A) (A) (A) (A) (A) (A) (A)
                 (A) (A) (A) (A) (A) (A) (A) (A) (A) (A) (A) (A)
                 (A) (A) (A) (A) (A) (A) (A) (A) (A) (A) (A) (A)
                 (A) (A) (A) (A) (A) (A) (A) (A) (A) (A) (A) (A)
                 (A) (A) (A) (A) (A) (A) (A) (A) (A) (A) (A) (A)
                 (A) (A) (A) (A) (A) (A) (A) (A) (A) (A) (A) (A)
                 (A) (A) (A) (A) (A) (A) (A) (A) (A) (A) (A) (A)
                 (A) (A) (A) (A) (A) (A) (A) (A) (A) (A) (A) (A)
                 (A) (A) (A) (A) (A) (A) (A) (A) (A) (A) (A) (A)
                 (A) (A) (A) (A) (A) (A) (A) (A) (A) (A) (A) (A)
                 (A) (A) (A) (A) (A) (A) (A) (A) (A) (A) (A) (A)
                 (A) (A) (A) (A) (A) (A) (A) (A) (A) (A) (A) (A)
                 (A) (A) (A) (A) (A) (A) (A) (A) (A) (A) (A) (A)
                 (A) (A) (A) (A) (A) (A) (A) (A) (A) (A) (A) (A)
                 (A) (A) (A) (A) (A) (A) (A) (A) (A) (A) (A) (A)
                 (A) (A) (A) (A) (A) (A) (A) (A) (A) (A) (A) (A)
                 (A) (A) (A) (A) (A) (A) (A) (A) (A) (A) (A) (A)
                 (A) (A)
 The electronic state of the initial guess is 1-A.
 Requested convergence on RMS density matrix=1.00D-08 within 128 cycles.
 Requested convergence on MAX density matrix=1.00D-06.
 Requested convergence on             energy=1.00D-06.
 No special actions if energy rises.
 Integral accuracy reduced to 1.0D-05 until final iterations.
 Initial convergence to 1.0D-05 achieved.  Increase integral accuracy.
 SCF Done:  E(RHF) =  -728.672482741     A.U. after   14 cycles
             Convg  =    0.8882D-08             -V/T =  2.0001

 **********************************************************************

            Population analysis using the SCF density.

 **********************************************************************

 Orbital symmetries:
       Occupied  (A) (A) (A) (A) (A) (A) (A) (A) (A) (A) (A) (A)
                 (A) (A) (A) (A) (A) (A) (A) (A) (A) (A) (A) (A)
                 (A) (A) (A) (A) (A) (A) (A) (A) (A) (A) (A) (A)
                 (A) (A) (A) (A) (A) (A) (A) (A) (A) (A) (A) (A)
                 (A) (A) (A) (A) (A) (A) (A) (A) (A) (A) (A) (A)
                 (A) (A) (A) (A) (A)
       Virtual   (A) (A) (A) (A) (A) (A) (A) (A) (A) (A) (A) (A)
                 (A) (A) (A) (A) (A) (A) (A) (A) (A) (A) (A) (A)
                 (A) (A) (A) (A) (A) (A) (A) (A) (A) (A) (A) (A)
                 (A) (A) (A) (A) (A) (A) (A) (A) (A) (A) (A) (A)
                 (A) (A) (A) (A) (A) (A) (A) (A) (A) (A) (A) (A)
                 (A) (A) (A) (A) (A) (A) (A) (A) (A) (A) (A) (A)
                 (A) (A) (A) (A) (A) (A) (A) (A) (A) (A) (A) (A)
                 (A) (A) (A) (A) (A) (A) (A) (A) (A) (A) (A) (A)
                 (A) (A) (A) (A) (A) (A) (A) (A) (A) (A) (A) (A)
                 (A) (A) (A) (A) (A) (A) (A) (A) (A) (A) (A) (A)
                 (A) (A) (A) (A) (A) (A) (A) (A) (A) (A) (A) (A)
                 (A) (A) (A) (A) (A) (A) (A) (A) (A) (A) (A) (A)
                 (A) (A) (A) (A) (A) (A) (A) (A) (A) (A) (A) (A)
                 (A) (A) (A) (A) (A) (A) (A) (A) (A) (A) (A) (A)
                 (A) (A) (A) (A) (A) (A) (A) (A) (A) (A) (A) (A)
                 (A) (A) (A) (A) (A) (A) (A) (A) (A) (A) (A) (A)
                 (A) (A) (A) (A) (A) (A) (A) (A) (A) (A) (A) (A)
                 (A) (A) (A) (A) (A) (A) (A) (A) (A) (A) (A) (A)
                 (A) (A) (A) (A) (A) (A) (A) (A) (A) (A) (A) (A)
                 (A) (A)
 The electronic state is 1-A.
 Alpha  occ. eigenvalues --  -11.25756 -11.25222 -11.25183 -11.24906 -11.24516
 Alpha  occ. eigenvalues --  -11.24432 -11.24427 -11.24380 -11.24217 -11.24163
 Alpha  occ. eigenvalues --  -11.24136 -11.24130 -11.24078 -11.24044 -11.24019
 Alpha  occ. eigenvalues --  -11.23963 -11.23728 -11.23612 -11.23503  -1.18618
 Alpha  occ. eigenvalues --   -1.15872  -1.15569  -1.09027  -1.02372  -1.02242
 Alpha  occ. eigenvalues --   -1.01877  -1.01488  -1.01072  -0.92917  -0.84264
 Alpha  occ. eigenvalues --   -0.83381  -0.82305  -0.81946  -0.81109  -0.77578
 Alpha  occ. eigenvalues --   -0.70876  -0.70360  -0.68982  -0.65661  -0.63910
 Alpha  occ. eigenvalues --   -0.63621  -0.62522  -0.61692  -0.61559  -0.59730
 Alpha  occ. eigenvalues --   -0.58847  -0.58499  -0.58310  -0.56687  -0.55170
 Alpha  occ. eigenvalues --   -0.51725  -0.50898  -0.50195  -0.49878  -0.49376
 Alpha  occ. eigenvalues --   -0.48396  -0.47985  -0.47492  -0.46304  -0.35040
 Alpha  occ. eigenvalues --   -0.34318  -0.33994  -0.33317  -0.32448  -0.31512
 Alpha virt. eigenvalues --    0.11564   0.12302   0.12686   0.13442   0.15032
 Alpha virt. eigenvalues --    0.15173   0.15701   0.16238   0.16490   0.16901
 Alpha virt. eigenvalues --    0.18904   0.19183   0.19243   0.21222   0.21287
 Alpha virt. eigenvalues --    0.21606   0.23542   0.24043   0.24879   0.25397
 Alpha virt. eigenvalues --    0.26667   0.31684   0.33064   0.34215   0.35788
 Alpha virt. eigenvalues --    0.37664   0.39673   0.40633   0.41478   0.43061
 Alpha virt. eigenvalues --    0.44097   0.44430   0.44984   0.45422   0.45569
 Alpha virt. eigenvalues --    0.45901   0.46756   0.47263   0.47846   0.50601
 Alpha virt. eigenvalues --    0.51047   0.51391   0.52338   0.55001   0.56140
 Alpha virt. eigenvalues --    0.57246   0.57825   0.58535   0.58795   0.59352
 Alpha virt. eigenvalues --    0.60303   0.60478   0.60659   0.61113   0.61501
 Alpha virt. eigenvalues --    0.62017   0.62156   0.62936   0.63202   0.63620
 Alpha virt. eigenvalues --    0.64239   0.64645   0.65219   0.65954   0.66366
 Alpha virt. eigenvalues --    0.67288   0.67842   0.68597   0.69803   0.72332
 Alpha virt. eigenvalues --    0.73068   0.73872   0.74704   0.75368   0.75737
 Alpha virt. eigenvalues --    0.76884   0.78823   0.79511   0.80038   0.81160
 Alpha virt. eigenvalues --    0.81494   0.82259   0.82483   0.82857   0.83383
 Alpha virt. eigenvalues --    0.83844   0.84386   0.84923   0.85092   0.85482
 Alpha virt. eigenvalues --    0.85856   0.86161   0.86574   0.87839   0.88105
 Alpha virt. eigenvalues --    0.90080   0.90859   0.92149   0.93561   0.95122
 Alpha virt. eigenvalues --    0.95872   0.96311   0.96963   0.98349   0.99795
 Alpha virt. eigenvalues --    1.00230   1.02402   1.03171   1.05019   1.06233
 Alpha virt. eigenvalues --    1.07151   1.08016   1.09480   1.09982   1.11056
 Alpha virt. eigenvalues --    1.11582   1.11789   1.12335   1.12896   1.13793
 Alpha virt. eigenvalues --    1.15028   1.16453   1.19960   1.20492   1.21595
 Alpha virt. eigenvalues --    1.23456   1.25240   1.27434   1.27873   1.29143
 Alpha virt. eigenvalues --    1.29477   1.31825   1.32660   1.47154   1.47868
 Alpha virt. eigenvalues --    1.51796   1.54377   1.56637   2.53485   2.55718
 Alpha virt. eigenvalues --    2.55966   2.57743   2.62091   2.62427   2.63844
 Alpha virt. eigenvalues --    2.66503   2.67037   2.68407   2.72276   2.74264
 Alpha virt. eigenvalues --    2.78362   2.83334   2.86838   2.91931   2.94338
 Alpha virt. eigenvalues --    2.94631   2.94745   2.96018   2.98222   2.98601
 Alpha virt. eigenvalues --    2.99877   3.02308   3.03933   3.04341   3.06670
 Alpha virt. eigenvalues --    3.08443   3.09356   3.09899   3.10025   3.13226
 Alpha virt. eigenvalues --    3.15050   3.16042   3.17789   3.18351   3.19515
 Alpha virt. eigenvalues --    3.21641   3.24054   3.24881   3.27742   3.28786
 Alpha virt. eigenvalues --    3.31560   3.33869   3.34442   3.35777   3.40667
 Alpha virt. eigenvalues --    3.41127   3.44146   3.44950   3.50029   3.52684
 Alpha virt. eigenvalues --    3.53556   3.56011   3.57772   3.58498   3.59438
 Alpha virt. eigenvalues --    3.62490   3.63925   3.65150   3.66242   3.67009
 Alpha virt. eigenvalues --    3.67718   3.69224   3.71270   3.72005   3.74567
 Alpha virt. eigenvalues --    3.76743   3.77568   3.78377   3.85721   3.88294
 Alpha virt. eigenvalues --    3.90941  24.26156  24.30006  24.31662  24.50555
 Alpha virt. eigenvalues --   24.50770  24.51057  24.52937  24.54624  24.56453
 Alpha virt. eigenvalues --   24.76079  24.77047  24.79115  24.80222  24.80805
 Alpha virt. eigenvalues --   24.82935  24.87630  25.04640  25.05791  25.07117
          Condensed to atoms (all electrons):
              1          2          3          4          5          6
     1  C    6.124022   0.471579   0.029896  -0.084720  -0.034587   0.008906
     2  H    0.471579   0.501252  -0.061984  -0.004517   0.000320   0.000517
     3  C    0.029896  -0.061984   5.349448   0.472967   0.497961  -0.057041
     4  C   -0.084720  -0.004517   0.472967   5.127276  -0.084922   0.462195
     5  C   -0.034587   0.000320   0.497961  -0.084922   5.101476  -0.030525
     6  C    0.008906   0.000517  -0.057041   0.462195  -0.030525   5.064329
     7  H   -0.004242  -0.000130  -0.043941   0.397291   0.004564  -0.035246
     8  C    0.012411  -0.000093  -0.067783  -0.033297   0.454048  -0.073579
     9  H   -0.011545  -0.000264  -0.035110   0.004999   0.394452  -0.000459
    10  C    0.000317   0.000040  -0.020878  -0.085245  -0.089333   0.481138
    11  H   -0.000356   0.000006   0.006138  -0.038129  -0.000425   0.396967
    12  H   -0.000364   0.000014   0.006464  -0.000403  -0.036889   0.006004
    13  H   -0.000014  -0.000002  -0.001449   0.007459   0.007638  -0.043141
    14  C    0.116578  -0.074264  -0.064284   0.011442  -0.012876  -0.000884
    15  C   -0.073500   0.004446   0.006593   0.000959  -0.018795  -0.000023
    16  C   -0.023625   0.006219  -0.000225  -0.000308   0.000904   0.000009
    17  C    0.002995  -0.000224   0.000607   0.000014  -0.001409   0.000000
    18  H    0.000355  -0.000006   0.001633  -0.000020   0.001826  -0.000071
    19  C    0.008110   0.001443  -0.000745   0.000006   0.000315   0.000000
    20  H   -0.001977   0.002845   0.000482   0.000011   0.000129   0.000000
    21  C    0.001646   0.000007  -0.000063   0.000000   0.000161   0.000000
    22  H   -0.000372   0.000011   0.000021   0.000000   0.000000   0.000000
    23  H   -0.000402  -0.000035   0.000022   0.000000  -0.000008   0.000000
    24  H   -0.000026  -0.000002   0.000002   0.000000  -0.000003   0.000000
    25  C    0.145515  -0.070236  -0.089725  -0.008161   0.002807  -0.001755
    26  C   -0.057862   0.005285  -0.005619  -0.010075   0.001615  -0.000391
    27  C   -0.024448   0.002110  -0.001235   0.000540  -0.000447  -0.000050
    28  C    0.003459  -0.000255  -0.000500  -0.000380   0.000016  -0.000013
    29  H   -0.000041   0.000094   0.001268   0.000543  -0.000265   0.000105
    30  C    0.006867   0.001535  -0.000437  -0.000081   0.000018   0.000013
    31  H   -0.000212   0.002436   0.000168   0.000279  -0.000031  -0.000008
    32  C    0.001285   0.000000   0.000028   0.000129  -0.000001   0.000002
    33  H   -0.000352   0.000011   0.000026   0.000014   0.000000   0.000001
    34  H   -0.000341  -0.000039   0.000011  -0.000003   0.000000   0.000000
    35  H   -0.000013  -0.000002   0.000001   0.000000   0.000000   0.000000
              7          8          9         10         11         12
     1  C   -0.004242   0.012411  -0.011545   0.000317  -0.000356  -0.000364
     2  H   -0.000130  -0.000093  -0.000264   0.000040   0.000006   0.000014
     3  C   -0.043941  -0.067783  -0.035110  -0.020878   0.006138   0.006464
     4  C    0.397291  -0.033297   0.004999  -0.085245  -0.038129  -0.000403
     5  C    0.004564   0.454048   0.394452  -0.089333  -0.000425  -0.036889
     6  C   -0.035246  -0.073579  -0.000459   0.481138   0.396967   0.006004
     7  H    0.488088  -0.000482  -0.000192   0.005224  -0.003823   0.000017
     8  C   -0.000482   5.078895  -0.036559   0.494147   0.005984   0.395709
     9  H   -0.000192  -0.036559   0.478078   0.005077   0.000017  -0.003559
    10  C    0.005224   0.494147   0.005077   5.043107  -0.040854  -0.041259
    11  H   -0.003823   0.005984   0.000017  -0.040854   0.517497  -0.000213
    12  H    0.000017   0.395709  -0.003559  -0.041259  -0.000213   0.517790
    13  H   -0.000173  -0.042204  -0.000170   0.399482  -0.004405  -0.004458
    14  C    0.000781  -0.001764   0.001454   0.000127   0.000012   0.000058
    15  C   -0.000040  -0.001015  -0.000819  -0.000012   0.000000   0.000022
    16  C   -0.000006  -0.000108  -0.000914  -0.000004   0.000000   0.000003
    17  C    0.000000  -0.000040   0.000098   0.000000   0.000000  -0.000001
    18  H    0.000023   0.000150   0.000103  -0.000001  -0.000001   0.000001
    19  C    0.000000   0.000005  -0.000128   0.000000   0.000000   0.000000
    20  H   -0.000001   0.000003   0.000105   0.000000   0.000000   0.000000
    21  C    0.000000   0.000004   0.000122   0.000000   0.000000  -0.000001
    22  H    0.000000  -0.000003   0.000032   0.000000   0.000000   0.000000
    23  H    0.000000   0.000000   0.000011   0.000000   0.000000   0.000000
    24  H    0.000000   0.000000   0.000010   0.000000   0.000000   0.000000
    25  C    0.004269  -0.000840   0.000459   0.000133   0.000019   0.000012
    26  C   -0.000648   0.000047   0.000039   0.000030   0.000014   0.000000
    27  C    0.001354   0.000007  -0.000016  -0.000003  -0.000004   0.000000
    28  C   -0.000292   0.000003   0.000000   0.000002   0.000002   0.000000
    29  H   -0.000034  -0.000132   0.000029  -0.000035   0.000004  -0.000001
    30  C    0.000110   0.000000   0.000000   0.000000   0.000000   0.000000
    31  H    0.000196   0.000000   0.000001   0.000001   0.000000   0.000000
    32  C   -0.000075   0.000000   0.000000   0.000000   0.000000   0.000000
    33  H    0.000006   0.000000   0.000000   0.000000   0.000000   0.000000
    34  H    0.000008   0.000000   0.000000   0.000000   0.000000   0.000000
    35  H    0.000002   0.000000   0.000000   0.000000   0.000000   0.000000
             13         14         15         16         17         18
     1  C   -0.000014   0.116578  -0.073500  -0.023625   0.002995   0.000355
     2  H   -0.000002  -0.074264   0.004446   0.006219  -0.000224  -0.000006
     3  C   -0.001449  -0.064284   0.006593  -0.000225   0.000607   0.001633
     4  C    0.007459   0.011442   0.000959  -0.000308   0.000014  -0.000020
     5  C    0.007638  -0.012876  -0.018795   0.000904  -0.001409   0.001826
     6  C   -0.043141  -0.000884  -0.000023   0.000009   0.000000  -0.000071
     7  H   -0.000173   0.000781  -0.000040  -0.000006   0.000000   0.000023
     8  C   -0.042204  -0.001764  -0.001015  -0.000108  -0.000040   0.000150
     9  H   -0.000170   0.001454  -0.000819  -0.000914   0.000098   0.000103
    10  C    0.399482   0.000127  -0.000012  -0.000004   0.000000  -0.000001
    11  H   -0.004405   0.000012   0.000000   0.000000   0.000000  -0.000001
    12  H   -0.004458   0.000058   0.000022   0.000003  -0.000001   0.000001
    13  H    0.519413   0.000001   0.000001   0.000000   0.000000   0.000000
    14  C    0.000001   5.398793   0.451302   0.496755  -0.062723  -0.046821
    15  C    0.000001   0.451302   5.093875  -0.064214   0.480143   0.386371
    16  C    0.000000   0.496755  -0.064214   5.052679  -0.033638   0.004593
    17  C    0.000000  -0.062723   0.480143  -0.033638   5.046024  -0.027436
    18  H    0.000000  -0.046821   0.386371   0.004593  -0.027436   0.497341
    19  C    0.000000  -0.076498  -0.029356   0.467049  -0.077508  -0.000108
    20  H    0.000000  -0.046162   0.004754   0.395032  -0.000286  -0.000272
    21  C    0.000000  -0.016361  -0.093423  -0.088953   0.490295   0.004621
    22  H    0.000000   0.005982  -0.038572  -0.000386   0.397028  -0.003385
    23  H    0.000000   0.006982  -0.000635  -0.039412   0.006262   0.000016
    24  H    0.000000  -0.001685   0.007993   0.007578  -0.043005  -0.000169
    25  C    0.000002  -0.144433  -0.003105  -0.004633   0.001962  -0.003803
    26  C    0.000000  -0.003010  -0.011578   0.000773  -0.000108   0.001633
    27  C    0.000000  -0.002476   0.000521   0.000632   0.000040  -0.000210
    28  C    0.000000   0.001902  -0.000325   0.000028  -0.000102   0.001121
    29  H    0.000001  -0.002981  -0.000725  -0.000200   0.000912   0.001332
    30  C    0.000000  -0.000521   0.000122  -0.000018   0.000001  -0.000051
    31  H    0.000000   0.000325  -0.000009   0.000281  -0.000001   0.000001
    32  C    0.000000  -0.000089  -0.000026  -0.000010   0.000001  -0.000001
    33  H    0.000000   0.000029   0.000056   0.000001   0.000002  -0.000053
    34  H    0.000000   0.000026   0.000000   0.000001   0.000000   0.000001
    35  H    0.000000  -0.000003   0.000000   0.000000   0.000000   0.000000
             19         20         21         22         23         24
     1  C    0.008110  -0.001977   0.001646  -0.000372  -0.000402  -0.000026
     2  H    0.001443   0.002845   0.000007   0.000011  -0.000035  -0.000002
     3  C   -0.000745   0.000482  -0.000063   0.000021   0.000022   0.000002
     4  C    0.000006   0.000011   0.000000   0.000000   0.000000   0.000000
     5  C    0.000315   0.000129   0.000161   0.000000  -0.000008  -0.000003
     6  C    0.000000   0.000000   0.000000   0.000000   0.000000   0.000000
     7  H    0.000000  -0.000001   0.000000   0.000000   0.000000   0.000000
     8  C    0.000005   0.000003   0.000004  -0.000003   0.000000   0.000000
     9  H   -0.000128   0.000105   0.000122   0.000032   0.000011   0.000010
    10  C    0.000000   0.000000   0.000000   0.000000   0.000000   0.000000
    11  H    0.000000   0.000000   0.000000   0.000000   0.000000   0.000000
    12  H    0.000000   0.000000  -0.000001   0.000000   0.000000   0.000000
    13  H    0.000000   0.000000   0.000000   0.000000   0.000000   0.000000
    14  C   -0.076498  -0.046162  -0.016361   0.005982   0.006982  -0.001685
    15  C   -0.029356   0.004754  -0.093423  -0.038572  -0.000635   0.007993
    16  C    0.467049   0.395032  -0.088953  -0.000386  -0.039412   0.007578
    17  C   -0.077508  -0.000286   0.490295   0.397028   0.006262  -0.043005
    18  H   -0.000108  -0.000272   0.004621  -0.003385   0.000016  -0.000169
    19  C    5.048278  -0.033778   0.499937   0.005900   0.396357  -0.042552
    20  H   -0.033778   0.506741   0.005070   0.000025  -0.004074  -0.000178
    21  C    0.499937   0.005070   5.033494  -0.039785  -0.040970   0.399465
    22  H    0.005900   0.000025  -0.039785   0.514327  -0.000206  -0.004375
    23  H    0.396357  -0.004074  -0.040970  -0.000206   0.517930  -0.004557
    24  H   -0.042552  -0.000178   0.399465  -0.004375  -0.004557   0.516977
    25  C   -0.000575   0.000151  -0.000069   0.000030   0.000022  -0.000002
    26  C    0.000060  -0.000024  -0.000008   0.000041   0.000000   0.000000
    27  C   -0.000013   0.000238  -0.000013   0.000001   0.000001   0.000000
    28  C    0.000000   0.000001   0.000002   0.000000   0.000000   0.000000
    29  H   -0.000003  -0.000001  -0.000016  -0.000032   0.000000   0.000000
    30  C    0.000002  -0.000002   0.000000   0.000000   0.000000   0.000000
    31  H    0.000005   0.000074  -0.000002   0.000000   0.000000   0.000000
    32  C    0.000000  -0.000001   0.000000   0.000000   0.000000   0.000000
    33  H    0.000000   0.000000   0.000000   0.000001   0.000000   0.000000
    34  H    0.000000   0.000000   0.000000   0.000000   0.000000   0.000000
    35  H    0.000000   0.000000   0.000000   0.000000   0.000000   0.000000
             25         26         27         28         29         30
     1  C    0.145515  -0.057862  -0.024448   0.003459  -0.000041   0.006867
     2  H   -0.070236   0.005285   0.002110  -0.000255   0.000094   0.001535
     3  C   -0.089725  -0.005619  -0.001235  -0.000500   0.001268  -0.000437
     4  C   -0.008161  -0.010075   0.000540  -0.000380   0.000543  -0.000081
     5  C    0.002807   0.001615  -0.000447   0.000016  -0.000265   0.000018
     6  C   -0.001755  -0.000391  -0.000050  -0.000013   0.000105   0.000013
     7  H    0.004269  -0.000648   0.001354  -0.000292  -0.000034   0.000110
     8  C   -0.000840   0.000047   0.000007   0.000003  -0.000132   0.000000
     9  H    0.000459   0.000039  -0.000016   0.000000   0.000029   0.000000
    10  C    0.000133   0.000030  -0.000003   0.000002  -0.000035   0.000000
    11  H    0.000019   0.000014  -0.000004   0.000002   0.000004   0.000000
    12  H    0.000012   0.000000   0.000000   0.000000  -0.000001   0.000000
    13  H    0.000002   0.000000   0.000000   0.000000   0.000001   0.000000
    14  C   -0.144433  -0.003010  -0.002476   0.001902  -0.002981  -0.000521
    15  C   -0.003105  -0.011578   0.000521  -0.000325  -0.000725   0.000122
    16  C   -0.004633   0.000773   0.000632   0.000028  -0.000200  -0.000018
    17  C    0.001962  -0.000108   0.000040  -0.000102   0.000912   0.000001
    18  H   -0.003803   0.001633  -0.000210   0.001121   0.001332  -0.000051
    19  C   -0.000575   0.000060  -0.000013   0.000000  -0.000003   0.000002
    20  H    0.000151  -0.000024   0.000238   0.000001  -0.000001  -0.000002
    21  C   -0.000069  -0.000008  -0.000013   0.000002  -0.000016   0.000000
    22  H    0.000030   0.000041   0.000001   0.000000  -0.000032   0.000000
    23  H    0.000022   0.000000   0.000001   0.000000   0.000000   0.000000
    24  H   -0.000002   0.000000   0.000000   0.000000   0.000000   0.000000
    25  C    5.395899   0.449520   0.491824  -0.057915  -0.044332  -0.074349
    26  C    0.449520   5.066814  -0.072077   0.478631   0.388296  -0.026354
    27  C    0.491824  -0.072077   5.090648  -0.030754   0.004132   0.455102
    28  C   -0.057915   0.478631  -0.030754   5.041575  -0.028653  -0.078792
    29  H   -0.044332   0.388296   0.004132  -0.028653   0.497624   0.000033
    30  C   -0.074349  -0.026354   0.455102  -0.078792   0.000033   5.058384
    31  H   -0.050518   0.004360   0.400207  -0.000281  -0.000273  -0.034668
    32  C   -0.018699  -0.091558  -0.086641   0.491056   0.004557   0.498270
    33  H    0.006014  -0.038838  -0.000470   0.397230  -0.003317   0.005955
    34  H    0.006919  -0.000688  -0.039644   0.006244   0.000014   0.396886
    35  H   -0.001558   0.007908   0.007496  -0.042936  -0.000174  -0.042560
             31         32         33         34         35
     1  C   -0.000212   0.001285  -0.000352  -0.000341  -0.000013
     2  H    0.002436   0.000000   0.000011  -0.000039  -0.000002
     3  C    0.000168   0.000028   0.000026   0.000011   0.000001
     4  C    0.000279   0.000129   0.000014  -0.000003   0.000000
     5  C   -0.000031  -0.000001   0.000000   0.000000   0.000000
     6  C   -0.000008   0.000002   0.000001   0.000000   0.000000
     7  H    0.000196  -0.000075   0.000006   0.000008   0.000002
     8  C    0.000000   0.000000   0.000000   0.000000   0.000000
     9  H    0.000001   0.000000   0.000000   0.000000   0.000000
    10  C    0.000001   0.000000   0.000000   0.000000   0.000000
    11  H    0.000000   0.000000   0.000000   0.000000   0.000000
    12  H    0.000000   0.000000   0.000000   0.000000   0.000000
    13  H    0.000000   0.000000   0.000000   0.000000   0.000000
    14  C    0.000325  -0.000089   0.000029   0.000026  -0.000003
    15  C   -0.000009  -0.000026   0.000056   0.000000   0.000000
    16  C    0.000281  -0.000010   0.000001   0.000001   0.000000
    17  C   -0.000001   0.000001   0.000002   0.000000   0.000000
    18  H    0.000001  -0.000001  -0.000053   0.000001   0.000000
    19  C    0.000005   0.000000   0.000000   0.000000   0.000000
    20  H    0.000074  -0.000001   0.000000   0.000000   0.000000
    21  C   -0.000002   0.000000   0.000000   0.000000   0.000000
    22  H    0.000000   0.000000   0.000001   0.000000   0.000000
    23  H    0.000000   0.000000   0.000000   0.000000   0.000000
    24  H    0.000000   0.000000   0.000000   0.000000   0.000000
    25  C   -0.050518  -0.018699   0.006014   0.006919  -0.001558
    26  C    0.004360  -0.091558  -0.038838  -0.000688   0.007908
    27  C    0.400207  -0.086641  -0.000470  -0.039644   0.007496
    28  C   -0.000281   0.491056   0.397230   0.006244  -0.042936
    29  H   -0.000273   0.004557  -0.003317   0.000014  -0.000174
    30  C   -0.034668   0.498270   0.005955   0.396886  -0.042560
    31  H    0.509298   0.005217   0.000025  -0.004193  -0.000184
    32  C    0.005217   5.034030  -0.039831  -0.040693   0.399643
    33  H    0.000025  -0.039831   0.514686  -0.000205  -0.004463
    34  H   -0.004193  -0.040693  -0.000205   0.518075  -0.004583
    35  H   -0.000184   0.399643  -0.004463  -0.004583   0.517375
 Mulliken atomic charges:
              1
     1  C   -0.614941
     2  H    0.211881
     3  C    0.077282
     4  C   -0.135860
     5  C   -0.157732
     6  C   -0.177000
     7  H    0.187390
     8  C   -0.183513
     9  H    0.204649
    10  C   -0.151202
    11  H    0.161550
    12  H    0.161053
    13  H    0.162019
    14  C    0.065287
    15  C   -0.100983
    16  C   -0.175883
    17  C   -0.179902
    18  H    0.181284
    19  C   -0.166204
    20  H    0.171095
    21  C   -0.155159
    22  H    0.163718
    23  H    0.162698
    24  H    0.164529
    25  C    0.069156
    26  C   -0.086227
    27  C   -0.196354
    28  C   -0.180074
    29  H    0.182268
    30  C   -0.165466
    31  H    0.167504
    32  C   -0.156591
    33  H    0.163475
    34  H    0.162204
    35  H    0.164049
 Sum of Mulliken atomic charges =   0.00000
 Mulliken charges with hydrogens summed into heavy atoms:
              1
     1  C   -0.403060
     3  C    0.077282
     4  C    0.051529
     5  C    0.046917
     6  C   -0.015450
     8  C   -0.022460
    10  C    0.010818
    14  C    0.065287
    15  C    0.080301
    16  C   -0.004788
    17  C   -0.016185
    19  C   -0.003506
    21  C    0.009370
    25  C    0.069156
    26  C    0.096041
    27  C   -0.028850
    28  C   -0.016599
    30  C   -0.003262
    32  C    0.007458
 Sum of Mulliken charges with hydrogens summed into heavy atoms =   0.00000
 Electronic spatial extent (au):  <R**2>=           4930.9321
 Charge=              0.0000 electrons
 Dipole moment (field-independent basis, Debye):
    X=             -0.0946    Y=             -0.1733    Z=             -0.0179  Tot=              0.1982
 Quadrupole moment (field-independent basis, Debye-Ang):
   XX=           -107.5069   YY=           -113.1792   ZZ=           -107.0970
   XY=             -2.8011   XZ=             -0.6891   YZ=              2.6030
 Traceless Quadrupole moment (field-independent basis, Debye-Ang):
   XX=              1.7541   YY=             -3.9181   ZZ=              2.1640
   XY=             -2.8011   XZ=             -0.6891   YZ=              2.6030
 Octapole moment (field-independent basis, Debye-Ang**2):
  XXX=            -27.2124  YYY=             12.1738  ZZZ=              0.8984  XYY=             35.8357
  XXY=             -0.5567  XXZ=             -1.9140  XZZ=            -10.0702  YZZ=            -19.5820
  YYZ=             11.1661  XYZ=             -1.3642
 Hexadecapole moment (field-independent basis, Debye-Ang**3):
 XXXX=          -3046.9768 YYYY=          -2927.6928 ZZZZ=           -656.7876 XXXY=             66.0293
 XXXZ=            -11.8946 YYYX=            -70.1865 YYYZ=             70.6233 ZZZX=              6.1280
 ZZZY=             -1.8855 XXYY=          -1016.0201 XXZZ=           -625.9306 YYZZ=           -641.2568
 XXYZ=             -4.7890 YYXZ=             10.9664 ZZXY=            -32.7369
 N-N= 1.290858267639D+03 E-N=-4.277796762986D+03  KE= 7.286023194860D+02
 PrsmSu:  requested number of processors reduced to:  10 ShMem   1 Linda.
 Calling FoFJK, ICntrl=      2127 FMM=F ISym2X=0 I1Cent= 0 IOpClX= 0 NMat=1 NMatS=1 NMatT=0.
 ***** Axes restored to original set *****
 -------------------------------------------------------------------
 Center     Atomic                   Forces (Hartrees/Bohr)
 Number     Number              X              Y              Z
 -------------------------------------------------------------------
      1        6          -0.002326577    0.001884711    0.022910184
      2        1           0.001555927    0.003848656   -0.024840969
      3        6           0.000302844   -0.014588724   -0.003080484
      4        6           0.007660586    0.002716196    0.003673734
      5        6          -0.010921341    0.004326408   -0.002242267
      6        6           0.011449642   -0.003627670    0.003955288
      7        1          -0.012944355   -0.011565147   -0.007469416
      8        6          -0.007210038   -0.009368009   -0.004697297
      9        1           0.018437456   -0.010340929    0.005364595
     10        6           0.000365137   -0.013366789   -0.003037319
     11        1          -0.014716162    0.006767158   -0.003866638
     12        1           0.012139237    0.009312565    0.006528825
     13        1          -0.002618120    0.016215527    0.002533525
     14        6          -0.011623743    0.005061938    0.005549531
     15        6           0.007706169   -0.001720045   -0.009431248
     16        6           0.001331386   -0.000916965    0.005841758
     17        6           0.000545167   -0.000373166   -0.012501161
     18        1          -0.025568684    0.007095627    0.012763389
     19        6          -0.010916435    0.005210014    0.006484538
     20        1          -0.002006692    0.000536917   -0.017714715
     21        6          -0.012252686    0.005545235   -0.002690539
     22        1           0.002313748   -0.000919857    0.016552075
     23        1           0.011632015   -0.005423003   -0.010653218
     24        1           0.014282389   -0.006506712    0.006052716
     25        6           0.009799685    0.008214732    0.006588316
     26        6          -0.003921834   -0.005586559   -0.009267578
     27        6          -0.002324615   -0.000080558    0.005447150
     28        6           0.001529294   -0.001230209   -0.012312083
     29        1           0.020507154    0.011139249    0.015563372
     30        6           0.007933000    0.008341747    0.007553986
     31        1           0.004963015   -0.000157994   -0.016921674
     32        6           0.010915868    0.008300534   -0.001287778
     33        1          -0.005120774   -0.000284544    0.016002895
     34        1          -0.007706298   -0.009001818   -0.011721442
     35        1          -0.013191367   -0.009458517    0.004369949
 -------------------------------------------------------------------
 Cartesian Forces:  Max     0.025568684 RMS     0.009549339

 GradGradGradGradGradGradGradGradGradGradGradGradGradGradGradGradGradGrad
 Berny optimization.
 Internal  Forces:  Max     0.028490221 RMS     0.007785092
 Search for a local minimum.
 Step number   1 out of a maximum of  197
 All quantities printed in internal units (Hartrees-Bohrs-Radians)
 Mixed Optimization -- RFO/linear search
 Second derivative matrix not updated -- first step.
     Eigenvalues ---    0.00635   0.00651   0.00655   0.01533   0.01538
     Eigenvalues ---    0.01541   0.02138   0.02142   0.02146   0.02171
     Eigenvalues ---    0.02172   0.02173   0.02182   0.02183   0.02184
     Eigenvalues ---    0.02201   0.02201   0.02203   0.02211   0.02211
     Eigenvalues ---    0.02212   0.02214   0.02214   0.02215   0.02215
     Eigenvalues ---    0.02217   0.02219   0.02220   0.02220   0.02225
     Eigenvalues ---    0.04564   0.06411   0.06611   0.15998   0.15998
     Eigenvalues ---    0.16000   0.16000   0.16000   0.16000   0.16000
     Eigenvalues ---    0.16000   0.16000   0.16000   0.16000   0.16000
     Eigenvalues ---    0.16000   0.16000   0.16000   0.18862   0.19328
     Eigenvalues ---    0.22000   0.22000   0.22000   0.22000   0.22000
     Eigenvalues ---    0.22000   0.23463   0.23477   0.23479   0.24962
     Eigenvalues ---    0.24999   0.25000   0.31261   0.31364   0.31484
     Eigenvalues ---    0.31514   0.33527   0.33595   0.33974   0.34068
     Eigenvalues ---    0.34072   0.34079   0.34250   0.34252   0.34257
     Eigenvalues ---    0.34260   0.34261   0.34264   0.34277   0.34280
     Eigenvalues ---    0.34291   0.42408   0.42463   0.42486   0.42560
     Eigenvalues ---    0.42573   0.42609   0.46342   0.46397   0.46438
     Eigenvalues ---    0.46730   0.46752   0.46796   0.47200   0.47205
     Eigenvalues ---    0.47221   0.47339   0.47346   0.474241000.00000
     Eigenvalues --- 1000.000001000.000001000.000001000.000001000.00000
     Eigenvalues --- 1000.000001000.000001000.000001000.000001000.00000
     Eigenvalues --- 1000.000001000.000001000.000001000.000001000.00000
     Eigenvalues --- 1000.000001000.000001000.000001000.000001000.00000
     Eigenvalues --- 1000.000001000.000001000.000001000.000001000.00000
     Eigenvalues --- 1000.000001000.000001000.000001000.000001000.00000
     Eigenvalues --- 1000.000001000.000001000.000001000.000001000.00000
     Eigenvalues --- 1000.000001000.000001000.000001000.000001000.00000
     Eigenvalues --- 1000.000001000.000001000.000001000.000001000.00000
     Eigenvalues --- 1000.000001000.000001000.000001000.000001000.00000
     Eigenvalues --- 1000.000001000.000001000.000001000.000001000.00000
     Eigenvalues --- 1000.000001000.000001000.000001000.000001000.00000
     Eigenvalues --- 1000.000001000.000001000.000001000.000001000.00000
     Eigenvalues --- 1000.000001000.000001000.000001000.000001000.00000
     Eigenvalues --- 1000.000001000.000001000.000001000.000001000.00000
     Eigenvalues --- 1000.000001000.000001000.000001000.000001000.00000
     Eigenvalues --- 1000.000001000.000001000.000001000.000001000.00000
     Eigenvalues --- 1000.000001000.00000
 RFO step:  Lambda=-4.18215843D-02 EMin= 6.35467945D-03
 Linear search not attempted -- first point.
 Maximum step size (   0.300) exceeded in Quadratic search.
    -- Step size scaled by   0.593
 Iteration  1 RMS(Cart)=  0.12572310 RMS(Int)=  0.00304764
 Iteration  2 RMS(Cart)=  0.00616424 RMS(Int)=  0.00028226
 Iteration  3 RMS(Cart)=  0.00001077 RMS(Int)=  0.00028219
 Iteration  4 RMS(Cart)=  0.00000000 RMS(Int)=  0.00028219
 Variable       Old X    -DE/DX   Delta X   Delta X   Delta X     New X
                                 (Linear)    (Quad)   (Total)
    R1        2.12218  -0.02474   0.00000  -0.04138  -0.04138   2.08080
    R2        2.85099   0.02351   0.00000   0.03909   0.03909   2.89008
    R3        2.85043   0.02353   0.00000   0.03908   0.03908   2.88951
    R4        2.85323   0.02292   0.00000   0.03823   0.03823   2.89146
    R5        2.64339  -0.00195   0.00000  -0.00224  -0.00224   2.64116
    R6        2.63567  -0.00217   0.00000  -0.00241  -0.00240   2.63327
    R7        2.62421  -0.00459   0.00000  -0.00533  -0.00533   2.61888
    R8        2.07216  -0.01886   0.00000  -0.02924  -0.02924   2.04292
    R9        2.62876  -0.00151   0.00000  -0.00168  -0.00168   2.62708
   R10        2.07373  -0.02174   0.00000  -0.03377  -0.03377   2.03996
   R11        2.62936  -0.00507   0.00000  -0.00600  -0.00601   2.62335
   R12        2.06892  -0.01665   0.00000  -0.02568  -0.02568   2.04324
   R13        2.62576  -0.00734   0.00000  -0.00850  -0.00851   2.61726
   R14        2.06887  -0.01663   0.00000  -0.02565  -0.02565   2.04322
   R15        2.06842  -0.01662   0.00000  -0.02561  -0.02561   2.04280
   R16        2.63959   0.00071   0.00000   0.00098   0.00100   2.64059
   R17        2.63920  -0.00432   0.00000  -0.00503  -0.00501   2.63420
   R18        2.62548  -0.00449   0.00000  -0.00508  -0.00508   2.62040
   R19        2.08136  -0.02849   0.00000  -0.04480  -0.04480   2.03656
   R20        2.62799  -0.00240   0.00000  -0.00284  -0.00284   2.62515
   R21        2.07210  -0.01782   0.00000  -0.02763  -0.02763   2.04447
   R22        2.62883  -0.00559   0.00000  -0.00651  -0.00653   2.62230
   R23        2.06894  -0.01674   0.00000  -0.02582  -0.02582   2.04312
   R24        2.62720  -0.00915   0.00000  -0.01068  -0.01070   2.61651
   R25        2.06898  -0.01668   0.00000  -0.02573  -0.02573   2.04326
   R26        2.06864  -0.01682   0.00000  -0.02593  -0.02593   2.04271
   R27        2.63878  -0.00010   0.00000  -0.00001   0.00001   2.63880
   R28        2.63874  -0.00422   0.00000  -0.00491  -0.00490   2.63384
   R29        2.62559  -0.00469   0.00000  -0.00535  -0.00534   2.62025
   R30        2.08019  -0.02677   0.00000  -0.04201  -0.04201   2.03817
   R31        2.62796  -0.00229   0.00000  -0.00269  -0.00270   2.62526
   R32        2.07197  -0.01762   0.00000  -0.02731  -0.02731   2.04466
   R33        2.62866  -0.00528   0.00000  -0.00616  -0.00617   2.62249
   R34        2.06906  -0.01680   0.00000  -0.02592  -0.02592   2.04314
   R35        2.62751  -0.00887   0.00000  -0.01034  -0.01036   2.61716
   R36        2.06909  -0.01667   0.00000  -0.02571  -0.02571   2.04338
   R37        2.06860  -0.01681   0.00000  -0.02591  -0.02591   2.04269
    A1        1.82749   0.00403   0.00000   0.00109   0.00135   1.82884
    A2        1.87741  -0.00997   0.00000  -0.05162  -0.05070   1.82671
    A3        1.88410  -0.00891   0.00000  -0.04932  -0.04849   1.83561
    A4        1.99168   0.00044   0.00000   0.02077   0.01884   2.01052
    A5        1.95002  -0.00303   0.00000   0.01262   0.01047   1.96049
    A6        1.92608   0.01551   0.00000   0.05482   0.05367   1.97975
    A7        2.07350   0.00109   0.00000   0.00209   0.00207   2.07557
    A8        2.13180   0.00685   0.00000   0.01381   0.01380   2.14560
    A9        2.07662  -0.00797   0.00000  -0.01620  -0.01619   2.06043
   A10        2.10339   0.00459   0.00000   0.01011   0.01012   2.11350
   A11        2.08468  -0.00111   0.00000  -0.00158  -0.00159   2.08309
   A12        2.09511  -0.00348   0.00000  -0.00853  -0.00853   2.08657
   A13        2.10157   0.00359   0.00000   0.00824   0.00825   2.10981
   A14        2.09193  -0.00016   0.00000   0.00068   0.00067   2.09261
   A15        2.08968  -0.00343   0.00000  -0.00892  -0.00892   2.08076
   A16        2.09673   0.00089   0.00000   0.00133   0.00132   2.09805
   A17        2.09169  -0.00045   0.00000  -0.00067  -0.00067   2.09102
   A18        2.09476  -0.00044   0.00000  -0.00066  -0.00065   2.09411
   A19        2.09907   0.00110   0.00000   0.00221   0.00220   2.10127
   A20        2.08907  -0.00049   0.00000  -0.00092  -0.00092   2.08815
   A21        2.09505  -0.00061   0.00000  -0.00129  -0.00128   2.09377
   A22        2.08899  -0.00221   0.00000  -0.00569  -0.00571   2.08328
   A23        2.09644   0.00115   0.00000   0.00298   0.00299   2.09943
   A24        2.09775   0.00106   0.00000   0.00271   0.00272   2.10047
   A25        2.12332   0.02254   0.00000   0.04584   0.04581   2.16913
   A26        2.08055  -0.01081   0.00000  -0.02192  -0.02195   2.05860
   A27        2.07929  -0.01173   0.00000  -0.02387  -0.02384   2.05545
   A28        2.10232   0.00446   0.00000   0.01010   0.01008   2.11240
   A29        2.07742   0.00439   0.00000   0.01446   0.01442   2.09183
   A30        2.10333  -0.00882   0.00000  -0.02433  -0.02438   2.07895
   A31        2.09993   0.00807   0.00000   0.01779   0.01781   2.11774
   A32        2.09472  -0.00468   0.00000  -0.01078  -0.01079   2.08393
   A33        2.08854  -0.00340   0.00000  -0.00701  -0.00703   2.08151
   A34        2.09613   0.00240   0.00000   0.00500   0.00498   2.10112
   A35        2.09157  -0.00111   0.00000  -0.00223  -0.00222   2.08935
   A36        2.09548  -0.00129   0.00000  -0.00277  -0.00276   2.09272
   A37        2.09787  -0.00024   0.00000  -0.00143  -0.00144   2.09644
   A38        2.09104   0.00030   0.00000   0.00123   0.00124   2.09228
   A39        2.09427  -0.00006   0.00000   0.00019   0.00020   2.09447
   A40        2.09083  -0.00297   0.00000  -0.00758  -0.00761   2.08321
   A41        2.09605   0.00151   0.00000   0.00388   0.00389   2.09994
   A42        2.09630   0.00146   0.00000   0.00371   0.00372   2.10003
   A43        2.11766   0.01897   0.00000   0.03860   0.03853   2.15619
   A44        2.08460  -0.00816   0.00000  -0.01654  -0.01660   2.06800
   A45        2.08093  -0.01081   0.00000  -0.02206  -0.02205   2.05888
   A46        2.10157   0.00419   0.00000   0.00942   0.00937   2.11094
   A47        2.07783   0.00380   0.00000   0.01272   0.01262   2.09045
   A48        2.10364  -0.00794   0.00000  -0.02177  -0.02187   2.08177
   A49        2.09885   0.00747   0.00000   0.01650   0.01651   2.11535
   A50        2.09509  -0.00439   0.00000  -0.01018  -0.01019   2.08490
   A51        2.08925  -0.00308   0.00000  -0.00633  -0.00634   2.08291
   A52        2.09592   0.00231   0.00000   0.00478   0.00478   2.10070
   A53        2.09186  -0.00107   0.00000  -0.00213  -0.00214   2.08972
   A54        2.09541  -0.00124   0.00000  -0.00264  -0.00265   2.09276
   A55        2.09788  -0.00033   0.00000  -0.00147  -0.00149   2.09639
   A56        2.09088   0.00040   0.00000   0.00142   0.00143   2.09231
   A57        2.09443  -0.00007   0.00000   0.00005   0.00006   2.09449
[...]
 88428,-0.00061465,0.00117634,0.00006324,0.00015686,-0.00023522,0.00007
 508,-0.00036246,-0.00013210,0.00005015,-0.00021951,-0.00018684,-0.0000
 0851,-0.00000081,0.00012821,-0.00001508,0.00023519,-0.00009056,-0.0000
 5526,-0.00003003,0.00000854,0.00013218,-0.00006169,0.00020027,0.000002
 37,-0.00002073,-0.00000464,0.00000141,-0.00000667,0.00000010,-0.000004
 07,0.00000586,0.00001128,0.00059044,-0.00032726,-0.00055509,-0.0002251
 3,-0.00016418,-0.00008647,0.00042739,-0.00028939,-0.00004917,0.0004432
 0,-0.00005241,-0.00016867,-0.00002945,0.00023000,-0.00010980,-0.000171
 64,0.00024387,-0.00023298,-0.00001585,-0.00002885,-0.00001773,-0.00012
 103,-0.00013448,0.00029591,0.00000417,-0.00002013,0.00000160,0.0000209
 6,0.00001895,0.00001488,0.00001787,0.00000147,-0.00000059,-0.02228691,
 0.04141341,0.06514730,0.05027110,0.01191530,-0.04999248,0.06216801,-0.
 01459025,-0.15706981,-0.02969905,-0.07806592,-0.02238765,0.00027780,0.
 00080582,-0.00079231,-0.20284765,0.20660140,0.55416875,-0.00149715,0.0
 0060131,-0.00171000,0.00048584,-0.00023314,-0.00071304,0.00020850,0.00
 009505,-0.00017229,0.00006824,0.00010032,0.00012956,0.00002274,0.00001
 414,-0.00003764,-0.00002404,-0.00002249,-0.00001328,-0.00001044,0.0000
 0645,-0.00002909,-0.00004486,0.00000068,-0.00001254,-0.00000207,-0.000
 00448,-0.00001440,0.00000945,0.00002908,0.00000762,-0.00000749,0.00001
 812,-0.00000279,-0.00000424,0.00000394,0.00000733,-0.00000179,0.000004
 16,-0.00000281,-0.00015028,-0.00012148,-0.00005299,0.00000582,0.000027
 73,0.00003347,-0.00011739,0.00007536,0.00007534,-0.00002665,0.00004841
 ,-0.00004155,0.00005665,-0.00001949,-0.00001533,-0.00004047,-0.0000256
 7,0.00003413,-0.00000167,-0.00000656,-0.00000484,0.00002037,-0.0000154
 0,-0.00002138,-0.00000153,-0.00000443,0.00000935,0.00001118,-0.0000002
 0,-0.00000976,0.00001513,-0.00000313,0.00000317,0.00865089,-0.00488327
 ,-0.00721917,0.00321743,-0.00416719,0.00164513,-0.14465593,0.04168724,
 0.13222142,-0.00051811,-0.00041140,-0.00078535,0.00019361,-0.00015692,
 -0.00043508,-0.00825656,0.01141447,0.02305185,0.14450637,0.00252270,0.
 00027056,-0.00033164,-0.00047912,-0.00046477,0.00125253,0.00006899,-0.
 00007053,0.00040371,-0.00007718,-0.00000352,-0.00007582,-0.00008064,0.
 00016557,0.00007236,0.00001083,0.00001019,0.00002293,0.00004791,-0.000
 03058,0.00000918,0.00004789,0.00003694,0.00002752,0.00001792,-0.000006
 00,0.00000064,-0.00000557,0.00002060,0.00000193,-0.00000132,0.00000581
 ,-0.00000640,0.00001118,0.00002195,0.00000458,0.00000355,0.00001098,0.
 00000378,-0.00015344,0.00025638,-0.00006069,0.00010566,-0.00000071,-0.
 00015645,0.00002739,-0.00006224,-0.00002387,0.00002080,-0.00005420,0.0
 0001315,-0.00001430,-0.00000165,0.00008395,-0.00006077,0.00003529,0.00
 001329,-0.00003911,-0.00003960,0.00002555,0.00002526,-0.00005171,0.000
 03919,0.00002081,-0.00001070,0.00002604,0.00001643,0.00000234,-0.00000
 133,0.00001227,-0.00000008,0.00001412,0.01728632,-0.00422775,-0.025659
 91,-0.00439809,-0.00323839,-0.00462283,0.04160466,-0.09614684,-0.08033
 304,-0.00047417,-0.00092277,0.00052277,0.00092473,-0.00031962,-0.00117
 536,-0.01318097,0.01119124,0.01785349,-0.04030359,0.09376508,-0.001487
 76,0.00217644,-0.00092804,-0.00026812,-0.00042156,0.00036025,0.0002391
 6,0.00001777,0.00028440,-0.00002886,0.00003137,0.00006785,-0.00004318,
 0.00014592,0.00004059,-0.00003255,0.00001008,-0.00002641,0.00001632,-0
 .00000824,-0.00003096,0.00000774,0.00003229,0.00004299,0.00001436,-0.0
 0000463,-0.00003727,0.00000454,0.00000400,0.00000413,0.00000336,0.0000
 1155,-0.00000430,0.00000174,0.00001169,-0.00000296,0.00000310,0.000001
 82,-0.00000447,-0.00032496,-0.00027441,0.00041178,0.00012940,0.0002280
 6,-0.00008980,-0.00036491,0.00016299,0.00009137,-0.00017993,0.00012708
 ,0.00000005,0.00009720,-0.00014329,-0.00005845,-0.00000826,-0.00006476
 ,0.00013723,0.00000687,-0.00002819,-0.00003069,0.00003162,0.00003138,-
 0.00009239,-0.00000137,-0.00002313,-0.00000347,-0.00000140,-0.00000187
 ,-0.00001734,0.00000924,-0.00001416,-0.00000257,0.01182995,-0.00184426
 ,-0.00815142,0.00121677,-0.00481211,0.00298804,0.13125961,-0.08069947,
 -0.24838184,-0.00088053,0.00045082,0.00028580,0.00047100,-0.00013071,-
 0.00062400,0.00394103,-0.00732273,-0.00412544,-0.14779079,0.09051264,0
 .25607103,-0.00089962,0.00103465,-0.00003041,-0.00012465,-0.00018087,-
 0.00030335,-0.00007402,0.00006888,0.00020807,-0.00003112,0.00000792,-0
 .00008949,0.00004556,-0.00009374,0.00007372,0.00000885,-0.00002216,-0.
 00006086,-0.00003964,0.00005051,0.00000336,-0.00000833,0.00004871,0.00
 001136,-0.00001037,0.00000250,0.00000409,0.00003867,-0.00006304,0.0000
 0292,-0.00000072,-0.00003841,0.00002109,-0.00001025,-0.00002121,-0.000
 00612,-0.00000465,-0.00001589,0.00000134,-0.00000547,-0.00089160,0.000
 18875,-0.00017228,0.00000864,0.00012833,-0.00013504,0.00004075,-0.0002
 1213,0.00009830,0.00001613,-0.00008310,-0.00000277,0.00003009,-0.00001
 667,-0.00003365,0.00007317,0.00001416,0.00002576,-0.00001817,-0.000006
 97,-0.00008302,-0.00000581,0.00004545,-0.00003381,0.00000634,-0.000028
 88,-0.00003362,0.00002165,0.00000325,-0.00000388,0.00000824,-0.0000089
 7,-0.00522000,0.01500347,0.01075647,0.00761556,-0.03029157,-0.02198326
 ,-0.02988506,-0.01310791,0.03105706,-0.14440709,-0.09427535,-0.0136398
 0,-0.00033163,-0.00497303,0.00535119,-0.18783305,0.03453595,0.13548479
 ,0.00025326,-0.00584623,0.00448786,0.57908210,0.00179287,-0.00015901,-
 0.00053140,0.00002496,-0.00007921,0.00080135,-0.00034676,0.00027234,-0
 .00034346,-0.00012186,-0.00037916,0.00008119,-0.00001114,0.00026706,0.
 00023695,0.00001797,0.00033601,0.00016443,0.00001796,-0.00000464,-0.00
 005945,0.00014960,-0.00024801,0.00007539,0.00002647,0.00001905,0.00001
 670,-0.00017284,-0.00004419,-0.00027282,0.00000661,-0.00001698,0.00002
 188,-0.00000354,-0.00001913,-0.00001761,-0.00000221,-0.00002124,-0.000
 00079,0.00045877,0.00065844,0.00023685,0.00002343,0.00017156,0.0001012
 2,-0.00031644,0.00026203,0.00003501,-0.00035878,-0.00000252,0.00012840
 ,-0.00010703,-0.00031515,0.00025845,0.00011392,-0.00018807,0.00017572,
 0.00001532,0.00000302,-0.00000019,0.00007386,0.00010960,-0.00023292,-0
 .00003629,0.00002732,-0.00001366,-0.00002088,-0.00002525,-0.00002113,-
 0.00001733,0.00000260,0.00000482,0.01436732,-0.05341857,-0.05227962,-0
 .07275112,-0.03547181,0.03965466,0.02894852,0.07303934,0.01891493,-0.0
 3938803,-0.29800098,-0.13110717,-0.00490140,0.00155389,-0.00064994,-0.
 01974503,-0.16189129,-0.04295647,-0.00622216,0.00012600,-0.00066323,0.
 21974338,0.63870181,0.00156322,-0.00041537,-0.00114440,0.00037037,0.00
 030809,0.00086428,-0.00009812,0.00015824,-0.00051318,-0.00016034,-0.00
 031375,0.00014622,-0.00004506,0.00039478,0.00016576,-0.00001272,0.0003
 3270,0.00019675,0.00004339,-0.00001633,-0.00007949,0.00014675,-0.00027
 770,0.00005608,0.00001486,0.00001212,-0.00000137,-0.00018705,0.0000285
 9,-0.00024564,0.00000640,0.00000637,0.00000624,0.00000704,0.00000620,-
 0.00000624,-0.00000027,-0.00000518,-0.00000642,0.00021892,0.00116780,0
 .00021335,0.00038188,0.00019357,0.00002095,-0.00025915,0.00022406,0.00
 027996,-0.00043196,0.00004033,0.00011481,0.00004728,-0.00019949,0.0000
 6290,0.00016041,-0.00025952,0.00019087,-0.00001069,0.00000873,0.000005
 40,0.00020207,0.00009588,-0.00027769,0.00003564,0.00001140,0.00004748,
 0.00001269,-0.00004186,-0.00002061,0.00000171,-0.00000821,0.00000476,0
 .00906199,-0.05303333,-0.06065803,-0.05596155,-0.00515694,0.06402096,0
 .06467345,0.06451045,-0.00689872,0.03045571,-0.07537913,-0.17494008,0.
 00568421,-0.00035839,0.00300171,0.09132573,-0.09910407,-0.25839624,0.0
 0400750,-0.00115433,0.00399265,-0.23995139,0.14700519,0.54104530,-0.00
 028044,0.00064638,0.00080470,-0.00032095,-0.00017688,0.00013510,0.0000
 1253,0.00029196,-0.00000712,0.00003686,-0.00002021,-0.00000523,0.00003
 962,-0.00009719,-0.00002816,-0.00000846,-0.00001089,-0.00001806,-0.000
 01545,0.00000902,-0.00002180,-0.00000037,0.00001933,-0.00001990,-0.000
 01980,0.00001174,0.00001258,0.00002526,-0.00004181,-0.00000052,0.00000
 269,-0.00000851,0.00000417,-0.00001851,-0.00002345,-0.00000647,-0.0000
 0355,-0.00001359,0.00000242,0.00008871,-0.00016884,0.00017783,-0.00011
 681,-0.00001842,-0.00001499,-0.00010997,0.00006175,-0.00006493,0.00000
 809,-0.00001306,0.00000589,0.00003199,0.00000597,0.00005984,-0.0000069
 2,0.00000050,0.00000611,0.00001854,0.00000999,-0.00001556,-0.00002575,
 0.00001072,-0.00000722,-0.00002307,0.00001890,-0.00001537,-0.00001608,
 0.00000336,-0.00000052,-0.00000922,0.00000649,-0.00000114,0.00021856,-
 0.00601548,0.00380865,-0.00815383,0.01131531,0.02305687,-0.00050834,-0
 .00049152,-0.00085109,-0.14576107,0.04233102,0.13340077,-0.00121001,0.
 00146241,-0.00271643,0.00366848,-0.00438524,0.00190304,-0.00049543,0.0
 0045933,-0.00041062,0.00956950,-0.00553185,-0.00846611,0.14446639,-0.0
 0018615,0.00047844,0.00069648,-0.00012793,-0.00007265,0.00012825,0.000
 05116,0.00009587,-0.00001977,0.00000741,-0.00003388,-0.00000556,0.0000
 1077,0.00002636,-0.00002560,0.00001737,0.00001010,0.00000512,-0.000009
 55,0.00000147,0.00001140,0.00001323,-0.00002661,-0.00001084,-0.0000086
 8,0.00000339,0.00000668,0.00000376,-0.00002984,-0.00002162,-0.00000322
 ,-0.00000840,0.00000744,-0.00000658,-0.00000436,0.00000428,-0.00000581
 ,-0.00000276,0.00000396,-0.00003493,-0.00007012,0.00003500,0.00002369,
 0.00001350,-0.00002303,-0.00003069,-0.00000779,-0.00000289,-0.00000307
 ,0.00001183,-0.00000820,-0.00001352,0.00000677,-0.00001986,-0.00000804
 ,0.00000966,0.00000464,0.00000202,-0.00000443,-0.00000437,-0.00000350,
 -0.00000115,0.00000309,0.00000571,-0.00000296,0.00000182,-0.00000283,0
 .00000210,0.00000188,0.00000012,-0.00000174,-0.00000170,-0.00597502,0.
 00003215,-0.00083865,-0.01276500,0.01109329,0.01757131,-0.00051184,-0.
 00106521,0.00048185,0.04228927,-0.09722419,-0.08193226,0.00233780,-0.0
 0013707,0.00147372,-0.00466565,-0.00287895,-0.00468847,0.00044430,-0.0
 0023412,0.00035723,0.01873075,-0.00305186,-0.02607363,-0.04186858,0.09
 372804,-0.00019726,-0.00053366,-0.00034683,0.00011218,0.00004661,-0.00
 009129,0.00007992,-0.00010740,-0.00000919,0.00000543,0.00007709,0.0000
 0955,-0.00002194,0.00000396,-0.00003359,-0.00001494,-0.00004079,0.0000
 0732,0.00001979,-0.00002169,-0.00000171,-0.00002821,0.00002541,-0.0000
 0067,-0.00000403,-0.00001099,-0.00001114,0.00000125,0.00004567,0.00004
 555,-0.00000127,0.00002471,-0.00002248,0.00000997,0.00001414,0.0000043
 5,0.00000766,0.00001881,-0.00000263,0.00002015,0.00016714,-0.00006037,
 0.00002003,-0.00002761,0.00004886,0.00005452,-0.00001316,0.00004987,-0
 .00000715,0.00001698,-0.00002112,-0.00000785,0.00000302,-0.00003765,0.
 00001558,-0.00001655,-0.00000166,-0.00001126,0.00000285,0.00000065,0.0
 0002185,0.00000102,-0.00000872,0.00000312,-0.00000988,0.00000750,0.000
 01596,-0.00000424,-0.00000688,0.00001372,-0.00000372,0.00000124,0.0043
 6496,-0.00055735,0.00374032,0.00365367,-0.00714261,-0.00393963,-0.0008
 0194,0.00060499,0.00034676,0.13331913,-0.08170091,-0.25074559,-0.00215
 119,0.00214152,-0.00109033,0.00160479,-0.00502589,0.00328723,-0.000417
 62,0.00035425,-0.00055701,0.01095540,-0.00136480,-0.00668497,-0.148318
 59,0.09172050,0.25785084,0.00004446,-0.00092146,-0.00075468,0.00007925
 ,0.00003986,-0.00000131,-0.00041618,-0.00003291,0.00010010,0.00001400,
 -0.00007369,0.00001582,0.00002927,-0.00004923,0.00000952,0.00000852,0.
 00005131,-0.00000395,-0.00000255,0.00000755,-0.00000201,0.00003860,-0.
 00002957,-0.00000814,-0.00001566,0.00000109,0.00000615,-0.00002601,-0.
 00003291,-0.00003721,0.00000444,-0.00000659,0.00000537,-0.00000238,-0.
 00001304,-0.00000920,-0.00000169,-0.00000810,0.00000014,0.00005790,-0.
 00014013,0.00007261,-0.00004164,0.00004269,-0.00001221,-0.00006604,0.0
 0002856,-0.00002679,-0.00000792,0.00001576,0.00001669,0.00000831,-0.00
 004318,0.00000508,-0.00000282,0.00001401,0.00001490,0.00000872,-0.0000
 0943,-0.00001264,-0.00003166,0.00002360,-0.00000574,-0.00001534,-0.000
 00189,-0.00002174,-0.00001299,-0.00000262,-0.00000215,-0.00001010,-0.0
 0000458,-0.00000508,-0.00023777,-0.00469897,0.00563993,-0.00101724,0.0
 0038271,0.00041262,-0.00026356,-0.02525319,-0.01443427,0.00148467,-0.0
 0130175,0.00636541,-0.00044233,0.00032706,-0.00056559,-0.07918693,-0.0
 6640660,-0.02227626,-0.00122619,0.00237991,-0.00214432,0.00978846,0.01
 819474,0.01026166,0.00018169,0.00084804,0.00040772,0.07243471,0.000239
 92,-0.00061473,-0.00062374,-0.00003072,-0.00000886,0.00006156,-0.00022
 723,0.00008594,0.00016625,-0.00002743,-0.00005317,-0.00005274,0.000033
 19,-0.00009988,0.00001975,-0.00000787,-0.00000126,-0.00002468,-0.00000
 772,0.00001690,-0.00000467,0.00001102,0.00002676,-0.00000234,0.0000059
 6,0.00000650,0.00000241,0.00001308,-0.00002767,0.00001132,0.00001265,-
 0.00002044,0.00000518,-0.00000411,-0.00001355,-0.00001062,0.00000105,-
 0.00001471,-0.00000159,0.00010552,-0.00012794,0.00008779,-0.00002519,0
 .00003863,-0.00004097,-0.00007202,0.00006213,-0.00002956,0.00000025,-0
 .00001149,0.00001790,0.00001950,-0.00002056,0.00003897,-0.00001447,0.0
 0000870,0.00001297,0.00001129,-0.00001161,-0.00000360,-0.00002377,0.00
 001010,0.00000572,-0.00000765,0.00000315,-0.00001517,-0.00002232,-0.00
 000387,0.00000281,-0.00001662,0.00000241,-0.00000306,-0.00526427,0.001
 81537,-0.00046208,0.00025035,0.00048380,0.00087497,-0.00111081,-0.0110
 0099,-0.01232568,-0.00093358,0.00305641,-0.00358762,0.00038686,-0.0003
 7271,0.00031905,-0.06650862,-0.28757302,-0.12488860,0.00156687,-0.0002
 9547,0.00234846,-0.00579880,-0.00367069,-0.00142800,-0.00015014,-0.000
 42836,-0.00011207,0.07533332,0.29903680,0.00003450,0.00057090,0.000266
 16,-0.00003394,-0.00002080,-0.00004359,0.00002774,-0.00001276,-0.00010
 451,-0.00000171,-0.00001113,0.00003797,-0.00001172,0.00003183,0.000033
 31,-0.00000865,0.00003696,0.00001300,0.00000565,0.00000274,-0.00001816
 ,0.00000502,-0.00002584,0.00001711,0.00000799,0.00000173,-0.00000441,-
 0.00002299,0.00000808,-0.00002579,0.00000121,0.00000459,0.00000087,0.0
 0000284,0.00000046,-0.00000494,0.00000198,-0.00000233,-0.00000327,-0.0
 0007751,-0.00007322,0.00002068,-0.00001737,0.00001288,-0.00001010,0.00
 000751,-0.00001881,-0.00004001,0.00001490,0.00000181,0.00002797,0.0000
 1822,-0.00002893,-0.00000239,-0.00000534,0.00001451,-0.00000960,0.0000
 0363,0.00000301,-0.00000308,-0.00002105,0.00000373,0.00001011,-0.00000
 878,-0.00000274,-0.00001600,-0.00000244,0.00000316,0.00000173,-0.00000
 724,-0.00000211,-0.00000153,0.00544386,-0.00068351,0.00301566,0.000407
 53,0.00086537,-0.00066795,0.00522508,0.01254215,0.01047640,0.00661214,
 -0.00323647,-0.00081896,-0.00053766,0.00031798,-0.00044753,-0.02241957
 ,-0.12506455,-0.12723519,-0.00273930,0.00150933,-0.00112115,-0.0092479
 7,-0.02614963,-0.00620393,-0.00040479,-0.00118259,-0.00059913,0.019681
 14,0.13830644,0.12442191,-0.00046159,0.00029385,-0.00040548,0.00003281
 ,-0.00002058,-0.00011240,-0.00006758,0.00002450,0.00000472,-0.00003296
 ,-0.00002349,0.00001478,0.00001212,-0.00002938,0.00004157,-0.00001838,
 0.00001679,-0.00001147,-0.00000010,0.00000881,-0.00001883,0.00000568,0
 .00001566,0.00001046,0.00000904,0.00000624,-0.00000469,0.00000490,-0.0
 0001469,-0.00000528,0.00000841,-0.00000572,0.00000318,-0.00000615,-0.0
 0000992,-0.00000852,0.00000152,-0.00001194,-0.00000258,-0.00002825,-0.
 00012783,0.00010443,-0.00004519,0.00002260,-0.00002188,-0.00005056,0.0
 0003570,-0.00004640,0.00001805,-0.00001708,0.00003450,0.00003034,-0.00
 003269,0.00004134,-0.00001094,0.00001121,-0.00000094,0.00000999,0.0000
 0200,-0.00000563,-0.00002380,0.00000511,0.00000672,-0.00001490,0.00000
 672,-0.00001916,-0.00001388,0.00000109,0.00000253,-0.00001469,0.000001
 96,-0.00000163,0.00027651,0.00090885,-0.00050128,0.00433816,-0.0033574
 9,0.00207172,0.00279734,-0.00049785,0.00567370,-0.00093761,-0.00097148
 ,0.00551443,-0.00028482,-0.00006496,0.00015382,-0.00824980,-0.01327887
 ,0.00294961,-0.00064317,-0.00050005,0.00019671,-0.23714227,-0.13392105
 ,0.08690154,-0.00126486,0.00144516,-0.00272354,-0.00115598,0.00226254,
 -0.00193294,0.24292263,0.00045243,-0.00016579,0.00031707,-0.00007787,0
 .00000760,0.00013391,-0.00003536,0.00004775,0.00002681,-0.00002921,0.0
 0000017,-0.00003028,-0.00000520,-0.00004446,0.00004558,-0.00000870,0.0
 0000314,-0.00001722,-0.00000133,0.00001271,-0.00000404,-0.00000583,0.0
 0003372,0.00001887,0.00002412,0.00000516,-0.00000191,0.00001362,-0.000
 00433,0.00000467,0.00000569,-0.00001316,0.00000974,-0.00000164,-0.0000
 0590,-0.00000878,0.00000024,-0.00001351,-0.00000086,0.00007569,0.00000
 978,-0.00002260,0.00000192,0.00002429,-0.00003845,-0.00000091,0.000003
 85,-0.00000795,-0.00000151,-0.00001354,0.00002092,0.00000913,-0.000021
 49,0.00002172,-0.00000399,0.00000412,-0.00000502,0.00000367,-0.0000023
 6,0.00000103,-0.00000874,-0.00000052,0.00000296,0.00000046,0.00000453,
 -0.00000343,-0.00000756,-0.00000137,0.00000384,-0.00000922,0.00000255,
 0.00000001,0.00081840,-0.00061383,-0.00055282,-0.00290539,-0.00224170,
 -0.00602493,-0.00089071,0.00201411,-0.00449568,-0.02534574,-0.01019485
 ,0.01362655,-0.00106665,-0.00071696,0.00058726,0.01079727,0.01091943,-
 0.00636758,0.00046336,0.00026231,-0.00020484,-0.13378792,-0.15854229,0
 .04872073,0.00237151,-0.00022651,0.00142466,0.00133965,-0.00028259,0.0
 0227776,0.14781628,0.15974994,-0.00049068,0.00035437,-0.00033260,0.000
 01796,-0.00007697,-0.00003443,0.00003798,-0.00005468,0.00001056,-0.000
 03379,0.00002659,0.00001196,-0.00001430,0.00004200,0.00003031,-0.00000
 401,-0.00000344,0.00000290,0.00001119,-0.00001243,-0.00000013,-0.00000
 147,0.00001574,0.00000524,0.00000186,-0.00000252,-0.00000861,0.0000061
 8,0.00000679,0.00000290,-0.00000096,0.00000802,-0.00000447,-0.00000081
 ,0.00000294,0.00000232,0.00000080,0.00000388,0.00000080,-0.00008802,-0
 .00000294,0.00006660,0.00000689,0.00001513,0.00001731,-0.00002509,0.00
 001645,0.00000575,-0.00000727,0.00000670,-0.00000267,0.00000623,-0.000
 02019,-0.00000977,-0.00000287,-0.00000324,0.00001335,-0.00000453,-0.00
 000491,-0.00000292,0.00000373,0.00000009,-0.00000799,-0.00000283,-0.00
 000170,0.00000143,0.00000384,0.00000052,-0.00000443,0.00000554,-0.0000
 0237,0.00000095,-0.00039727,-0.00052724,-0.00100349,0.00236338,-0.0055
 6688,0.00214801,0.00536256,-0.00494260,-0.00088986,-0.01398453,-0.0110
 9525,0.01066161,-0.00063073,-0.00039969,0.00024166,0.02255317,0.018410
 01,-0.00326084,0.00101519,0.00083475,-0.00048820,0.08687075,0.04875117
 ,-0.09835946,-0.00198335,0.00234438,-0.00112744,-0.00269161,0.00133524
 ,-0.00096165,-0.09790314,-0.04945772,0.09327533||0.00000097,0.00000529
 ,-0.00000148,0.00000043,-0.00000077,-0.00000195,0.00000651,-0.00000385
 ,0.00000864,-0.00000476,0.00001262,-0.00000298,-0.00000335,-0.00001091
 ,-0.00000795,-0.00000343,-0.00001099,-0.00000605,0.00000054,-0.0000007
 2,0.00000024,-0.00000598,0.00001210,-0.00000410,0.00000118,-0.00000074
 ,0.00000160,0.00000828,-0.00000175,0.00001105,0.00000016,0.00000200,0.
 00000024,0.00000106,-0.00000119,0.00000071,-0.00000108,0.00000073,-0.0
 0000200,-0.00000756,-0.00001025,0.00002023,-0.00001412,0.00001019,-0.0
 0001448,0.00002095,-0.00000436,-0.00000526,0.00002364,-0.00000116,-0.0
 0000369,0.00000298,-0.00000018,0.00000072,-0.00001394,0.00001353,-0.00
 001186,-0.00000193,0.00000107,0.00000005,-0.00001014,-0.00001043,0.000
 01784,-0.00000154,0.,0.00000081,0.00000160,-0.00000094,0.00000072,0.00
 000120,0.00000020,-0.00000169,-0.00000224,0.00000180,0.00000239,0.0000
 0035,-0.00000067,-0.00000176,-0.00000182,-0.00000089,0.00000012,0.0000
 0166,-0.00000240,0.00000125,-0.00000042,0.00000076,0.00000004,0.000003
 18,-0.00000068,0.00000104,0.00000008,-0.00000004,-0.00000064,-0.000001
 57,0.00000271,-0.00000161,-0.00000051,0.00000065,0.00000035,-0.0000001
 5,-0.00000055,-0.00000062,-0.00000023,-0.00000019,0.00000010|||@


 THERE'S NOTHING SO GREAT AS THE GREAT OUTDOORS.

                                       -- ZIGGY
 Job cpu time:  0 days  0 hours  6 minutes 24.0 seconds.
 File lengths (MBytes):  RWF=    350 Int=      0 D2E=      0 Chk=      7 Scr=      1
 Normal termination of Gaussian 09 at Tue Sep 07 06:52:51 2021.
