 Entering Link 1 = b:\programy\g09w\l1.exe PID=     14980.
  
 Copyright (c) 1988,1990,1992,1993,1995,1998,2003,2009, Gaussian, Inc.
                  All Rights Reserved.
  
 This is part of the Gaussian(R) 09 program.  It is based on
 the Gaussian(R) 03 system (copyright 2003, Gaussian, Inc.),
 the Gaussian(R) 98 system (copyright 1998, Gaussian, Inc.),
 the Gaussian(R) 94 system (copyright 1995, Gaussian, Inc.),
 the Gaussian 92(TM) system (copyright 1992, Gaussian, Inc.),
 the Gaussian 90(TM) system (copyright 1990, Gaussian, Inc.),
 the Gaussian 88(TM) system (copyright 1988, Gaussian, Inc.),
 the Gaussian 86(TM) system (copyright 1986, Carnegie Mellon
 University), and the Gaussian 82(TM) system (copyright 1983,
 Carnegie Mellon University). Gaussian is a federally registered
 trademark of Gaussian, Inc.
  
 This software contains proprietary and confidential information,
 including trade secrets, belonging to Gaussian, Inc.
  
 This software is provided under written license and may be
 used, copied, transmitted, or stored only in accord with that
 written license.
  
 The following legend is applicable only to US Government
 contracts under FAR:
  
                    RESTRICTED RIGHTS LEGEND
  
 Use, reproduction and disclosure by the US Government is
 subject to restrictions as set forth in subparagraphs (a)
 and (c) of the Commercial Computer Software - Restricted
 Rights clause in FAR 52.227-19.
  
 Gaussian, Inc.
 340 Quinnipiac St., Bldg. 40, Wallingford CT 06492
  
  
 ---------------------------------------------------------------
 Warning -- This program may not be used in any manner that
 competes with the business of Gaussian, Inc. or will provide
 assistance to any competitor of Gaussian, Inc.  The licensee
 of this program is prohibited from giving any competitor of
 Gaussian, Inc. access to this program.  By using this program,
 the user acknowledges that Gaussian, Inc. is engaged in the
 business of creating and licensing software in the field of
 computational chemistry and represents and warrants to the
 licensee that it is not a competitor of Gaussian, Inc. and that
 it will not use this program in any manner prohibited above.
 ---------------------------------------------------------------
  

 Cite this work as:
 Gaussian 09, Revision A.02,
 M. J. Frisch, G. W. Trucks, H. B. Schlegel, G. E. Scuseria, 
 M. A. Robb, J. R. Cheeseman, G. Scalmani, V. Barone, B. Mennucci, 
 G. A. Petersson, H. Nakatsuji, M. Caricato, X. Li, H. P. Hratchian, 
 A. F. Izmaylov, J. Bloino, G. Zheng, J. L. Sonnenberg, M. Hada, 
 M. Ehara, K. Toyota, R. Fukuda, J. Hasegawa, M. Ishida, T. Nakajima, 
 Y. Honda, O. Kitao, H. Nakai, T. Vreven, J. A. Montgomery, Jr., 
 J. E. Peralta, F. Ogliaro, M. Bearpark, J. J. Heyd, E. Brothers, 
 K. N. Kudin, V. N. Staroverov, R. Kobayashi, J. Normand, 
 K. Raghavachari, A. Rendell, J. C. Burant, S. S. Iyengar, J. Tomasi, 
 M. Cossi, N. Rega, J. M. Millam, M. Klene, J. E. Knox, J. B. Cross, 
 V. Bakken, C. Adamo, J. Jaramillo, R. Gomperts, R. E. Stratmann, 
 O. Yazyev, A. J. Austin, R. Cammi, C. Pomelli, J. W. Ochterski, 
 R. L. Martin, K. Morokuma, V. G. Zakrzewski, G. A. Voth, 
 P. Salvador, J. J. Dannenberg, S. Dapprich, A. D. Daniels, 
 O. Farkas, J. B. Foresman, J. V. Ortiz, J. Cioslowski, 
 and D. J. Fox, Gaussian, Inc., Wallingford CT, 2009.
 
 ******************************************
 Gaussian 09:  IA32W-G09RevA.02 11-Jun-2009
                07-Sep-2021 
 ******************************************
 %nprocshared=12
 Will use up to   12 processors via shared memory.
 ----------------------------------------------
 # opt freq=noraman hf/6-311g geom=connectivity
 ----------------------------------------------
 1/18=20,19=15,38=1,57=2/1,3;
 2/9=110,12=2,17=6,18=5,40=1/2;
 3/5=4,6=6,11=9,16=1,25=1,30=1,71=1/1,2,3;
 4//1;
 5/5=2,38=5/2;
 6/7=2,8=2,9=2,10=2,28=1/1;
 7//1,2,3,16;
 1/18=20,19=15/3(2);
 2/9=110/2;
 99//99;
 2/9=110/2;
 3/5=4,6=6,11=9,16=1,25=1,30=1,71=1/1,2,3;
 4/5=5,16=3/1;
 5/5=2,38=5/2;
 7//1,2,3,16;
 1/18=20,19=15/3(-5);
 2/9=110/2;
 6/7=2,8=2,9=2,10=2,19=2,28=1/1;
 99/9=1/99;
 -----
 M0001
 -----
 Symbolic Z-matrix:
 Charge =  0 Multiplicity = 1
 C                     0.273     0.69994   0.19663 
 H                     0.70794   1.69285   0.4901 
 C                    -1.22385   0.79393   0.35697 
 C                    -2.06144  -0.28691   0.07184 
 C                    -1.78665   1.98916   0.81021 
 C                    -3.43656  -0.17432   0.23522 
 H                    -1.6148   -1.23387  -0.27027 
 C                    -3.16328   2.0995    0.97327 
 H                    -1.14268   2.84636   1.03972 
 C                    -3.99033   1.01969   0.68552 
 H                    -4.08348  -1.0284    0.01032 
 H                    -3.5954    3.04017   1.32987 
 H                    -5.07379   1.10811   0.81438 
 C                     0.729     0.48673  -1.22569 
 C                    -0.13983   0.60362  -2.31037 
 C                     2.08195   0.225    -1.46621 
 C                     0.33283   0.45566  -3.61036 
 H                    -1.20346   0.81269  -2.13883 
 C                     2.55116   0.07491  -2.76451 
 H                     2.7723    0.13466  -0.61896 
 C                     1.6769    0.18985  -3.84091 
 H                    -0.35967   0.55092  -4.45327 
 H                     3.61177  -0.13308  -2.93991 
 H                     2.04713   0.07253  -4.86424 
 C                     0.83768  -0.34805   1.12541 
 C                     1.62618   0.04716   2.208 
 C                     0.5895   -1.70722   0.92287 
 C                     2.16232  -0.90447   3.06876 
 H                     1.82514   1.11093   2.38312 
 C                     1.12899  -2.65626   1.78244 
 H                    -0.05244  -2.01414   0.08286 
 C                     1.91851  -2.25666   2.85567 
 H                     2.779    -0.5864    3.9155 
 H                     0.93146  -3.71988   1.61334 
 H                     2.3449   -3.0047    3.53155 
 

 GradGradGradGradGradGradGradGradGradGradGradGradGradGradGradGradGradGrad
 Berny optimization.
 Initialization pass.
                           ----------------------------
                           !    Initial Parameters    !
                           ! (Angstroms and Degrees)  !
 --------------------------                            --------------------------
 ! Name  Definition              Value          Derivative Info.                !
 --------------------------------------------------------------------------------
 ! R1    R(1,2)                  1.123          estimate D2E/DX2                !
 ! R2    R(1,3)                  1.5083         estimate D2E/DX2                !
 ! R3    R(1,14)                 1.5088         estimate D2E/DX2                !
 ! R4    R(1,25)                 1.5099         estimate D2E/DX2                !
 ! R5    R(3,4)                  1.3968         estimate D2E/DX2                !
 ! R6    R(3,5)                  1.3967         estimate D2E/DX2                !
 ! R7    R(4,6)                  1.3894         estimate D2E/DX2                !
 ! R8    R(4,7)                  1.1015         estimate D2E/DX2                !
 ! R9    R(5,8)                  1.3906         estimate D2E/DX2                !
 ! R10   R(5,9)                  1.0964         estimate D2E/DX2                !
 ! R11   R(6,10)                 1.3911         estimate D2E/DX2                !
 ! R12   R(6,11)                 1.0948         estimate D2E/DX2                !
 ! R13   R(8,10)                 1.3902         estimate D2E/DX2                !
 ! R14   R(8,12)                 1.0949         estimate D2E/DX2                !
 ! R15   R(10,13)                1.0947         estimate D2E/DX2                !
 ! R16   R(14,15)                1.3947         estimate D2E/DX2                !
 ! R17   R(14,16)                1.3989         estimate D2E/DX2                !
 ! R18   R(15,17)                1.3911         estimate D2E/DX2                !
 ! R19   R(15,18)                1.0975         estimate D2E/DX2                !
 ! R20   R(16,19)                1.3886         estimate D2E/DX2                !
 ! R21   R(16,20)                1.0966         estimate D2E/DX2                !
 ! R22   R(17,21)                1.3894         estimate D2E/DX2                !
 ! R23   R(17,22)                1.095          estimate D2E/DX2                !
 ! R24   R(19,21)                1.3915         estimate D2E/DX2                !
 ! R25   R(19,23)                1.095          estimate D2E/DX2                !
 ! R26   R(21,24)                1.0946         estimate D2E/DX2                !
 ! R27   R(25,26)                1.3964         estimate D2E/DX2                !
 ! R28   R(25,27)                1.3964         estimate D2E/DX2                !
 ! R29   R(26,28)                1.3907         estimate D2E/DX2                !
 ! R30   R(26,29)                1.0963         estimate D2E/DX2                !
 ! R31   R(27,30)                1.3895         estimate D2E/DX2                !
 ! R32   R(27,31)                1.1009         estimate D2E/DX2                !
 ! R33   R(28,32)                1.3904         estimate D2E/DX2                !
 ! R34   R(28,33)                1.0947         estimate D2E/DX2                !
 ! R35   R(30,32)                1.391          estimate D2E/DX2                !
 ! R36   R(30,34)                1.0949         estimate D2E/DX2                !
 ! R37   R(32,35)                1.0946         estimate D2E/DX2                !
 ! A1    A(2,1,3)              107.5459         estimate D2E/DX2                !
 ! A2    A(2,1,14)             104.7284         estimate D2E/DX2                !
 ! A3    A(2,1,25)             107.9429         estimate D2E/DX2                !
 ! A4    A(3,1,14)             114.1392         estimate D2E/DX2                !
 ! A5    A(3,1,25)             110.4264         estimate D2E/DX2                !
 ! A6    A(14,1,25)            111.6395         estimate D2E/DX2                !
 ! A7    A(1,3,4)              121.6786         estimate D2E/DX2                !
 ! A8    A(1,3,5)              119.1904         estimate D2E/DX2                !
 ! A9    A(4,3,5)              119.1297         estimate D2E/DX2                !
 ! A10   A(3,4,6)              120.4499         estimate D2E/DX2                !
 ! A11   A(3,4,7)              119.0447         estimate D2E/DX2                !
 ! A12   A(6,4,7)              120.4995         estimate D2E/DX2                !
 ! A13   A(3,5,8)              120.3215         estimate D2E/DX2                !
 ! A14   A(3,5,9)              120.0194         estimate D2E/DX2                !
 ! A15   A(8,5,9)              119.6591         estimate D2E/DX2                !
 ! A16   A(4,6,10)             120.1081         estimate D2E/DX2                !
 ! A17   A(4,6,11)             119.8329         estimate D2E/DX2                !
 ! A18   A(10,6,11)            120.0589         estimate D2E/DX2                !
 ! A19   A(5,8,10)             120.1987         estimate D2E/DX2                !
 ! A20   A(5,8,12)             119.8056         estimate D2E/DX2                !
 ! A21   A(10,8,12)            119.9957         estimate D2E/DX2                !
 ! A22   A(6,10,8)             119.792          estimate D2E/DX2                !
 ! A23   A(6,10,13)            120.0956         estimate D2E/DX2                !
 ! A24   A(8,10,13)            120.1124         estimate D2E/DX2                !
 ! A25   A(1,14,15)            122.2118         estimate D2E/DX2                !
 ! A26   A(1,14,16)            118.7407         estimate D2E/DX2                !
 ! A27   A(15,14,16)           118.9781         estimate D2E/DX2                !
 ! A28   A(14,15,17)           120.4116         estimate D2E/DX2                !
 ! A29   A(14,15,18)           119.8784         estimate D2E/DX2                !
 ! A30   A(17,15,18)           119.71           estimate D2E/DX2                !
 ! A31   A(14,16,19)           120.5164         estimate D2E/DX2                !
 ! A32   A(14,16,20)           119.4343         estimate D2E/DX2                !
 ! A33   A(19,16,20)           120.0488         estimate D2E/DX2                !
 ! A34   A(15,17,21)           120.2715         estimate D2E/DX2                !
 ! A35   A(15,17,22)           119.6828         estimate D2E/DX2                !
 ! A36   A(21,17,22)           120.0456         estimate D2E/DX2                !
 ! A37   A(16,19,21)           120.1344         estimate D2E/DX2                !
 ! A38   A(16,19,23)           119.8413         estimate D2E/DX2                !
 ! A39   A(21,19,23)           120.0243         estimate D2E/DX2                !
 ! A40   A(17,21,19)           119.6868         estimate D2E/DX2                !
 ! A41   A(17,21,24)           120.1901         estimate D2E/DX2                !
 ! A42   A(19,21,24)           120.1231         estimate D2E/DX2                !
 ! A43   A(1,25,26)            119.4482         estimate D2E/DX2                !
 ! A44   A(1,25,27)            121.3243         estimate D2E/DX2                !
 ! A45   A(26,25,27)           119.2275         estimate D2E/DX2                !
 ! A46   A(25,26,28)           120.2572         estimate D2E/DX2                !
 ! A47   A(25,26,29)           120.0628         estimate D2E/DX2                !
 ! A48   A(28,26,29)           119.68           estimate D2E/DX2                !
 ! A49   A(25,27,30)           120.4029         estimate D2E/DX2                !
 ! A50   A(25,27,31)           119.0567         estimate D2E/DX2                !
 ! A51   A(30,27,31)           120.5331         estimate D2E/DX2                !
 ! A52   A(26,28,32)           120.2004         estimate D2E/DX2                !
 ! A53   A(26,28,33)           119.808          estimate D2E/DX2                !
 ! A54   A(32,28,33)           119.9916         estimate D2E/DX2                !
 ! A55   A(27,30,32)           120.0981         estimate D2E/DX2                !
 ! A56   A(27,30,34)           119.8611         estimate D2E/DX2                !
 ! A57   A(32,30,34)           120.0408         estimate D2E/DX2                !
 ! A58   A(28,32,30)           119.8116         estimate D2E/DX2                !
 ! A59   A(28,32,35)           120.1101         estimate D2E/DX2                !
 ! A60   A(30,32,35)           120.0781         estimate D2E/DX2                !
 ! D1    D(2,1,3,4)           -179.8658         estimate D2E/DX2                !
 ! D2    D(2,1,3,5)             -0.2812         estimate D2E/DX2                !
 ! D3    D(14,1,3,4)            64.4198         estimate D2E/DX2                !
 ! D4    D(14,1,3,5)          -115.9957         estimate D2E/DX2                !
 ! D5    D(25,1,3,4)           -62.3152         estimate D2E/DX2                !
 ! D6    D(25,1,3,5)           117.2693         estimate D2E/DX2                !
 ! D7    D(2,1,14,15)         -106.682          estimate D2E/DX2                !
 ! D8    D(2,1,14,16)           70.255          estimate D2E/DX2                !
 ! D9    D(3,1,14,15)           10.6655         estimate D2E/DX2                !
 ! D10   D(3,1,14,16)         -172.3975         estimate D2E/DX2                !
 ! D11   D(25,1,14,15)         136.7682         estimate D2E/DX2                !
 ! D12   D(25,1,14,16)         -46.2948         estimate D2E/DX2                !
 ! D13   D(2,1,25,26)            6.5854         estimate D2E/DX2                !
 ! D14   D(2,1,25,27)         -173.3006         estimate D2E/DX2                !
 ! D15   D(3,1,25,26)         -110.7203         estimate D2E/DX2                !
 ! D16   D(3,1,25,27)           69.3936         estimate D2E/DX2                !
 ! D17   D(14,1,25,26)         121.1654         estimate D2E/DX2                !
 ! D18   D(14,1,25,27)         -58.7206         estimate D2E/DX2                !
 ! D19   D(1,3,4,6)            179.6649         estimate D2E/DX2                !
 ! D20   D(1,3,4,7)              0.5434         estimate D2E/DX2                !
 ! D21   D(5,3,4,6)              0.0801         estimate D2E/DX2                !
 ! D22   D(5,3,4,7)           -179.0414         estimate D2E/DX2                !
 ! D23   D(1,3,5,8)           -179.662          estimate D2E/DX2                !
 ! D24   D(1,3,5,9)              0.3198         estimate D2E/DX2                !
 ! D25   D(4,3,5,8)             -0.0668         estimate D2E/DX2                !
 ! D26   D(4,3,5,9)            179.915          estimate D2E/DX2                !
 ! D27   D(3,4,6,10)            -0.0043         estimate D2E/DX2                !
 ! D28   D(3,4,6,11)          -179.8988         estimate D2E/DX2                !
 ! D29   D(7,4,6,10)           179.1043         estimate D2E/DX2                !
 ! D30   D(7,4,6,11)            -0.7902         estimate D2E/DX2                !
 ! D31   D(3,5,8,10)            -0.0223         estimate D2E/DX2                !
 ! D32   D(3,5,8,12)           179.9497         estimate D2E/DX2                !
 ! D33   D(9,5,8,10)           179.9958         estimate D2E/DX2                !
 ! D34   D(9,5,8,12)            -0.0322         estimate D2E/DX2                !
 ! D35   D(4,6,10,8)            -0.0854         estimate D2E/DX2                !
 ! D36   D(4,6,10,13)         -179.9874         estimate D2E/DX2                !
 ! D37   D(11,6,10,8)          179.8089         estimate D2E/DX2                !
 ! D38   D(11,6,10,13)          -0.0931         estimate D2E/DX2                !
 ! D39   D(5,8,10,6)             0.0987         estimate D2E/DX2                !
 ! D40   D(5,8,10,13)         -179.9994         estimate D2E/DX2                !
 ! D41   D(12,8,10,6)         -179.8732         estimate D2E/DX2                !
 ! D42   D(12,8,10,13)           0.0287         estimate D2E/DX2                !
 ! D43   D(1,14,15,17)         177.2254         estimate D2E/DX2                !
 ! D44   D(1,14,15,18)          -2.8308         estimate D2E/DX2                !
 ! D45   D(16,14,15,17)          0.2955         estimate D2E/DX2                !
 ! D46   D(16,14,15,18)       -179.7607         estimate D2E/DX2                !
 ! D47   D(1,14,16,19)        -177.4678         estimate D2E/DX2                !
 ! D48   D(1,14,16,20)           2.7773         estimate D2E/DX2                !
 ! D49   D(15,14,16,19)         -0.4302         estimate D2E/DX2                !
 ! D50   D(15,14,16,20)        179.8149         estimate D2E/DX2                !
 ! D51   D(14,15,17,21)         -0.0097         estimate D2E/DX2                !
 ! D52   D(14,15,17,22)       -179.9335         estimate D2E/DX2                !
 ! D53   D(18,15,17,21)       -179.9536         estimate D2E/DX2                !
 ! D54   D(18,15,17,22)          0.1226         estimate D2E/DX2                !
 ! D55   D(14,16,19,21)          0.2789         estimate D2E/DX2                !
 ! D56   D(14,16,19,23)       -179.7948         estimate D2E/DX2                !
 ! D57   D(20,16,19,21)       -179.9676         estimate D2E/DX2                !
 ! D58   D(20,16,19,23)         -0.0414         estimate D2E/DX2                !
 ! D59   D(15,17,21,19)         -0.1465         estimate D2E/DX2                !
 ! D60   D(15,17,21,24)        179.9286         estimate D2E/DX2                !
 ! D61   D(22,17,21,19)        179.777          estimate D2E/DX2                !
 ! D62   D(22,17,21,24)         -0.1479         estimate D2E/DX2                !
 ! D63   D(16,19,21,17)          0.0123         estimate D2E/DX2                !
 ! D64   D(16,19,21,24)        179.9372         estimate D2E/DX2                !
 ! D65   D(23,19,21,17)       -179.9138         estimate D2E/DX2                !
 ! D66   D(23,19,21,24)          0.0111         estimate D2E/DX2                !
 ! D67   D(1,25,26,28)        -179.5617         estimate D2E/DX2                !
 ! D68   D(1,25,26,29)           0.452          estimate D2E/DX2                !
 ! D69   D(27,25,26,28)          0.3267         estimate D2E/DX2                !
 ! D70   D(27,25,26,29)       -179.6595         estimate D2E/DX2                !
 ! D71   D(1,25,27,30)         179.4033         estimate D2E/DX2                !
 ! D72   D(1,25,27,31)          -1.5794         estimate D2E/DX2                !
 ! D73   D(26,25,27,30)         -0.483          estimate D2E/DX2                !
 ! D74   D(26,25,27,31)        178.5343         estimate D2E/DX2                !
 ! D75   D(25,26,28,32)          0.1083         estimate D2E/DX2                !
 ! D76   D(25,26,28,33)       -179.9663         estimate D2E/DX2                !
 ! D77   D(29,26,28,32)       -179.9055         estimate D2E/DX2                !
 ! D78   D(29,26,28,33)          0.0199         estimate D2E/DX2                !
 ! D79   D(25,27,30,32)          0.2043         estimate D2E/DX2                !
 ! D80   D(25,27,30,34)       -179.7919         estimate D2E/DX2                !
 ! D81   D(31,27,30,32)       -178.7985         estimate D2E/DX2                !
 ! D82   D(31,27,30,34)          1.2054         estimate D2E/DX2                !
 ! D83   D(26,28,32,30)         -0.3907         estimate D2E/DX2                !
 ! D84   D(26,28,32,35)        179.7299         estimate D2E/DX2                !
 ! D85   D(33,28,32,30)        179.6841         estimate D2E/DX2                !
 ! D86   D(33,28,32,35)         -0.1954         estimate D2E/DX2                !
 ! D87   D(27,30,32,28)          0.2348         estimate D2E/DX2                !
 ! D88   D(27,30,32,35)       -179.8857         estimate D2E/DX2                !
 ! D89   D(34,30,32,28)       -179.7691         estimate D2E/DX2                !
 ! D90   D(34,30,32,35)          0.1104         estimate D2E/DX2                !
 --------------------------------------------------------------------------------
 Trust Radius=3.00D-01 FncErr=1.00D-07 GrdErr=1.00D-07
 Number of steps in this run= 197 maximum allowed number of steps= 210.
 GradGradGradGradGradGradGradGradGradGradGradGradGradGradGradGradGradGrad

                          Input orientation:                          
 ---------------------------------------------------------------------
 Center     Atomic      Atomic             Coordinates (Angstroms)
 Number     Number       Type             X           Y           Z
 ---------------------------------------------------------------------
      1          6           0        0.272996    0.699936    0.196625
      2          1           0        0.707944    1.692850    0.490100
      3          6           0       -1.223849    0.793933    0.356971
      4          6           0       -2.061444   -0.286910    0.071836
      5          6           0       -1.786654    1.989155    0.810206
      6          6           0       -3.436562   -0.174315    0.235224
      7          1           0       -1.614803   -1.233875   -0.270268
      8          6           0       -3.163283    2.099498    0.973270
      9          1           0       -1.142676    2.846362    1.039716
     10          6           0       -3.990329    1.019693    0.685519
     11          1           0       -4.083482   -1.028400    0.010319
     12          1           0       -3.595400    3.040171    1.329872
     13          1           0       -5.073793    1.108114    0.814376
     14          6           0        0.729000    0.486726   -1.225688
     15          6           0       -0.139829    0.603617   -2.310374
     16          6           0        2.081955    0.225000   -1.466214
     17          6           0        0.332829    0.455661   -3.610363
     18          1           0       -1.203458    0.812694   -2.138834
     19          6           0        2.551159    0.074911   -2.764507
     20          1           0        2.772297    0.134661   -0.618962
     21          6           0        1.676897    0.189849   -3.840908
     22          1           0       -0.359666    0.550920   -4.453270
     23          1           0        3.611767   -0.133081   -2.939907
     24          1           0        2.047132    0.072528   -4.864245
     25          6           0        0.837684   -0.348048    1.125405
     26          6           0        1.626176    0.047162    2.207997
     27          6           0        0.589498   -1.707224    0.922870
     28          6           0        2.162321   -0.904472    3.068756
     29          1           0        1.825145    1.110931    2.383119
     30          6           0        1.128993   -2.656262    1.782441
     31          1           0       -0.052437   -2.014143    0.082859
     32          6           0        1.918514   -2.256661    2.855672
     33          1           0        2.778996   -0.586400    3.915500
     34          1           0        0.931462   -3.719882    1.613337
     35          1           0        2.344902   -3.004701    3.531547
 ---------------------------------------------------------------------
                    Distance matrix (angstroms):
                    1          2          3          4          5
     1  C    0.000000
     2  H    1.123025   0.000000
     3  C    1.508341   2.134853   0.000000
     4  C    2.537528   3.429855   1.396814   0.000000
     5  C    2.506138   2.532446   1.396685   2.408563   0.000000
     6  C    3.811381   4.552823   2.418352   1.389361   2.780900
     7  H    2.742517   3.813008   2.158304   1.101483   3.403657
     8  C    3.790774   3.922399   2.417794   2.778773   1.390637
     9  H    2.705934   2.248880   2.164531   3.405631   1.096443
    10  C    4.303162   4.750273   2.795053   2.409236   2.410723
    11  H    4.690497   5.531108   3.408602   2.154584   3.875678
    12  H    4.661055   4.586857   3.408280   3.873648   2.155515
    13  H    5.397813   5.820271   3.889730   3.401721   3.403166
    14  C    1.508765   2.097405   2.532352   3.173115   3.568007
    15  C    2.542586   3.122147   2.885489   3.187565   3.790748
    16  C    2.502584   2.805290   3.817856   4.449202   4.822911
    17  C    3.815286   4.299435   4.275209   4.454497   5.136657
    18  H    2.765321   3.367406   2.495958   2.613873   3.228160
    19  C    3.788005   4.075246   4.950889   5.426957   5.937973
    20  H    2.689093   2.814165   4.166085   4.901017   5.125008
    21  C    4.304974   4.685671   5.138233   5.432500   6.071783
    22  H    4.695103   5.184661   4.893290   4.906587   5.639947
    23  H    4.656086   4.850893   5.925533   6.424919   6.907256
    24  H    5.399407   5.752206   6.203292   6.432300   7.111313
    25  C    1.509892   2.141427   2.478817   3.085237   3.528317
    26  C    2.510543   2.550022   3.479456   4.274731   4.168041
    27  C    2.534171   3.429551   3.140741   3.125546   4.395681
    28  C    3.793786   3.938370   4.658810   5.215659   5.391524
    29  H    2.712718   2.273827   3.674524   4.733028   4.036140
    30  C    3.809410   4.556556   4.412672   4.326532   5.570111
    31  H    2.735886   3.806024   3.054936   2.649446   4.423001
    32  C    4.303454   4.760257   5.042229   5.241156   5.994927
    33  H    4.665268   4.606257   5.530933   6.188158   6.092741
    34  H    4.687796   5.532566   5.157359   4.808222   6.373875
    35  H    5.398040   5.830696   6.102749   6.226706   7.029513
                    6          7          8          9         10
     6  C    0.000000
     7  H    2.167256   0.000000
     8  C    2.406163   3.880149   0.000000
     9  H    3.877320   4.311299   2.155243   0.000000
    10  C    1.391071   3.411044   1.390246   3.401662   0.000000
    11  H    1.094783   2.493056   3.399675   4.972100   2.158531
    12  H    3.399471   4.975005   1.094877   2.477419   2.157195
    13  H    2.158834   4.315782   2.158273   4.304181   1.094677
    14  C    4.463536   3.060507   4.752507   3.768701   5.119456
    15  C    4.237181   3.116722   4.707574   4.154360   4.896411
    16  C    5.788642   4.150256   6.080900   4.852779   6.491080
    17  C    5.421597   4.219482   5.994555   5.432844   6.120655
    18  H    3.405450   2.801640   3.896404   3.773947   3.973218
    19  C    6.701739   5.028855   7.122132   5.983098   7.455625
    20  H    6.274952   4.608809   6.451891   5.042970   6.943922
    21  C    6.549423   5.060805   7.088753   6.231175   7.300317
    22  H    5.654665   4.717877   6.301246   6.004586   6.309407
    23  H    7.730596   5.971244   8.136256   6.878896   8.500851
    24  H    7.492424   6.018395   8.082921   7.261252   8.255176
    25  C    4.369415   2.957581   4.692693   3.759445   5.037254
    26  C    5.438033   4.276307   5.354956   4.106939   5.899906
    27  C    4.362548   2.550800   5.345749   4.873318   5.335468
    28  C    6.317399   5.052154   6.463510   5.395254   6.872942
    29  H    5.826737   4.936782   5.277248   3.691126   6.058870
    30  C    5.422014   3.710151   6.457217   5.999249   6.397136
    31  H    3.854930   1.781714   5.233760   5.072347   5.007430
    32  C    6.315041   4.827206   6.953000   6.221690   7.096371
    33  H    7.235151   6.102897   7.154121   5.952605   7.670468
    34  H    5.792226   4.026371   7.144355   6.909895   6.895538
    35  H    7.232023   5.767919   7.933331   7.253094   8.026879
                   11         12         13         14         15
    11  H    0.000000
    12  H    4.304964   0.000000
    13  H    2.488356   2.486811   0.000000
    14  C    5.194546   5.634838   6.182265   0.000000
    15  C    4.858137   5.579350   5.861961   1.394658   0.000000
    16  C    6.462490   6.926445   7.562124   1.398871   2.406716
    17  C    5.900472   6.820307   7.016806   2.417559   1.391139
    18  H    4.037700   4.766021   4.877316   2.162056   1.097473
    19  C    7.275673   7.958447   8.486213   2.420292   2.779781
    20  H    6.982149   7.265500   8.035123   2.160353   3.400187
    21  C    7.035485   7.915707   8.251467   2.797503   2.411272
    22  H    6.023677   7.078918   7.090949   3.406847   2.154788
    23  H    8.289891   8.957890   9.543279   3.410726   3.874727
    24  H    7.909352   8.888878   9.166611   3.892060   3.403985
    25  C    5.091579   5.583374   6.096123   2.497258   3.696725
    26  C    6.211829   6.082274   6.925128   3.576078   4.883041
    27  C    4.809396   6.341670   6.325406   3.073951   4.040516
    28  C    6.955534   7.192724   7.841817   4.736253   6.042290
    29  H    6.717052   5.849239   7.075048   3.822911   5.113449
    30  C    5.741102   7.414449   7.319989   4.368890   5.384037
    31  H    4.150455   6.297120   5.957988   2.928700   3.547939
    32  C    6.754896   7.796649   8.023774   5.059507   6.253478
    33  H    7.908187   7.776272   8.611309   5.637898   6.978337
    34  H    5.912987   8.140709   7.746675   5.079035   5.935976
    35  H    7.591373   8.756429   8.907037   6.118209   7.302184
                   16         17         18         19         20
    16  C    0.000000
    17  C    2.776693   0.000000
    18  H    3.404665   2.157092   0.000000
    19  C    1.388612   2.404461   3.877233   0.000000
    20  H    1.096617   3.873309   4.310031   2.157738   0.000000
    21  C    2.409249   1.389362   3.403151   1.391469   3.403511
    22  H    3.871724   1.095042   2.477323   3.398737   4.968338
    23  H    2.154140   3.398171   4.972183   1.094951   2.482576
    24  H    3.401628   2.158205   4.306048   2.159386   4.307221
    25  C    2.931396   4.829940   4.021049   4.271569   2.649255
    26  C    3.706641   5.974356   5.242882   5.057881   3.051712
    27  C    3.415939   5.029329   4.351862   4.541020   3.245673
    28  C    4.674197   7.057452   6.433982   5.927676   3.879578
    29  H    3.958306   6.211136   5.450636   5.300800   3.295859
    30  C    4.445623   6.276964   5.731525   5.491502   4.031926
    31  H    3.459627   4.459625   3.775153   4.387522   3.617877
    32  C    4.986386   7.188928   6.641742   6.117424   4.303538
    33  H    5.486992   7.981744   7.380539   6.716527   4.591440
    34  H    5.135110   6.714206   6.259466   6.015761   4.819681
    35  H    5.956318   8.187150   7.701726   7.011908   5.221588
                   21         22         23         24         25
    21  C    0.000000
    22  H    2.157070   0.000000
    23  H    2.158660   4.304697   0.000000
    24  H    1.094557   2.488059   2.488661   0.000000
    25  C    5.065361   5.776107   4.926308   6.124994   0.000000
    26  C    6.050801   6.969206   5.520505   7.084805   1.396394
    27  C    5.241651   5.907877   5.151027   6.227592   1.396415
    28  C    7.012606   8.065945   6.228962   7.993766   2.416792
    29  H    6.293559   7.198835   5.751016   7.324741   2.164611
    30  C    6.326342   7.168418   5.901794   7.243459   2.417521
    31  H    4.821217   5.220193   5.109002   5.765086   2.157566
    32  C    7.133581   8.154339   6.400424   8.064662   2.793710
    33  H    7.872678   9.010051   6.920665   8.834802   3.407365
    34  H    6.752071   7.530636   6.386016   7.588554   3.408245
    35  H    8.062536   9.149560   7.192417   8.946917   3.888320
                   26         27         28         29         30
    26  C    0.000000
    27  C    2.409175   0.000000
    28  C    1.390670   2.779031   0.000000
    29  H    1.096294   3.406045   2.155374   0.000000
    30  C    2.781508   1.389457   2.406478   3.877780   0.000000
    31  H    3.403371   1.100862   3.879704   4.310753   2.167181
    32  C    2.410921   2.409126   1.390417   3.401866   1.390988
    33  H    2.155449   3.873756   1.094730   2.477692   3.399526
    34  H    3.876450   2.155105   3.399969   4.972724   1.094944
    35  H    3.403266   3.401483   2.158350   4.304354   2.158522
                   31         32         33         34         35
    31  H    0.000000
    32  C    3.410565   0.000000
    33  H    4.974395   2.157183   0.000000
    34  H    2.493986   2.158398   4.304886   0.000000
    35  H    4.315309   1.094614   2.486773   2.487735   0.000000
 Stoichiometry    C19H16
 Framework group  C1[X(C19H16)]
 Deg. of freedom    99
 Full point group                 C1      NOp   1
 Largest Abelian subgroup         C1      NOp   1
 Largest concise Abelian subgroup C1      NOp   1
                         Standard orientation:                         
 ---------------------------------------------------------------------
 Center     Atomic      Atomic             Coordinates (Angstroms)
 Number     Number       Type             X           Y           Z
 ---------------------------------------------------------------------
      1          6           0        0.009929    0.012569   -0.762089
      2          1           0       -0.017056    0.017936   -1.884777
      3          6           0        1.453694   -0.108228   -0.342513
      4          6           0        1.825808   -0.145608    1.003304
      5          6           0        2.443502   -0.193509   -1.324213
      6          6           0        3.163059   -0.264367    1.361047
      7          1           0        1.042760   -0.094304    1.776264
      8          6           0        3.781339   -0.312604   -0.963824
      9          1           0        2.167658   -0.167017   -2.385059
     10          6           0        4.143709   -0.347217    0.377919
     11          1           0        3.443232   -0.294350    2.418947
     12          1           0        4.550254   -0.379659   -1.740373
     13          1           0        5.197249   -0.440991    0.660016
     14          6           0       -0.643979    1.310355   -0.356468
     15          6           0        0.087329    2.385491    0.147853
     16          6           0       -2.020966    1.459791   -0.552467
     17          6           0       -0.546009    3.585060    0.456371
     18          1           0        1.169095    2.285770    0.303692
     19          6           0       -2.651648    2.657131   -0.241243
     20          1           0       -2.602747    0.620236   -0.951525
     21          6           0       -1.915058    3.723792    0.264578
     22          1           0        0.039964    4.421892    0.850663
     23          1           0       -3.730644    2.760872   -0.395910
     24          1           0       -2.412204    4.667839    0.508869
     25          6           0       -0.779633   -1.182149   -0.283533
     26          6           0       -1.257957   -2.106549   -1.214451
     27          6           0       -1.044211   -1.381394    1.073034
     28          6           0       -1.994794   -3.208135   -0.793090
     29          1           0       -1.053470   -1.966519   -2.282363
     30          6           0       -1.783393   -2.481103    1.491176
     31          1           0       -0.645115   -0.664097    1.806591
     32          6           0       -2.262165   -3.395274    0.558484
     33          1           0       -2.365753   -3.928552   -1.529176
     34          1           0       -1.988510   -2.626854    2.556815
     35          1           0       -2.846048   -4.260503    0.888088
 ---------------------------------------------------------------------
 Rotational constants (GHZ):      0.4036422      0.3829459      0.2324536
 Standard basis: 6-311G (5D, 7F)
 There are   295 symmetry adapted basis functions of A   symmetry.
 Integral buffers will be    262144 words long.
 Raffenetti 1 integral format.
 Two-electron integral symmetry is turned on.
   295 basis functions,   574 primitive gaussians,   295 cartesian basis functions
    65 alpha electrons       65 beta electrons
       nuclear repulsion energy      1290.8202427694 Hartrees.
 NAtoms=   35 NActive=   35 NUniq=   35 SFac= 7.50D-01 NAtFMM=   80 NAOKFM=F Big=F
 One-electron integrals computed using PRISM.
 PrsmSu:  requested number of processors reduced to:  10 ShMem   1 Linda.
 NBasis=   295 RedAO= T  NBF=   295
 NBsUse=   295 1.00D-06 NBFU=   295
 Harris functional with IExCor=  205 diagonalized for initial guess.
 ExpMin= 1.03D-01 ExpMax= 4.56D+03 ExpMxC= 6.82D+02 IAcc=1 IRadAn=         1 AccDes= 0.00D+00
 HarFok:  IExCor=  205 AccDes= 0.00D+00 IRadAn=         1 IDoV= 1
 ScaDFX=  1.000000  1.000000  1.000000  1.000000
 FoFCou: FMM=F IPFlag=           0 FMFlag=      100000 FMFlg1=           0
         NFxFlg=           0 DoJE=T BraDBF=F KetDBF=T FulRan=T
         Omega=  0.000000  0.000000  1.000000  0.000000  0.000000 ICntrl=     500 IOpCl=  0
         NMat0=    1 NMatS0=    1 NMatT0=    0 NMatD0=    1 NMtDS0=    0 NMtDT0=    0
         I1Cent=           4 NGrid=           0.
 Petite list used in FoFCou.
 Initial guess orbital symmetries:
       Occupied  (A) (A) (A) (A) (A) (A) (A) (A) (A) (A) (A) (A)
                 (A) (A) (A) (A) (A) (A) (A) (A) (A) (A) (A) (A)
                 (A) (A) (A) (A) (A) (A) (A) (A) (A) (A) (A) (A)
                 (A) (A) (A) (A) (A) (A) (A) (A) (A) (A) (A) (A)
                 (A) (A) (A) (A) (A) (A) (A) (A) (A) (A) (A) (A)
                 (A) (A) (A) (A) (A)
       Virtual   (A) (A) (A) (A) (A) (A) (A) (A) (A) (A) (A) (A)
                 (A) (A) (A) (A) (A) (A) (A) (A) (A) (A) (A) (A)
                 (A) (A) (A) (A) (A) (A) (A) (A) (A) (A) (A) (A)
                 (A) (A) (A) (A) (A) (A) (A) (A) (A) (A) (A) (A)
                 (A) (A) (A) (A) (A) (A) (A) (A) (A) (A) (A) (A)
                 (A) (A) (A) (A) (A) (A) (A) (A) (A) (A) (A) (A)
                 (A) (A) (A) (A) (A) (A) (A) (A) (A) (A) (A) (A)
                 (A) (A) (A) (A) (A) (A) (A) (A) (A) (A) (A) (A)
                 (A) (A) (A) (A) (A) (A) (A) (A) (A) (A) (A) (A)
                 (A) (A) (A) (A) (A) (A) (A) (A) (A) (A) (A) (A)
                 (A) (A) (A) (A) (A) (A) (A) (A) (A) (A) (A) (A)
                 (A) (A) (A) (A) (A) (A) (A) (A) (A) (A) (A) (A)
                 (A) (A) (A) (A) (A) (A) (A) (A) (A) (A) (A) (A)
                 (A) (A) (A) (A) (A) (A) (A) (A) (A) (A) (A) (A)
                 (A) (A) (A) (A) (A) (A) (A) (A) (A) (A) (A) (A)
                 (A) (A) (A) (A) (A) (A) (A) (A) (A) (A) (A) (A)
                 (A) (A) (A) (A) (A) (A) (A) (A) (A) (A) (A) (A)
                 (A) (A) (A) (A) (A) (A) (A) (A) (A) (A) (A) (A)
                 (A) (A) (A) (A) (A) (A) (A) (A) (A) (A) (A) (A)
                 (A) (A)
 The electronic state of the initial guess is 1-A.
 Requested convergence on RMS density matrix=1.00D-08 within 128 cycles.
 Requested convergence on MAX density matrix=1.00D-06.
 Requested convergence on             energy=1.00D-06.
 No special actions if energy rises.
 Integral accuracy reduced to 1.0D-05 until final iterations.
 Initial convergence to 1.0D-05 achieved.  Increase integral accuracy.
 SCF Done:  E(RHF) =  -728.672463052     A.U. after   14 cycles
             Convg  =    0.8891D-08             -V/T =  2.0001

 **********************************************************************

            Population analysis using the SCF density.

 **********************************************************************

 Orbital symmetries:
       Occupied  (A) (A) (A) (A) (A) (A) (A) (A) (A) (A) (A) (A)
                 (A) (A) (A) (A) (A) (A) (A) (A) (A) (A) (A) (A)
                 (A) (A) (A) (A) (A) (A) (A) (A) (A) (A) (A) (A)
                 (A) (A) (A) (A) (A) (A) (A) (A) (A) (A) (A) (A)
                 (A) (A) (A) (A) (A) (A) (A) (A) (A) (A) (A) (A)
                 (A) (A) (A) (A) (A)
       Virtual   (A) (A) (A) (A) (A) (A) (A) (A) (A) (A) (A) (A)
                 (A) (A) (A) (A) (A) (A) (A) (A) (A) (A) (A) (A)
                 (A) (A) (A) (A) (A) (A) (A) (A) (A) (A) (A) (A)
                 (A) (A) (A) (A) (A) (A) (A) (A) (A) (A) (A) (A)
                 (A) (A) (A) (A) (A) (A) (A) (A) (A) (A) (A) (A)
                 (A) (A) (A) (A) (A) (A) (A) (A) (A) (A) (A) (A)
                 (A) (A) (A) (A) (A) (A) (A) (A) (A) (A) (A) (A)
                 (A) (A) (A) (A) (A) (A) (A) (A) (A) (A) (A) (A)
                 (A) (A) (A) (A) (A) (A) (A) (A) (A) (A) (A) (A)
                 (A) (A) (A) (A) (A) (A) (A) (A) (A) (A) (A) (A)
                 (A) (A) (A) (A) (A) (A) (A) (A) (A) (A) (A) (A)
                 (A) (A) (A) (A) (A) (A) (A) (A) (A) (A) (A) (A)
                 (A) (A) (A) (A) (A) (A) (A) (A) (A) (A) (A) (A)
                 (A) (A) (A) (A) (A) (A) (A) (A) (A) (A) (A) (A)
                 (A) (A) (A) (A) (A) (A) (A) (A) (A) (A) (A) (A)
                 (A) (A) (A) (A) (A) (A) (A) (A) (A) (A) (A) (A)
                 (A) (A) (A) (A) (A) (A) (A) (A) (A) (A) (A) (A)
                 (A) (A) (A) (A) (A) (A) (A) (A) (A) (A) (A) (A)
                 (A) (A) (A) (A) (A) (A) (A) (A) (A) (A) (A) (A)
                 (A) (A)
 The electronic state is 1-A.
 Alpha  occ. eigenvalues --  -11.25758 -11.25226 -11.25185 -11.24909 -11.24517
 Alpha  occ. eigenvalues --  -11.24433 -11.24424 -11.24376 -11.24218 -11.24164
 Alpha  occ. eigenvalues --  -11.24138 -11.24127 -11.24079 -11.24040 -11.24023
 Alpha  occ. eigenvalues --  -11.23965 -11.23729 -11.23618 -11.23503  -1.18617
 Alpha  occ. eigenvalues --   -1.15873  -1.15569  -1.09027  -1.02372  -1.02242
 Alpha  occ. eigenvalues --   -1.01877  -1.01487  -1.01076  -0.92918  -0.84267
 Alpha  occ. eigenvalues --   -0.83375  -0.82312  -0.81936  -0.81114  -0.77579
 Alpha  occ. eigenvalues --   -0.70874  -0.70362  -0.68981  -0.65666  -0.63909
 Alpha  occ. eigenvalues --   -0.63617  -0.62519  -0.61695  -0.61561  -0.59727
 Alpha  occ. eigenvalues --   -0.58846  -0.58494  -0.58311  -0.56710  -0.55144
 Alpha  occ. eigenvalues --   -0.51722  -0.50911  -0.50203  -0.49872  -0.49374
 Alpha  occ. eigenvalues --   -0.48406  -0.47979  -0.47491  -0.46306  -0.35035
 Alpha  occ. eigenvalues --   -0.34319  -0.33986  -0.33319  -0.32473  -0.31495
 Alpha virt. eigenvalues --    0.11562   0.12301   0.12698   0.13461   0.15022
 Alpha virt. eigenvalues --    0.15156   0.15685   0.16238   0.16486   0.16907
 Alpha virt. eigenvalues --    0.18904   0.19185   0.19238   0.21225   0.21288
 Alpha virt. eigenvalues --    0.21601   0.23550   0.24033   0.24895   0.25393
 Alpha virt. eigenvalues --    0.26705   0.31639   0.33089   0.34221   0.35772
 Alpha virt. eigenvalues --    0.37644   0.39722   0.40609   0.41473   0.43071
 Alpha virt. eigenvalues --    0.44097   0.44431   0.44976   0.45426   0.45583
 Alpha virt. eigenvalues --    0.45893   0.46753   0.47254   0.47873   0.50609
 Alpha virt. eigenvalues --    0.51048   0.51405   0.52291   0.54988   0.56125
 Alpha virt. eigenvalues --    0.57273   0.57826   0.58528   0.58813   0.59351
 Alpha virt. eigenvalues --    0.60290   0.60479   0.60644   0.61123   0.61488
 Alpha virt. eigenvalues --    0.62025   0.62170   0.62952   0.63254   0.63637
 Alpha virt. eigenvalues --    0.64239   0.64620   0.65226   0.65951   0.66377
 Alpha virt. eigenvalues --    0.67271   0.67834   0.68596   0.69802   0.72333
 Alpha virt. eigenvalues --    0.73093   0.73888   0.74624   0.75358   0.75741
 Alpha virt. eigenvalues --    0.76850   0.78822   0.79472   0.79999   0.81184
 Alpha virt. eigenvalues --    0.81498   0.82247   0.82489   0.82869   0.83364
 Alpha virt. eigenvalues --    0.83845   0.84382   0.84904   0.85050   0.85479
 Alpha virt. eigenvalues --    0.85877   0.86171   0.86549   0.87817   0.88118
 Alpha virt. eigenvalues --    0.90115   0.90876   0.92164   0.93546   0.95108
 Alpha virt. eigenvalues --    0.95896   0.96318   0.96991   0.98312   0.99760
 Alpha virt. eigenvalues --    1.00180   1.02378   1.03113   1.04963   1.06228
 Alpha virt. eigenvalues --    1.07147   1.08051   1.09436   1.10029   1.11017
 Alpha virt. eigenvalues --    1.11599   1.11749   1.12362   1.12854   1.13764
 Alpha virt. eigenvalues --    1.15007   1.16475   1.19917   1.20506   1.21446
 Alpha virt. eigenvalues --    1.23546   1.25398   1.27452   1.27915   1.29134
 Alpha virt. eigenvalues --    1.29456   1.31851   1.32703   1.47046   1.47842
 Alpha virt. eigenvalues --    1.51859   1.54318   1.56729   2.53486   2.55715
 Alpha virt. eigenvalues --    2.55987   2.57743   2.62086   2.62398   2.63853
 Alpha virt. eigenvalues --    2.66501   2.67042   2.68420   2.72220   2.74257
 Alpha virt. eigenvalues --    2.78354   2.83350   2.86777   2.91888   2.94344
 Alpha virt. eigenvalues --    2.94635   2.94750   2.96022   2.98194   2.98589
 Alpha virt. eigenvalues --    2.99893   3.02301   3.03945   3.04359   3.06606
 Alpha virt. eigenvalues --    3.08459   3.09338   3.09888   3.10031   3.13211
 Alpha virt. eigenvalues --    3.15081   3.16075   3.17772   3.18370   3.19471
 Alpha virt. eigenvalues --    3.21639   3.24058   3.24931   3.27719   3.28780
 Alpha virt. eigenvalues --    3.31531   3.33880   3.34415   3.35754   3.40734
 Alpha virt. eigenvalues --    3.41179   3.44155   3.44968   3.49993   3.52650
 Alpha virt. eigenvalues --    3.53534   3.56020   3.57730   3.58432   3.59442
 Alpha virt. eigenvalues --    3.62458   3.63965   3.65133   3.66249   3.66937
 Alpha virt. eigenvalues --    3.67708   3.69218   3.71265   3.72088   3.74491
 Alpha virt. eigenvalues --    3.76626   3.77561   3.78389   3.85686   3.88212
 Alpha virt. eigenvalues --    3.90965  24.26133  24.30007  24.31689  24.50548
 Alpha virt. eigenvalues --   24.50770  24.51049  24.52972  24.54624  24.56465
 Alpha virt. eigenvalues --   24.76113  24.77052  24.79106  24.80213  24.80784
 Alpha virt. eigenvalues --   24.82899  24.87584  25.04642  25.05789  25.07113
          Condensed to atoms (all electrons):
              1          2          3          4          5          6
     1  C    6.120269   0.471774   0.116583  -0.073216  -0.023724   0.002905
     2  H    0.471774   0.501597  -0.074496   0.004442   0.006288  -0.000224
     3  C    0.116583  -0.074496   5.397419   0.451387   0.497301  -0.063033
     4  C   -0.073216   0.004442   0.451387   5.094396  -0.063994   0.480190
     5  C   -0.023724   0.006288   0.497301  -0.063994   5.051707  -0.033723
     6  C    0.002905  -0.000224  -0.063033   0.480190  -0.033723   5.046178
     7  H    0.000448  -0.000010  -0.046971   0.386323   0.004595  -0.027366
     8  C    0.008137   0.001448  -0.076597  -0.029403   0.467348  -0.077457
     9  H   -0.001994   0.002843  -0.046038   0.004757   0.394918  -0.000287
    10  C    0.001659   0.000007  -0.016292  -0.093467  -0.088973   0.490305
    11  H   -0.000372   0.000011   0.005981  -0.038562  -0.000384   0.397024
    12  H   -0.000404  -0.000035   0.006989  -0.000634  -0.039417   0.006263
    13  H   -0.000026  -0.000002  -0.001684   0.007989   0.007575  -0.042991
    14  C    0.030884  -0.062116  -0.064496   0.006681  -0.000314   0.000645
    15  C   -0.033475   0.000444  -0.012853  -0.018703   0.000890  -0.001420
    16  C   -0.084991  -0.004553   0.011454   0.000930  -0.000300   0.000014
    17  C    0.012372  -0.000101  -0.001729  -0.001005  -0.000110  -0.000040
    18  H   -0.011493  -0.000267   0.001333  -0.000868  -0.000958   0.000141
    19  C    0.008757   0.000542  -0.000884  -0.000023   0.000009   0.000000
    20  H   -0.003912  -0.000130   0.000788  -0.000040  -0.000006   0.000000
    21  C    0.000336   0.000037   0.000127  -0.000013  -0.000004   0.000000
    22  H   -0.000363   0.000014   0.000058   0.000023   0.000003  -0.000001
    23  H   -0.000356   0.000006   0.000012   0.000000   0.000000   0.000000
    24  H   -0.000014  -0.000002   0.000001   0.000001   0.000000   0.000000
    25  C    0.146538  -0.070220  -0.143536  -0.003100  -0.004637   0.001960
    26  C   -0.024566   0.001977  -0.002338   0.000521   0.000630   0.000040
    27  C   -0.057368   0.005338  -0.003062  -0.011526   0.000755  -0.000102
    28  C    0.006855   0.001535  -0.000522   0.000122  -0.000017   0.000001
    29  H   -0.000178   0.002423   0.000329  -0.000008   0.000279  -0.000001
    30  C    0.003406  -0.000258   0.001884  -0.000342   0.000028  -0.000100
    31  H   -0.000007   0.000097  -0.002920  -0.000777  -0.000199   0.000899
    32  C    0.001279   0.000000  -0.000088  -0.000026  -0.000009   0.000001
    33  H   -0.000340  -0.000039   0.000025   0.000000   0.000001   0.000000
    34  H   -0.000351   0.000011   0.000028   0.000055   0.000001   0.000002
    35  H   -0.000013  -0.000001  -0.000003   0.000000   0.000000   0.000000
              7          8          9         10         11         12
     1  C    0.000448   0.008137  -0.001994   0.001659  -0.000372  -0.000404
     2  H   -0.000010   0.001448   0.002843   0.000007   0.000011  -0.000035
     3  C   -0.046971  -0.076597  -0.046038  -0.016292   0.005981   0.006989
     4  C    0.386323  -0.029403   0.004757  -0.093467  -0.038562  -0.000634
     5  C    0.004595   0.467348   0.394918  -0.088973  -0.000384  -0.039417
     6  C   -0.027366  -0.077457  -0.000287   0.490305   0.397024   0.006263
     7  H    0.497270  -0.000114  -0.000271   0.004623  -0.003386   0.000016
     8  C   -0.000114   5.048106  -0.033781   0.499857   0.005901   0.396351
     9  H   -0.000271  -0.033781   0.506696   0.005071   0.000025  -0.004075
    10  C    0.004623   0.499857   0.005071   5.033511  -0.039792  -0.040982
    11  H   -0.003386   0.005901   0.000025  -0.039792   0.514347  -0.000206
    12  H    0.000016   0.396351  -0.004075  -0.040982  -0.000206   0.517931
    13  H   -0.000169  -0.042551  -0.000178   0.399461  -0.004374  -0.004555
    14  C    0.001597  -0.000749   0.000484  -0.000064   0.000021   0.000023
    15  C    0.001789   0.000324   0.000131   0.000156   0.000001  -0.000008
    16  C   -0.000009   0.000006   0.000012   0.000000   0.000000   0.000000
    17  C    0.000140   0.000005   0.000003   0.000004  -0.000002   0.000000
    18  H    0.000088  -0.000127   0.000101   0.000119   0.000034   0.000011
    19  C   -0.000066   0.000000   0.000000   0.000000   0.000000   0.000000
    20  H    0.000023   0.000000  -0.000001   0.000000   0.000000   0.000000
    21  C    0.000000   0.000000   0.000000   0.000000   0.000000   0.000000
    22  H    0.000001   0.000000   0.000000  -0.000001   0.000000   0.000000
    23  H   -0.000001   0.000000   0.000000   0.000000   0.000000   0.000000
    24  H    0.000000   0.000000   0.000000   0.000000   0.000000   0.000000
    25  C   -0.003780  -0.000578   0.000149  -0.000067   0.000029   0.000021
    26  C   -0.000211  -0.000013   0.000229  -0.000013   0.000002   0.000001
    27  C    0.001696   0.000059  -0.000025  -0.000007   0.000040   0.000000
    28  C   -0.000053   0.000002  -0.000002   0.000000   0.000000   0.000000
    29  H    0.000001   0.000006   0.000072  -0.000002   0.000000   0.000000
    30  C    0.001121   0.000000   0.000001   0.000002   0.000000   0.000000
    31  H    0.001406  -0.000002  -0.000001  -0.000015  -0.000032   0.000000
    32  C    0.000000   0.000000  -0.000001   0.000000   0.000000   0.000000
    33  H    0.000001   0.000000   0.000000   0.000000   0.000000   0.000000
    34  H   -0.000055   0.000000   0.000000   0.000000   0.000001   0.000000
    35  H    0.000000   0.000000   0.000000   0.000000   0.000000   0.000000
             13         14         15         16         17         18
     1  C   -0.000026   0.030884  -0.033475  -0.084991   0.012372  -0.011493
     2  H   -0.000002  -0.062116   0.000444  -0.004553  -0.000101  -0.000267
     3  C   -0.001684  -0.064496  -0.012853   0.011454  -0.001729   0.001333
     4  C    0.007989   0.006681  -0.018703   0.000930  -0.001005  -0.000868
     5  C    0.007575  -0.000314   0.000890  -0.000300  -0.000110  -0.000958
     6  C   -0.042991   0.000645  -0.001420   0.000014  -0.000040   0.000141
     7  H   -0.000169   0.001597   0.001789  -0.000009   0.000140   0.000088
     8  C   -0.042551  -0.000749   0.000324   0.000006   0.000005  -0.000127
     9  H   -0.000178   0.000484   0.000131   0.000012   0.000003   0.000101
    10  C    0.399461  -0.000064   0.000156   0.000000   0.000004   0.000119
    11  H   -0.004374   0.000021   0.000001   0.000000  -0.000002   0.000034
    12  H   -0.004555   0.000023  -0.000008   0.000000   0.000000   0.000011
    13  H    0.516952   0.000002  -0.000003   0.000000   0.000000   0.000010
    14  C    0.000002   5.350396   0.498642   0.472496  -0.068116  -0.035028
    15  C   -0.000003   0.498642   5.100201  -0.084601   0.454159   0.394331
    16  C    0.000000   0.472496  -0.084601   5.126664  -0.033332   0.004985
    17  C    0.000000  -0.068116   0.454159  -0.033332   5.078982  -0.036512
    18  H    0.000010  -0.035028   0.394331   0.004985  -0.036512   0.477910
    19  C    0.000000  -0.056945  -0.030452   0.462534  -0.073648  -0.000452
    20  H    0.000000  -0.044258   0.004542   0.397380  -0.000479  -0.000193
    21  C    0.000000  -0.020834  -0.089495  -0.085186   0.494488   0.005070
    22  H    0.000000   0.006473  -0.036867  -0.000404   0.395663  -0.003553
    23  H    0.000000   0.006143  -0.000429  -0.038195   0.005989   0.000017
    24  H    0.000000  -0.001451   0.007647   0.007455  -0.042192  -0.000170
    25  C   -0.000002  -0.090934   0.002423  -0.007935  -0.000834   0.000449
    26  C    0.000000  -0.001263  -0.000446   0.000541   0.000007  -0.000016
    27  C    0.000001  -0.006122   0.001624  -0.009866   0.000049   0.000044
    28  C    0.000000  -0.000432   0.000019  -0.000081   0.000000   0.000000
    29  H    0.000000   0.000166  -0.000031   0.000278   0.000000   0.000001
    30  C    0.000000  -0.000506   0.000016  -0.000368   0.000004   0.000000
    31  H    0.000000   0.001203  -0.000244   0.000466  -0.000125   0.000028
    32  C    0.000000   0.000032  -0.000001   0.000124   0.000000   0.000000
    33  H    0.000000   0.000011   0.000000  -0.000003   0.000000   0.000000
    34  H    0.000000   0.000026   0.000000   0.000015   0.000000   0.000000
    35  H    0.000000   0.000001   0.000000   0.000000   0.000000   0.000000
             19         20         21         22         23         24
     1  C    0.008757  -0.003912   0.000336  -0.000363  -0.000356  -0.000014
     2  H    0.000542  -0.000130   0.000037   0.000014   0.000006  -0.000002
     3  C   -0.000884   0.000788   0.000127   0.000058   0.000012   0.000001
     4  C   -0.000023  -0.000040  -0.000013   0.000023   0.000000   0.000001
     5  C    0.000009  -0.000006  -0.000004   0.000003   0.000000   0.000000
     6  C    0.000000   0.000000   0.000000  -0.000001   0.000000   0.000000
     7  H   -0.000066   0.000023   0.000000   0.000001  -0.000001   0.000000
     8  C    0.000000   0.000000   0.000000   0.000000   0.000000   0.000000
     9  H    0.000000  -0.000001   0.000000   0.000000   0.000000   0.000000
    10  C    0.000000   0.000000   0.000000  -0.000001   0.000000   0.000000
    11  H    0.000000   0.000000   0.000000   0.000000   0.000000   0.000000
    12  H    0.000000   0.000000   0.000000   0.000000   0.000000   0.000000
    13  H    0.000000   0.000000   0.000000   0.000000   0.000000   0.000000
    14  C   -0.056945  -0.044258  -0.020834   0.006473   0.006143  -0.001451
    15  C   -0.030452   0.004542  -0.089495  -0.036867  -0.000429   0.007647
    16  C    0.462534   0.397380  -0.085186  -0.000404  -0.038195   0.007455
    17  C   -0.073648  -0.000479   0.494488   0.395663   0.005989  -0.042192
    18  H   -0.000452  -0.000193   0.005070  -0.003553   0.000017  -0.000170
    19  C    5.063806  -0.035204   0.480926   0.006004   0.397004  -0.043161
    20  H   -0.035204   0.488589   0.005226   0.000017  -0.003840  -0.000173
    21  C    0.480926   0.005226   5.043060  -0.041259  -0.040861   0.399488
    22  H    0.006004   0.000017  -0.041259   0.517804  -0.000213  -0.004461
    23  H    0.397004  -0.003840  -0.040861  -0.000213   0.517534  -0.004405
    24  H   -0.043161  -0.000173   0.399488  -0.004461  -0.004405   0.519387
    25  C   -0.001722   0.004190   0.000132   0.000012   0.000018   0.000002
    26  C   -0.000050   0.001423  -0.000003   0.000000  -0.000004   0.000000
    27  C   -0.000367  -0.000655   0.000031   0.000000   0.000014   0.000000
    28  C    0.000013   0.000119   0.000000   0.000000  -0.000001   0.000000
    29  H   -0.000008   0.000197   0.000001   0.000000   0.000000   0.000000
    30  C   -0.000013  -0.000284   0.000002   0.000000   0.000002   0.000000
    31  H    0.000096  -0.000041  -0.000036  -0.000001   0.000005   0.000001
    32  C    0.000002  -0.000077   0.000000   0.000000   0.000000   0.000000
    33  H    0.000000   0.000008   0.000000   0.000000   0.000000   0.000000
    34  H    0.000001   0.000005   0.000000   0.000000   0.000000   0.000000
    35  H    0.000000   0.000002   0.000000   0.000000   0.000000   0.000000
             25         26         27         28         29         30
     1  C    0.146538  -0.024566  -0.057368   0.006855  -0.000178   0.003406
     2  H   -0.070220   0.001977   0.005338   0.001535   0.002423  -0.000258
     3  C   -0.143536  -0.002338  -0.003062  -0.000522   0.000329   0.001884
     4  C   -0.003100   0.000521  -0.011526   0.000122  -0.000008  -0.000342
     5  C   -0.004637   0.000630   0.000755  -0.000017   0.000279   0.000028
     6  C    0.001960   0.000040  -0.000102   0.000001  -0.000001  -0.000100
     7  H   -0.003780  -0.000211   0.001696  -0.000053   0.000001   0.001121
     8  C   -0.000578  -0.000013   0.000059   0.000002   0.000006   0.000000
     9  H    0.000149   0.000229  -0.000025  -0.000002   0.000072   0.000001
    10  C   -0.000067  -0.000013  -0.000007   0.000000  -0.000002   0.000002
    11  H    0.000029   0.000002   0.000040   0.000000   0.000000   0.000000
    12  H    0.000021   0.000001   0.000000   0.000000   0.000000   0.000000
    13  H   -0.000002   0.000000   0.000001   0.000000   0.000000   0.000000
    14  C   -0.090934  -0.001263  -0.006122  -0.000432   0.000166  -0.000506
    15  C    0.002423  -0.000446   0.001624   0.000019  -0.000031   0.000016
    16  C   -0.007935   0.000541  -0.009866  -0.000081   0.000278  -0.000368
    17  C   -0.000834   0.000007   0.000049   0.000000   0.000000   0.000004
    18  H    0.000449  -0.000016   0.000044   0.000000   0.000001   0.000000
    19  C   -0.001722  -0.000050  -0.000367   0.000013  -0.000008  -0.000013
    20  H    0.004190   0.001423  -0.000655   0.000119   0.000197  -0.000284
    21  C    0.000132  -0.000003   0.000031   0.000000   0.000001   0.000002
    22  H    0.000012   0.000000   0.000000   0.000000   0.000000   0.000000
    23  H    0.000018  -0.000004   0.000014  -0.000001   0.000000   0.000002
    24  H    0.000002   0.000000   0.000000   0.000000   0.000000   0.000000
    25  C    5.394401   0.491961   0.449301  -0.074205  -0.050550  -0.058039
    26  C    0.491961   5.090781  -0.072163   0.455086   0.400284  -0.030680
    27  C    0.449301  -0.072163   5.067153  -0.026351   0.004347   0.478642
    28  C   -0.074205   0.455086  -0.026351   5.058478  -0.034710  -0.078794
    29  H   -0.050550   0.400284   0.004347  -0.034710   0.509375  -0.000281
    30  C   -0.058039  -0.030680   0.478642  -0.078794  -0.000281   5.041460
    31  H   -0.044410   0.004123   0.388406   0.000029  -0.000272  -0.028608
    32  C   -0.018739  -0.086598  -0.091470   0.498105   0.005228   0.491084
    33  H    0.006916  -0.039643  -0.000687   0.396916  -0.004199   0.006247
    34  H    0.006014  -0.000472  -0.038850   0.005965   0.000025   0.397224
    35  H   -0.001552   0.007487   0.007899  -0.042543  -0.000184  -0.042914
             31         32         33         34         35
     1  C   -0.000007   0.001279  -0.000340  -0.000351  -0.000013
     2  H    0.000097   0.000000  -0.000039   0.000011  -0.000001
     3  C   -0.002920  -0.000088   0.000025   0.000028  -0.000003
     4  C   -0.000777  -0.000026   0.000000   0.000055   0.000000
     5  C   -0.000199  -0.000009   0.000001   0.000001   0.000000
     6  C    0.000899   0.000001   0.000000   0.000002   0.000000
     7  H    0.001406   0.000000   0.000001  -0.000055   0.000000
     8  C   -0.000002   0.000000   0.000000   0.000000   0.000000
     9  H   -0.000001  -0.000001   0.000000   0.000000   0.000000
    10  C   -0.000015   0.000000   0.000000   0.000000   0.000000
    11  H   -0.000032   0.000000   0.000000   0.000001   0.000000
    12  H    0.000000   0.000000   0.000000   0.000000   0.000000
    13  H    0.000000   0.000000   0.000000   0.000000   0.000000
    14  C    0.001203   0.000032   0.000011   0.000026   0.000001
    15  C   -0.000244  -0.000001   0.000000   0.000000   0.000000
    16  C    0.000466   0.000124  -0.000003   0.000015   0.000000
    17  C   -0.000125   0.000000   0.000000   0.000000   0.000000
    18  H    0.000028   0.000000   0.000000   0.000000   0.000000
    19  C    0.000096   0.000002   0.000000   0.000001   0.000000
    20  H   -0.000041  -0.000077   0.000008   0.000005   0.000002
    21  C   -0.000036   0.000000   0.000000   0.000000   0.000000
    22  H   -0.000001   0.000000   0.000000   0.000000   0.000000
    23  H    0.000005   0.000000   0.000000   0.000000   0.000000
    24  H    0.000001   0.000000   0.000000   0.000000   0.000000
    25  C   -0.044410  -0.018739   0.006916   0.006014  -0.001552
    26  C    0.004123  -0.086598  -0.039643  -0.000472   0.007487
    27  C    0.388406  -0.091470  -0.000687  -0.038850   0.007899
    28  C    0.000029   0.498105   0.396916   0.005965  -0.042543
    29  H   -0.000272   0.005228  -0.004199   0.000025  -0.000184
    30  C   -0.028608   0.491084   0.006247   0.397224  -0.042914
    31  H    0.497519   0.004560   0.000014  -0.003317  -0.000173
    32  C    0.004560   5.034153  -0.040698  -0.039849   0.399638
    33  H    0.000014  -0.040698   0.518087  -0.000205  -0.004582
    34  H   -0.003317  -0.039849  -0.000205   0.514748  -0.004467
    35  H   -0.000173   0.399638  -0.004582  -0.004467   0.517357
 Mulliken atomic charges:
              1
     1  C   -0.615039
     2  H    0.211619
     3  C    0.065841
     4  C   -0.102110
     5  C   -0.175560
     6  C   -0.179825
     7  H    0.181323
     8  C   -0.166177
     9  H    0.171162
    10  C   -0.155101
    11  H    0.163694
    12  H    0.162709
    13  H    0.164547
    14  C    0.077704
    15  C   -0.158309
    16  C   -0.135532
    17  C   -0.183640
    18  H    0.204963
    19  C   -0.176701
    20  H    0.186786
    21  C   -0.151232
    22  H    0.161050
    23  H    0.161559
    24  H    0.162047
    25  C    0.070324
    26  C   -0.196614
    27  C   -0.086777
    28  C   -0.165537
    29  H    0.167414
    30  C   -0.179932
    31  H    0.182330
    32  C   -0.156651
    33  H    0.162169
    34  H    0.163447
    35  H    0.164050
 Sum of Mulliken atomic charges =   0.00000
 Mulliken charges with hydrogens summed into heavy atoms:
              1
     1  C   -0.403419
     3  C    0.065841
     4  C    0.079213
     5  C   -0.004398
     6  C   -0.016131
     8  C   -0.003468
    10  C    0.009446
    14  C    0.077704
    15  C    0.046653
    16  C    0.051254
    17  C   -0.022590
    19  C   -0.015141
    21  C    0.010815
    25  C    0.070324
    26  C   -0.029200
    27  C    0.095553
    28  C   -0.003369
    30  C   -0.016486
    32  C    0.007399
 Sum of Mulliken charges with hydrogens summed into heavy atoms =   0.00000
 Electronic spatial extent (au):  <R**2>=           4931.0323
 Charge=              0.0000 electrons
 Dipole moment (field-independent basis, Debye):
    X=              0.0894    Y=             -0.1689    Z=             -0.0197  Tot=              0.1921
 Quadrupole moment (field-independent basis, Debye-Ang):
   XX=           -107.4432   YY=           -113.2954   ZZ=           -107.0384
   XY=              2.7528   XZ=              0.7568   YZ=              2.6245
 Traceless Quadrupole moment (field-independent basis, Debye-Ang):
   XX=              1.8158   YY=             -4.0364   ZZ=              2.2206
   XY=              2.7528   XZ=              0.7568   YZ=              2.6245
 Octapole moment (field-independent basis, Debye-Ang**2):
  XXX=             27.2293  YYY=             12.9670  ZZZ=              0.8782  XYY=            -35.9324
  XXY=             -1.3546  XXZ=             -2.0316  XZZ=              9.8161  YZZ=            -19.4333
  YYZ=             11.2091  XYZ=              1.5706
 Hexadecapole moment (field-independent basis, Debye-Ang**3):
 XXXX=          -3054.9042 YYYY=          -2925.0438 ZZZZ=           -659.0030 XXXY=            -65.3378
 XXXZ=             12.1663 YYYX=             69.4048 YYYZ=             72.4318 ZZZX=             -6.4248
 ZZZY=             -1.8435 XXYY=          -1013.0532 XXZZ=           -626.1448 YYZZ=           -640.2087
 XXYZ=             -6.3591 YYXZ=             -9.8910 ZZXY=             32.3089
 N-N= 1.290820242769D+03 E-N=-4.277719386357D+03  KE= 7.286015753959D+02
 PrsmSu:  requested number of processors reduced to:  10 ShMem   1 Linda.
 Calling FoFJK, ICntrl=      2127 FMM=F ISym2X=0 I1Cent= 0 IOpClX= 0 NMat=1 NMatS=1 NMatT=0.
 ***** Axes restored to original set *****
 -------------------------------------------------------------------
 Center     Atomic                   Forces (Hartrees/Bohr)
 Number     Number              X              Y              Z
 -------------------------------------------------------------------
      1        6           0.007981220    0.020622713    0.006949699
      2        1          -0.011199837   -0.022492121   -0.002108491
      3        6          -0.008651743    0.010053623    0.003906339
      4        6           0.002636020   -0.011801575   -0.002391782
      5        6           0.004049664    0.004388941    0.000719489
      6        6          -0.005202325   -0.010951681   -0.003190720
      7        1          -0.017646656    0.023094225    0.005008801
      8        6          -0.007674974    0.010537988    0.004342406
      9        1          -0.009953379   -0.014199052   -0.004010798
     10        6          -0.013126724    0.003277622    0.002260020
     11        1           0.009797502    0.013078163    0.003454906
     12        1           0.006429727   -0.014417387   -0.005424440
     13        1           0.016654509   -0.001339613   -0.001945311
     14        6           0.002934616   -0.000963730   -0.014602313
     15        6          -0.011592962    0.002993403    0.001528939
     16        6           0.007391404   -0.000848920    0.004890396
     17        6          -0.005660994    0.000567985   -0.011565855
     18        1           0.021082108   -0.003314284   -0.004986874
     19        6           0.012622628   -0.001866619   -0.000216829
     20        1          -0.011067424    0.001069934   -0.015269818
     21        6           0.002745700   -0.001257675   -0.013402743
     22        1           0.010664076   -0.001534883    0.012878052
     23        1          -0.016199320    0.003238156    0.002667653
     24        1          -0.005665133    0.001687006    0.015535114
     25        6           0.008817731   -0.000336806    0.011323079
     26        6           0.000608263    0.005732438    0.000823534
     27        6          -0.005888401   -0.005292577   -0.008283439
     28        6           0.007816887    0.001397294    0.011091409
     29        1          -0.003482131   -0.016847602   -0.003412454
     30        6          -0.003933477   -0.011238066   -0.003981492
     31        1           0.021318935    0.001652969    0.018185014
     32        6           0.006121901   -0.007538607    0.009672668
     33        1          -0.009222083   -0.004999535   -0.012793123
     34        1           0.003016039    0.016336856    0.002676030
     35        1          -0.006521365    0.011511418   -0.010327067
 -------------------------------------------------------------------
 Cartesian Forces:  Max     0.023094225 RMS     0.009557566

 GradGradGradGradGradGradGradGradGradGradGradGradGradGradGradGradGradGrad
 Berny optimization.
 Internal  Forces:  Max     0.028565719 RMS     0.007781087
 Search for a local minimum.
 Step number   1 out of a maximum of  197
 All quantities printed in internal units (Hartrees-Bohrs-Radians)
 Mixed Optimization -- RFO/linear search
 Second derivative matrix not updated -- first step.
     Eigenvalues ---    0.00635   0.00650   0.00656   0.01533   0.01538
     Eigenvalues ---    0.01540   0.02138   0.02142   0.02146   0.02171
     Eigenvalues ---    0.02172   0.02173   0.02182   0.02183   0.02184
     Eigenvalues ---    0.02201   0.02201   0.02203   0.02211   0.02212
     Eigenvalues ---    0.02212   0.02214   0.02214   0.02215   0.02215
     Eigenvalues ---    0.02218   0.02219   0.02219   0.02220   0.02225
     Eigenvalues ---    0.04563   0.06406   0.06617   0.15998   0.15998
     Eigenvalues ---    0.16000   0.16000   0.16000   0.16000   0.16000
     Eigenvalues ---    0.16000   0.16000   0.16000   0.16000   0.16000
     Eigenvalues ---    0.16000   0.16000   0.16000   0.18863   0.19329
     Eigenvalues ---    0.22000   0.22000   0.22000   0.22000   0.22000
     Eigenvalues ---    0.22000   0.23464   0.23477   0.23478   0.24963
     Eigenvalues ---    0.24999   0.25000   0.31259   0.31361   0.31475
     Eigenvalues ---    0.31518   0.33519   0.33587   0.33963   0.34059
     Eigenvalues ---    0.34079   0.34095   0.34236   0.34247   0.34247
     Eigenvalues ---    0.34255   0.34266   0.34272   0.34278   0.34285
     Eigenvalues ---    0.34291   0.42409   0.42462   0.42485   0.42560
     Eigenvalues ---    0.42569   0.42609   0.46342   0.46392   0.46433
     Eigenvalues ---    0.46730   0.46752   0.46798   0.47201   0.47210
     Eigenvalues ---    0.47224   0.47333   0.47346   0.474321000.00000
     Eigenvalues --- 1000.000001000.000001000.000001000.000001000.00000
     Eigenvalues --- 1000.000001000.000001000.000001000.000001000.00000
     Eigenvalues --- 1000.000001000.000001000.000001000.000001000.00000
     Eigenvalues --- 1000.000001000.000001000.000001000.000001000.00000
     Eigenvalues --- 1000.000001000.000001000.000001000.000001000.00000
     Eigenvalues --- 1000.000001000.000001000.000001000.000001000.00000
     Eigenvalues --- 1000.000001000.000001000.000001000.000001000.00000
     Eigenvalues --- 1000.000001000.000001000.000001000.000001000.00000
     Eigenvalues --- 1000.000001000.000001000.000001000.000001000.00000
     Eigenvalues --- 1000.000001000.000001000.000001000.000001000.00000
     Eigenvalues --- 1000.000001000.000001000.000001000.000001000.00000
     Eigenvalues --- 1000.000001000.000001000.000001000.000001000.00000
     Eigenvalues --- 1000.000001000.000001000.000001000.000001000.00000
     Eigenvalues --- 1000.000001000.000001000.000001000.000001000.00000
     Eigenvalues --- 1000.000001000.000001000.000001000.000001000.00000
     Eigenvalues --- 1000.000001000.000001000.000001000.000001000.00000
     Eigenvalues --- 1000.000001000.000001000.000001000.000001000.00000
     Eigenvalues --- 1000.000001000.00000
 RFO step:  Lambda=-4.17628805D-02 EMin= 6.35094664D-03
 Linear search not attempted -- first point.
 Maximum step size (   0.300) exceeded in Quadratic search.
    -- Step size scaled by   0.593
 Iteration  1 RMS(Cart)=  0.12543399 RMS(Int)=  0.00303230
 Iteration  2 RMS(Cart)=  0.00614331 RMS(Int)=  0.00028164
 Iteration  3 RMS(Cart)=  0.00001073 RMS(Int)=  0.00028158
 Iteration  4 RMS(Cart)=  0.00000000 RMS(Int)=  0.00028158
 Variable       Old X    -DE/DX   Delta X   Delta X   Delta X     New X
                                 (Linear)    (Quad)   (Total)
    R1        2.12221  -0.02477   0.00000  -0.04148  -0.04148   2.08073
    R2        2.85035   0.02354   0.00000   0.03912   0.03912   2.88947
    R3        2.85115   0.02348   0.00000   0.03907   0.03907   2.89022
    R4        2.85328   0.02287   0.00000   0.03817   0.03817   2.89145
    R5        2.63960   0.00071   0.00000   0.00098   0.00099   2.64059
    R6        2.63935  -0.00435   0.00000  -0.00507  -0.00505   2.63430
    R7        2.62551  -0.00447   0.00000  -0.00506  -0.00506   2.62045
    R8        2.08150  -0.02857   0.00000  -0.04495  -0.04495   2.03655
    R9        2.62792  -0.00239   0.00000  -0.00284  -0.00284   2.62509
   R10        2.07198  -0.01779   0.00000  -0.02758  -0.02758   2.04439
   R11        2.62874  -0.00558   0.00000  -0.00651  -0.00653   2.62221
   R12        2.06884  -0.01670   0.00000  -0.02577  -0.02577   2.04307
   R13        2.62718  -0.00913   0.00000  -0.01066  -0.01067   2.61651
   R14        2.06902  -0.01669   0.00000  -0.02576  -0.02576   2.04325
   R15        2.06864  -0.01682   0.00000  -0.02595  -0.02595   2.04269
   R16        2.63552  -0.00222   0.00000  -0.00247  -0.00246   2.63306
   R17        2.64348  -0.00193   0.00000  -0.00223  -0.00222   2.64126
   R18        2.62887  -0.00145   0.00000  -0.00161  -0.00161   2.62726
   R19        2.07392  -0.02184   0.00000  -0.03397  -0.03397   2.03995
   R20        2.62410  -0.00466   0.00000  -0.00541  -0.00541   2.61868
   R21        2.07231  -0.01885   0.00000  -0.02925  -0.02925   2.04306
   R22        2.62551  -0.00730   0.00000  -0.00845  -0.00846   2.61705
   R23        2.06933  -0.01679   0.00000  -0.02593  -0.02593   2.04340
   R24        2.62949  -0.00506   0.00000  -0.00599  -0.00599   2.62350
   R25        2.06916  -0.01673   0.00000  -0.02584  -0.02584   2.04332
   R26        2.06841  -0.01662   0.00000  -0.02563  -0.02563   2.04278
   R27        2.63880  -0.00428   0.00000  -0.00498  -0.00497   2.63383
   R28        2.63884  -0.00012   0.00000  -0.00004  -0.00002   2.63882
   R29        2.62799  -0.00231   0.00000  -0.00272  -0.00272   2.62526
   R30        2.07169  -0.01752   0.00000  -0.02716  -0.02716   2.04453
   R31        2.62569  -0.00475   0.00000  -0.00541  -0.00541   2.62028
   R32        2.08033  -0.02677   0.00000  -0.04205  -0.04205   2.03828
   R33        2.62751  -0.00884   0.00000  -0.01030  -0.01032   2.61719
   R34        2.06874  -0.01654   0.00000  -0.02552  -0.02552   2.04322
   R35        2.62859  -0.00525   0.00000  -0.00612  -0.00613   2.62245
   R36        2.06914  -0.01683   0.00000  -0.02598  -0.02598   2.04317
   R37        2.06852  -0.01678   0.00000  -0.02589  -0.02589   2.04263
    A1        1.87703  -0.00995   0.00000  -0.05157  -0.05066   1.82637
    A2        1.82786   0.00393   0.00000   0.00078   0.00104   1.82890
    A3        1.88396  -0.00881   0.00000  -0.04901  -0.04820   1.83576
    A4        1.99210   0.00060   0.00000   0.02114   0.01922   2.01133
    A5        1.92730   0.01535   0.00000   0.05445   0.05329   1.98060
    A6        1.94848  -0.00304   0.00000   0.01261   0.01046   1.95893
    A7        2.12369   0.02257   0.00000   0.04594   0.04592   2.16961
    A8        2.08026  -0.01083   0.00000  -0.02198  -0.02200   2.05826
    A9        2.07921  -0.01174   0.00000  -0.02392  -0.02389   2.05531
   A10        2.10225   0.00449   0.00000   0.01018   0.01016   2.11241
   A11        2.07772   0.00435   0.00000   0.01439   0.01434   2.09207
   A12        2.10311  -0.00882   0.00000  -0.02436  -0.02440   2.07871
   A13        2.10001   0.00808   0.00000   0.01781   0.01783   2.11784
   A14        2.09473  -0.00469   0.00000  -0.01082  -0.01083   2.08390
   A15        2.08845  -0.00339   0.00000  -0.00699  -0.00701   2.08144
   A16        2.09628   0.00237   0.00000   0.00494   0.00492   2.10120
   A17        2.09148  -0.00109   0.00000  -0.00220  -0.00219   2.08929
   A18        2.09542  -0.00128   0.00000  -0.00274  -0.00273   2.09269
   A19        2.09786  -0.00023   0.00000  -0.00141  -0.00142   2.09644
   A20        2.09100   0.00030   0.00000   0.00124   0.00124   2.09224
   A21        2.09432  -0.00007   0.00000   0.00018   0.00018   2.09450
   A22        2.09076  -0.00297   0.00000  -0.00758  -0.00761   2.08315
   A23        2.09606   0.00152   0.00000   0.00388   0.00390   2.09996
   A24        2.09636   0.00146   0.00000   0.00370   0.00372   2.10008
   A25        2.13300   0.00699   0.00000   0.01411   0.01410   2.14710
   A26        2.07242   0.00093   0.00000   0.00177   0.00176   2.07418
   A27        2.07656  -0.00795   0.00000  -0.01618  -0.01616   2.06040
   A28        2.10158   0.00355   0.00000   0.00816   0.00817   2.10975
   A29        2.09227  -0.00016   0.00000   0.00066   0.00066   2.09293
   A30        2.08933  -0.00339   0.00000  -0.00882  -0.00882   2.08051
   A31        2.10341   0.00463   0.00000   0.01018   0.01019   2.11360
   A32        2.08452  -0.00114   0.00000  -0.00164  -0.00165   2.08287
   A33        2.09525  -0.00349   0.00000  -0.00854  -0.00855   2.08670
   A34        2.09913   0.00111   0.00000   0.00223   0.00223   2.10136
   A35        2.08886  -0.00047   0.00000  -0.00088  -0.00088   2.08798
   A36        2.09519  -0.00063   0.00000  -0.00135  -0.00135   2.09384
   A37        2.09674   0.00086   0.00000   0.00126   0.00125   2.09799
   A38        2.09162  -0.00042   0.00000  -0.00060  -0.00060   2.09103
   A39        2.09482  -0.00044   0.00000  -0.00066  -0.00066   2.09416
   A40        2.08893  -0.00221   0.00000  -0.00568  -0.00570   2.08323
   A41        2.09771   0.00108   0.00000   0.00276   0.00277   2.10048
   A42        2.09654   0.00113   0.00000   0.00292   0.00293   2.09947
   A43        2.08476  -0.00810   0.00000  -0.01643  -0.01648   2.06829
   A44        2.11751   0.01885   0.00000   0.03837   0.03831   2.15582
   A45        2.08091  -0.01076   0.00000  -0.02197  -0.02197   2.05894
   A46        2.09888   0.00743   0.00000   0.01644   0.01645   2.11534
   A47        2.09549  -0.00444   0.00000  -0.01034  -0.01035   2.08514
   A48        2.08881  -0.00300   0.00000  -0.00611  -0.00612   2.08269
   A49        2.10143   0.00421   0.00000   0.00948   0.00943   2.11086
   A50        2.07793   0.00377   0.00000   0.01265   0.01256   2.09049
   A51        2.10370  -0.00794   0.00000  -0.02179  -0.02188   2.08182
   A52        2.09789  -0.00034   0.00000  -0.00148  -0.00150   2.09639
   A53        2.09104   0.00037   0.00000   0.00134   0.00135   2.09239
   A54        2.09425  -0.00004   0.00000   0.00014   0.00015   2.09440
   A55        2.09611   0.00225   0.00000   0.00467   0.00466   2.10077
   A56        2.09197  -0.00107   0.00000  -0.00217  -0.00218   2.08979
   A57        2.09511  -0.00118   0.00000  -0.00250  -0.00250   2.09261
[...]
 00029712,-0.00039827,0.00021931,-0.00038066,-0.00019470,0.00037133,-0.
 00045617,0.00006650,-0.00011731,-0.00023003,0.00033163,-0.00031211,-0.
 00011239,0.00019398,0.00001551,0.00001277,-0.00003971,0.00003891,0.000
 39392,-0.00007544,-0.00001670,-0.00001537,-0.00003907,-0.00001072,0.00
 001873,0.00004463,0.00000445,-0.00001713,0.00000574,0.00050920,0.00098
 940,-0.00060775,0.00014766,0.00025395,-0.00048833,-0.00044895,-0.00021
 261,0.00061354,-0.00040920,0.00005330,0.00057367,0.00004695,-0.0000852
 9,-0.00002241,-0.00004542,-0.00022163,-0.00058470,0.00004821,0.0000984
 1,0.00005603,0.00050511,0.00018032,0.00018076,-0.00000603,-0.00000527,
 -0.00000083,0.00000766,0.00000007,-0.00001187,0.00001344,0.00000048,-0
 .00000481,0.00415857,0.05643021,0.09384931,-0.02477823,0.03205924,-0.0
 9043232,-0.04118971,0.03843845,-0.22935526,0.02608603,-0.11107400,-0.0
 0966645,-0.00017953,0.00072159,-0.00085348,0.09731296,0.06883112,0.739
 09027,-0.00402306,-0.00149756,0.00059717,0.00032278,-0.00054000,0.0002
 3387,-0.00000487,0.00081662,-0.00033335,-0.00000341,0.00030211,-0.0001
 8472,-0.00025842,-0.00001649,0.00000472,-0.00004322,-0.00010680,0.0000
 1306,-0.00001319,-0.00011079,0.00029326,0.00004677,0.00003182,0.000020
 14,-0.00000788,-0.00002712,-0.00000840,-0.00000557,-0.00002334,0.00001
 002,-0.00001257,0.00000854,0.00000672,-0.00001090,-0.00000863,0.000009
 90,0.00001527,-0.00001801,0.00000125,0.00019662,0.00041233,-0.00040029
 ,0.00016958,0.00034974,0.00007664,-0.00006772,0.00019847,-0.00019239,0
 .00020832,-0.00006529,-0.00024282,-0.00028073,0.00017844,-0.00009692,-
 0.00022836,0.00011492,0.00039739,-0.00002928,-0.00015934,-0.00005001,-
 0.00023197,-0.00007525,-0.00003840,-0.00000627,0.00000293,-0.00002575,
 -0.00001283,-0.00004122,0.00002333,-0.00001833,-0.00002400,0.00000948,
 0.00654985,0.00109377,0.00690485,0.00740823,0.00324287,-0.00120001,-0.
 05771309,-0.00181236,-0.04453758,-0.00092482,-0.00002625,0.00035888,-0
 .00001993,0.00008409,0.00035085,0.00368329,-0.00273032,-0.01238616,0.0
 4365495,-0.00133154,0.00067208,-0.00018787,-0.00004447,0.00019650,0.00
 010480,0.00008689,0.00017198,-0.00000370,-0.00002688,0.00007207,0.0000
 1706,-0.00004989,-0.00001495,0.00001300,0.00004781,-0.00002016,0.00003
 018,-0.00001287,-0.00001618,-0.00006697,-0.00001968,-0.00001928,0.0000
 1295,-0.00000581,-0.00002430,-0.00002042,-0.00001147,0.00002545,-0.000
 01069,-0.00002155,-0.00000618,0.00000093,-0.00000621,0.00000398,-0.000
 00199,-0.00000792,-0.00000239,-0.00000465,0.00047985,-0.00156228,0.000
 35715,0.00025158,-0.00006270,0.00049861,-0.00053952,-0.00012164,0.0002
 2727,-0.00007997,0.00002473,0.00041659,0.00005147,-0.00006136,-0.00000
 465,-0.00012549,-0.00007736,-0.00014430,0.00007074,0.00002365,-0.00001
 835,0.00028469,0.00002648,0.00000745,-0.00004301,0.00000755,-0.0000633
 6,0.00004723,0.00000875,-0.00002432,0.00002038,0.00002022,-0.00005801,
 -0.00522710,0.00054647,-0.03354448,0.00333694,-0.00531701,-0.00225005,
 -0.00188295,-0.08058558,-0.05417559,0.00015064,-0.00125573,0.00039261,
 -0.00031732,-0.00025432,-0.00163511,0.00461908,0.00969867,0.02891814,-
 0.00172290,0.07992469,0.00085039,0.00079152,-0.00078112,0.00004048,0.0
 0004074,-0.00004274,-0.00011609,-0.00028837,0.00021280,0.00007285,-0.0
 0022773,0.00020478,0.00013810,0.00001030,0.00000772,0.00002512,0.00007
 921,0.00001127,0.00003429,0.00004984,-0.00025118,-0.00002021,-0.000010
 49,-0.00000136,-0.00000581,0.00000961,-0.00001315,-0.00000035,0.000010
 82,-0.00001251,0.00001355,-0.00000640,-0.00000881,0.00000753,0.0000020
 5,-0.00000665,-0.00000783,0.00000878,-0.00000728,-0.00013138,0.0022824
 0,-0.00015131,-0.00017992,0.00117929,-0.00039141,-0.00064895,0.0003655
 2,0.00019047,-0.00021596,0.00007169,0.00011800,0.00013601,-0.00014552,
 0.00006174,-0.00001215,-0.00005986,-0.00006512,0.00002263,-0.00009612,
 0.00000234,0.00027695,-0.00005453,-0.00004894,-0.00000136,-0.00001072,
 -0.00000013,0.00000007,-0.00000584,-0.00001051,0.00000473,-0.00000563,
 -0.00000283,-0.00281451,0.00081940,-0.00828268,-0.00062961,-0.00220949
 ,0.00122800,-0.04563266,-0.05591917,-0.35882202,0.00026242,0.00034745,
 0.00087997,-0.00015003,-0.00000107,-0.00047579,-0.00166771,-0.00826390
 ,-0.01369382,0.05175708,0.05761383,0.38002727,-0.00085450,-0.00014579,
 0.00048840,0.00000527,-0.00010544,0.00000127,0.00017210,0.00022568,-0.
 00034412,0.00004696,0.00005858,0.00007065,-0.00016495,0.00001330,0.000
 01755,-0.00004503,-0.00004330,0.00001569,0.00000818,-0.00007835,0.0000
 1799,0.00003441,0.00003617,0.00001074,0.00001238,-0.00000772,-0.000010
 00,-0.00001114,-0.00002113,0.00000230,-0.00000163,0.00000175,0.0000026
 4,-0.00001598,0.00000704,0.00000259,-0.00000171,-0.00000729,0.00000115
 ,-0.00000477,0.00003045,0.00005772,0.00004242,0.00004675,0.00004560,-0
 .00006080,0.00000924,-0.00004757,0.00002553,0.00000467,-0.00000813,-0.
 00000950,0.00000285,-0.00000016,-0.00001745,-0.00000936,0.00003358,-0.
 00003364,-0.00000905,0.00002700,-0.00001029,-0.00002253,-0.00003452,-0
 .00000234,0.00000075,-0.00001064,0.00001397,0.00001488,-0.00001981,-0.
 00000082,0.00000147,-0.00001025,-0.00642851,-0.00151018,0.00161324,0.0
 0556700,0.01717279,0.00133680,0.00612209,0.00088989,-0.01668331,-0.097
 95793,0.05901777,0.00904657,0.00744743,0.00365213,-0.00308921,-0.09770
 480,0.00550023,-0.05895503,0.00728861,0.00385232,-0.00238550,0.2465680
 8,0.00116705,-0.00147438,-0.00073118,0.00058029,0.00045287,0.00061093,
 -0.00024979,-0.00017614,0.00134853,0.00027823,-0.00027411,0.00019907,0
 .00001822,0.00033603,0.00019427,-0.00026822,0.00029550,-0.00001708,0.0
 0010326,0.00001831,-0.00012420,0.00024900,0.00007230,-0.00016610,-0.00
 002104,0.00001722,0.00001291,0.00004562,-0.00031258,0.00005208,0.00006
 858,0.00002201,0.00002682,0.00003025,-0.00002464,-0.00003997,0.0000115
 2,0.00000551,-0.00000790,-0.00025714,-0.00043613,-0.00005699,-0.000116
 50,0.00005604,0.00034434,0.00004868,0.00021820,-0.00019958,0.00017695,
 -0.00000135,-0.00019264,0.00000820,-0.00001270,0.00000820,-0.00000551,
 0.00013339,0.00028484,0.00002869,-0.00007707,-0.00004162,-0.00023460,-
 0.00008061,-0.00001569,0.00000446,-0.00000814,0.00001949,-0.00000696,-
 0.00001233,0.00002459,-0.00000252,-0.00000708,0.00000474,-0.00282477,-
 0.04295540,-0.05522768,0.03029966,-0.06034912,0.05798240,-0.01263068,0
 .07265547,0.02067807,0.04082691,-0.32235159,-0.11449877,0.00337950,-0.
 00120501,0.00292125,0.02356554,-0.16353302,0.00556589,0.00409716,-0.00
 311041,0.00298648,-0.16314082,0.75606802,0.00126118,-0.00163174,0.0001
 2618,0.00050358,0.00073945,0.00020232,0.00034322,-0.00006353,0.0008703
 3,0.00006534,0.00004240,0.00024667,-0.00038897,0.00021222,0.00023565,-
 0.00030044,0.00032888,-0.00003978,0.00013952,0.00030619,-0.00028061,0.
 00028215,0.00013977,-0.00013739,0.00001374,-0.00000889,0.00000461,-0.0
 0007773,-0.00030573,0.00007244,-0.00003911,0.00000686,0.00002052,-0.00
 002222,-0.00000570,-0.00003881,-0.00001291,0.00001172,-0.00000023,-0.0
 0058644,-0.00020073,0.00012590,0.00002284,0.00020754,0.00037986,0.0000
 3268,0.00021243,-0.00042143,0.00027207,0.00001947,-0.00022436,0.000023
 89,-0.00000197,0.00002955,-0.00001163,0.00011098,0.00042557,-0.0000179
 4,-0.00007436,-0.00001296,-0.00030237,-0.00016462,-0.00016030,-0.00000
 604,-0.00001239,-0.00002515,0.00002484,0.00002118,-0.00001309,0.000003
 49,0.00000260,-0.00002438,0.00125716,-0.05381846,-0.06991350,0.0181178
 0,-0.00927724,0.09103740,-0.03424967,0.08756635,-0.04261276,-0.0140676
 3,-0.02974073,-0.18780825,-0.00321864,0.00364381,-0.00187045,-0.035118
 41,-0.07909894,-0.35610945,-0.00243292,0.00261344,0.00004576,0.1278908
 5,-0.01937162,0.75619039,-0.00006994,-0.00023991,-0.00040487,0.0000250
 6,-0.00006636,0.00002740,0.00003943,0.00006071,-0.00010169,-0.00004035
 ,0.00001174,0.00002163,-0.00004077,-0.00001153,-0.00001608,0.00000509,
 0.00001658,0.00002180,0.00001708,-0.00000670,-0.00004162,-0.00000309,0
 .00000231,0.00001612,0.00000073,-0.00001197,-0.00000463,-0.00003101,0.
 00001119,0.00001170,-0.00002110,-0.00001033,-0.00001152,-0.00000571,0.
 00000128,-0.00000120,-0.00000627,0.00000070,-0.00000760,-0.00021784,0.
 00013477,-0.00011020,0.00001582,0.00000996,0.00000774,0.00005167,0.000
 03563,-0.00003477,0.00004006,-0.00000946,-0.00003574,-0.00000826,0.000
 00779,-0.00000170,-0.00000826,-0.00000141,0.00006091,-0.00000255,-0.00
 000908,0.00000106,-0.00004708,-0.00001955,-0.00003340,-0.00000083,-0.0
 0000541,-0.00000814,0.00000147,0.00000233,0.00000323,-0.00000006,0.000
 00004,-0.00000388,0.00743728,0.00398190,-0.00231884,0.00387306,-0.0031
 1140,-0.01219263,-0.00088517,0.00012954,0.00036016,-0.05886836,-0.0026
 2478,-0.05071557,-0.00446720,-0.00149253,0.00140058,0.00756888,0.00323
 283,-0.00096794,-0.00111866,-0.00035244,0.00017626,0.00635097,0.001945
 07,0.00672231,0.04461320,0.00000241,0.00047492,0.00113452,-0.00006465,
 0.,-0.00005820,-0.00011041,0.00002693,-0.00000591,0.00001294,-0.000000
 99,-0.00001195,0.00004325,-0.00003474,-0.00003077,0.00002168,0.0000036
 3,0.00000161,0.00000370,-0.00001233,-0.00000099,-0.00001039,-0.0000144
 8,-0.00000032,-0.00000274,0.00000387,0.00000876,0.00000843,0.00001009,
 -0.00000664,0.00000100,-0.00000119,-0.00000169,0.00000567,-0.00000215,
 0.00000614,0.00000135,0.00000094,0.00000076,0.00014705,-0.00026691,0.0
 0000765,-0.00003240,0.00002550,0.00006009,-0.00000020,0.00002496,0.000
 03851,-0.00000223,0.00002575,-0.00000830,0.00000850,-0.00001324,0.0000
 0115,-0.00000344,0.00001842,0.00000730,0.00000046,-0.00001511,-0.00000
 526,-0.00001645,-0.00000291,0.00002278,0.00000176,-0.00000164,0.000009
 30,-0.00000615,-0.00000195,0.00000800,-0.00000027,-0.00000396,0.000003
 42,0.00397494,-0.00308565,0.00248357,0.00501835,0.00988490,0.02870609,
 0.00015748,-0.00123010,0.00041545,-0.00270323,-0.08095618,-0.05309078,
 -0.00170238,0.00082394,-0.00028324,0.00331171,-0.00524906,-0.00222432,
 -0.00034015,0.00001050,0.00005623,-0.00610520,0.00089404,-0.03445074,-
 0.00002594,0.07804507,0.00007523,-0.00062885,-0.00070912,0.00000491,0.
 00005277,0.00000175,0.00017258,0.00005975,-0.00011569,-0.00006418,-0.0
 0002468,0.00002821,-0.00010363,-0.00000347,0.00003159,0.00001644,0.000
 02275,-0.00000017,0.00004776,0.00002366,-0.00001934,-0.00001134,0.0000
 1724,0.00001388,0.00001163,-0.00001096,-0.00001059,-0.00002958,0.00002
 112,0.00000947,-0.00002123,-0.00001319,-0.00000589,-0.00001825,0.00001
 497,-0.00000727,-0.00001861,0.00000610,-0.00000390,-0.00019426,0.00026
 805,0.00005005,0.00006971,0.00001823,-0.00007861,-0.00001824,-0.000012
 77,-0.00007787,0.00001234,-0.00001090,0.00001664,0.00000303,-0.0000010
 5,0.00000795,-0.00002136,-0.00001607,0.00001009,-0.00001486,-0.0000066
 7,0.00001385,0.00000921,0.00000035,-0.00002945,-0.00000472,-0.00000755
 ,-0.00001839,0.00001952,0.00000088,-0.00001465,0.00000452,-0.00000068,
 -0.00001566,-0.00271234,0.00298556,0.00024160,-0.00185832,-0.00890840,
 -0.01454563,0.00025161,0.00048559,0.00091383,-0.05072786,-0.05285464,-
 0.35417135,0.00106121,0.00096582,0.00100043,-0.00080256,-0.00275924,0.
 00140232,0.00023115,0.00002170,-0.00015442,-0.00354455,0.00292925,-0.0
 0733124,0.05695547,0.05770324,0.37323556,-0.00012990,0.00039243,0.0001
 7890,-0.00010660,0.00013428,-0.00012793,0.00014326,0.00005348,0.000001
 76,-0.00006400,0.00006622,-0.00004482,-0.00007736,-0.00000231,0.000027
 07,0.00000450,-0.00000355,-0.00000600,0.00003940,0.00001888,0.00001876
 ,0.00000726,0.00000192,-0.00000801,-0.00000014,-0.00001612,0.00000955,
 -0.00001678,-0.00000511,0.00000465,-0.00002459,-0.00000006,0.00000545,
 -0.00000652,-0.00000083,-0.00000176,-0.00000243,0.00000035,0.00000377,
 -0.00002296,-0.00003974,0.00016596,0.00002742,-0.00002739,-0.00008698,
 0.00001913,-0.00001771,0.00003302,-0.00003085,-0.00000740,0.00002714,-
 0.00001296,0.00001070,0.00000147,-0.00001325,0.00000173,-0.00003605,-0
 .00001047,-0.00001822,-0.00000826,0.00003127,0.00001295,0.00000496,-0.
 00000639,0.00000199,-0.00001429,-0.00000379,-0.00000971,0.00000460,0.0
 0000228,-0.00000114,-0.00000157,0.00716401,0.00305722,-0.00307901,-0.0
 0091353,-0.00028456,-0.00013248,0.00359701,0.01117963,0.00565856,0.007
 85572,0.00179191,-0.00286462,-0.00111716,-0.00030032,0.00027580,-0.059
 82891,0.05180563,0.01549239,-0.00436317,-0.00165007,0.00085889,0.00650
 364,-0.00575026,-0.00337433,-0.00002931,-0.00028083,-0.00010091,0.0457
 6529,-0.00012493,-0.00057103,-0.00098678,0.00011636,-0.00029137,0.0001
 4446,-0.00015412,-0.00013954,0.00018523,0.00009020,0.00000915,0.000011
 56,0.00013557,0.00001616,-0.00000102,-0.00002316,-0.00001448,0.0000120
 6,-0.00004519,-0.00004055,-0.00001975,0.00001704,-0.00001147,-0.000012
 59,-0.00001148,0.00001759,-0.00000353,0.00002637,-0.00001927,0.0000009
 4,0.00002296,0.00000707,-0.00001081,0.00001750,-0.00001552,-0.00000247
 ,0.00001641,-0.00000599,-0.00000237,0.00011784,-0.00000138,-0.00022791
 ,-0.00005312,0.00000464,0.00003661,-0.00003010,0.00000811,0.00007607,-
 0.00002078,0.00002031,0.00001199,0.00000322,-0.00001626,-0.00001752,0.
 00000668,0.00002146,-0.00002751,0.00003216,-0.00000331,-0.00001521,-0.
 00000924,0.00003449,0.00006824,0.00001168,-0.00000666,0.00002840,-0.00
 001945,-0.00002095,0.00001937,-0.00000086,-0.00001057,0.00002292,0.003
 52256,-0.00129718,0.00359082,-0.00025715,0.00065992,0.00093515,0.00325
 085,-0.01746836,-0.01489268,0.00164072,0.00221540,-0.00108336,-0.00030
 282,-0.00019651,-0.00001184,0.05169177,-0.31626767,-0.10678180,-0.0014
 5107,0.00086110,0.00083313,0.00215564,-0.00011067,0.00271189,0.0000470
 2,-0.00023159,0.00001678,-0.05873852,0.33212976,-0.00002626,0.00071645
 ,0.00055198,-0.00004748,0.00019724,-0.00008701,0.00003149,0.00005763,-
 0.00004540,-0.00000254,-0.00001398,0.00000033,-0.00003307,0.00001592,-
 0.00000668,-0.00001167,-0.00000996,0.00000879,-0.00001719,-0.00001070,
 0.00000231,-0.00000353,0.00000647,0.00000530,-0.00000042,-0.00000718,-
 0.00000270,-0.00000313,0.00000092,0.00000044,0.00000220,-0.00000020,-0
 .00000101,-0.00000207,0.00000082,0.00000118,0.00000106,-0.00000201,-0.
 00000130,0.00001425,-0.00006858,0.00012352,-0.00000888,-0.00003957,0.0
 0000036,0.00001616,-0.00000919,-0.00001472,0.00000270,-0.00001334,-0.0
 0001709,-0.00000898,0.00001146,0.00000166,0.00001162,-0.00000273,0.000
 00076,-0.00000267,0.00000927,-0.00000188,0.00001014,-0.00000979,-0.000
 02485,-0.00000296,0.00000766,-0.00000548,-0.00000022,0.00000397,-0.000
 00345,-0.00000182,0.00000536,-0.00000064,-0.00312404,0.00317626,-0.001
 87570,-0.00020554,0.00082694,-0.00097314,-0.00467274,0.02249086,0.0128
 7136,-0.00296822,-0.00058559,-0.00599432,0.00026375,-0.00000042,0.0000
 2709,0.01533053,-0.10693448,-0.11763553,0.00133511,-0.00029182,0.00106
 465,0.00711709,-0.03475566,-0.00656010,0.00030521,-0.00157385,-0.00058
 495,-0.01425799,0.11575883,0.11815109,-0.00102352,-0.00017680,0.000151
 96,-0.00000364,-0.00015018,-0.00007676,0.00001700,0.00016292,-0.000092
 63,-0.00003499,0.00001612,0.00001144,-0.00007131,-0.00000619,0.0000161
 6,0.00002247,0.00001330,0.00000056,0.00004146,0.00001109,-0.00001840,-
 0.00000673,0.00000973,0.00000628,0.00000149,-0.00000813,-0.00000043,-0
 .00001406,0.00000846,0.00000152,-0.00001941,-0.00000574,-0.00000277,-0
 .00000742,0.00000288,-0.00000026,-0.00000643,0.00000285,-0.00000176,-0
 .00001890,0.00001790,-0.00002258,0.00001869,0.00002727,0.00001649,-0.0
 0001505,0.00004122,-0.00000749,0.00000442,0.00000083,0.00001279,-0.000
 00279,-0.00000739,0.00000102,-0.00001736,0.00000322,0.00000738,-0.0000
 0164,-0.00001513,-0.00000434,0.00000287,-0.00000442,-0.00000809,-0.000
 00441,0.00000010,-0.00000689,0.00000247,-0.00000468,0.00000294,0.00000
 187,-0.00000163,-0.00000426,-0.00068586,-0.00060710,0.00045490,0.00778
 799,0.00264487,-0.00077168,0.00807612,0.00153596,-0.00237269,0.0032268
 3,0.00290582,-0.00482428,-0.00014259,0.00011795,-0.00014706,0.00347016
 ,0.00515304,-0.00148951,-0.00014607,0.00017947,-0.00005733,-0.08288322
 ,0.07857599,-0.06274925,-0.00416795,-0.00131361,0.00132048,-0.00437912
 ,-0.00168057,0.00096008,0.07097866,-0.00030323,0.00000137,0.00009160,0
 .00002806,0.00001284,-0.00004921,-0.00007295,0.00003401,0.00004630,0.0
 0003822,0.00001160,0.00001155,0.00001823,0.00002341,0.00000367,-0.0000
 2743,-0.00001308,0.00000689,-0.00002433,-0.00002175,-0.00000813,0.0000
 1122,0.00000991,-0.00000479,-0.00000635,0.00000549,-0.00000644,0.00000
 949,-0.00001694,-0.00000177,0.00001097,0.00000772,-0.00000142,0.000006
 86,-0.00001036,0.00000086,0.00001282,-0.00000490,-0.00000022,0.0000795
 9,-0.00002523,-0.00004707,-0.00003104,0.00000230,0.00004966,-0.0000145
 3,0.00000585,0.00003273,-0.00000476,-0.00000098,0.00000024,-0.00000534
 ,-0.00000051,-0.00000786,0.00001383,0.00000666,-0.00000745,0.00001747,
 0.00000540,-0.00001149,-0.00000074,0.00000174,0.00001442,0.00000319,0.
 00000399,0.00001006,-0.00001104,-0.00000400,0.00000804,-0.00000224,0.0
 0000059,0.00001085,-0.00049107,-0.00007748,-0.00103935,0.00252897,-0.0
 0383541,-0.00412391,0.00161759,0.00150586,-0.00228461,0.01101303,-0.01
 669385,0.02358103,0.00046548,-0.00110552,0.00099091,-0.00279738,0.0093
 1587,-0.00794843,-0.00013690,0.00021692,-0.00025346,0.07851179,-0.2347
 3243,0.12933026,-0.00163260,0.00085074,-0.00035471,-0.00137546,0.00073
 517,0.00104299,-0.08744943,0.24378499,0.00025907,0.00001181,0.00006221
 ,-0.00000430,0.00011730,-0.00000319,0.00004943,-0.00000869,-0.00000292
 ,-0.00003003,-0.00003229,0.00001975,-0.00002502,-0.00000617,0.00000695
 ,0.00001625,0.00002367,-0.00000755,0.00003453,0.00001800,-0.00002064,-
 0.00000785,0.00000123,0.00000335,0.00000413,-0.00000251,-0.00000226,-0
 .00000923,0.00000786,-0.00000128,-0.00000711,-0.00000467,0.00000275,-0
 .00000582,0.00000725,-0.00000189,-0.00000930,0.00000487,0.00000014,-0.
 00002879,0.00003944,0.00003498,0.00003258,0.00005756,-0.00002307,-0.00
 004673,0.00000134,-0.00001170,-0.00000544,0.00001613,0.00004119,0.0000
 1740,-0.00001742,0.00000890,-0.00002047,-0.00000948,-0.00000166,-0.000
 00532,-0.00000834,0.00000874,0.00001637,-0.00000362,-0.00000109,-0.000
 00485,-0.00000580,-0.00000931,0.00001310,0.00000544,-0.00000770,0.0000
 0414,0.00000031,-0.00001365,0.00037638,-0.00104906,-0.00057750,-0.0009
 1822,-0.00347897,-0.00003105,-0.00218381,-0.00296051,-0.00533755,0.005
 49530,-0.01391139,0.01287551,0.00024549,-0.00055956,0.00037906,-0.0120
 7733,0.02960383,-0.01325692,-0.00050516,0.00126058,-0.00083098,-0.0626
 5661,0.12925255,-0.17642892,0.00092043,0.00107837,0.00091699,0.0013723
 3,-0.00036730,0.00102514,0.06969446,-0.13908173,0.18118517||0.00000361
 ,-0.00000570,0.00000543,0.00000057,-0.00000583,0.00000003,0.00000221,0
 .00003808,-0.00000007,-0.00003300,-0.00001445,0.00000135,0.00002386,-0
 .00002536,-0.00000387,0.00002415,-0.00002264,-0.00000394,0.00000275,0.
 00000200,0.00000041,-0.00003244,-0.00001000,0.00000029,-0.00000254,0.0
 0000130,0.00000273,0.00000700,0.00003470,0.00000426,-0.00000182,0.0000
 0286,0.,0.00000195,0.,0.00000102,-0.00000022,-0.00000263,-0.00000193,0
 .00003721,0.00001711,0.00001198,-0.00000524,-0.00001888,-0.00005150,-0
 .00003581,-0.00000207,0.00003477,-0.00003531,-0.00001067,0.00003765,0.
 00000184,0.00000429,0.00000212,-0.00000413,-0.00002307,-0.00004903,0.0
 0000195,0.00000120,-0.00000354,0.00004303,0.00003155,0.00001064,0.0000
 0378,0.00000099,-0.00000347,-0.00000068,0.00000209,0.00000523,-0.00000
 564,-0.00000384,-0.00000065,0.00001729,0.00000776,-0.00000087,-0.00000
 585,-0.00000043,0.00000239,-0.00000904,0.00000159,-0.00000060,-0.00000
 625,-0.00000068,0.00000287,0.00000111,-0.00000086,-0.00000085,-0.00000
 448,-0.00000197,0.00000013,-0.00000036,0.00000036,-0.00000033,0.000011
 18,0.00000217,-0.00000209,0.00000127,-0.00000043,-0.00000107,0.0000000
 4,0.00000125,0.00000030,-0.00000204,0.00000025,0.00000022|||@


 LAWS OF PROGRAMMING DEFINITION:  A WORKING PROGRAM
                                  IS ONE THAT HAS
                                  ONLY UNOBSERVED
                                  BUGS.
 Job cpu time:  0 days  0 hours  6 minutes 24.0 seconds.
 File lengths (MBytes):  RWF=    350 Int=      0 D2E=      0 Chk=      7 Scr=      1
 Normal termination of Gaussian 09 at Tue Sep 07 06:19:50 2021.
