 Entering Link 1 = b:\programy\g09w\l1.exe PID=      7832.
  
 Copyright (c) 1988,1990,1992,1993,1995,1998,2003,2009, Gaussian, Inc.
                  All Rights Reserved.
  
 This is part of the Gaussian(R) 09 program.  It is based on
 the Gaussian(R) 03 system (copyright 2003, Gaussian, Inc.),
 the Gaussian(R) 98 system (copyright 1998, Gaussian, Inc.),
 the Gaussian(R) 94 system (copyright 1995, Gaussian, Inc.),
 the Gaussian 92(TM) system (copyright 1992, Gaussian, Inc.),
 the Gaussian 90(TM) system (copyright 1990, Gaussian, Inc.),
 the Gaussian 88(TM) system (copyright 1988, Gaussian, Inc.),
 the Gaussian 86(TM) system (copyright 1986, Carnegie Mellon
 University), and the Gaussian 82(TM) system (copyright 1983,
 Carnegie Mellon University). Gaussian is a federally registered
 trademark of Gaussian, Inc.
  
 This software contains proprietary and confidential information,
 including trade secrets, belonging to Gaussian, Inc.
  
 This software is provided under written license and may be
 used, copied, transmitted, or stored only in accord with that
 written license.
  
 The following legend is applicable only to US Government
 contracts under FAR:
  
                    RESTRICTED RIGHTS LEGEND
  
 Use, reproduction and disclosure by the US Government is
 subject to restrictions as set forth in subparagraphs (a)
 and (c) of the Commercial Computer Software - Restricted
 Rights clause in FAR 52.227-19.
  
 Gaussian, Inc.
 340 Quinnipiac St., Bldg. 40, Wallingford CT 06492
  
  
 ---------------------------------------------------------------
 Warning -- This program may not be used in any manner that
 competes with the business of Gaussian, Inc. or will provide
 assistance to any competitor of Gaussian, Inc.  The licensee
 of this program is prohibited from giving any competitor of
 Gaussian, Inc. access to this program.  By using this program,
 the user acknowledges that Gaussian, Inc. is engaged in the
 business of creating and licensing software in the field of
 computational chemistry and represents and warrants to the
 licensee that it is not a competitor of Gaussian, Inc. and that
 it will not use this program in any manner prohibited above.
 ---------------------------------------------------------------
  

 Cite this work as:
 Gaussian 09, Revision A.02,
 M. J. Frisch, G. W. Trucks, H. B. Schlegel, G. E. Scuseria, 
 M. A. Robb, J. R. Cheeseman, G. Scalmani, V. Barone, B. Mennucci, 
 G. A. Petersson, H. Nakatsuji, M. Caricato, X. Li, H. P. Hratchian, 
 A. F. Izmaylov, J. Bloino, G. Zheng, J. L. Sonnenberg, M. Hada, 
 M. Ehara, K. Toyota, R. Fukuda, J. Hasegawa, M. Ishida, T. Nakajima, 
 Y. Honda, O. Kitao, H. Nakai, T. Vreven, J. A. Montgomery, Jr., 
 J. E. Peralta, F. Ogliaro, M. Bearpark, J. J. Heyd, E. Brothers, 
 K. N. Kudin, V. N. Staroverov, R. Kobayashi, J. Normand, 
 K. Raghavachari, A. Rendell, J. C. Burant, S. S. Iyengar, J. Tomasi, 
 M. Cossi, N. Rega, J. M. Millam, M. Klene, J. E. Knox, J. B. Cross, 
 V. Bakken, C. Adamo, J. Jaramillo, R. Gomperts, R. E. Stratmann, 
 O. Yazyev, A. J. Austin, R. Cammi, C. Pomelli, J. W. Ochterski, 
 R. L. Martin, K. Morokuma, V. G. Zakrzewski, G. A. Voth, 
 P. Salvador, J. J. Dannenberg, S. Dapprich, A. D. Daniels, 
 O. Farkas, J. B. Foresman, J. V. Ortiz, J. Cioslowski, 
 and D. J. Fox, Gaussian, Inc., Wallingford CT, 2009.
 
 ******************************************
 Gaussian 09:  IA32W-G09RevA.02 11-Jun-2009
                06-Sep-2021 
 ******************************************
 %nprocshared=12
 Will use up to   12 processors via shared memory.
 ----------------------------------------------
 # opt freq=noraman hf/6-311g geom=connectivity
 ----------------------------------------------
 1/18=20,19=15,38=1,57=2/1,3;
 2/9=110,12=2,17=6,18=5,40=1/2;
 3/5=4,6=6,11=9,16=1,25=1,30=1,71=1/1,2,3;
 4//1;
 5/5=2,38=5/2;
 6/7=2,8=2,9=2,10=2,28=1/1;
 7//1,2,3,16;
 1/18=20,19=15/3(2);
 2/9=110/2;
 99//99;
 2/9=110/2;
 3/5=4,6=6,11=9,16=1,25=1,30=1,71=1/1,2,3;
 4/5=5,16=3/1;
 5/5=2,38=5/2;
 7//1,2,3,16;
 1/18=20,19=15/3(-5);
 2/9=110/2;
 6/7=2,8=2,9=2,10=2,19=2,28=1/1;
 99/9=1/99;
 -----
 M0001
 -----
 Symbolic Z-matrix:
 Charge =  0 Multiplicity = 1
 C                     0.27834   0.08045   0.72013 
 H                     0.723     0.21468   1.74263 
 C                    -1.22207   0.085     0.874 
 C                    -2.07371  -0.04355  -0.22563 
 C                    -1.77487   0.23011   2.1484 
 C                    -3.45241  -0.02863  -0.0542 
 H                    -1.63683  -0.14243  -1.23198 
 C                    -3.15512   0.24489   2.31759 
 H                    -1.12019   0.33338   3.02189 
 C                    -3.99593   0.11478   1.21814 
 H                    -4.11039  -0.12827  -0.9235 
 H                    -3.57923   0.35985   3.32039 
 H                    -5.0822    0.12663   1.35286 
 C                     0.72576   1.24005  -0.13726 
 C                     1.43196   2.29361   0.44728 
 C                     0.45116   1.27952  -1.50586 
 C                     1.85936   3.36616  -0.32802 
 H                     1.65103   2.27876   1.52139 
 C                     0.88158   2.35087  -2.27879 
 H                    -0.1259    0.45908  -1.95925 
 C                     1.58778   3.39566  -1.69136 
 H                     2.41133   4.1888    0.13807 
 H                     0.66279   2.37164  -3.35126 
 H                     1.92718   4.23947  -2.30059 
 C                     0.84572  -1.22594   0.22244 
 C                     0.06931  -2.37707   0.09433 
 C                     2.21336  -1.29545  -0.06392 
 C                     0.64701  -3.57388  -0.3175 
 H                    -1.00434  -2.34057   0.31879 
 C                     2.78759  -2.49047  -0.47632 
 H                     2.83112  -0.39471   0.03467 
 C                     2.00504  -3.63396  -0.60427 
 H                     0.02624  -4.47054  -0.41425 
 H                     3.85846  -2.53176  -0.70036 
 H                     2.45806  -4.57614  -0.92869 
 

 GradGradGradGradGradGradGradGradGradGradGradGradGradGradGradGradGradGrad
 Berny optimization.
 Initialization pass.
                           ----------------------------
                           !    Initial Parameters    !
                           ! (Angstroms and Degrees)  !
 --------------------------                            --------------------------
 ! Name  Definition              Value          Derivative Info.                !
 --------------------------------------------------------------------------------
 ! R1    R(1,2)                  1.1231         estimate D2E/DX2                !
 ! R2    R(1,3)                  1.5083         estimate D2E/DX2                !
 ! R3    R(1,14)                 1.51           estimate D2E/DX2                !
 ! R4    R(1,25)                 1.5087         estimate D2E/DX2                !
 ! R5    R(3,4)                  1.3968         estimate D2E/DX2                !
 ! R6    R(3,5)                  1.3967         estimate D2E/DX2                !
 ! R7    R(4,6)                  1.3894         estimate D2E/DX2                !
 ! R8    R(4,7)                  1.1015         estimate D2E/DX2                !
 ! R9    R(5,8)                  1.3907         estimate D2E/DX2                !
 ! R10   R(5,9)                  1.0965         estimate D2E/DX2                !
 ! R11   R(6,10)                 1.391          estimate D2E/DX2                !
 ! R12   R(6,11)                 1.0948         estimate D2E/DX2                !
 ! R13   R(8,10)                 1.3902         estimate D2E/DX2                !
 ! R14   R(8,12)                 1.0949         estimate D2E/DX2                !
 ! R15   R(10,13)                1.0947         estimate D2E/DX2                !
 ! R16   R(14,15)                1.3966         estimate D2E/DX2                !
 ! R17   R(14,16)                1.3964         estimate D2E/DX2                !
 ! R18   R(15,17)                1.3907         estimate D2E/DX2                !
 ! R19   R(15,18)                1.0963         estimate D2E/DX2                !
 ! R20   R(16,19)                1.3894         estimate D2E/DX2                !
 ! R21   R(16,20)                1.1008         estimate D2E/DX2                !
 ! R22   R(17,21)                1.3904         estimate D2E/DX2                !
 ! R23   R(17,22)                1.0948         estimate D2E/DX2                !
 ! R24   R(19,21)                1.3912         estimate D2E/DX2                !
 ! R25   R(19,23)                1.0948         estimate D2E/DX2                !
 ! R26   R(21,24)                1.0947         estimate D2E/DX2                !
 ! R27   R(25,26)                1.3944         estimate D2E/DX2                !
 ! R28   R(25,27)                1.399          estimate D2E/DX2                !
 ! R29   R(26,28)                1.3913         estimate D2E/DX2                !
 ! R30   R(26,29)                1.0975         estimate D2E/DX2                !
 ! R31   R(27,30)                1.3885         estimate D2E/DX2                !
 ! R32   R(27,31)                1.0967         estimate D2E/DX2                !
 ! R33   R(28,32)                1.3893         estimate D2E/DX2                !
 ! R34   R(28,33)                1.0949         estimate D2E/DX2                !
 ! R35   R(30,32)                1.3915         estimate D2E/DX2                !
 ! R36   R(30,34)                1.0948         estimate D2E/DX2                !
 ! R37   R(32,35)                1.0946         estimate D2E/DX2                !
 ! A1    A(2,1,3)              107.4952         estimate D2E/DX2                !
 ! A2    A(2,1,14)             107.9312         estimate D2E/DX2                !
 ! A3    A(2,1,25)             104.7696         estimate D2E/DX2                !
 ! A4    A(3,1,14)             110.5104         estimate D2E/DX2                !
 ! A5    A(3,1,25)             114.2277         estimate D2E/DX2                !
 ! A6    A(14,1,25)            111.4833         estimate D2E/DX2                !
 ! A7    A(1,3,4)              121.7315         estimate D2E/DX2                !
 ! A8    A(1,3,5)              119.152          estimate D2E/DX2                !
 ! A9    A(4,3,5)              119.1152         estimate D2E/DX2                !
 ! A10   A(3,4,6)              120.4576         estimate D2E/DX2                !
 ! A11   A(3,4,7)              119.0569         estimate D2E/DX2                !
 ! A12   A(6,4,7)              120.4797         estimate D2E/DX2                !
 ! A13   A(3,5,8)              120.3277         estimate D2E/DX2                !
 ! A14   A(3,5,9)              120.0228         estimate D2E/DX2                !
 ! A15   A(8,5,9)              119.6495         estimate D2E/DX2                !
 ! A16   A(4,6,10)             120.1129         estimate D2E/DX2                !
 ! A17   A(4,6,11)             119.8313         estimate D2E/DX2                !
 ! A18   A(10,6,11)            120.0557         estimate D2E/DX2                !
 ! A19   A(5,8,10)             120.2035         estimate D2E/DX2                !
 ! A20   A(5,8,12)             119.8031         estimate D2E/DX2                !
 ! A21   A(10,8,12)            119.9934         estimate D2E/DX2                !
 ! A22   A(6,10,8)             119.783          estimate D2E/DX2                !
 ! A23   A(6,10,13)            120.0957         estimate D2E/DX2                !
 ! A24   A(8,10,13)            120.1212         estimate D2E/DX2                !
 ! A25   A(1,14,15)            119.4404         estimate D2E/DX2                !
 ! A26   A(1,14,16)            121.3285         estimate D2E/DX2                !
 ! A27   A(15,14,16)           119.2308         estimate D2E/DX2                !
 ! A28   A(14,15,17)           120.2563         estimate D2E/DX2                !
 ! A29   A(14,15,18)           120.0603         estimate D2E/DX2                !
 ! A30   A(17,15,18)           119.6834         estimate D2E/DX2                !
 ! A31   A(14,16,19)           120.4035         estimate D2E/DX2                !
 ! A32   A(14,16,20)           119.0581         estimate D2E/DX2                !
 ! A33   A(19,16,20)           120.5297         estimate D2E/DX2                !
 ! A34   A(15,17,21)           120.195          estimate D2E/DX2                !
 ! A35   A(15,17,22)           119.808          estimate D2E/DX2                !
 ! A36   A(21,17,22)           119.997          estimate D2E/DX2                !
 ! A37   A(16,19,21)           120.0961         estimate D2E/DX2                !
 ! A38   A(16,19,23)           119.8475         estimate D2E/DX2                !
 ! A39   A(21,19,23)           120.0564         estimate D2E/DX2                !
 ! A40   A(17,21,19)           119.8173         estimate D2E/DX2                !
 ! A41   A(17,21,24)           120.0974         estimate D2E/DX2                !
 ! A42   A(19,21,24)           120.0853         estimate D2E/DX2                !
 ! A43   A(1,25,26)            122.3938         estimate D2E/DX2                !
 ! A44   A(1,25,27)            118.5659         estimate D2E/DX2                !
 ! A45   A(26,25,27)           118.9796         estimate D2E/DX2                !
 ! A46   A(25,26,28)           120.4066         estimate D2E/DX2                !
 ! A47   A(25,26,29)           119.8995         estimate D2E/DX2                !
 ! A48   A(28,26,29)           119.6939         estimate D2E/DX2                !
 ! A49   A(25,27,30)           120.5207         estimate D2E/DX2                !
 ! A50   A(25,27,31)           119.4366         estimate D2E/DX2                !
 ! A51   A(30,27,31)           120.0419         estimate D2E/DX2                !
 ! A52   A(26,28,32)           120.2775         estimate D2E/DX2                !
 ! A53   A(26,28,33)           119.684          estimate D2E/DX2                !
 ! A54   A(32,28,33)           120.0385         estimate D2E/DX2                !
 ! A55   A(27,30,32)           120.1312         estimate D2E/DX2                !
 ! A56   A(27,30,34)           119.8516         estimate D2E/DX2                !
 ! A57   A(32,30,34)           120.0173         estimate D2E/DX2                !
 ! A58   A(28,32,30)           119.6836         estimate D2E/DX2                !
 ! A59   A(28,32,35)           120.1961         estimate D2E/DX2                !
 ! A60   A(30,32,35)           120.1202         estimate D2E/DX2                !
 ! D1    D(2,1,3,4)            179.0653         estimate D2E/DX2                !
 ! D2    D(2,1,3,5)             -0.5189         estimate D2E/DX2                !
 ! D3    D(14,1,3,4)            61.5122         estimate D2E/DX2                !
 ! D4    D(14,1,3,5)          -118.0721         estimate D2E/DX2                !
 ! D5    D(25,1,3,4)           -65.1521         estimate D2E/DX2                !
 ! D6    D(25,1,3,5)           115.2637         estimate D2E/DX2                !
 ! D7    D(2,1,14,15)           -6.7712         estimate D2E/DX2                !
 ! D8    D(2,1,14,16)          173.0407         estimate D2E/DX2                !
 ! D9    D(3,1,14,15)          110.5135         estimate D2E/DX2                !
 ! D10   D(3,1,14,16)          -69.6746         estimate D2E/DX2                !
 ! D11   D(25,1,14,15)        -121.3102         estimate D2E/DX2                !
 ! D12   D(25,1,14,16)          58.5018         estimate D2E/DX2                !
 ! D13   D(2,1,25,26)          109.0282         estimate D2E/DX2                !
 ! D14   D(2,1,25,27)          -68.1073         estimate D2E/DX2                !
 ! D15   D(3,1,25,26)           -8.3309         estimate D2E/DX2                !
 ! D16   D(3,1,25,27)          174.5335         estimate D2E/DX2                !
 ! D17   D(14,1,25,26)        -134.4889         estimate D2E/DX2                !
 ! D18   D(14,1,25,27)          48.3755         estimate D2E/DX2                !
 ! D19   D(1,3,4,6)           -179.6472         estimate D2E/DX2                !
 ! D20   D(1,3,4,7)             -0.5127         estimate D2E/DX2                !
 ! D21   D(5,3,4,6)             -0.0628         estimate D2E/DX2                !
 ! D22   D(5,3,4,7)            179.0717         estimate D2E/DX2                !
 ! D23   D(1,3,5,8)            179.6521         estimate D2E/DX2                !
 ! D24   D(1,3,5,9)             -0.3322         estimate D2E/DX2                !
 ! D25   D(4,3,5,8)              0.0569         estimate D2E/DX2                !
 ! D26   D(4,3,5,9)           -179.9274         estimate D2E/DX2                !
 ! D27   D(3,4,6,10)            -0.0071         estimate D2E/DX2                !
 ! D28   D(3,4,6,11)           179.8844         estimate D2E/DX2                !
 ! D29   D(7,4,6,10)          -179.1292         estimate D2E/DX2                !
 ! D30   D(7,4,6,11)             0.7623         estimate D2E/DX2                !
 ! D31   D(3,5,8,10)             0.0189         estimate D2E/DX2                !
 ! D32   D(3,5,8,12)          -179.9558         estimate D2E/DX2                !
 ! D33   D(9,5,8,10)          -179.9967         estimate D2E/DX2                !
 ! D34   D(9,5,8,12)             0.0285         estimate D2E/DX2                !
 ! D35   D(4,6,10,8)             0.0834         estimate D2E/DX2                !
 ! D36   D(4,6,10,13)          179.9922         estimate D2E/DX2                !
 ! D37   D(11,6,10,8)         -179.8078         estimate D2E/DX2                !
 ! D38   D(11,6,10,13)           0.101          estimate D2E/DX2                !
 ! D39   D(5,8,10,6)            -0.0893         estimate D2E/DX2                !
 ! D40   D(5,8,10,13)         -179.9982         estimate D2E/DX2                !
 ! D41   D(12,8,10,6)          179.8854         estimate D2E/DX2                !
 ! D42   D(12,8,10,13)          -0.0234         estimate D2E/DX2                !
 ! D43   D(1,14,15,17)         179.6031         estimate D2E/DX2                !
 ! D44   D(1,14,15,18)          -0.4606         estimate D2E/DX2                !
 ! D45   D(16,14,15,17)         -0.2128         estimate D2E/DX2                !
 ! D46   D(16,14,15,18)        179.7235         estimate D2E/DX2                !
 ! D47   D(1,14,16,19)        -179.4685         estimate D2E/DX2                !
 ! D48   D(1,14,16,20)           1.5982         estimate D2E/DX2                !
 ! D49   D(15,14,16,19)          0.3438         estimate D2E/DX2                !
 ! D50   D(15,14,16,20)       -178.5895         estimate D2E/DX2                !
 ! D51   D(14,15,17,21)         -0.0884         estimate D2E/DX2                !
 ! D52   D(14,15,17,22)        179.9225         estimate D2E/DX2                !
 ! D53   D(18,15,17,21)        179.975          estimate D2E/DX2                !
 ! D54   D(18,15,17,22)         -0.014          estimate D2E/DX2                !
 ! D55   D(14,16,19,21)         -0.1736         estimate D2E/DX2                !
 ! D56   D(14,16,19,23)        179.8925         estimate D2E/DX2                !
 ! D57   D(20,16,19,21)        178.7439         estimate D2E/DX2                !
 ! D58   D(20,16,19,23)         -1.19           estimate D2E/DX2                !
 ! D59   D(15,17,21,19)          0.2612         estimate D2E/DX2                !
 ! D60   D(15,17,21,24)       -179.8433         estimate D2E/DX2                !
 ! D61   D(22,17,21,19)       -179.7497         estimate D2E/DX2                !
 ! D62   D(22,17,21,24)          0.1458         estimate D2E/DX2                !
 ! D63   D(16,19,21,17)         -0.1306         estimate D2E/DX2                !
 ! D64   D(16,19,21,24)        179.9739         estimate D2E/DX2                !
 ! D65   D(23,19,21,17)        179.8032         estimate D2E/DX2                !
 ! D66   D(23,19,21,24)         -0.0923         estimate D2E/DX2                !
 ! D67   D(1,25,26,28)        -177.3905         estimate D2E/DX2                !
 ! D68   D(1,25,26,29)           2.6419         estimate D2E/DX2                !
 ! D69   D(27,25,26,28)         -0.2663         estimate D2E/DX2                !
 ! D70   D(27,25,26,29)        179.7661         estimate D2E/DX2                !
 ! D71   D(1,25,27,30)         177.5797         estimate D2E/DX2                !
 ! D72   D(1,25,27,31)          -2.7435         estimate D2E/DX2                !
 ! D73   D(26,25,27,30)          0.3445         estimate D2E/DX2                !
 ! D74   D(26,25,27,31)       -179.9787         estimate D2E/DX2                !
 ! D75   D(25,26,28,32)          0.0592         estimate D2E/DX2                !
 ! D76   D(25,26,28,33)       -179.9895         estimate D2E/DX2                !
 ! D77   D(29,26,28,32)       -179.9731         estimate D2E/DX2                !
 ! D78   D(29,26,28,33)         -0.0219         estimate D2E/DX2                !
 ! D79   D(25,27,30,32)         -0.215          estimate D2E/DX2                !
 ! D80   D(25,27,30,34)        179.8216         estimate D2E/DX2                !
 ! D81   D(31,27,30,32)       -179.8899         estimate D2E/DX2                !
 ! D82   D(31,27,30,34)          0.1467         estimate D2E/DX2                !
 ! D83   D(26,28,32,30)          0.0745         estimate D2E/DX2                !
 ! D84   D(26,28,32,35)       -179.9674         estimate D2E/DX2                !
 ! D85   D(33,28,32,30)       -179.8765         estimate D2E/DX2                !
 ! D86   D(33,28,32,35)          0.0815         estimate D2E/DX2                !
 ! D87   D(27,30,32,28)          0.0032         estimate D2E/DX2                !
 ! D88   D(27,30,32,35)       -179.9549         estimate D2E/DX2                !
 ! D89   D(34,30,32,28)        179.9665         estimate D2E/DX2                !
 ! D90   D(34,30,32,35)          0.0084         estimate D2E/DX2                !
 --------------------------------------------------------------------------------
 Trust Radius=3.00D-01 FncErr=1.00D-07 GrdErr=1.00D-07
 Number of steps in this run= 197 maximum allowed number of steps= 210.
 GradGradGradGradGradGradGradGradGradGradGradGradGradGradGradGradGradGrad

                          Input orientation:                          
 ---------------------------------------------------------------------
 Center     Atomic      Atomic             Coordinates (Angstroms)
 Number     Number       Type             X           Y           Z
 ---------------------------------------------------------------------
      1          6           0        0.278343    0.080450    0.720127
      2          1           0        0.723003    0.214678    1.742628
      3          6           0       -1.222068    0.085001    0.874000
      4          6           0       -2.073706   -0.043545   -0.225627
      5          6           0       -1.774873    0.230109    2.148402
      6          6           0       -3.452405   -0.028626   -0.054202
      7          1           0       -1.636834   -0.142428   -1.231977
      8          6           0       -3.155115    0.244889    2.317588
      9          1           0       -1.120186    0.333375    3.021892
     10          6           0       -3.995929    0.114781    1.218135
     11          1           0       -4.110394   -0.128267   -0.923499
     12          1           0       -3.579231    0.359846    3.320389
     13          1           0       -5.082197    0.126626    1.352858
     14          6           0        0.725763    1.240045   -0.137262
     15          6           0        1.431957    2.293605    0.447282
     16          6           0        0.451156    1.279519   -1.505863
     17          6           0        1.859359    3.366165   -0.328016
     18          1           0        1.651033    2.278764    1.521393
     19          6           0        0.881575    2.350867   -2.278788
     20          1           0       -0.125897    0.459084   -1.959248
     21          6           0        1.587777    3.395665   -1.691362
     22          1           0        2.411327    4.188797    0.138072
     23          1           0        0.662790    2.371637   -3.351262
     24          1           0        1.927185    4.239471   -2.300586
     25          6           0        0.845722   -1.225943    0.222436
     26          6           0        0.069306   -2.377075    0.094330
     27          6           0        2.213358   -1.295454   -0.063925
     28          6           0        0.647009   -3.573883   -0.317499
     29          1           0       -1.004342   -2.340574    0.318793
     30          6           0        2.787594   -2.490471   -0.476325
     31          1           0        2.831124   -0.394711    0.034673
     32          6           0        2.005036   -3.633963   -0.604265
     33          1           0        0.026238   -4.470536   -0.414248
     34          1           0        3.858457   -2.531760   -0.700356
     35          1           0        2.458064   -4.576139   -0.928685
 ---------------------------------------------------------------------
                    Distance matrix (angstroms):
                    1          2          3          4          5
     1  C    0.000000
     2  H    1.123053   0.000000
     3  C    1.508287   2.134158   0.000000
     4  C    2.538102   3.429619   1.396779   0.000000
     5  C    2.505606   2.530667   1.396693   2.408361   0.000000
     6  C    3.811820   4.552124   2.418445   1.389396   2.780742
     7  H    2.743773   3.813743   2.158447   1.101533   3.403645
     8  C    3.790457   3.920624   2.417889   2.778594   1.390652
     9  H    2.705176   2.246765   2.164605   3.405533   1.096478
    10  C    4.303324   4.749042   2.795286   2.409245   2.410765
    11  H    4.691065   5.530603   3.408653   2.154600   3.875522
    12  H    4.660504   4.584716   3.408310   3.873443   2.155480
    13  H    5.397951   5.818937   3.889941   3.401704   3.403233
    14  C    1.509955   2.141348   2.480086   3.080981   3.535168
    15  C    2.510642   2.549995   3.479061   4.266703   4.175594
    16  C    2.534297   3.429356   3.144885   3.124809   4.405692
    17  C    3.793961   3.938367   4.658977   5.206305   5.401401
    18  H    2.712727   2.273903   3.672387   4.724287   4.040664
    19  C    3.809485   4.556340   4.415827   4.322310   5.581607
    20  H    2.736024   3.805818   3.060853   2.655567   4.432194
    21  C    4.303550   4.760126   5.043491   5.232877   6.005993
    22  H    4.665503   4.606371   5.530306   6.177420   6.102205
    23  H    4.687595   5.532071   5.160836   4.805321   6.385503
    24  H    5.398225   5.830659   6.103720   6.217460   7.040860
    25  C    1.508734   2.097960   2.533547   3.181491   3.563278
    26  C    2.544552   3.140285   2.887446   3.184373   3.797052
    27  C    2.500426   2.786627   3.819360   4.469043   4.809128
    28  C    3.816639   4.313131   4.277914   4.458028   5.139702
    29  H    2.769063   3.397108   2.497814   2.591578   3.248014
    30  C    3.786485   4.062526   4.953162   5.448168   5.925103
    31  H    2.685576   2.780763   4.166888   4.924270   5.106218
    32  C    4.304921   4.686529   5.141027   5.447073   6.065965
    33  H    4.697003   5.204693   4.895995   4.903426   5.648648
    34  H    4.653883   4.831373   5.927712   6.450360   6.890409
    35  H    5.399406   5.753111   6.206390   6.447917   7.105367
                    6          7          8          9         10
     6  C    0.000000
     7  H    2.167118   0.000000
     8  C    2.405947   3.880027   0.000000
     9  H    3.877196   4.311464   2.155182   0.000000
    10  C    1.390981   3.410944   1.390214   3.401650   0.000000
    11  H    1.094785   2.492761   3.399478   4.971979   2.158419
    12  H    3.399244   4.974858   1.094850   2.477237   2.157119
    13  H    2.158737   4.315586   2.158318   4.304179   1.094654
    14  C    4.367324   2.948135   4.698707   3.769594   5.039614
    15  C    5.431504   4.262822   5.360645   4.121232   5.899444
    16  C    4.365359   2.540994   5.356719   4.885169   5.343534
    17  C    6.309867   5.034952   6.471981   5.412706   6.873608
    18  H    5.818216   4.924763   5.279170   3.703470   6.054996
    19  C    5.421638   3.695229   6.469674   6.014527   6.404577
    20  H    3.864287   1.781480   5.245319   5.080962   5.019110
    21  C    6.309477   4.809080   6.963770   6.239026   7.099799
    22  H    7.225440   6.084747   7.161702   5.970953   7.669229
    23  H    5.793677   4.012501   7.157885   6.924638   6.904814
    24  H    7.225156   5.748495   7.944431   7.271370   8.029803
    25  C    4.470346   3.074477   4.749706   3.759418   5.121576
    26  C    4.235531   3.108641   4.713222   4.163178   4.898818
    27  C    5.805671   4.185427   6.071636   4.825750   6.495205
    28  C    5.426174   4.222215   5.998571   5.435180   6.125463
    29  H    3.387808   2.763473   3.912241   3.803968   3.973309
    30  C    6.721343   5.065558   7.113644   5.956708   7.461550
    31  H    6.294812   4.650882   6.438622   5.006640   6.947577
    32  C    6.563893   5.084099   7.085893   6.217379   7.306560
    33  H    5.653419   4.708185   6.310243   6.016553   6.314082
    34  H    7.754476   6.015792   8.124529   6.844780   8.507419
    35  H    7.508545   6.043011   8.080123   7.246673   8.262421
                   11         12         13         14         15
    11  H    0.000000
    12  H    4.304762   0.000000
    13  H    2.488207   2.486861   0.000000
    14  C    5.087127   5.591340   6.098571   0.000000
    15  C    6.201787   6.091483   6.924599   1.396564   0.000000
    16  C    4.809236   6.354725   6.333992   1.396437   2.409381
    17  C    6.942882   7.206044   7.842522   2.416984   1.390735
    18  H    6.705620   5.854425   7.070820   2.164763   1.096325
    19  C    5.736085   7.430595   7.328211   2.417506   2.781664
    20  H    4.158602   6.309511   5.970384   2.157512   3.403494
    21  C    6.743653   7.812286   8.027605   2.793741   2.410937
    22  H    7.892833   7.789403   8.609869   3.407649   2.155581
    23  H    5.909893   8.158000   7.757171   3.407970   3.876421
    24  H    7.577985   8.773110   8.910363   3.888436   3.403295
    25  C    5.203955   5.629586   6.184458   2.494969   3.575115
    26  C    4.854174   5.586591   5.864332   3.683494   4.878180
    27  C    6.487760   6.909970   7.566684   2.940591   3.708540
    28  C    5.905285   6.824189   7.021942   4.817945   5.968958
    29  H    4.010630   4.788726   4.877014   4.002760   5.237144
    30  C    7.304944   7.942027   8.492863   4.275846   5.057488
    31  H    7.012401   7.242785   8.039282   2.671055   3.058589
    32  C    7.056225   7.908063   8.258404   5.060691   6.047333
    33  H    6.018834   7.090804   7.095961   5.759930   6.962175
    34  H    8.326413   8.935713   9.550812   4.935317   5.521696
    35  H    7.932732   8.880738   9.174802   6.120067   7.080930
                   16         17         18         19         20
    16  C    0.000000
    17  C    2.779290   0.000000
    18  H    3.406241   2.155494   0.000000
    19  C    1.389410   2.406742   3.877969   0.000000
    20  H    1.100756   3.879856   4.310868   2.167014   0.000000
    21  C    2.409230   1.390447   3.401950   1.391184   3.410565
    22  H    3.874105   1.094819   2.477872   3.399903   4.974638
    23  H    2.154764   3.400129   4.972727   1.094759   2.493510
    24  H    3.401699   2.158309   4.304434   2.158842   4.315436
    25  C    3.069208   4.734756   3.823452   4.364742   2.922859
    26  C    4.009627   6.030545   5.120078   5.352093   3.507005
    27  C    3.437300   4.682494   3.950250   4.469331   3.484648
    28  C    5.000608   7.045153   6.216355   6.245345   4.422392
    29  H    4.307310   6.417633   5.462193   5.684517   3.714730
    30  C    4.553209   5.931593   5.294171   5.506390   4.403108
    31  H    3.292498   3.901290   3.278784   4.085467   3.667242
    32  C    5.231609   7.007091   6.293177   6.315408   4.809354
    33  H    5.868160   8.048705   7.206921   7.123176   5.168299
    34  H    5.175363   6.238633   5.740211   5.932395   5.138583
    35  H    6.216876   7.987455   7.324198   7.231286   5.752598
                   21         22         23         24         25
    21  C    0.000000
    22  H    2.157341   0.000000
    23  H    2.158587   4.305217   0.000000
    24  H    1.094696   2.486767   2.488256   0.000000
    25  C    5.056928   5.637166   5.074186   6.116040   0.000000
    26  C    6.230487   6.971201   5.896999   7.277775   1.394395
    27  C    5.004648   5.491540   5.163178   5.976617   1.399022
    28  C    7.165692   7.973680   6.674817   8.162107   2.417404
    29  H    6.607892   7.371034   6.201094   7.664984   2.162042
    30  C    6.128822   6.718011   6.034911   7.025692   2.420364
    31  H    4.346500   4.603854   4.880462   5.267465   2.160561
    32  C    7.125416   7.868399   6.739054   8.054472   2.797500
    33  H    8.120747   8.998764   7.473057   9.112414   3.406509
    34  H    6.424363   6.925535   6.425176   7.220811   3.410759
    35  H    8.055354   8.829737   7.573868   8.937501   3.892113
                   26         27         28         29         30
    26  C    0.000000
    27  C    2.406638   0.000000
    28  C    1.391293   2.776507   0.000000
    29  H    1.097468   3.404753   2.157053   0.000000
    30  C    2.779855   1.388483   2.404395   3.877301   0.000000
    31  H    3.400142   1.096674   3.873180   4.310210   2.157596
    32  C    2.411401   2.409147   1.389274   3.403123   1.391524
    33  H    2.154782   3.871351   1.094853   2.477131   3.398470
    34  H    3.874677   2.154030   3.397941   4.972126   1.094825
    35  H    3.404205   3.401556   2.158237   4.306067   2.159452
                   31         32         33         34         35
    31  H    0.000000
    32  C    3.403442   0.000000
    33  H    4.968024   2.156758   0.000000
    34  H    2.482470   2.158531   4.304256   0.000000
    35  H    4.307153   1.094613   2.487886   2.488518   0.000000
 Stoichiometry    C19H16
 Framework group  C1[X(C19H16)]
 Deg. of freedom    99
 Full point group                 C1      NOp   1
 Largest Abelian subgroup         C1      NOp   1
 Largest concise Abelian subgroup C1      NOp   1
                         Standard orientation:                         
 ---------------------------------------------------------------------
 Center     Atomic      Atomic             Coordinates (Angstroms)
 Number     Number       Type             X           Y           Z
 ---------------------------------------------------------------------
      1          6           0       -0.010992    0.013013   -0.761660
      2          1           0        0.017809    0.016810   -1.884337
      3          6           0       -1.457902   -0.077523   -0.345503
      4          6           0       -1.834192   -0.122697    0.998876
      5          6           0       -2.447290   -0.126091   -1.330137
      6          6           0       -3.174813   -0.213407    1.352327
      7          1           0       -1.052218   -0.099902    1.774358
      8          6           0       -3.788498   -0.217003   -0.974035
      9          1           0       -2.168549   -0.092838   -2.390072
     10          6           0       -4.154871   -0.259873    0.366348
     11          1           0       -3.458108   -0.250045    2.409188
     12          1           0       -4.556941   -0.255249   -1.752964
     13          1           0       -5.211006   -0.331468    0.645133
     14          6           0        0.754415   -1.196598   -0.281082
     15          6           0        1.212497   -2.132889   -1.210550
     16          6           0        1.017816   -1.397299    1.075522
     17          6           0        1.926315   -3.248936   -0.787411
     18          1           0        1.009451   -1.991145   -2.278543
     19          6           0        1.733501   -2.511691    1.495503
     20          1           0        0.635303   -0.669840    1.807745
     21          6           0        2.190296   -3.438987    0.564453
     22          1           0        2.280863   -3.978956   -1.522256
     23          1           0        1.936340   -2.659127    2.561156
     24          1           0        2.754526   -4.316715    0.895506
     25          6           0        0.671073    1.295880   -0.355069
     26          6           0       -0.026645    2.371847    0.192490
     27          6           0        2.043546    1.428009   -0.591974
     28          6           0        0.635167    3.555649    0.502835
     29          1           0       -1.104390    2.286014    0.380994
     30          6           0        2.702407    2.609736   -0.280034
     31          1           0        2.599592    0.586606   -1.022727
     32          6           0        1.999122    3.677723    0.268725
     33          1           0        0.075738    4.392981    0.932505
     34          1           0        3.777297    2.700177   -0.467313
     35          1           0        2.518576    4.609517    0.513891
 ---------------------------------------------------------------------
 Rotational constants (GHZ):      0.4040597      0.3819525      0.2326380
 Standard basis: 6-311G (5D, 7F)
 There are   295 symmetry adapted basis functions of A   symmetry.
 Integral buffers will be    262144 words long.
 Raffenetti 1 integral format.
 Two-electron integral symmetry is turned on.
   295 basis functions,   574 primitive gaussians,   295 cartesian basis functions
    65 alpha electrons       65 beta electrons
       nuclear repulsion energy      1290.7091612779 Hartrees.
 NAtoms=   35 NActive=   35 NUniq=   35 SFac= 7.50D-01 NAtFMM=   80 NAOKFM=F Big=F
 One-electron integrals computed using PRISM.
 PrsmSu:  requested number of processors reduced to:  10 ShMem   1 Linda.
 NBasis=   295 RedAO= T  NBF=   295
 NBsUse=   295 1.00D-06 NBFU=   295
 Harris functional with IExCor=  205 diagonalized for initial guess.
 ExpMin= 1.03D-01 ExpMax= 4.56D+03 ExpMxC= 6.82D+02 IAcc=1 IRadAn=         1 AccDes= 0.00D+00
 HarFok:  IExCor=  205 AccDes= 0.00D+00 IRadAn=         1 IDoV= 1
 ScaDFX=  1.000000  1.000000  1.000000  1.000000
 FoFCou: FMM=F IPFlag=           0 FMFlag=      100000 FMFlg1=           0
         NFxFlg=           0 DoJE=T BraDBF=F KetDBF=T FulRan=T
         Omega=  0.000000  0.000000  1.000000  0.000000  0.000000 ICntrl=     500 IOpCl=  0
         NMat0=    1 NMatS0=    1 NMatT0=    0 NMatD0=    1 NMtDS0=    0 NMtDT0=    0
         I1Cent=           4 NGrid=           0.
 Petite list used in FoFCou.
 Initial guess orbital symmetries:
       Occupied  (A) (A) (A) (A) (A) (A) (A) (A) (A) (A) (A) (A)
                 (A) (A) (A) (A) (A) (A) (A) (A) (A) (A) (A) (A)
                 (A) (A) (A) (A) (A) (A) (A) (A) (A) (A) (A) (A)
                 (A) (A) (A) (A) (A) (A) (A) (A) (A) (A) (A) (A)
                 (A) (A) (A) (A) (A) (A) (A) (A) (A) (A) (A) (A)
                 (A) (A) (A) (A) (A)
       Virtual   (A) (A) (A) (A) (A) (A) (A) (A) (A) (A) (A) (A)
                 (A) (A) (A) (A) (A) (A) (A) (A) (A) (A) (A) (A)
                 (A) (A) (A) (A) (A) (A) (A) (A) (A) (A) (A) (A)
                 (A) (A) (A) (A) (A) (A) (A) (A) (A) (A) (A) (A)
                 (A) (A) (A) (A) (A) (A) (A) (A) (A) (A) (A) (A)
                 (A) (A) (A) (A) (A) (A) (A) (A) (A) (A) (A) (A)
                 (A) (A) (A) (A) (A) (A) (A) (A) (A) (A) (A) (A)
                 (A) (A) (A) (A) (A) (A) (A) (A) (A) (A) (A) (A)
                 (A) (A) (A) (A) (A) (A) (A) (A) (A) (A) (A) (A)
                 (A) (A) (A) (A) (A) (A) (A) (A) (A) (A) (A) (A)
                 (A) (A) (A) (A) (A) (A) (A) (A) (A) (A) (A) (A)
                 (A) (A) (A) (A) (A) (A) (A) (A) (A) (A) (A) (A)
                 (A) (A) (A) (A) (A) (A) (A) (A) (A) (A) (A) (A)
                 (A) (A) (A) (A) (A) (A) (A) (A) (A) (A) (A) (A)
                 (A) (A) (A) (A) (A) (A) (A) (A) (A) (A) (A) (A)
                 (A) (A) (A) (A) (A) (A) (A) (A) (A) (A) (A) (A)
                 (A) (A) (A) (A) (A) (A) (A) (A) (A) (A) (A) (A)
                 (A) (A) (A) (A) (A) (A) (A) (A) (A) (A) (A) (A)
                 (A) (A) (A) (A) (A) (A) (A) (A) (A) (A) (A) (A)
                 (A) (A)
 The electronic state of the initial guess is 1-A.
 Requested convergence on RMS density matrix=1.00D-08 within 128 cycles.
 Requested convergence on MAX density matrix=1.00D-06.
 Requested convergence on             energy=1.00D-06.
 No special actions if energy rises.
 Integral accuracy reduced to 1.0D-05 until final iterations.
 Initial convergence to 1.0D-05 achieved.  Increase integral accuracy.
 SCF Done:  E(RHF) =  -728.672403878     A.U. after   14 cycles
             Convg  =    0.8744D-08             -V/T =  2.0001

 **********************************************************************

            Population analysis using the SCF density.

 **********************************************************************

 Orbital symmetries:
       Occupied  (A) (A) (A) (A) (A) (A) (A) (A) (A) (A) (A) (A)
                 (A) (A) (A) (A) (A) (A) (A) (A) (A) (A) (A) (A)
                 (A) (A) (A) (A) (A) (A) (A) (A) (A) (A) (A) (A)
                 (A) (A) (A) (A) (A) (A) (A) (A) (A) (A) (A) (A)
                 (A) (A) (A) (A) (A) (A) (A) (A) (A) (A) (A) (A)
                 (A) (A) (A) (A) (A)
       Virtual   (A) (A) (A) (A) (A) (A) (A) (A) (A) (A) (A) (A)
                 (A) (A) (A) (A) (A) (A) (A) (A) (A) (A) (A) (A)
                 (A) (A) (A) (A) (A) (A) (A) (A) (A) (A) (A) (A)
                 (A) (A) (A) (A) (A) (A) (A) (A) (A) (A) (A) (A)
                 (A) (A) (A) (A) (A) (A) (A) (A) (A) (A) (A) (A)
                 (A) (A) (A) (A) (A) (A) (A) (A) (A) (A) (A) (A)
                 (A) (A) (A) (A) (A) (A) (A) (A) (A) (A) (A) (A)
                 (A) (A) (A) (A) (A) (A) (A) (A) (A) (A) (A) (A)
                 (A) (A) (A) (A) (A) (A) (A) (A) (A) (A) (A) (A)
                 (A) (A) (A) (A) (A) (A) (A) (A) (A) (A) (A) (A)
                 (A) (A) (A) (A) (A) (A) (A) (A) (A) (A) (A) (A)
                 (A) (A) (A) (A) (A) (A) (A) (A) (A) (A) (A) (A)
                 (A) (A) (A) (A) (A) (A) (A) (A) (A) (A) (A) (A)
                 (A) (A) (A) (A) (A) (A) (A) (A) (A) (A) (A) (A)
                 (A) (A) (A) (A) (A) (A) (A) (A) (A) (A) (A) (A)
                 (A) (A) (A) (A) (A) (A) (A) (A) (A) (A) (A) (A)
                 (A) (A) (A) (A) (A) (A) (A) (A) (A) (A) (A) (A)
                 (A) (A) (A) (A) (A) (A) (A) (A) (A) (A) (A) (A)
                 (A) (A) (A) (A) (A) (A) (A) (A) (A) (A) (A) (A)
                 (A) (A)
 The electronic state is 1-A.
 Alpha  occ. eigenvalues --  -11.25761 -11.25231 -11.25190 -11.24916 -11.24520
 Alpha  occ. eigenvalues --  -11.24433 -11.24423 -11.24375 -11.24221 -11.24166
 Alpha  occ. eigenvalues --  -11.24140 -11.24126 -11.24078 -11.24038 -11.24029
 Alpha  occ. eigenvalues --  -11.23968 -11.23730 -11.23629 -11.23501  -1.18616
 Alpha  occ. eigenvalues --   -1.15871  -1.15572  -1.09027  -1.02376  -1.02238
 Alpha  occ. eigenvalues --   -1.01876  -1.01488  -1.01086  -0.92919  -0.84281
 Alpha  occ. eigenvalues --   -0.83360  -0.82326  -0.81920  -0.81132  -0.77585
 Alpha  occ. eigenvalues --   -0.70870  -0.70364  -0.68983  -0.65682  -0.63901
 Alpha  occ. eigenvalues --   -0.63612  -0.62513  -0.61704  -0.61578  -0.59723
 Alpha  occ. eigenvalues --   -0.58847  -0.58490  -0.58315  -0.56762  -0.55084
 Alpha  occ. eigenvalues --   -0.51724  -0.50916  -0.50221  -0.49862  -0.49378
 Alpha  occ. eigenvalues --   -0.48423  -0.47957  -0.47501  -0.46314  -0.35023
 Alpha  occ. eigenvalues --   -0.34319  -0.33960  -0.33327  -0.32536  -0.31462
 Alpha virt. eigenvalues --    0.11539   0.12292   0.12743   0.13505   0.14992
 Alpha virt. eigenvalues --    0.15126   0.15645   0.16238   0.16484   0.16915
 Alpha virt. eigenvalues --    0.18903   0.19187   0.19232   0.21236   0.21293
 Alpha virt. eigenvalues --    0.21591   0.23563   0.24009   0.24941   0.25406
 Alpha virt. eigenvalues --    0.26802   0.31511   0.33148   0.34239   0.35774
 Alpha virt. eigenvalues --    0.37582   0.39790   0.40549   0.41496   0.43098
 Alpha virt. eigenvalues --    0.44093   0.44428   0.44938   0.45445   0.45607
 Alpha virt. eigenvalues --    0.45867   0.46749   0.47235   0.47949   0.50597
 Alpha virt. eigenvalues --    0.51060   0.51423   0.52202   0.54961   0.56081
 Alpha virt. eigenvalues --    0.57316   0.57835   0.58511   0.58885   0.59349
 Alpha virt. eigenvalues --    0.60229   0.60456   0.60626   0.61135   0.61472
 Alpha virt. eigenvalues --    0.62049   0.62208   0.62959   0.63382   0.63678
 Alpha virt. eigenvalues --    0.64257   0.64577   0.65222   0.65938   0.66400
 Alpha virt. eigenvalues --    0.67233   0.67821   0.68584   0.69838   0.72354
 Alpha virt. eigenvalues --    0.73111   0.73914   0.74480   0.75319   0.75740
 Alpha virt. eigenvalues --    0.76782   0.78856   0.79388   0.79936   0.81257
 Alpha virt. eigenvalues --    0.81507   0.82217   0.82495   0.82899   0.83305
 Alpha virt. eigenvalues --    0.83834   0.84369   0.84842   0.84961   0.85473
 Alpha virt. eigenvalues --    0.85933   0.86205   0.86491   0.87752   0.88147
 Alpha virt. eigenvalues --    0.90215   0.90861   0.92140   0.93486   0.95051
 Alpha virt. eigenvalues --    0.95930   0.96344   0.97029   0.98230   0.99729
 Alpha virt. eigenvalues --    1.00051   1.02337   1.03049   1.04822   1.06218
 Alpha virt. eigenvalues --    1.07121   1.08131   1.09343   1.10126   1.10894
 Alpha virt. eigenvalues --    1.11528   1.11723   1.12411   1.12778   1.13800
 Alpha virt. eigenvalues --    1.15000   1.16506   1.19766   1.20553   1.21159
 Alpha virt. eigenvalues --    1.23736   1.25694   1.27352   1.28057   1.29090
 Alpha virt. eigenvalues --    1.29452   1.31949   1.32838   1.46870   1.47751
 Alpha virt. eigenvalues --    1.51991   1.54207   1.56942   2.53517   2.55704
 Alpha virt. eigenvalues --    2.56047   2.57749   2.62082   2.62341   2.63883
 Alpha virt. eigenvalues --    2.66436   2.67090   2.68461   2.72081   2.74280
 Alpha virt. eigenvalues --    2.78338   2.83396   2.86673   2.91755   2.94352
 Alpha virt. eigenvalues --    2.94613   2.94747   2.96020   2.98120   2.98578
 Alpha virt. eigenvalues --    2.99945   3.02261   3.03926   3.04406   3.06512
 Alpha virt. eigenvalues --    3.08495   3.09273   3.09825   3.10066   3.13201
 Alpha virt. eigenvalues --    3.15133   3.16159   3.17733   3.18404   3.19416
 Alpha virt. eigenvalues --    3.21627   3.24089   3.25040   3.27685   3.28778
 Alpha virt. eigenvalues --    3.31439   3.33878   3.34343   3.35710   3.40874
 Alpha virt. eigenvalues --    3.41304   3.44160   3.45052   3.49940   3.52560
 Alpha virt. eigenvalues --    3.53521   3.55972   3.57604   3.58319   3.59547
 Alpha virt. eigenvalues --    3.62390   3.64058   3.65072   3.66257   3.66790
 Alpha virt. eigenvalues --    3.67682   3.69216   3.71252   3.72281   3.74309
 Alpha virt. eigenvalues --    3.76368   3.77534   3.78473   3.85595   3.88052
 Alpha virt. eigenvalues --    3.91072  24.26071  24.30023  24.31741  24.50531
 Alpha virt. eigenvalues --   24.50780  24.51040  24.53035  24.54610  24.56487
 Alpha virt. eigenvalues --   24.76190  24.77061  24.79107  24.80209  24.80727
 Alpha virt. eigenvalues --   24.82815  24.87456  25.04640  25.05796  25.07113
          Condensed to atoms (all electrons):
              1          2          3          4          5          6
     1  C    6.109611   0.472573   0.117634  -0.072134  -0.024153   0.002656
     2  H    0.472573   0.502490  -0.075237   0.004437   0.006414  -0.000224
     3  C    0.117634  -0.075237   5.394596   0.451121   0.498401  -0.063724
     4  C   -0.072134   0.004437   0.451121   5.096841  -0.063501   0.480296
     5  C   -0.024153   0.006414   0.498401  -0.063501   5.049189  -0.033922
     6  C    0.002656  -0.000224  -0.063724   0.480296  -0.033922   5.046391
     7  H    0.000693  -0.000023  -0.047452   0.386305   0.004602  -0.027161
     8  C    0.008204   0.001455  -0.076744  -0.029514   0.468093  -0.077396
     9  H   -0.002043   0.002830  -0.045752   0.004759   0.394631  -0.000287
    10  C    0.001694   0.000006  -0.016150  -0.093548  -0.088961   0.490254
    11  H   -0.000372   0.000011   0.005976  -0.038550  -0.000378   0.397008
    12  H   -0.000409  -0.000034   0.007013  -0.000633  -0.039445   0.006273
    13  H   -0.000026  -0.000002  -0.001680   0.007986   0.007566  -0.042968
    14  C    0.148960  -0.070368  -0.141621  -0.003179  -0.004519   0.001974
    15  C   -0.024620   0.001720  -0.002146   0.000519   0.000623   0.000043
    16  C   -0.056164   0.005447  -0.003305  -0.011775   0.000749  -0.000100
    17  C    0.006843   0.001552  -0.000517   0.000127  -0.000017   0.000001
    18  H   -0.000102   0.002377   0.000349  -0.000008   0.000272  -0.000001
    19  C    0.003294  -0.000261   0.001899  -0.000394   0.000029  -0.000101
    20  H    0.000135   0.000105  -0.002861  -0.000937  -0.000199   0.000883
    21  C    0.001272   0.000000  -0.000088  -0.000025  -0.000009   0.000001
    22  H   -0.000340  -0.000039   0.000025   0.000000   0.000001   0.000000
    23  H   -0.000350   0.000011   0.000028   0.000056   0.000000   0.000002
    24  H   -0.000012  -0.000001  -0.000003   0.000000   0.000000   0.000000
    25  C    0.033460  -0.062337  -0.065308   0.006723  -0.000450   0.000739
    26  C   -0.030983   0.000773  -0.012620  -0.018422   0.000879  -0.001442
    27  C   -0.085653  -0.004746   0.011457   0.000855  -0.000282   0.000015
    28  C    0.012246  -0.000116  -0.001612  -0.000965  -0.000113  -0.000041
    29  H   -0.011352  -0.000272   0.001055  -0.000999  -0.001053   0.000268
    30  C    0.008416   0.000612  -0.000882  -0.000023   0.000009   0.000000
    31  H   -0.003163  -0.000138   0.000811  -0.000041  -0.000006   0.000000
    32  C    0.000379   0.000034   0.000123  -0.000016  -0.000004   0.000000
    33  H   -0.000362   0.000014   0.000058   0.000025   0.000004  -0.000001
    34  H   -0.000355   0.000005   0.000012   0.000000   0.000000   0.000000
    35  H   -0.000014  -0.000002   0.000001   0.000001   0.000000   0.000000
              7          8          9         10         11         12
     1  C    0.000693   0.008204  -0.002043   0.001694  -0.000372  -0.000409
     2  H   -0.000023   0.001455   0.002830   0.000006   0.000011  -0.000034
     3  C   -0.047452  -0.076744  -0.045752  -0.016150   0.005976   0.007013
     4  C    0.386305  -0.029514   0.004759  -0.093548  -0.038550  -0.000633
     5  C    0.004602   0.468093   0.394631  -0.088961  -0.000378  -0.039445
     6  C   -0.027161  -0.077396  -0.000287   0.490254   0.397008   0.006273
     7  H    0.497273  -0.000124  -0.000270   0.004632  -0.003390   0.000016
     8  C   -0.000124   5.047508  -0.033776   0.499761   0.005902   0.396363
     9  H   -0.000270  -0.033776   0.506584   0.005069   0.000025  -0.004076
    10  C    0.004632   0.499761   0.005069   5.033612  -0.039798  -0.041034
    11  H   -0.003390   0.005902   0.000025  -0.039798   0.514398  -0.000206
    12  H    0.000016   0.396363  -0.004076  -0.041034  -0.000206   0.517979
    13  H   -0.000170  -0.042541  -0.000178   0.399448  -0.004370  -0.004556
    14  C   -0.003735  -0.000587   0.000154  -0.000061   0.000028   0.000021
    15  C   -0.000213  -0.000012   0.000211  -0.000013   0.000002   0.000001
    16  C    0.001890   0.000055  -0.000025  -0.000005   0.000038  -0.000001
    17  C   -0.000058   0.000002  -0.000002   0.000000   0.000000   0.000000
    18  H    0.000001   0.000006   0.000066  -0.000002   0.000000   0.000000
    19  C    0.001138  -0.000001   0.000001   0.000002   0.000000   0.000000
    20  H    0.001545   0.000000  -0.000002  -0.000015  -0.000033   0.000000
    21  C    0.000003   0.000000  -0.000001   0.000000   0.000000   0.000000
    22  H    0.000001   0.000000   0.000000   0.000000   0.000000   0.000000
    23  H   -0.000058   0.000000   0.000000   0.000000   0.000001   0.000000
    24  H    0.000000   0.000000   0.000000   0.000000   0.000000   0.000000
    25  C    0.001450  -0.000762   0.000495  -0.000067   0.000019   0.000024
    26  C    0.001672   0.000346   0.000133   0.000141   0.000003  -0.000008
    27  C    0.000010   0.000005   0.000012   0.000000   0.000000   0.000000
    28  C    0.000118   0.000004   0.000004   0.000004  -0.000002   0.000000
    29  H    0.000043  -0.000125   0.000091   0.000106   0.000037   0.000011
    30  C   -0.000055   0.000000   0.000000   0.000000   0.000000   0.000000
    31  H    0.000022   0.000000  -0.000001   0.000000   0.000000   0.000000
    32  C    0.000000   0.000000   0.000000   0.000000   0.000000   0.000000
    33  H    0.000001   0.000000   0.000000  -0.000001   0.000000   0.000000
    34  H   -0.000001   0.000000   0.000000   0.000000   0.000000   0.000000
    35  H    0.000000   0.000000   0.000000   0.000000   0.000000   0.000000
             13         14         15         16         17         18
     1  C   -0.000026   0.148960  -0.024620  -0.056164   0.006843  -0.000102
     2  H   -0.000002  -0.070368   0.001720   0.005447   0.001552   0.002377
     3  C   -0.001680  -0.141621  -0.002146  -0.003305  -0.000517   0.000349
     4  C    0.007986  -0.003179   0.000519  -0.011775   0.000127  -0.000008
     5  C    0.007566  -0.004519   0.000623   0.000749  -0.000017   0.000272
     6  C   -0.042968   0.001974   0.000043  -0.000100   0.000001  -0.000001
     7  H   -0.000170  -0.003735  -0.000213   0.001890  -0.000058   0.000001
     8  C   -0.042541  -0.000587  -0.000012   0.000055   0.000002   0.000006
     9  H   -0.000178   0.000154   0.000211  -0.000025  -0.000002   0.000066
    10  C    0.399448  -0.000061  -0.000013  -0.000005   0.000000  -0.000002
    11  H   -0.004370   0.000028   0.000002   0.000038   0.000000   0.000000
    12  H   -0.004556   0.000021   0.000001  -0.000001   0.000000   0.000000
    13  H    0.516908  -0.000002   0.000000   0.000001   0.000000   0.000000
    14  C   -0.000002   5.391716   0.492445   0.447845  -0.073869  -0.050651
    15  C    0.000000   0.492445   5.091637  -0.072128   0.454427   0.400405
    16  C    0.000001   0.447845  -0.072128   5.068481  -0.026416   0.004330
    17  C    0.000000  -0.073869   0.454427  -0.026416   5.059200  -0.034803
    18  H    0.000000  -0.050651   0.400405   0.004330  -0.034803   0.509590
    19  C    0.000000  -0.058206  -0.030637   0.478810  -0.078658  -0.000280
    20  H    0.000000  -0.044521   0.004092   0.388689   0.000024  -0.000272
    21  C    0.000000  -0.018751  -0.086448  -0.091318   0.497837   0.005236
    22  H    0.000000   0.006920  -0.039655  -0.000685   0.396919  -0.004199
    23  H    0.000000   0.006020  -0.000475  -0.038893   0.005965   0.000025
    24  H    0.000000  -0.001548   0.007487   0.007889  -0.042552  -0.000184
    25  C    0.000002  -0.094274  -0.001438  -0.006957  -0.000425   0.000149
    26  C   -0.000003   0.001373  -0.000445   0.001645   0.000020  -0.000034
    27  C    0.000000  -0.007185   0.000575  -0.009035  -0.000097   0.000289
    28  C    0.000000  -0.000816   0.000007   0.000051   0.000000   0.000000
    29  H    0.000010   0.000428  -0.000017   0.000058   0.000000   0.000001
    30  C    0.000000  -0.001635  -0.000049  -0.000297   0.000013  -0.000008
    31  H    0.000000   0.004098   0.001588  -0.000610   0.000119   0.000201
    32  C    0.000000   0.000129  -0.000003   0.000034   0.000000   0.000001
    33  H    0.000000   0.000012   0.000000   0.000000   0.000000   0.000000
    34  H    0.000000   0.000016  -0.000004   0.000014  -0.000001   0.000000
    35  H    0.000000   0.000002   0.000000   0.000000   0.000000   0.000000
             19         20         21         22         23         24
     1  C    0.003294   0.000135   0.001272  -0.000340  -0.000350  -0.000012
     2  H   -0.000261   0.000105   0.000000  -0.000039   0.000011  -0.000001
     3  C    0.001899  -0.002861  -0.000088   0.000025   0.000028  -0.000003
     4  C   -0.000394  -0.000937  -0.000025   0.000000   0.000056   0.000000
     5  C    0.000029  -0.000199  -0.000009   0.000001   0.000000   0.000000
     6  C   -0.000101   0.000883   0.000001   0.000000   0.000002   0.000000
     7  H    0.001138   0.001545   0.000003   0.000001  -0.000058   0.000000
     8  C   -0.000001   0.000000   0.000000   0.000000   0.000000   0.000000
     9  H    0.000001  -0.000002  -0.000001   0.000000   0.000000   0.000000
    10  C    0.000002  -0.000015   0.000000   0.000000   0.000000   0.000000
    11  H    0.000000  -0.000033   0.000000   0.000000   0.000001   0.000000
    12  H    0.000000   0.000000   0.000000   0.000000   0.000000   0.000000
    13  H    0.000000   0.000000   0.000000   0.000000   0.000000   0.000000
    14  C   -0.058206  -0.044521  -0.018751   0.006920   0.006020  -0.001548
    15  C   -0.030637   0.004092  -0.086448  -0.039655  -0.000475   0.007487
    16  C    0.478810   0.388689  -0.091318  -0.000685  -0.038893   0.007889
    17  C   -0.078658   0.000024   0.497837   0.396919   0.005965  -0.042552
    18  H   -0.000280  -0.000272   0.005236  -0.004199   0.000025  -0.000184
    19  C    5.040772  -0.028508   0.491138   0.006237   0.397224  -0.042910
    20  H   -0.028508   0.497157   0.004552   0.000014  -0.003323  -0.000173
    21  C    0.491138   0.004552   5.034121  -0.040672  -0.039832   0.399641
    22  H    0.006237   0.000014  -0.040672   0.518072  -0.000205  -0.004582
    23  H    0.397224  -0.003323  -0.039832  -0.000205   0.514792  -0.004465
    24  H   -0.042910  -0.000173   0.399641  -0.004582  -0.004465   0.517396
    25  C   -0.000547   0.001142   0.000040   0.000011   0.000025   0.000001
    26  C    0.000019  -0.000165  -0.000002   0.000000   0.000000   0.000000
    27  C   -0.000347   0.000322   0.000114  -0.000002   0.000016   0.000000
    28  C    0.000004  -0.000107   0.000000   0.000000   0.000000   0.000000
    29  H    0.000000   0.000024   0.000000   0.000000   0.000000   0.000000
    30  C   -0.000010   0.000068   0.000002   0.000000   0.000001   0.000000
    31  H   -0.000258  -0.000058  -0.000086   0.000006   0.000005   0.000001
    32  C    0.000002  -0.000039   0.000000   0.000000   0.000000   0.000000
    33  H    0.000000   0.000000   0.000000   0.000000   0.000000   0.000000
    34  H    0.000002   0.000005   0.000000   0.000000   0.000000   0.000000
    35  H    0.000000   0.000001   0.000000   0.000000   0.000000   0.000000
             25         26         27         28         29         30
     1  C    0.033460  -0.030983  -0.085653   0.012246  -0.011352   0.008416
     2  H   -0.062337   0.000773  -0.004746  -0.000116  -0.000272   0.000612
     3  C   -0.065308  -0.012620   0.011457  -0.001612   0.001055  -0.000882
     4  C    0.006723  -0.018422   0.000855  -0.000965  -0.000999  -0.000023
     5  C   -0.000450   0.000879  -0.000282  -0.000113  -0.001053   0.000009
     6  C    0.000739  -0.001442   0.000015  -0.000041   0.000268   0.000000
     7  H    0.001450   0.001672   0.000010   0.000118   0.000043  -0.000055
     8  C   -0.000762   0.000346   0.000005   0.000004  -0.000125   0.000000
     9  H    0.000495   0.000133   0.000012   0.000004   0.000091   0.000000
    10  C   -0.000067   0.000141   0.000000   0.000004   0.000106   0.000000
    11  H    0.000019   0.000003   0.000000  -0.000002   0.000037   0.000000
    12  H    0.000024  -0.000008   0.000000   0.000000   0.000011   0.000000
    13  H    0.000002  -0.000003   0.000000   0.000000   0.000010   0.000000
    14  C   -0.094274   0.001373  -0.007185  -0.000816   0.000428  -0.001635
    15  C   -0.001438  -0.000445   0.000575   0.000007  -0.000017  -0.000049
    16  C   -0.006957   0.001645  -0.009035   0.000051   0.000058  -0.000297
    17  C   -0.000425   0.000020  -0.000097   0.000000   0.000000   0.000013
    18  H    0.000149  -0.000034   0.000289   0.000000   0.000001  -0.000008
    19  C   -0.000547   0.000019  -0.000347   0.000004   0.000000  -0.000010
    20  H    0.001142  -0.000165   0.000322  -0.000107   0.000024   0.000068
    21  C    0.000040  -0.000002   0.000114   0.000000   0.000000   0.000002
    22  H    0.000011   0.000000  -0.000002   0.000000   0.000000   0.000000
    23  H    0.000025   0.000000   0.000016   0.000000   0.000000   0.000001
    24  H    0.000001   0.000000   0.000000   0.000000   0.000000   0.000000
    25  C    5.352162   0.500221   0.471623  -0.068800  -0.034861  -0.056840
    26  C    0.500221   5.097205  -0.083852   0.454359   0.394049  -0.030205
    27  C    0.471623  -0.083852   5.124897  -0.033347   0.004970   0.463412
    28  C   -0.068800   0.454359  -0.033347   5.078656  -0.036405  -0.073853
    29  H   -0.034861   0.394049   0.004970  -0.036405   0.477472  -0.000439
    30  C   -0.056840  -0.030205   0.463412  -0.073853  -0.000439   5.062363
    31  H   -0.044955   0.004488   0.397494  -0.000471  -0.000195  -0.035165
    32  C   -0.020679  -0.089894  -0.085108   0.495458   0.005044   0.480593
    33  H    0.006481  -0.036840  -0.000406   0.395627  -0.003527   0.006013
    34  H    0.006148  -0.000435  -0.038309   0.005999   0.000017   0.397081
    35  H   -0.001454   0.007661   0.007446  -0.042150  -0.000170  -0.043200
             31         32         33         34         35
     1  C   -0.003163   0.000379  -0.000362  -0.000355  -0.000014
     2  H   -0.000138   0.000034   0.000014   0.000005  -0.000002
     3  C    0.000811   0.000123   0.000058   0.000012   0.000001
     4  C   -0.000041  -0.000016   0.000025   0.000000   0.000001
     5  C   -0.000006  -0.000004   0.000004   0.000000   0.000000
     6  C    0.000000   0.000000  -0.000001   0.000000   0.000000
     7  H    0.000022   0.000000   0.000001  -0.000001   0.000000
     8  C    0.000000   0.000000   0.000000   0.000000   0.000000
     9  H   -0.000001   0.000000   0.000000   0.000000   0.000000
    10  C    0.000000   0.000000  -0.000001   0.000000   0.000000
    11  H    0.000000   0.000000   0.000000   0.000000   0.000000
    12  H    0.000000   0.000000   0.000000   0.000000   0.000000
    13  H    0.000000   0.000000   0.000000   0.000000   0.000000
    14  C    0.004098   0.000129   0.000012   0.000016   0.000002
    15  C    0.001588  -0.000003   0.000000  -0.000004   0.000000
    16  C   -0.000610   0.000034   0.000000   0.000014   0.000000
    17  C    0.000119   0.000000   0.000000  -0.000001   0.000000
    18  H    0.000201   0.000001   0.000000   0.000000   0.000000
    19  C   -0.000258   0.000002   0.000000   0.000002   0.000000
    20  H   -0.000058  -0.000039   0.000000   0.000005   0.000001
    21  C   -0.000086   0.000000   0.000000   0.000000   0.000000
    22  H    0.000006   0.000000   0.000000   0.000000   0.000000
    23  H    0.000005   0.000000   0.000000   0.000000   0.000000
    24  H    0.000001   0.000000   0.000000   0.000000   0.000000
    25  C   -0.044955  -0.020679   0.006481   0.006148  -0.001454
    26  C    0.004488  -0.089894  -0.036840  -0.000435   0.007661
    27  C    0.397494  -0.085108  -0.000406  -0.038309   0.007446
    28  C   -0.000471   0.495458   0.395627   0.005999  -0.042150
    29  H   -0.000195   0.005044  -0.003527   0.000017  -0.000170
    30  C   -0.035165   0.480593   0.006013   0.397081  -0.043200
    31  H    0.489612   0.005230   0.000017  -0.003867  -0.000173
    32  C    0.005230   5.042820  -0.041255  -0.040853   0.399482
    33  H    0.000017  -0.041255   0.517813  -0.000213  -0.004466
    34  H   -0.003867  -0.040853  -0.000213   0.517589  -0.004407
    35  H   -0.000173   0.399482  -0.004466  -0.004407   0.519363
 Mulliken atomic charges:
              1
     1  C   -0.615466
     2  H    0.210933
     3  C    0.067141
     4  C   -0.105387
     5  C   -0.174453
     6  C   -0.179436
     7  H    0.181294
     8  C   -0.166122
     9  H    0.171348
    10  C   -0.155074
    11  H    0.163652
    12  H    0.162701
    13  H    0.164578
    14  C    0.073388
    15  C   -0.197480
    16  C   -0.088312
    17  C   -0.165634
    18  H    0.167246
    19  C   -0.179453
    20  H    0.182454
    21  C   -0.156725
    22  H    0.162171
    23  H    0.163429
    24  H    0.164015
    25  C    0.079241
    26  C   -0.159637
    27  C   -0.135145
    28  C   -0.183740
    29  H    0.205734
    30  C   -0.175922
    31  H    0.185496
    32  C   -0.151478
    33  H    0.161006
    34  H    0.161556
    35  H    0.162079
 Sum of Mulliken atomic charges =   0.00000
 Mulliken charges with hydrogens summed into heavy atoms:
              1
     1  C   -0.404533
     3  C    0.067141
     4  C    0.075906
     5  C   -0.003105
     6  C   -0.015784
     8  C   -0.003421
    10  C    0.009504
    14  C    0.073388
    15  C   -0.030234
    16  C    0.094142
    17  C   -0.003462
    19  C   -0.016023
    21  C    0.007290
    25  C    0.079241
    26  C    0.046096
    27  C    0.050351
    28  C   -0.022735
    30  C   -0.014366
    32  C    0.010601
 Sum of Mulliken charges with hydrogens summed into heavy atoms =   0.00000
 Electronic spatial extent (au):  <R**2>=           4931.4231
 Charge=              0.0000 electrons
 Dipole moment (field-independent basis, Debye):
    X=             -0.0938    Y=             -0.1675    Z=             -0.0179  Tot=              0.1929
 Quadrupole moment (field-independent basis, Debye-Ang):
   XX=           -107.6470   YY=           -113.2573   ZZ=           -106.8651
   XY=             -2.7737   XZ=             -0.8951   YZ=              2.6475
 Traceless Quadrupole moment (field-independent basis, Debye-Ang):
   XX=              1.6095   YY=             -4.0008   ZZ=              2.3914
   XY=             -2.7737   XZ=             -0.8951   YZ=              2.6475
 Octapole moment (field-independent basis, Debye-Ang**2):
  XXX=            -27.7675  YYY=              9.8868  ZZZ=              0.7912  XYY=             36.7050
  XXY=              1.0140  XXZ=             -2.7614  XZZ=             -9.9913  YZZ=            -18.6868
  YYZ=             11.8149  XYZ=             -1.4734
 Hexadecapole moment (field-independent basis, Debye-Ang**3):
 XXXX=          -3054.2150 YYYY=          -2914.9943 ZZZZ=           -665.0443 XXXY=             63.0847
 XXXZ=            -14.6238 YYYX=            -66.6980 YYYZ=             74.1669 ZZZX=              6.6015
 ZZZY=             -2.3749 XXYY=          -1017.5313 XXZZ=           -627.8916 YYZZ=           -636.4034
 XXYZ=             -8.2939 YYXZ=             10.4402 ZZXY=            -33.1112
 N-N= 1.290709161278D+03 E-N=-4.277494313930D+03  KE= 7.286011668497D+02
 PrsmSu:  requested number of processors reduced to:  10 ShMem   1 Linda.
 Calling FoFJK, ICntrl=      2127 FMM=F ISym2X=0 I1Cent= 0 IOpClX= 0 NMat=1 NMatS=1 NMatT=0.
 ***** Axes restored to original set *****
 -------------------------------------------------------------------
 Center     Atomic                   Forces (Hartrees/Bohr)
 Number     Number              X              Y              Z
 -------------------------------------------------------------------
      1        6           0.008066025    0.003576626    0.021426392
      2        1          -0.011759807    0.001165140   -0.022384799
      3        6          -0.008507512    0.001079081    0.010775811
      4        6           0.002348800    0.000405123   -0.012210840
      5        6           0.004050761    0.000127698    0.004448097
      6        6          -0.005365851   -0.001324056   -0.011291426
      7        1          -0.017202557   -0.001170530    0.024074573
      8        6          -0.007527024    0.001351629    0.011409505
      9        1          -0.010128807   -0.001842198   -0.014555965
     10        6          -0.013128780    0.000356008    0.003912092
     11        1           0.009974385    0.001520598    0.013308917
     12        1           0.006304071   -0.001724442   -0.015340995
     13        1           0.016684849   -0.000137746   -0.002032557
     14        6           0.008025034    0.011964678    0.001701936
     15        6           0.000623566   -0.000240537    0.005693145
     16        6          -0.005314647   -0.007528462   -0.006586499
     17        6           0.006741117    0.011259830    0.003442919
     18        1          -0.003756114   -0.000412615   -0.017144512
     19        6          -0.003953888   -0.001889662   -0.011523286
     20        1           0.019753098    0.019171420    0.004739804
     21        6           0.005040810    0.011354500   -0.005721224
     22        1          -0.008278980   -0.012424201   -0.007267011
     23        1           0.003363662   -0.000219720    0.016365862
     24        1          -0.005169510   -0.012988733    0.009383136
     25        6           0.004115820   -0.013916322   -0.003731782
     26        6          -0.011775080   -0.000006499    0.003107432
     27        6           0.006967646    0.005359857    0.000157243
     28        6          -0.004466251   -0.011818132   -0.002102911
     29        1           0.021523938   -0.002486548   -0.003941313
     30        6           0.012569047    0.001429020   -0.001694882
     31        1          -0.009760865   -0.015899813   -0.002172435
     32        6           0.003659441   -0.012668945   -0.004034096
     33        1           0.009499204    0.013615994    0.001464557
     34        1          -0.016272171    0.000613686    0.003474570
     35        1          -0.006943432    0.014348272    0.004850543
 -------------------------------------------------------------------
 Cartesian Forces:  Max     0.024074573 RMS     0.009555004

 GradGradGradGradGradGradGradGradGradGradGradGradGradGradGradGradGradGrad
 Berny optimization.
 Internal  Forces:  Max     0.028711815 RMS     0.007791011
 Search for a local minimum.
 Step number   1 out of a maximum of  197
 All quantities printed in internal units (Hartrees-Bohrs-Radians)
 Mixed Optimization -- RFO/linear search
 Second derivative matrix not updated -- first step.
     Eigenvalues ---    0.00634   0.00650   0.00656   0.01532   0.01538
     Eigenvalues ---    0.01540   0.02138   0.02142   0.02145   0.02171
     Eigenvalues ---    0.02171   0.02173   0.02182   0.02183   0.02184
     Eigenvalues ---    0.02200   0.02201   0.02203   0.02210   0.02212
     Eigenvalues ---    0.02212   0.02213   0.02213   0.02215   0.02216
     Eigenvalues ---    0.02218   0.02219   0.02219   0.02220   0.02226
     Eigenvalues ---    0.04561   0.06397   0.06628   0.15997   0.15998
     Eigenvalues ---    0.16000   0.16000   0.16000   0.16000   0.16000
     Eigenvalues ---    0.16000   0.16000   0.16000   0.16000   0.16000
     Eigenvalues ---    0.16000   0.16000   0.16000   0.18859   0.19337
     Eigenvalues ---    0.22000   0.22000   0.22000   0.22000   0.22000
     Eigenvalues ---    0.22000   0.23466   0.23477   0.23478   0.24968
     Eigenvalues ---    0.24999   0.25000   0.31256   0.31355   0.31478
     Eigenvalues ---    0.31523   0.33513   0.33599   0.33964   0.34053
     Eigenvalues ---    0.34075   0.34092   0.34258   0.34258   0.34261
     Eigenvalues ---    0.34262   0.34265   0.34268   0.34276   0.34280
     Eigenvalues ---    0.34285   0.42403   0.42467   0.42469   0.42558
     Eigenvalues ---    0.42565   0.42618   0.46337   0.46394   0.46418
     Eigenvalues ---    0.46733   0.46738   0.46813   0.47186   0.47216
     Eigenvalues ---    0.47218   0.47333   0.47343   0.474461000.00000
     Eigenvalues --- 1000.000001000.000001000.000001000.000001000.00000
     Eigenvalues --- 1000.000001000.000001000.000001000.000001000.00000
     Eigenvalues --- 1000.000001000.000001000.000001000.000001000.00000
     Eigenvalues --- 1000.000001000.000001000.000001000.000001000.00000
     Eigenvalues --- 1000.000001000.000001000.000001000.000001000.00000
     Eigenvalues --- 1000.000001000.000001000.000001000.000001000.00000
     Eigenvalues --- 1000.000001000.000001000.000001000.000001000.00000
     Eigenvalues --- 1000.000001000.000001000.000001000.000001000.00000
     Eigenvalues --- 1000.000001000.000001000.000001000.000001000.00000
     Eigenvalues --- 1000.000001000.000001000.000001000.000001000.00000
     Eigenvalues --- 1000.000001000.000001000.000001000.000001000.00000
     Eigenvalues --- 1000.000001000.000001000.000001000.000001000.00000
     Eigenvalues --- 1000.000001000.000001000.000001000.000001000.00000
     Eigenvalues --- 1000.000001000.000001000.000001000.000001000.00000
     Eigenvalues --- 1000.000001000.000001000.000001000.000001000.00000
     Eigenvalues --- 1000.000001000.000001000.000001000.000001000.00000
     Eigenvalues --- 1000.000001000.000001000.000001000.000001000.00000
     Eigenvalues --- 1000.000001000.00000
 RFO step:  Lambda=-4.19037873D-02 EMin= 6.34266011D-03
 Linear search not attempted -- first point.
 Maximum step size (   0.300) exceeded in Quadratic search.
    -- Step size scaled by   0.592
 Iteration  1 RMS(Cart)=  0.12558940 RMS(Int)=  0.00303529
 Iteration  2 RMS(Cart)=  0.00614103 RMS(Int)=  0.00028213
 Iteration  3 RMS(Cart)=  0.00001071 RMS(Int)=  0.00028206
 Iteration  4 RMS(Cart)=  0.00000000 RMS(Int)=  0.00028206
 Variable       Old X    -DE/DX   Delta X   Delta X   Delta X     New X
                                 (Linear)    (Quad)   (Total)
    R1        2.12226  -0.02490   0.00000  -0.04155  -0.04155   2.08071
    R2        2.85025   0.02365   0.00000   0.03918   0.03918   2.88943
    R3        2.85340   0.02285   0.00000   0.03802   0.03802   2.89142
    R4        2.85109   0.02351   0.00000   0.03899   0.03899   2.89009
    R5        2.63953   0.00079   0.00000   0.00108   0.00109   2.64062
    R6        2.63937  -0.00426   0.00000  -0.00495  -0.00493   2.63444
    R7        2.62558  -0.00444   0.00000  -0.00500  -0.00501   2.62057
    R8        2.08160  -0.02871   0.00000  -0.04505  -0.04505   2.03654
    R9        2.62795  -0.00246   0.00000  -0.00292  -0.00291   2.62504
   R10        2.07204  -0.01782   0.00000  -0.02755  -0.02755   2.04450
   R11        2.62857  -0.00556   0.00000  -0.00646  -0.00648   2.62209
   R12        2.06884  -0.01670   0.00000  -0.02569  -0.02569   2.04315
   R13        2.62712  -0.00910   0.00000  -0.01060  -0.01062   2.61651
   R14        2.06897  -0.01667   0.00000  -0.02566  -0.02566   2.04331
   R15        2.06860  -0.01681   0.00000  -0.02585  -0.02585   2.04275
   R16        2.63912  -0.00445   0.00000  -0.00517  -0.00515   2.63397
   R17        2.63888  -0.00016   0.00000  -0.00008  -0.00006   2.63882
   R18        2.62811  -0.00238   0.00000  -0.00280  -0.00280   2.62531
   R19        2.07175  -0.01754   0.00000  -0.02711  -0.02711   2.04465
   R20        2.62560  -0.00471   0.00000  -0.00535  -0.00534   2.62026
   R21        2.08013  -0.02660   0.00000  -0.04164  -0.04164   2.03849
   R22        2.62756  -0.00885   0.00000  -0.01029  -0.01031   2.61726
   R23        2.06891  -0.01660   0.00000  -0.02554  -0.02554   2.04336
   R24        2.62896  -0.00546   0.00000  -0.00635  -0.00636   2.62260
   R25        2.06880  -0.01671   0.00000  -0.02570  -0.02570   2.04309
   R26        2.06868  -0.01684   0.00000  -0.02589  -0.02589   2.04278
   R27        2.63502  -0.00224   0.00000  -0.00248  -0.00248   2.63255
   R28        2.64377  -0.00196   0.00000  -0.00227  -0.00226   2.64151
   R29        2.62916  -0.00135   0.00000  -0.00148  -0.00148   2.62768
   R30        2.07391  -0.02195   0.00000  -0.03403  -0.03403   2.03989
   R31        2.62385  -0.00479   0.00000  -0.00555  -0.00555   2.61830
   R32        2.07241  -0.01875   0.00000  -0.02901  -0.02901   2.04340
   R33        2.62535  -0.00739   0.00000  -0.00852  -0.00853   2.61682
   R34        2.06897  -0.01667   0.00000  -0.02564  -0.02564   2.04333
   R35        2.62960  -0.00492   0.00000  -0.00581  -0.00582   2.62378
   R36        2.06892  -0.01665   0.00000  -0.02562  -0.02562   2.04330
   R37        2.06852  -0.01666   0.00000  -0.02562  -0.02562   2.04290
    A1        1.87615  -0.01001   0.00000  -0.05154  -0.05063   1.82552
    A2        1.88375  -0.00868   0.00000  -0.04839  -0.04757   1.83618
    A3        1.82857   0.00380   0.00000   0.00010   0.00036   1.82893
    A4        1.92877   0.01535   0.00000   0.05438   0.05322   1.98199
    A5        1.99365   0.00086   0.00000   0.02169   0.01978   2.01343
    A6        1.94575  -0.00322   0.00000   0.01218   0.01001   1.95576
    A7        2.12462   0.02285   0.00000   0.04635   0.04632   2.17094
    A8        2.07959  -0.01103   0.00000  -0.02232  -0.02235   2.05725
    A9        2.07895  -0.01181   0.00000  -0.02399  -0.02395   2.05500
   A10        2.10238   0.00450   0.00000   0.01017   0.01016   2.11254
   A11        2.07794   0.00439   0.00000   0.01443   0.01439   2.09233
   A12        2.10277  -0.00887   0.00000  -0.02442  -0.02445   2.07831
   A13        2.10011   0.00815   0.00000   0.01789   0.01791   2.11803
   A14        2.09479  -0.00473   0.00000  -0.01087  -0.01089   2.08391
   A15        2.08828  -0.00342   0.00000  -0.00702  -0.00703   2.08124
   A16        2.09636   0.00237   0.00000   0.00494   0.00492   2.10128
   A17        2.09145  -0.00110   0.00000  -0.00223  -0.00222   2.08923
   A18        2.09537  -0.00127   0.00000  -0.00270  -0.00269   2.09267
   A19        2.09795  -0.00024   0.00000  -0.00146  -0.00146   2.09648
   A20        2.09096   0.00030   0.00000   0.00124   0.00124   2.09220
   A21        2.09428  -0.00005   0.00000   0.00022   0.00022   2.09450
   A22        2.09061  -0.00296   0.00000  -0.00755  -0.00758   2.08303
   A23        2.09607   0.00152   0.00000   0.00390   0.00392   2.09998
   A24        2.09651   0.00144   0.00000   0.00365   0.00367   2.10018
   A25        2.08463  -0.00792   0.00000  -0.01601  -0.01606   2.06856
   A26        2.11758   0.01866   0.00000   0.03784   0.03778   2.15536
   A27        2.08097  -0.01074   0.00000  -0.02188  -0.02187   2.05910
   A28        2.09887   0.00740   0.00000   0.01630   0.01631   2.11518
   A29        2.09545  -0.00442   0.00000  -0.01026  -0.01027   2.08518
   A30        2.08887  -0.00298   0.00000  -0.00605  -0.00606   2.08280
   A31        2.10144   0.00420   0.00000   0.00945   0.00940   2.11084
   A32        2.07796   0.00373   0.00000   0.01249   0.01239   2.09035
   A33        2.10364  -0.00789   0.00000  -0.02155  -0.02165   2.08199
   A34        2.09780  -0.00029   0.00000  -0.00137  -0.00139   2.09640
   A35        2.09104   0.00036   0.00000   0.00131   0.00132   2.09236
   A36        2.09434  -0.00007   0.00000   0.00006   0.00007   2.09442
   A37        2.09607   0.00224   0.00000   0.00463   0.00462   2.10069
   A38        2.09173  -0.00102   0.00000  -0.00202  -0.00202   2.08971
   A39        2.09538  -0.00122   0.00000  -0.00260  -0.00261   2.09277
   A40        2.09121  -0.00280   0.00000  -0.00706  -0.00709   2.08411
   A41        2.09609   0.00137   0.00000   0.00346   0.00346   2.09956
   A42        2.09588   0.00143   0.00000   0.00361   0.00362   2.09950
   A43        2.13618   0.00728   0.00000   0.01467   0.01465   2.15083
   A44        2.06936   0.00063   0.00000   0.00118   0.00117   2.07053
   A45        2.07659  -0.00794   0.00000  -0.01610  -0.01609   2.06049
   A46        2.10149   0.00351   0.00000   0.00804   0.00804   2.10954
   A47        2.09264  -0.00012   0.00000   0.00078   0.00078   2.09342
   A48        2.08905  -0.00339   0.00000  -0.00882  -0.00882   2.08023
   A49        2.10348   0.00470   0.00000   0.01028   0.01028   2.11377
   A50        2.08456  -0.00127   0.00000  -0.00197  -0.00197   2.08259
   A51        2.09513  -0.00343   0.00000  -0.00831  -0.00832   2.08681
   A52        2.09924   0.00111   0.00000   0.00226   0.00226   2.10149
   A53        2.08888  -0.00050   0.00000  -0.00095  -0.00095   2.08793
   A54        2.09507  -0.00062   0.00000  -0.00131  -0.00131   2.09376
   A55        2.09668   0.00081   0.00000   0.00114   0.00113   2.09781
   A56        2.09180  -0.00041   0.00000  -0.00058  -0.00057   2.09123
   A57        2.09470  -0.00040   0.00000  -0.00056  -0.00056   2.09414
[...]
 -0.00020590,-0.00004206,0.00006187,-0.00005850,-0.00010003,-0.00015902
 ,0.00006113,-0.00005949,-0.00007405,-0.00001403,0.00005206,0.00000789,
 -0.00010129,-0.00006313,-0.00004322,0.00003242,0.00001217,0.00006575,-
 0.00002805,-0.00001248,0.00009872,-0.00000816,-0.00000438,-0.00000019,
 -0.00001898,0.00000307,0.00000979,0.00000409,0.00000568,0.00000555,-0.
 00012110,-0.00091544,-0.00038951,-0.00026078,-0.00039324,0.00021892,-0
 .00019983,0.00017308,-0.00003376,0.00008647,0.00003171,-0.00028381,-0.
 00001089,0.00001315,-0.00000389,-0.00011647,-0.00035156,0.00000417,0.0
 0019736,-0.00003201,-0.00011759,-0.00001210,0.00015202,0.00022225,0.00
 001262,-0.00001595,0.00001633,-0.00000451,-0.00000616,0.00001468,0.000
 00585,-0.00000956,0.00000280,0.04066658,0.01559267,0.02649737,-0.00392
 200,-0.03834540,-0.02407597,-0.01414883,-0.06470890,-0.11303749,-0.048
 09481,0.02109967,0.00561188,0.00028940,-0.00014126,-0.00105211,0.14023
 958,0.18443998,0.29228025,0.00071091,-0.00203929,-0.00036919,-0.000055
 22,0.00095299,0.00120178,0.00011795,-0.00000334,0.00049446,0.00022454,
 0.00008409,-0.00002501,-0.00000994,0.00006585,-0.00006959,0.00005746,-
 0.00004026,0.00003535,-0.00001175,-0.00002358,-0.00000239,0.00001693,0
 .00000295,0.00000544,-0.00003101,-0.00004515,0.00002392,0.00002000,0.0
 0000189,-0.00000521,0.00002388,-0.00001279,-0.00000248,0.00000597,-0.0
 0000329,-0.00000986,0.00001070,-0.00000507,-0.00000069,0.00016900,0.00
 025632,-0.00004086,0.00000591,0.00010420,-0.00002285,0.00000892,-0.000
 19768,-0.00014449,0.00003251,0.00007195,0.00003443,-0.00003866,0.00004
 151,0.00001740,0.00000111,0.00004809,-0.00000066,-0.00002942,0.0000016
 2,0.00007560,-0.00003332,-0.00002791,0.00002555,-0.00000155,-0.0000161
 4,-0.00000279,-0.00000902,-0.00000958,0.00003226,-0.00000063,-0.000009
 98,0.00001695,-0.01432415,-0.02606811,-0.01620682,-0.00550905,0.003228
 42,-0.00235037,-0.17411545,-0.11581918,-0.08148142,-0.00040715,0.00096
 928,0.00054920,-0.00081638,-0.00129823,-0.00074600,0.01259272,0.013285
 07,0.00733303,0.18003864,0.00049455,-0.00029604,0.00148367,0.00038997,
 0.00060562,0.00035723,0.00000071,0.00019776,0.00015547,0.00001979,0.00
 003212,0.00002485,-0.00011494,0.00004518,-0.00007433,0.00001015,-0.000
 03221,0.00002845,0.00000473,-0.00000301,0.00000295,0.00002215,-0.00001
 431,-0.00000174,0.00000223,-0.00000259,0.00002038,-0.00002940,0.000008
 63,0.00000228,-0.00000616,-0.00000488,-0.00000538,-0.00001313,-0.00000
 540,0.00000962,-0.00000415,-0.00000116,0.00000319,0.00007045,-0.000025
 90,0.00016977,-0.00003496,-0.00001866,-0.00002953,0.00001926,-0.000030
 35,-0.00004041,0.00000284,-0.00004137,0.00001490,0.00000059,-0.0000101
 7,-0.00000484,0.00000964,0.00003578,0.00002790,-0.00002253,0.00002410,
 -0.00001104,0.00002425,0.00000710,-0.00002283,0.00000139,0.00001385,0.
 00000056,-0.00000545,-0.00000205,-0.00001181,-0.00000258,0.00001146,-0
 .00000856,0.00732961,0.00839170,0.00321616,0.00281843,0.00167339,-0.00
 188646,-0.11633592,-0.20473684,-0.09617622,0.00085922,-0.00016886,0.00
 055575,0.00028821,0.00024963,0.00024344,-0.02269670,-0.01521540,-0.014
 46293,0.12367505,0.21310324,0.00147630,0.00194208,-0.00257172,-0.00038
 420,-0.00012139,-0.00016935,0.00008271,-0.00023124,0.00010660,0.000071
 55,-0.00000582,-0.00002774,0.00010040,0.00000650,0.00009730,0.00002461
 ,0.00002679,0.00000983,-0.00001703,-0.00001554,-0.00003060,-0.00001350
 ,0.00002860,-0.00004293,-0.00000954,-0.00000645,-0.00003836,0.00000655
 ,-0.00000758,0.00000557,0.00000304,0.00000237,-0.00000425,0.00001180,-
 0.00000350,-0.00000653,-0.00000312,-0.00000251,-0.00000483,-0.00020277
 ,0.00041456,0.00037487,0.00022262,0.00035971,-0.00007545,0.00018976,-0
 .00010708,-0.00006333,-0.00002536,0.00004267,0.00014094,-0.00002648,-0
 .00002683,-0.00002315,0.00013262,0.00014482,-0.00011769,-0.00015657,-0
 .00011034,0.00000189,0.00000055,-0.00005714,-0.00009757,-0.00000885,-0
 .00000111,-0.00001611,-0.00002021,0.00000817,-0.00000462,-0.00001498,-
 0.00000814,0.00000165,-0.00182985,-0.00675707,0.00220603,-0.00241580,-
 0.00156887,0.00680640,-0.08169162,-0.09530672,-0.11032011,0.00050995,0
 .00062179,-0.00057899,-0.00015355,-0.00021963,-0.00018327,-0.00767602,
 -0.00529836,0.00142812,0.09072299,0.10824573,0.10119083,-0.00066333,-0
 .00236113,-0.00003259,0.00042717,0.00013091,0.00098277,0.00010732,0.00
 016427,-0.00066781,0.00046983,0.00005395,0.00010470,-0.00038458,0.0002
 5662,0.00022641,-0.00027976,-0.00011876,0.00025295,0.00002561,-0.00002
 751,0.00001472,0.00048691,-0.00000339,0.00005453,-0.00004169,-0.000053
 31,-0.00006143,-0.00014983,0.00012962,-0.00036408,-0.00002093,-0.00000
 263,-0.00001145,-0.00000393,-0.00000047,0.00002683,-0.00002102,0.00000
 377,0.00000400,0.00108103,-0.00053320,0.00004978,0.00035925,0.00036727
 ,-0.00010426,0.00024838,-0.00015818,0.00005823,-0.00016947,-0.00006121
 ,0.00035035,0.00000638,-0.00000973,0.00000249,0.00007855,0.00051383,-0
 .00000614,-0.00024334,0.00019502,0.00033692,0.00000857,-0.00024095,-0.
 00028857,-0.00004620,0.00001101,-0.00001498,0.00002962,0.00001703,-0.0
 0001162,0.00000191,0.00001655,0.00000132,-0.09078921,-0.02678261,-0.03
 427229,-0.00845666,0.10498733,0.03961620,0.08995566,-0.05604934,-0.003
 50452,-0.34980591,0.00893260,-0.06752102,0.00148385,0.00230280,-0.0008
 5040,-0.22478416,-0.03134043,-0.05161038,0.00014993,0.00436647,-0.0005
 2246,0.72202360,-0.00110141,-0.00094135,0.00049691,0.00040024,-0.00012
 364,0.00035185,-0.00016190,-0.00015608,-0.00021808,0.00013351,0.000017
 00,-0.00012120,-0.00000082,0.00003590,0.00011878,-0.00008732,-0.000018
 22,0.00003604,-0.00000382,-0.00001176,-0.00000195,0.00009903,0.0000296
 7,0.00005284,-0.00005558,-0.00004362,0.00001649,0.00005609,0.00004468,
 -0.00007718,0.00002471,-0.00001285,0.00000085,0.00002991,-0.00001224,-
 0.00003228,0.00001409,-0.00000723,-0.00000688,0.00095637,-0.00018252,-
 0.00050766,0.00008944,-0.00001719,0.00027657,-0.00002979,-0.00029125,-
 0.00004410,-0.00010391,-0.00003999,0.00007379,0.00002142,0.00002789,-0
 .00000817,0.00003345,0.00018579,0.00003602,-0.00004115,-0.00002157,0.0
 0002493,-0.00001809,-0.00014612,-0.00004937,-0.00002975,-0.00003448,0.
 00001589,0.00000883,-0.00003209,0.00005350,-0.00000639,-0.00000222,0.0
 0001372,-0.02816031,-0.00822349,-0.00874588,0.04212407,0.01811989,0.01
 478963,0.00656240,-0.05238402,-0.02473617,0.08959865,-0.16210146,-0.00
 809262,0.00256837,-0.00403957,-0.00455781,-0.11161235,-0.24506832,-0.0
 9765482,0.00371970,-0.00302895,-0.00410946,-0.08979684,0.74334864,-0.0
 0032323,-0.00070995,-0.00059878,0.00037343,-0.00019226,0.00035698,-0.0
 0003863,-0.00009320,-0.00026595,0.00024761,0.00001707,-0.00000861,-0.0
 0010638,0.00014331,0.00008479,-0.00012798,-0.00004755,0.00009776,0.000
 00249,-0.00000312,-0.00000654,0.00019831,0.00002014,0.00002486,-0.0000
 1637,-0.00003334,-0.00003838,-0.00002332,0.00005469,-0.00014587,0.0000
 0487,-0.00000530,-0.00000184,0.00000162,-0.00000190,0.00000472,-0.0000
 0369,-0.00000030,-0.00000405,0.00056825,-0.00005573,-0.00003227,0.0001
 7884,0.00018661,0.00006498,0.00011129,-0.00027611,0.00006301,-0.000094
 14,-0.00004070,0.00017858,0.00000235,0.00000742,-0.00000008,0.00005438
 ,0.00022473,-0.00005370,-0.00007082,-0.00007767,0.00000991,-0.00001552
 ,-0.00017096,-0.00011360,-0.00002438,-0.00000814,0.00000119,0.00001594
 ,-0.00002254,0.00004344,-0.00000549,-0.00000538,0.00000379,-0.03461192
 ,-0.00738996,-0.02028590,0.01253790,0.03154770,0.02650284,0.02447689,-
 0.04132027,-0.00131482,-0.03463824,-0.02988285,-0.10526399,-0.00063245
 ,-0.00484660,0.00678429,-0.08505140,-0.07557695,-0.13844156,-0.0008295
 2,-0.00379258,0.00724639,0.11078489,0.21244993,0.29345083,0.00041312,0
 .00033880,0.00029817,-0.00001264,0.00009829,0.00006938,0.00003311,-0.0
 0008462,-0.00001213,0.00001249,-0.00001439,-0.00004083,-0.00000349,-0.
 00000801,0.00000210,-0.00001837,-0.00000270,-0.00000289,-0.00000012,0.
 00000948,-0.00000066,-0.00000232,-0.00000757,0.00001195,-0.00000245,0.
 00000497,0.00001108,-0.00001099,-0.00000306,0.00000159,0.00000349,0.00
 000344,0.00000388,0.00000082,0.00000280,-0.00000273,0.00000523,0.00000
 260,0.00000007,0.00000188,0.00002757,-0.00000050,-0.00000594,0.0000126
 9,0.00001718,0.00000085,-0.00003099,0.00000539,0.00000407,0.00000222,0
 .00000171,-0.00000429,0.00000184,-0.00000283,0.00001065,-0.00000099,-0
 .00002143,-0.00000510,0.00000532,-0.00003680,-0.00000096,-0.00000485,0
 .00000165,0.,-0.00000355,0.00000023,-0.00000459,-0.00000441,0.00000849
 ,-0.00000336,-0.00000497,0.00000164,0.00017970,0.00393885,-0.00068003,
 0.01249698,0.01296967,0.00725185,-0.00048168,0.00098084,0.00056025,-0.
 17625731,-0.11764131,-0.08268864,0.00093945,-0.00114508,0.00110241,-0.
 00525129,0.00331683,-0.00243420,-0.00004337,-0.00020761,0.00023262,-0.
 01308688,-0.02714270,-0.01619413,0.18108714,-0.00111418,-0.00038272,-0
 .00048975,0.00010967,-0.00040588,-0.00011171,-0.00029497,0.00003775,0.
 00011736,0.00009266,0.00003760,-0.00002613,0.00004489,0.00002983,-0.00
 001826,-0.00000021,0.00001501,0.00001813,-0.00001970,-0.00002051,-0.00
 000345,0.00000498,0.00000349,0.00001778,-0.00000706,-0.00001338,0.0000
 2826,0.00005814,0.00002048,-0.00001272,0.00002708,-0.00002166,0.000003
 15,0.00001077,-0.00000253,-0.00001601,0.00001577,-0.00000911,-0.000007
 64,0.00013163,-0.00000657,-0.00026610,-0.00003141,-0.00008977,0.000125
 54,0.00001720,-0.00010162,0.00005809,-0.00000842,-0.00001240,-0.000000
 45,-0.00000163,0.00002528,0.00001044,0.00001090,0.00000415,-0.00001738
 ,-0.00002858,0.00001268,-0.00006502,-0.00000809,-0.00002721,0.00001628
 ,-0.00000519,-0.00001899,0.00000612,-0.00001325,-0.00001418,0.00002830
 ,-0.00000610,-0.00001065,0.00000759,0.00425015,-0.00299980,-0.00366134
 ,-0.02251884,-0.01499470,-0.01451334,0.00101613,-0.00017913,0.00058860
 ,-0.11763677,-0.20657419,-0.09687174,0.00002817,0.00040102,0.00224427,
 0.00286404,0.00189552,-0.00214742,-0.00022435,-0.00019922,0.00037418,0
 .00851182,0.00999397,0.00408260,0.12568194,0.21306539,-0.00052712,0.00
 015679,-0.00017881,-0.00001906,-0.00007114,-0.00006633,-0.00004106,-0.
 00005040,0.00002831,-0.00004272,0.00000718,-0.00001768,0.00007218,-0.0
 0001936,-0.00001380,0.00003439,0.00002307,-0.00002429,-0.00000994,0.00
 000479,-0.00000690,-0.00003993,0.00002593,0.00000780,-0.00002056,-0.00
 001671,0.00000013,0.00005322,0.00000128,0.00003148,0.00000670,-0.00000
 612,-0.00000036,0.00001298,-0.00000929,-0.00002647,0.00001148,-0.00000
 990,-0.00000506,0.00010861,-0.00007246,-0.00003709,0.00001784,-0.00001
 927,0.00002783,-0.00001471,0.00004098,0.00004634,-0.00001736,-0.000012
 06,0.00000940,0.00000570,0.00000341,-0.00000624,0.00000147,-0.00000196
 ,-0.00001598,-0.00000138,-0.00000955,-0.00000647,-0.00000004,-0.000015
 94,-0.00000746,-0.00000596,-0.00001137,-0.00000187,-0.00000136,0.00000
 645,0.00000025,-0.00000038,-0.00000854,0.00000427,-0.00049020,-0.00416
 883,0.00681489,-0.00742000,-0.00489701,0.00149964,0.00067689,0.0005341
 8,-0.00056601,-0.08244452,-0.09681316,-0.11089478,0.00143266,0.0020288
 1,-0.00378041,-0.00264366,-0.00196758,0.00742788,0.00023465,0.00037532
 ,-0.00104386,-0.00158057,-0.00548590,0.00292191,0.09166061,0.10839956,
 0.10188996,-0.00050078,-0.00030964,-0.00022902,0.00000045,0.00005356,0
 .00002991,0.00011561,0.00020792,0.00001815,-0.00006418,-0.00000680,0.0
 0006266,-0.00006135,0.00002199,-0.00002129,0.00001615,-0.00001177,0.00
 000169,0.00000626,-0.00000900,0.00000077,0.00000430,0.00000377,-0.0000
 2331,0.00001153,-0.00000017,-0.00001699,-0.00002019,-0.00000078,0.0000
 1041,-0.00001557,0.00000099,-0.00000687,-0.00001438,-0.00000810,0.0000
 1407,-0.00001442,-0.00000060,0.00000311,-0.00010251,-0.00002423,0.0001
 4857,0.00003267,0.00004284,-0.00007340,0.00002243,0.00001163,-0.000059
 56,0.00001557,0.00001533,-0.00000172,-0.00001065,-0.00001117,0.0000029
 7,0.00000011,0.00000294,0.00002899,-0.00001449,-0.00001041,0.00004880,
 0.00001347,0.00002921,-0.00000420,-0.00000070,0.00002167,-0.00000263,-
 0.00000522,0.00000407,-0.00002116,0.00000049,0.00001605,-0.00000884,0.
 00166525,0.00274379,-0.00086154,0.00090820,-0.00032013,0.00035680,-0.0
 0761840,-0.00221118,-0.00451814,0.00017152,-0.00267998,-0.00344986,-0.
 00016975,-0.00009480,0.00025801,-0.34902782,0.05991512,-0.05723055,0.0
 0087918,0.00000917,0.00166601,-0.01358306,0.00913321,-0.00142084,-0.00
 090213,0.00029152,-0.00008856,0.36743126,0.00135204,0.00015939,0.00037
 172,-0.00004503,0.00007772,-0.00002557,-0.00004338,-0.00045433,-0.0000
 0579,0.00006279,0.00002459,-0.00003608,0.00006950,0.00000137,-0.000027
 11,0.00002190,0.00003640,-0.00000584,-0.00000422,-0.00001747,-0.000001
 20,-0.00003216,0.00001666,0.00001975,-0.00000891,-0.00000432,0.0000022
 2,0.00004409,-0.00001338,0.00001642,0.00001638,-0.00000275,0.00000392,
 0.00000741,0.00000248,-0.00001001,0.00000795,-0.00000325,-0.00000321,0
 .00009468,0.00004910,-0.00013757,-0.00003165,-0.00006066,0.00005210,-0
 .00003455,-0.00002746,0.00003825,-0.00001656,-0.00000660,-0.00001187,0
 .00001487,0.00001011,0.00000392,-0.00001625,-0.00001229,-0.00000139,0.
 00002969,-0.00000206,-0.00002314,-0.00001884,-0.00002135,0.00002271,0.
 00000414,-0.00001369,0.00000492,0.00000711,-0.00000773,0.00001995,0.00
 000487,-0.00000840,0.00000596,0.00210711,-0.00396935,-0.00471976,-0.00
 044287,-0.00116562,-0.00022949,0.03346570,-0.00033984,0.00671319,-0.00
 216279,-0.00205946,-0.00506448,-0.00003231,-0.00009331,0.00046782,0.05
 972247,-0.08150717,0.00257255,-0.00116924,0.00039538,0.00199377,-0.026
 31613,0.01051508,-0.00508429,-0.00119610,0.00023907,-0.00018566,-0.065
 66036,0.07789174,0.00049908,0.00004422,0.00003688,-0.00002552,-0.00001
 979,-0.00005136,-0.00009109,-0.00000679,-0.00009603,0.00005439,0.00001
 363,0.00000230,0.00000805,0.00000549,0.00005872,-0.00003338,-0.0000028
 6,0.00002989,-0.00000143,-0.00000112,-0.00000235,0.00005216,0.00000151
 ,-0.00000066,-0.00000672,-0.00001059,-0.00001102,-0.00000690,0.0000200
 6,-0.00004589,-0.00000020,-0.00000418,-0.00000253,0.00000878,0.0000009
 2,-0.00000323,-0.00000031,-0.00000157,-0.00000200,-0.00005340,0.000094
 52,0.00000405,-0.00004003,-0.00001677,-0.00001592,0.00001093,0.0000173
 7,-0.00000808,0.00000996,-0.00000349,-0.00001268,0.00000167,-0.0000037
 5,-0.00000545,0.00001806,-0.00000516,0.00002076,-0.00003465,-0.0000113
 7,0.00000192,0.00000864,0.00001964,-0.00000358,0.00000308,-0.00000202,
 -0.00000073,-0.00000932,0.00000560,-0.00001526,-0.00000440,0.00000356,
 -0.00000132,-0.00089608,-0.00474124,0.00689358,0.00038396,-0.00027217,
 -0.00094402,0.01025281,-0.00312251,0.00716608,-0.00324469,-0.00516495,
 0.00561469,0.00023728,0.00046383,-0.00099960,-0.05735418,0.00267202,-0
 .06345846,0.00115897,0.00226265,-0.00391472,-0.01610985,0.00466319,0.0
 0298624,-0.00073957,0.00022145,-0.00018266,0.06432683,0.00104825,0.050
 56790,0.00003484,-0.00018487,0.00024367,0.00002333,0.00009676,0.000088
 64,0.00003312,0.00002196,0.00001195,-0.00000425,0.00002731,0.00005280,
 0.00000136,0.00002949,-0.00003655,0.00004151,0.00000650,0.00000265,0.0
 0000138,-0.00002373,0.00000122,-0.00000397,0.00000466,-0.00001641,0.00
 000531,-0.00000457,-0.00000473,0.00000057,-0.00001253,0.00000977,-0.00
 000656,0.00000021,-0.00000544,-0.00000595,-0.00000146,0.00001118,-0.00
 001038,0.00000075,0.00000351,0.00000937,-0.00003763,0.00000958,0.00000
 689,0.00000647,-0.00000994,0.00001512,-0.00001610,-0.00003400,0.000002
 46,0.00000414,-0.00000202,-0.00000378,-0.00000104,0.00000184,-0.000002
 56,0.00001023,0.00001809,-0.00001931,-0.00000220,0.00002657,-0.0000004
 9,0.00000610,-0.00000196,-0.00000024,0.00000581,0.00000048,0.00000238,
 -0.00000072,-0.00000342,0.00000161,0.00000596,-0.00000205,-0.00105349,
 -0.00072612,-0.00032730,-0.00553666,0.00100072,-0.00347800,-0.00163222
 ,-0.00229863,-0.00379132,-0.00610964,0.03352498,0.01081951,-0.00050558
 ,0.00143498,0.00048080,0.01300935,-0.02163760,-0.00679826,0.00036979,-
 0.00094533,-0.00028213,-0.11441362,0.10277864,0.02466940,0.00090832,-0
 .00124872,0.00107971,0.00083118,0.00019864,0.00161706,0.11401083,-0.00
 006196,-0.00015032,0.00036100,0.00002808,0.00003852,0.00006829,-0.0000
 4407,-0.00007147,0.00003439,0.00002848,-0.00000144,-0.00005288,0.00002
 455,-0.00003028,-0.00000887,-0.00001770,0.00000373,-0.00000608,-0.0000
 0573,0.00001212,0.00000132,-0.00001133,-0.00001082,0.00002353,-0.00000
 572,0.00000349,0.00002198,0.00001725,0.00000388,-0.00000239,0.00001374
 ,-0.00000426,0.00000671,0.00000676,0.00000597,-0.00001071,0.00001416,0
 .00000023,-0.00000277,0.00008290,-0.00003017,-0.00011345,-0.00001149,-
 0.00002327,0.00006443,-0.00000861,-0.00003200,0.00004736,-0.00000952,-
 0.00000681,0.00001177,-0.00000094,0.00001228,0.00000165,0.00000544,0.0
 0000589,-0.00004473,0.00001043,0.00001145,-0.00005809,-0.00000812,-0.0
 0002551,0.00000107,-0.00000241,-0.00001555,0.00000114,-0.00000014,-0.0
 0000669,0.00002355,-0.00000223,-0.00001507,0.00000754,-0.00076283,0.00
 063984,0.00042618,0.00164004,0.00258010,-0.00219688,-0.00288888,-0.000
 19441,-0.00448921,-0.00225889,-0.00119406,-0.00324634,-0.00002110,-0.0
 0026773,-0.00008183,0.01393466,-0.01489481,-0.00446825,0.00050419,-0.0
 0095756,-0.00024698,0.10289496,-0.30537828,-0.07909654,0.00010473,0.00
 030300,0.00224444,-0.00116565,0.00037140,0.00183243,-0.11202306,0.3193
 1861,0.00024672,0.00049786,-0.00084439,-0.00011312,-0.00007073,-0.0000
 5589,-0.00005372,-0.00001727,0.00002903,0.00004966,0.00000800,0.000003
 64,0.00002531,0.00003333,0.00000807,0.00000699,-0.00000280,-0.00000061
 ,-0.00000503,0.00000179,-0.00000791,0.00000272,0.00000705,0.00000246,-
 0.00001369,-0.00000951,0.00000367,0.00000271,-0.00000272,-0.00000093,0
 .00000256,0.00000238,0.00000110,0.00000695,-0.00000266,-0.00000924,0.0
 0000432,-0.00000153,-0.00000104,-0.00000322,0.00013977,0.00006894,0.00
 002066,0.00003082,-0.00002455,0.00001922,0.00001216,0.00001328,0.00000
 404,0.00000796,0.00001089,-0.00000440,0.00000133,-0.00000379,0.0000054
 3,0.00000006,-0.00000151,-0.00002047,-0.00000947,0.00000692,-0.0000005
 8,-0.00000119,-0.00000630,-0.00000052,-0.00000320,-0.00000389,-0.00000
 208,0.00000604,-0.00000462,-0.00000216,-0.00000318,0.00000226,-0.00029
 056,0.00029578,-0.00092727,-0.00319970,-0.00231063,0.00719671,-0.00407
 266,-0.00433682,0.00575273,-0.00376880,0.00635428,0.00682884,-0.000093
 13,0.00029670,0.00001305,0.00791008,-0.01427360,0.00129867,0.00034821,
 -0.00067165,-0.00028125,0.02466731,-0.07902140,-0.07425058,0.00161513,
 0.00188076,-0.00382755,0.00106076,0.00221504,-0.00360543,-0.02435492,0
 .08894721,0.06261649||0.00001305,0.00001000,-0.00001132,-0.00000293,-0
 .00000294,-0.00000112,-0.00000015,-0.00003258,0.00004918,-0.00004099,0
 .00001641,-0.00001219,0.00003725,0.00002220,-0.00002833,0.00003502,0.0
 0000710,-0.00003140,0.00000732,0.00000346,-0.00000295,-0.00004346,0.00
 000187,-0.00001166,-0.00000224,-0.00000095,0.00000313,0.00001040,-0.00
 001681,0.00004129,-0.00000264,-0.00000113,0.00000193,0.00000279,-0.000
 00012,0.00000106,-0.00000132,0.00000139,-0.00000209,-0.00000203,-0.000
 00142,0.00000400,-0.00000095,0.00000584,0.00000162,-0.00000113,-0.0000
 0300,0.00000303,0.00000092,-0.00000295,0.00000755,-0.00000110,-0.00000
 056,0.00000028,0.00000060,0.00000445,-0.00000248,-0.00000242,-0.000001
 26,0.00000056,-0.00000066,-0.00000481,-0.00000557,-0.00000042,0.000000
 38,-0.00000044,0.00000099,0.,-0.00000068,-0.00000020,-0.00000014,-0.00
 000037,0.00004113,0.00001220,0.00002513,-0.00000312,-0.00006374,-0.000
 03437,-0.00005340,0.00004373,-0.00000113,-0.00005025,0.00004714,0.0000
 0048,0.00000133,0.00000185,0.00000337,-0.00000664,-0.00006094,-0.00002
 996,0.00000627,-0.00000046,0.00000224,0.00006025,0.00001534,0.00003106
 ,0.00000369,-0.00000436,0.00000041,0.00000120,0.00000707,0.00000304,-0
 .00000617,-0.00000224,-0.00000329|||@


 IF OTHER PEOPLE ARE GOING TO TALK, CONVERSATION IS SIMPLY IMPOSSIBLE.

                                               -- WHISTLER'S PRINCIPLE
 Job cpu time:  0 days  0 hours  6 minutes 25.0 seconds.
 File lengths (MBytes):  RWF=    350 Int=      0 D2E=      0 Chk=      7 Scr=      1
 Normal termination of Gaussian 09 at Mon Sep 06 22:18:51 2021.
