 Entering Link 1 = b:\programy\g09w\l1.exe PID=     18864.
  
 Copyright (c) 1988,1990,1992,1993,1995,1998,2003,2009, Gaussian, Inc.
                  All Rights Reserved.
  
 This is part of the Gaussian(R) 09 program.  It is based on
 the Gaussian(R) 03 system (copyright 2003, Gaussian, Inc.),
 the Gaussian(R) 98 system (copyright 1998, Gaussian, Inc.),
 the Gaussian(R) 94 system (copyright 1995, Gaussian, Inc.),
 the Gaussian 92(TM) system (copyright 1992, Gaussian, Inc.),
 the Gaussian 90(TM) system (copyright 1990, Gaussian, Inc.),
 the Gaussian 88(TM) system (copyright 1988, Gaussian, Inc.),
 the Gaussian 86(TM) system (copyright 1986, Carnegie Mellon
 University), and the Gaussian 82(TM) system (copyright 1983,
 Carnegie Mellon University). Gaussian is a federally registered
 trademark of Gaussian, Inc.
  
 This software contains proprietary and confidential information,
 including trade secrets, belonging to Gaussian, Inc.
  
 This software is provided under written license and may be
 used, copied, transmitted, or stored only in accord with that
 written license.
  
 The following legend is applicable only to US Government
 contracts under FAR:
  
                    RESTRICTED RIGHTS LEGEND
  
 Use, reproduction and disclosure by the US Government is
 subject to restrictions as set forth in subparagraphs (a)
 and (c) of the Commercial Computer Software - Restricted
 Rights clause in FAR 52.227-19.
  
 Gaussian, Inc.
 340 Quinnipiac St., Bldg. 40, Wallingford CT 06492
  
  
 ---------------------------------------------------------------
 Warning -- This program may not be used in any manner that
 competes with the business of Gaussian, Inc. or will provide
 assistance to any competitor of Gaussian, Inc.  The licensee
 of this program is prohibited from giving any competitor of
 Gaussian, Inc. access to this program.  By using this program,
 the user acknowledges that Gaussian, Inc. is engaged in the
 business of creating and licensing software in the field of
 computational chemistry and represents and warrants to the
 licensee that it is not a competitor of Gaussian, Inc. and that
 it will not use this program in any manner prohibited above.
 ---------------------------------------------------------------
  

 Cite this work as:
 Gaussian 09, Revision A.02,
 M. J. Frisch, G. W. Trucks, H. B. Schlegel, G. E. Scuseria, 
 M. A. Robb, J. R. Cheeseman, G. Scalmani, V. Barone, B. Mennucci, 
 G. A. Petersson, H. Nakatsuji, M. Caricato, X. Li, H. P. Hratchian, 
 A. F. Izmaylov, J. Bloino, G. Zheng, J. L. Sonnenberg, M. Hada, 
 M. Ehara, K. Toyota, R. Fukuda, J. Hasegawa, M. Ishida, T. Nakajima, 
 Y. Honda, O. Kitao, H. Nakai, T. Vreven, J. A. Montgomery, Jr., 
 J. E. Peralta, F. Ogliaro, M. Bearpark, J. J. Heyd, E. Brothers, 
 K. N. Kudin, V. N. Staroverov, R. Kobayashi, J. Normand, 
 K. Raghavachari, A. Rendell, J. C. Burant, S. S. Iyengar, J. Tomasi, 
 M. Cossi, N. Rega, J. M. Millam, M. Klene, J. E. Knox, J. B. Cross, 
 V. Bakken, C. Adamo, J. Jaramillo, R. Gomperts, R. E. Stratmann, 
 O. Yazyev, A. J. Austin, R. Cammi, C. Pomelli, J. W. Ochterski, 
 R. L. Martin, K. Morokuma, V. G. Zakrzewski, G. A. Voth, 
 P. Salvador, J. J. Dannenberg, S. Dapprich, A. D. Daniels, 
 O. Farkas, J. B. Foresman, J. V. Ortiz, J. Cioslowski, 
 and D. J. Fox, Gaussian, Inc., Wallingford CT, 2009.
 
 ******************************************
 Gaussian 09:  IA32W-G09RevA.02 11-Jun-2009
                06-Sep-2021 
 ******************************************
 %nprocshared=12
 Will use up to   12 processors via shared memory.
 ----------------------------------------------
 # opt freq=noraman hf/6-311g geom=connectivity
 ----------------------------------------------
 1/18=20,19=15,38=1,57=2/1,3;
 2/9=110,12=2,17=6,18=5,40=1/2;
 3/5=4,6=6,11=9,16=1,25=1,30=1,71=1/1,2,3;
 4//1;
 5/5=2,38=5/2;
 6/7=2,8=2,9=2,10=2,28=1/1;
 7//1,2,3,16;
 1/18=20,19=15/3(2);
 2/9=110/2;
 99//99;
 2/9=110/2;
 3/5=4,6=6,11=9,16=1,25=1,30=1,71=1/1,2,3;
 4/5=5,16=3/1;
 5/5=2,38=5/2;
 7//1,2,3,16;
 1/18=20,19=15/3(-5);
 2/9=110/2;
 6/7=2,8=2,9=2,10=2,19=2,28=1/1;
 99/9=1/99;
 -----
 M0001
 -----
 Symbolic Z-matrix:
 Charge =  0 Multiplicity = 1
 C                    -0.44129  -0.05405  -0.62756 
 H                    -1.08117  -0.19671  -1.54051 
 C                     0.97305  -0.40452  -1.02005 
 C                     2.00299  -0.47247  -0.08053 
 C                     1.25533  -0.68899  -2.35817 
 C                     3.28952  -0.82774  -0.46779 
 H                     1.78472  -0.21928   0.96818 
 C                     2.54381  -1.04051  -2.74499 
 H                     0.45864  -0.63646  -3.10965 
 C                     3.56204  -1.11426  -1.80099 
 H                     4.08814  -0.88074   0.27917 
 H                     2.75538  -1.26103  -3.7963 
 H                     4.57492  -1.39524  -2.10647 
 C                    -0.60226   1.38886  -0.21808 
 C                    -1.69974   2.10091  -0.71126 
 C                     0.29564   2.03662   0.63216 
 C                    -1.89149   3.43199  -0.36124 
 H                    -2.41697   1.60832  -1.37848 
 C                     0.10384   3.36901   0.9791 
 H                     1.16649   1.48571   1.02256 
 C                    -0.98979   4.06963   0.48409 
 H                    -2.75468   3.97934  -0.75347 
 H                     0.81799   3.86589   1.64365 
 H                    -1.14036   5.1188    0.75753 
 C                    -0.95304  -1.02462   0.40982 
 C                    -1.51059  -2.23027  -0.02785 
 C                    -0.88356  -0.76862   1.77886 
 C                    -1.98679  -3.15932   0.88847 
 H                    -1.56972  -2.44763  -1.10069 
 C                    -1.36317  -1.69932   2.69451 
 H                    -0.4566    0.17658   2.13756 
 C                    -1.91444  -2.89582   2.25253 
 H                    -2.42002  -4.10069   0.53525 
 H                    -1.30569  -1.48557   3.76668 
 H                    -2.2911   -3.62779   2.97396 
 

 GradGradGradGradGradGradGradGradGradGradGradGradGradGradGradGradGradGrad
 Berny optimization.
 Initialization pass.
                           ----------------------------
                           !    Initial Parameters    !
                           ! (Angstroms and Degrees)  !
 --------------------------                            --------------------------
 ! Name  Definition              Value          Derivative Info.                !
 --------------------------------------------------------------------------------
 ! R1    R(1,2)                  1.124          estimate D2E/DX2                !
 ! R2    R(1,3)                  1.5091         estimate D2E/DX2                !
 ! R3    R(1,14)                 1.5085         estimate D2E/DX2                !
 ! R4    R(1,25)                 1.51           estimate D2E/DX2                !
 ! R5    R(3,4)                  1.3957         estimate D2E/DX2                !
 ! R6    R(3,5)                  1.3968         estimate D2E/DX2                !
 ! R7    R(4,6)                  1.3897         estimate D2E/DX2                !
 ! R8    R(4,7)                  1.1007         estimate D2E/DX2                !
 ! R9    R(5,8)                  1.3905         estimate D2E/DX2                !
 ! R10   R(5,9)                  1.0965         estimate D2E/DX2                !
 ! R11   R(6,10)                 1.3906         estimate D2E/DX2                !
 ! R12   R(6,11)                 1.0948         estimate D2E/DX2                !
 ! R13   R(8,10)                 1.3905         estimate D2E/DX2                !
 ! R14   R(8,12)                 1.0948         estimate D2E/DX2                !
 ! R15   R(10,13)                1.0946         estimate D2E/DX2                !
 ! R16   R(14,15)                1.3981         estimate D2E/DX2                !
 ! R17   R(14,16)                1.396          estimate D2E/DX2                !
 ! R18   R(15,17)                1.3896         estimate D2E/DX2                !
 ! R19   R(15,18)                1.0965         estimate D2E/DX2                !
 ! R20   R(16,19)                1.3901         estimate D2E/DX2                !
 ! R21   R(16,20)                1.1019         estimate D2E/DX2                !
 ! R22   R(17,21)                1.3908         estimate D2E/DX2                !
 ! R23   R(17,22)                1.0948         estimate D2E/DX2                !
 ! R24   R(19,21)                1.3899         estimate D2E/DX2                !
 ! R25   R(19,23)                1.0948         estimate D2E/DX2                !
 ! R26   R(21,24)                1.0946         estimate D2E/DX2                !
 ! R27   R(25,26)                1.3986         estimate D2E/DX2                !
 ! R28   R(25,27)                1.3945         estimate D2E/DX2                !
 ! R29   R(26,28)                1.3891         estimate D2E/DX2                !
 ! R30   R(26,29)                1.0962         estimate D2E/DX2                !
 ! R31   R(27,30)                1.3909         estimate D2E/DX2                !
 ! R32   R(27,31)                1.0974         estimate D2E/DX2                !
 ! R33   R(28,32)                1.3912         estimate D2E/DX2                !
 ! R34   R(28,33)                1.0948         estimate D2E/DX2                !
 ! R35   R(30,32)                1.3896         estimate D2E/DX2                !
 ! R36   R(30,34)                1.0948         estimate D2E/DX2                !
 ! R37   R(32,35)                1.0946         estimate D2E/DX2                !
 ! A1    A(2,1,3)              107.0276         estimate D2E/DX2                !
 ! A2    A(2,1,14)             106.3285         estimate D2E/DX2                !
 ! A3    A(2,1,25)             106.4701         estimate D2E/DX2                !
 ! A4    A(3,1,14)             113.1261         estimate D2E/DX2                !
 ! A5    A(3,1,25)             110.3066         estimate D2E/DX2                !
 ! A6    A(14,1,25)            113.0897         estimate D2E/DX2                !
 ! A7    A(1,3,4)              121.8592         estimate D2E/DX2                !
 ! A8    A(1,3,5)              119.0688         estimate D2E/DX2                !
 ! A9    A(4,3,5)              119.0646         estimate D2E/DX2                !
 ! A10   A(3,4,6)              120.5301         estimate D2E/DX2                !
 ! A11   A(3,4,7)              118.935          estimate D2E/DX2                !
 ! A12   A(6,4,7)              120.5221         estimate D2E/DX2                !
 ! A13   A(3,5,8)              120.3482         estimate D2E/DX2                !
 ! A14   A(3,5,9)              119.9976         estimate D2E/DX2                !
 ! A15   A(8,5,9)              119.6542         estimate D2E/DX2                !
 ! A16   A(4,6,10)             120.0827         estimate D2E/DX2                !
 ! A17   A(4,6,11)             119.8383         estimate D2E/DX2                !
 ! A18   A(10,6,11)            120.079          estimate D2E/DX2                !
 ! A19   A(5,8,10)             120.2071         estimate D2E/DX2                !
 ! A20   A(5,8,12)             119.8104         estimate D2E/DX2                !
 ! A21   A(10,8,12)            119.9825         estimate D2E/DX2                !
 ! A22   A(6,10,8)             119.7653         estimate D2E/DX2                !
 ! A23   A(6,10,13)            120.118          estimate D2E/DX2                !
 ! A24   A(8,10,13)            120.1166         estimate D2E/DX2                !
 ! A25   A(1,14,15)            118.3696         estimate D2E/DX2                !
 ! A26   A(1,14,16)            122.7204         estimate D2E/DX2                !
 ! A27   A(15,14,16)           118.9098         estimate D2E/DX2                !
 ! A28   A(14,15,17)           120.4845         estimate D2E/DX2                !
 ! A29   A(14,15,18)           119.9557         estimate D2E/DX2                !
 ! A30   A(17,15,18)           119.5598         estimate D2E/DX2                !
 ! A31   A(14,16,19)           120.5316         estimate D2E/DX2                !
 ! A32   A(14,16,20)           119.4797         estimate D2E/DX2                !
 ! A33   A(19,16,20)           119.9869         estimate D2E/DX2                !
 ! A34   A(15,17,21)           120.1852         estimate D2E/DX2                !
 ! A35   A(15,17,22)           119.8325         estimate D2E/DX2                !
 ! A36   A(21,17,22)           119.9823         estimate D2E/DX2                !
 ! A37   A(16,19,21)           120.1864         estimate D2E/DX2                !
 ! A38   A(16,19,23)           119.7695         estimate D2E/DX2                !
 ! A39   A(21,19,23)           120.044          estimate D2E/DX2                !
 ! A40   A(17,21,19)           119.7022         estimate D2E/DX2                !
 ! A41   A(17,21,24)           120.1391         estimate D2E/DX2                !
 ! A42   A(19,21,24)           120.1587         estimate D2E/DX2                !
 ! A43   A(1,25,26)            118.3084         estimate D2E/DX2                !
 ! A44   A(1,25,27)            122.6558         estimate D2E/DX2                !
 ! A45   A(26,25,27)           119.0347         estimate D2E/DX2                !
 ! A46   A(25,26,28)           120.4507         estimate D2E/DX2                !
 ! A47   A(25,26,29)           119.9135         estimate D2E/DX2                !
 ! A48   A(28,26,29)           119.6354         estimate D2E/DX2                !
 ! A49   A(25,27,30)           120.4162         estimate D2E/DX2                !
 ! A50   A(25,27,31)           119.8928         estimate D2E/DX2                !
 ! A51   A(30,27,31)           119.6886         estimate D2E/DX2                !
 ! A52   A(26,28,32)           120.1524         estimate D2E/DX2                !
 ! A53   A(26,28,33)           119.8624         estimate D2E/DX2                !
 ! A54   A(32,28,33)           119.9852         estimate D2E/DX2                !
 ! A55   A(27,30,32)           120.2366         estimate D2E/DX2                !
 ! A56   A(27,30,34)           119.7333         estimate D2E/DX2                !
 ! A57   A(32,30,34)           120.0301         estimate D2E/DX2                !
 ! A58   A(28,32,30)           119.7093         estimate D2E/DX2                !
 ! A59   A(28,32,35)           120.1125         estimate D2E/DX2                !
 ! A60   A(30,32,35)           120.1781         estimate D2E/DX2                !
 ! D1    D(2,1,3,4)           -173.0333         estimate D2E/DX2                !
 ! D2    D(2,1,3,5)              5.967          estimate D2E/DX2                !
 ! D3    D(14,1,3,4)            70.1896         estimate D2E/DX2                !
 ! D4    D(14,1,3,5)          -110.8101         estimate D2E/DX2                !
 ! D5    D(25,1,3,4)           -57.598          estimate D2E/DX2                !
 ! D6    D(25,1,3,5)           121.4023         estimate D2E/DX2                !
 ! D7    D(2,1,14,15)           18.1566         estimate D2E/DX2                !
 ! D8    D(2,1,14,16)         -161.993          estimate D2E/DX2                !
 ! D9    D(3,1,14,15)          135.3452         estimate D2E/DX2                !
 ! D10   D(3,1,14,16)          -44.8045         estimate D2E/DX2                !
 ! D11   D(25,1,14,15)         -98.3342         estimate D2E/DX2                !
 ! D12   D(25,1,14,16)          81.5162         estimate D2E/DX2                !
 ! D13   D(2,1,25,26)           30.8255         estimate D2E/DX2                !
 ! D14   D(2,1,25,27)         -149.564          estimate D2E/DX2                !
 ! D15   D(3,1,25,26)          -84.9599         estimate D2E/DX2                !
 ! D16   D(3,1,25,27)           94.6507         estimate D2E/DX2                !
 ! D17   D(14,1,25,26)         147.2325         estimate D2E/DX2                !
 ! D18   D(14,1,25,27)         -33.1569         estimate D2E/DX2                !
 ! D19   D(1,3,4,6)            178.5231         estimate D2E/DX2                !
 ! D20   D(1,3,4,7)             -2.7722         estimate D2E/DX2                !
 ! D21   D(5,3,4,6)             -0.4773         estimate D2E/DX2                !
 ! D22   D(5,3,4,7)            178.2274         estimate D2E/DX2                !
 ! D23   D(1,3,5,8)           -178.7409         estimate D2E/DX2                !
 ! D24   D(1,3,5,9)              1.2089         estimate D2E/DX2                !
 ! D25   D(4,3,5,8)              0.2877         estimate D2E/DX2                !
 ! D26   D(4,3,5,9)           -179.7625         estimate D2E/DX2                !
 ! D27   D(3,4,6,10)             0.2507         estimate D2E/DX2                !
 ! D28   D(3,4,6,11)          -179.7965         estimate D2E/DX2                !
 ! D29   D(7,4,6,10)          -178.4333         estimate D2E/DX2                !
 ! D30   D(7,4,6,11)             1.5195         estimate D2E/DX2                !
 ! D31   D(3,5,8,10)             0.1284         estimate D2E/DX2                !
 ! D32   D(3,5,8,12)          -179.9595         estimate D2E/DX2                !
 ! D33   D(9,5,8,10)          -179.8216         estimate D2E/DX2                !
 ! D34   D(9,5,8,12)             0.0906         estimate D2E/DX2                !
 ! D35   D(4,6,10,8)             0.1703         estimate D2E/DX2                !
 ! D36   D(4,6,10,13)         -179.9317         estimate D2E/DX2                !
 ! D37   D(11,6,10,8)         -179.7823         estimate D2E/DX2                !
 ! D38   D(11,6,10,13)           0.1157         estimate D2E/DX2                !
 ! D39   D(5,8,10,6)            -0.359          estimate D2E/DX2                !
 ! D40   D(5,8,10,13)          179.743          estimate D2E/DX2                !
 ! D41   D(12,8,10,6)          179.729          estimate D2E/DX2                !
 ! D42   D(12,8,10,13)          -0.169          estimate D2E/DX2                !
 ! D43   D(1,14,15,17)         179.931          estimate D2E/DX2                !
 ! D44   D(1,14,15,18)          -0.0048         estimate D2E/DX2                !
 ! D45   D(16,14,15,17)          0.0749         estimate D2E/DX2                !
 ! D46   D(16,14,15,18)       -179.8609         estimate D2E/DX2                !
 ! D47   D(1,14,16,19)         179.9427         estimate D2E/DX2                !
 ! D48   D(1,14,16,20)           0.4366         estimate D2E/DX2                !
 ! D49   D(15,14,16,19)         -0.2078         estimate D2E/DX2                !
 ! D50   D(15,14,16,20)       -179.7139         estimate D2E/DX2                !
 ! D51   D(14,15,17,21)          0.0693         estimate D2E/DX2                !
 ! D52   D(14,15,17,22)       -179.9879         estimate D2E/DX2                !
 ! D53   D(18,15,17,21)       -179.9947         estimate D2E/DX2                !
 ! D54   D(18,15,17,22)         -0.0519         estimate D2E/DX2                !
 ! D55   D(14,16,19,21)          0.1973         estimate D2E/DX2                !
 ! D56   D(14,16,19,23)       -179.7561         estimate D2E/DX2                !
 ! D57   D(20,16,19,21)        179.7008         estimate D2E/DX2                !
 ! D58   D(20,16,19,23)         -0.2526         estimate D2E/DX2                !
 ! D59   D(15,17,21,19)         -0.0819         estimate D2E/DX2                !
 ! D60   D(15,17,21,24)        179.8642         estimate D2E/DX2                !
 ! D61   D(22,17,21,19)        179.9754         estimate D2E/DX2                !
 ! D62   D(22,17,21,24)         -0.0786         estimate D2E/DX2                !
 ! D63   D(16,19,21,17)         -0.0506         estimate D2E/DX2                !
 ! D64   D(16,19,21,24)       -179.9967         estimate D2E/DX2                !
 ! D65   D(23,19,21,17)        179.9026         estimate D2E/DX2                !
 ! D66   D(23,19,21,24)         -0.0434         estimate D2E/DX2                !
 ! D67   D(1,25,26,28)         179.5607         estimate D2E/DX2                !
 ! D68   D(1,25,26,29)          -0.1957         estimate D2E/DX2                !
 ! D69   D(27,25,26,28)         -0.0643         estimate D2E/DX2                !
 ! D70   D(27,25,26,29)       -179.8207         estimate D2E/DX2                !
 ! D71   D(1,25,27,30)        -179.6579         estimate D2E/DX2                !
 ! D72   D(1,25,27,31)           0.9111         estimate D2E/DX2                !
 ! D73   D(26,25,27,30)         -0.0501         estimate D2E/DX2                !
 ! D74   D(26,25,27,31)       -179.4811         estimate D2E/DX2                !
 ! D75   D(25,26,28,32)          0.1033         estimate D2E/DX2                !
 ! D76   D(25,26,28,33)       -179.9085         estimate D2E/DX2                !
 ! D77   D(29,26,28,32)        179.8604         estimate D2E/DX2                !
 ! D78   D(29,26,28,33)         -0.1514         estimate D2E/DX2                !
 ! D79   D(25,27,30,32)          0.126          estimate D2E/DX2                !
 ! D80   D(25,27,30,34)       -179.8224         estimate D2E/DX2                !
 ! D81   D(31,27,30,32)        179.5582         estimate D2E/DX2                !
 ! D82   D(31,27,30,34)         -0.3902         estimate D2E/DX2                !
 ! D83   D(26,28,32,30)         -0.0274         estimate D2E/DX2                !
 ! D84   D(26,28,32,35)        179.9177         estimate D2E/DX2                !
 ! D85   D(33,28,32,30)        179.9844         estimate D2E/DX2                !
 ! D86   D(33,28,32,35)         -0.0705         estimate D2E/DX2                !
 ! D87   D(27,30,32,28)         -0.0868         estimate D2E/DX2                !
 ! D88   D(27,30,32,35)        179.9681         estimate D2E/DX2                !
 ! D89   D(34,30,32,28)        179.8614         estimate D2E/DX2                !
 ! D90   D(34,30,32,35)         -0.0837         estimate D2E/DX2                !
 --------------------------------------------------------------------------------
 Trust Radius=3.00D-01 FncErr=1.00D-07 GrdErr=1.00D-07
 Number of steps in this run= 197 maximum allowed number of steps= 210.
 GradGradGradGradGradGradGradGradGradGradGradGradGradGradGradGradGradGrad

                          Input orientation:                          
 ---------------------------------------------------------------------
 Center     Atomic      Atomic             Coordinates (Angstroms)
 Number     Number       Type             X           Y           Z
 ---------------------------------------------------------------------
      1          6           0       -0.441295   -0.054050   -0.627555
      2          1           0       -1.081172   -0.196707   -1.540513
      3          6           0        0.973048   -0.404520   -1.020048
      4          6           0        2.002985   -0.472473   -0.080531
      5          6           0        1.255334   -0.688986   -2.358171
      6          6           0        3.289518   -0.827742   -0.467793
      7          1           0        1.784724   -0.219283    0.968177
      8          6           0        2.543809   -1.040513   -2.744992
      9          1           0        0.458637   -0.636459   -3.109649
     10          6           0        3.562040   -1.114265   -1.800990
     11          1           0        4.088139   -0.880742    0.279173
     12          1           0        2.755376   -1.261030   -3.796301
     13          1           0        4.574917   -1.395239   -2.106472
     14          6           0       -0.602259    1.388863   -0.218079
     15          6           0       -1.699738    2.100906   -0.711257
     16          6           0        0.295640    2.036619    0.632162
     17          6           0       -1.891493    3.431990   -0.361241
     18          1           0       -2.416967    1.608319   -1.378482
     19          6           0        0.103835    3.369006    0.979103
     20          1           0        1.166486    1.485714    1.022555
     21          6           0       -0.989792    4.069631    0.484088
     22          1           0       -2.754682    3.979345   -0.753465
     23          1           0        0.817991    3.865892    1.643652
     24          1           0       -1.140355    5.118799    0.757533
     25          6           0       -0.953039   -1.024617    0.409820
     26          6           0       -1.510593   -2.230270   -0.027852
     27          6           0       -0.883563   -0.768624    1.778857
     28          6           0       -1.986786   -3.159319    0.888465
     29          1           0       -1.569721   -2.447630   -1.100692
     30          6           0       -1.363169   -1.699324    2.694509
     31          1           0       -0.456604    0.176576    2.137559
     32          6           0       -1.914442   -2.895821    2.252532
     33          1           0       -2.420015   -4.100689    0.535253
     34          1           0       -1.305690   -1.485570    3.766680
     35          1           0       -2.291104   -3.627785    2.973964
 ---------------------------------------------------------------------
                    Distance matrix (angstroms):
                    1          2          3          4          5
     1  C    0.000000
     2  H    1.123960   0.000000
     3  C    1.509054   2.129293   0.000000
     4  C    2.539453   3.423394   1.395737   0.000000
     5  C    2.505339   2.523919   1.396846   2.406970   0.000000
     6  C    3.813540   4.544433   2.418706   1.389732   2.780412
     7  H    2.743870   3.808858   2.155498   1.100696   3.400804
     8  C    3.790448   3.911939   2.418101   2.777502   1.390457
     9  H    2.703676   2.242004   2.164450   3.404036   1.096451
    10  C    4.304380   4.740166   2.795798   2.408844   2.410851
    11  H    4.692690   5.522765   3.408600   2.154979   3.875195
    12  H    4.660092   4.576075   3.408502   3.872320   2.155360
    13  H    5.398922   5.809314   3.890411   3.401583   3.403201
    14  C    1.508502   2.119486   2.518128   3.204808   3.513987
    15  C    2.496902   2.519784   3.676452   4.553050   4.385006
    16  C    2.549677   3.406445   3.024540   3.117452   4.158368
    17  C    3.785033   3.900608   4.833056   5.521829   5.556320
    18  H    2.688985   2.251381   3.958812   5.054736   4.441080
    19  C    3.820448   4.524048   4.357939   4.414358   5.378722
    20  H    2.771046   3.801556   2.789737   2.398130   4.020762
    21  C    4.305966   4.723240   5.112064   5.468659   5.980256
    22  H    4.651439   4.567218   5.760669   6.550338   6.359923
    23  H    4.702140   5.500040   5.035450   4.816475   6.078879
    24  H    5.400511   5.791296   6.175218   6.468792   7.012653
    25  C    1.509977   2.122652   2.477670   3.046865   3.556871
    26  C    2.497795   2.570589   3.238253   3.929104   3.931450
    27  C    2.548929   3.374071   3.378379   3.446330   4.657921
    28  C    3.785441   3.936642   4.471237   4.906768   5.211002
    29  H    2.688203   2.344948   3.262893   4.207874   3.557390
    30  C    3.820065   4.502533   4.575190   4.531777   5.779872
    31  H    2.774758   3.749352   3.514550   3.375021   4.887895
    32  C    4.305895   4.729350   5.025331   5.163529   6.014664
    33  H    4.652177   4.619782   5.252951   5.753788   5.789630
    34  H    4.701674   5.466066   5.410553   5.174430   6.686344
    35  H    5.400400   5.797995   6.082455   6.142079   7.045951
                    6          7          8          9         10
     6  C    0.000000
     7  H    2.167173   0.000000
     8  C    2.405617   3.877919   0.000000
     9  H    3.876839   4.308272   2.155035   0.000000
    10  C    1.390604   3.410005   1.390458   3.401763   0.000000
    11  H    1.094788   2.493586   3.399420   4.971626   2.158331
    12  H    3.398825   4.972691   1.094823   2.477214   2.157200
    13  H    2.158604   4.315265   2.158457   4.304169   1.094617
    14  C    4.485714   3.113041   4.710086   3.686273   5.110053
    15  C    5.790418   4.510572   5.657940   4.231316   6.261881
    16  C    4.286931   2.723853   5.091972   4.601420   5.149531
    17  C    6.708171   5.349180   6.734795   5.443265   7.244469
    18  H    6.271182   5.147927   5.787310   4.037953   6.583274
    19  C    5.463953   3.962490   6.266276   5.734765   6.307758
    20  H    3.475699   1.814440   4.740597   4.698912   4.524486
    21  C    6.572887   5.130991   7.001919   6.095915   7.267292
    22  H    7.728005   6.418624   7.565657   6.097759   8.181879
    23  H    5.709365   4.251999   6.805252   6.556994   6.648107
    24  H    7.515754   6.090614   7.986105   7.115818   8.216425
    25  C    4.336848   2.907864   4.709675   3.811844   5.028086
    26  C    5.020129   3.986886   5.023599   3.989433   5.488268
    27  C    4.739782   2.842311   5.682078   5.071140   5.718230
    28  C    5.925798   4.782725   6.182042   5.322578   6.496529
    29  H    5.161086   4.527478   4.648100   3.380900   5.348200
    30  C    5.692742   3.883294   6.729538   6.175509   6.693989
    31  H    4.672253   2.558849   5.858591   5.388124   5.773035
    32  C    6.225618   4.743127   6.949347   6.284044   7.042502
    33  H    6.657105   5.738691   6.690608   5.794207   7.082495
    34  H    6.283267   4.357266   7.577506   7.149667   7.404837
    35  H    7.129465   5.679212   7.923183   7.315699   7.960984
                   11         12         13         14         15
    11  H    0.000000
    12  H    4.304691   0.000000
    13  H    2.488566   2.486817   0.000000
    14  C    5.234329   5.576677   6.174172   0.000000
    15  C    6.585643   6.377159   7.317168   1.398103   0.000000
    16  C    4.797775   6.044508   6.131066   1.395965   2.406334
    17  C    7.400391   7.444291   8.256054   2.420121   1.389628
    18  H    7.159584   6.390003   7.644460   2.165147   1.096471
    19  C    5.867277   7.160474   7.225605   2.419252   2.778178
    20  H    3.832595   5.769796   5.450514   2.162640   3.405849
    21  C    7.094615   7.795125   8.218381   2.798167   2.410136
    22  H    8.456416   8.190306   9.189113   3.410302   2.154813
    23  H    5.923360   7.722168   7.473782   3.408640   3.872949
    24  H    7.972482   8.753076   9.126858   3.892786   3.402636
    25  C    5.044922   5.612458   6.085012   2.518370   3.403419
    26  C    5.767260   5.774004   6.484702   3.736226   4.388839
    27  C    5.194174   6.675831   6.729296   2.953241   3.886002
    28  C    6.516737   6.930991   7.425468   4.881323   5.505586
    29  H    6.030800   5.232666   6.314720   4.053846   4.567028
    30  C    6.018362   7.699684   7.642169   4.312662   5.114125
    31  H    5.022569   6.898856   6.767466   2.653278   3.655705
    32  C    6.632169   7.814609   7.960178   5.117056   5.813555
    33  H    7.265652   7.321933   7.951556   5.831546   6.366503
    34  H    6.451505   8.587279   8.311655   4.963415   5.750652
    35  H    7.450026   8.769548   8.828212   6.181270   6.837285
                   16         17         18         19         20
    16  C    0.000000
    17  C    2.778032   0.000000
    18  H    3.403581   2.153295   0.000000
    19  C    1.390112   2.404542   3.874619   0.000000
    20  H    1.101942   3.879963   4.315222   2.162846   0.000000
    21  C    2.409855   1.390767   3.400596   1.389941   3.408241
    22  H    3.872804   1.094775   2.475169   3.397856   4.974736
    23  H    2.154577   3.398407   4.969395   1.094779   2.484443
    24  H    3.402592   2.158978   4.302995   2.158444   4.311735
    25  C    3.313577   4.619153   3.503350   4.554666   3.342093
    26  C    4.680217   5.684842   4.168991   5.913732   4.698792
    27  C    3.251894   4.820902   4.239101   4.328341   3.139543
    28  C    5.680927   6.709412   5.296648   6.855504   5.615820
    29  H    5.156631   5.934666   4.152796   6.399968   5.240821
    30  C    4.578449   5.995592   5.351659   5.548215   4.397619
    31  H    2.508356   4.347485   4.272641   3.442052   2.364635
    32  C    5.642608   6.846425   5.807243   6.703963   5.495709
    33  H    6.711983   7.604228   6.021226   7.897035   6.656452
    34  H    4.979485   6.447115   6.105717   5.772717   4.740296
    35  H    6.652875   7.818165   6.810023   7.659654   6.473855
                   21         22         23         24         25
    21  C    0.000000
    22  H    2.157435   0.000000
    23  H    2.157355   4.303840   0.000000
    24  H    1.094620   2.487473   2.487992   0.000000
    25  C    5.094922   5.444151   5.345649   6.156098   0.000000
    26  C    6.342088   6.374448   6.736425   7.400184   1.398579
    27  C    5.009633   5.697100   4.938856   5.980868   1.394497
    28  C    7.308573   7.365197   7.602018   8.322309   2.419647
    29  H    6.732202   6.544518   7.286505   7.803089   2.164928
    30  C    6.189202   6.787645   6.069052   7.091426   2.417280
    31  H    4.263114   5.300966   3.934411   5.176636   2.162035
    32  C    7.245682   7.550492   7.318312   8.189528   2.796657
    33  H    8.294715   8.189001   8.670620   9.310526   3.410275
    34  H    6.460299   7.238549   6.136401   7.259476   3.406663
    35  H    8.194090   8.483930   8.221399   9.096127   3.891239
                   26         27         28         29         30
    26  C    0.000000
    27  C    2.407026   0.000000
    28  C    1.389075   2.779447   0.000000
    29  H    1.096234   3.403187   2.153414   0.000000
    30  C    2.777569   1.390915   2.404637   3.873781   0.000000
    31  H    3.404821   1.097435   3.876840   4.314135   2.156630
    32  C    2.409606   2.410819   1.391166   3.400561   1.389551
    33  H    2.154670   3.874261   1.094817   2.476271   3.397921
    34  H    3.872342   2.154912   3.398448   4.968560   1.094781
    35  H    3.401932   3.403566   2.159022   4.303020   2.158268
                   31         32         33         34         35
    31  H    0.000000
    32  C    3.402666   0.000000
    33  H    4.971656   2.157859   0.000000
    34  H    2.477441   2.156857   4.303799   0.000000
    35  H    4.305593   1.094582   2.487482   2.487675   0.000000
 Stoichiometry    C19H16
 Framework group  C1[X(C19H16)]
 Deg. of freedom    99
 Full point group                 C1      NOp   1
 Largest Abelian subgroup         C1      NOp   1
 Largest concise Abelian subgroup C1      NOp   1
                         Standard orientation:                         
 ---------------------------------------------------------------------
 Center     Atomic      Atomic             Coordinates (Angstroms)
 Number     Number       Type             X           Y           Z
 ---------------------------------------------------------------------
      1          6           0        0.023087   -0.011773   -0.754667
      2          1           0        0.000479   -0.005890   -1.878385
      3          6           0       -0.904377   -1.111829   -0.299771
      4          6           0       -1.220282   -1.299295    1.046759
      5          6           0       -1.479058   -1.953374   -1.255136
      6          6           0       -2.101747   -2.302234    1.432102
      7          1           0       -0.743558   -0.654114    1.800421
      8          6           0       -2.357807   -2.958977   -0.867923
      9          1           0       -1.238546   -1.822253   -2.316816
     10          6           0       -2.673750   -3.133132    0.474918
     11          1           0       -2.344130   -2.437091    2.491169
     12          1           0       -2.802646   -3.613974   -1.624055
     13          1           0       -3.368969   -3.922558    0.777677
     14          6           0        1.459998   -0.247536   -0.360612
     15          6           0        2.456361   -0.020189   -1.314690
     16          6           0        1.831889   -0.678720    0.913945
     17          6           0        3.794399   -0.222049   -0.998505
     18          1           0        2.183708    0.320928   -2.320447
     19          6           0        3.170656   -0.882800    1.227742
     20          1           0        1.053945   -0.865339    1.671739
     21          6           0        4.154866   -0.654659    0.273165
     22          1           0        4.565866   -0.040555   -1.753774
     23          1           0        3.447993   -1.224939    2.230022
     24          1           0        5.208914   -0.815556    0.520733
     25          6           0       -0.500244    1.332642   -0.308908
     26          6           0       -1.447335    1.975363   -1.112619
     27          6           0       -0.083038    1.949198    0.870253
     28          6           0       -1.965422    3.209282   -0.740382
     29          1           0       -1.787685    1.502342   -2.041135
     30          6           0       -0.601406    3.185872    1.239818
     31          1           0        0.665796    1.461409    1.507177
     32          6           0       -1.543276    3.817943    0.437186
     33          1           0       -2.707498    3.703138   -1.376033
     34          1           0       -0.263797    3.661162    2.166459
     35          1           0       -1.950959    4.790894    0.729199
 ---------------------------------------------------------------------
 Rotational constants (GHZ):      0.4000987      0.3721401      0.2369221
 Standard basis: 6-311G (5D, 7F)
 There are   295 symmetry adapted basis functions of A   symmetry.
 Integral buffers will be    262144 words long.
 Raffenetti 1 integral format.
 Two-electron integral symmetry is turned on.
   295 basis functions,   574 primitive gaussians,   295 cartesian basis functions
    65 alpha electrons       65 beta electrons
       nuclear repulsion energy      1288.4502155649 Hartrees.
 NAtoms=   35 NActive=   35 NUniq=   35 SFac= 7.50D-01 NAtFMM=   80 NAOKFM=F Big=F
 One-electron integrals computed using PRISM.
 PrsmSu:  requested number of processors reduced to:  10 ShMem   1 Linda.
 NBasis=   295 RedAO= T  NBF=   295
 NBsUse=   295 1.00D-06 NBFU=   295
 Harris functional with IExCor=  205 diagonalized for initial guess.
 ExpMin= 1.03D-01 ExpMax= 4.56D+03 ExpMxC= 6.82D+02 IAcc=1 IRadAn=         1 AccDes= 0.00D+00
 HarFok:  IExCor=  205 AccDes= 0.00D+00 IRadAn=         1 IDoV= 1
 ScaDFX=  1.000000  1.000000  1.000000  1.000000
 FoFCou: FMM=F IPFlag=           0 FMFlag=      100000 FMFlg1=           0
         NFxFlg=           0 DoJE=T BraDBF=F KetDBF=T FulRan=T
         Omega=  0.000000  0.000000  1.000000  0.000000  0.000000 ICntrl=     500 IOpCl=  0
         NMat0=    1 NMatS0=    1 NMatT0=    0 NMatD0=    1 NMtDS0=    0 NMtDT0=    0
         I1Cent=           4 NGrid=           0.
 Petite list used in FoFCou.
 Initial guess orbital symmetries:
       Occupied  (A) (A) (A) (A) (A) (A) (A) (A) (A) (A) (A) (A)
                 (A) (A) (A) (A) (A) (A) (A) (A) (A) (A) (A) (A)
                 (A) (A) (A) (A) (A) (A) (A) (A) (A) (A) (A) (A)
                 (A) (A) (A) (A) (A) (A) (A) (A) (A) (A) (A) (A)
                 (A) (A) (A) (A) (A) (A) (A) (A) (A) (A) (A) (A)
                 (A) (A) (A) (A) (A)
       Virtual   (A) (A) (A) (A) (A) (A) (A) (A) (A) (A) (A) (A)
                 (A) (A) (A) (A) (A) (A) (A) (A) (A) (A) (A) (A)
                 (A) (A) (A) (A) (A) (A) (A) (A) (A) (A) (A) (A)
                 (A) (A) (A) (A) (A) (A) (A) (A) (A) (A) (A) (A)
                 (A) (A) (A) (A) (A) (A) (A) (A) (A) (A) (A) (A)
                 (A) (A) (A) (A) (A) (A) (A) (A) (A) (A) (A) (A)
                 (A) (A) (A) (A) (A) (A) (A) (A) (A) (A) (A) (A)
                 (A) (A) (A) (A) (A) (A) (A) (A) (A) (A) (A) (A)
                 (A) (A) (A) (A) (A) (A) (A) (A) (A) (A) (A) (A)
                 (A) (A) (A) (A) (A) (A) (A) (A) (A) (A) (A) (A)
                 (A) (A) (A) (A) (A) (A) (A) (A) (A) (A) (A) (A)
                 (A) (A) (A) (A) (A) (A) (A) (A) (A) (A) (A) (A)
                 (A) (A) (A) (A) (A) (A) (A) (A) (A) (A) (A) (A)
                 (A) (A) (A) (A) (A) (A) (A) (A) (A) (A) (A) (A)
                 (A) (A) (A) (A) (A) (A) (A) (A) (A) (A) (A) (A)
                 (A) (A) (A) (A) (A) (A) (A) (A) (A) (A) (A) (A)
                 (A) (A) (A) (A) (A) (A) (A) (A) (A) (A) (A) (A)
                 (A) (A) (A) (A) (A) (A) (A) (A) (A) (A) (A) (A)
                 (A) (A) (A) (A) (A) (A) (A) (A) (A) (A) (A) (A)
                 (A) (A)
 The electronic state of the initial guess is 1-A.
 Requested convergence on RMS density matrix=1.00D-08 within 128 cycles.
 Requested convergence on MAX density matrix=1.00D-06.
 Requested convergence on             energy=1.00D-06.
 No special actions if energy rises.
 Integral accuracy reduced to 1.0D-05 until final iterations.
 Initial convergence to 1.0D-05 achieved.  Increase integral accuracy.
 SCF Done:  E(RHF) =  -728.671736892     A.U. after   14 cycles
             Convg  =    0.6157D-08             -V/T =  2.0001

 **********************************************************************

            Population analysis using the SCF density.

 **********************************************************************

 Orbital symmetries:
       Occupied  (A) (A) (A) (A) (A) (A) (A) (A) (A) (A) (A) (A)
                 (A) (A) (A) (A) (A) (A) (A) (A) (A) (A) (A) (A)
                 (A) (A) (A) (A) (A) (A) (A) (A) (A) (A) (A) (A)
                 (A) (A) (A) (A) (A) (A) (A) (A) (A) (A) (A) (A)
                 (A) (A) (A) (A) (A) (A) (A) (A) (A) (A) (A) (A)
                 (A) (A) (A) (A) (A)
       Virtual   (A) (A) (A) (A) (A) (A) (A) (A) (A) (A) (A) (A)
                 (A) (A) (A) (A) (A) (A) (A) (A) (A) (A) (A) (A)
                 (A) (A) (A) (A) (A) (A) (A) (A) (A) (A) (A) (A)
                 (A) (A) (A) (A) (A) (A) (A) (A) (A) (A) (A) (A)
                 (A) (A) (A) (A) (A) (A) (A) (A) (A) (A) (A) (A)
                 (A) (A) (A) (A) (A) (A) (A) (A) (A) (A) (A) (A)
                 (A) (A) (A) (A) (A) (A) (A) (A) (A) (A) (A) (A)
                 (A) (A) (A) (A) (A) (A) (A) (A) (A) (A) (A) (A)
                 (A) (A) (A) (A) (A) (A) (A) (A) (A) (A) (A) (A)
                 (A) (A) (A) (A) (A) (A) (A) (A) (A) (A) (A) (A)
                 (A) (A) (A) (A) (A) (A) (A) (A) (A) (A) (A) (A)
                 (A) (A) (A) (A) (A) (A) (A) (A) (A) (A) (A) (A)
                 (A) (A) (A) (A) (A) (A) (A) (A) (A) (A) (A) (A)
                 (A) (A) (A) (A) (A) (A) (A) (A) (A) (A) (A) (A)
                 (A) (A) (A) (A) (A) (A) (A) (A) (A) (A) (A) (A)
                 (A) (A) (A) (A) (A) (A) (A) (A) (A) (A) (A) (A)
                 (A) (A) (A) (A) (A) (A) (A) (A) (A) (A) (A) (A)
                 (A) (A) (A) (A) (A) (A) (A) (A) (A) (A) (A) (A)
                 (A) (A) (A) (A) (A) (A) (A) (A) (A) (A) (A) (A)
                 (A) (A)
 The electronic state is 1-A.
 Alpha  occ. eigenvalues --  -11.25830 -11.25271 -11.25257 -11.25129 -11.24447
 Alpha  occ. eigenvalues --  -11.24429 -11.24354 -11.24348 -11.24207 -11.24186
 Alpha  occ. eigenvalues --  -11.24125 -11.24115 -11.24109 -11.24052 -11.24025
 Alpha  occ. eigenvalues --  -11.24016 -11.23910 -11.23831 -11.23734  -1.18595
 Alpha  occ. eigenvalues --   -1.15829  -1.15685  -1.09040  -1.02411  -1.02120
 Alpha  occ. eigenvalues --   -1.01889  -1.01499  -1.01388  -0.92963  -0.84539
 Alpha  occ. eigenvalues --   -0.82945  -0.82543  -0.81710  -0.81561  -0.77734
 Alpha  occ. eigenvalues --   -0.70734  -0.70449  -0.69110  -0.65999  -0.63617
 Alpha  occ. eigenvalues --   -0.63503  -0.62371  -0.62032  -0.61902  -0.59569
 Alpha  occ. eigenvalues --   -0.58774  -0.58520  -0.58430  -0.57616  -0.53921
 Alpha  occ. eigenvalues --   -0.51740  -0.51083  -0.50852  -0.49676  -0.49167
 Alpha  occ. eigenvalues --   -0.48682  -0.47791  -0.47475  -0.46762  -0.34695
 Alpha  occ. eigenvalues --   -0.34245  -0.33697  -0.33586  -0.33282  -0.31181
 Alpha virt. eigenvalues --    0.11651   0.12018   0.13584   0.13746   0.14056
 Alpha virt. eigenvalues --    0.14931   0.15136   0.16274   0.16375   0.16882
 Alpha virt. eigenvalues --    0.18809   0.19133   0.19284   0.21286   0.21420
 Alpha virt. eigenvalues --    0.21511   0.23639   0.24248   0.24980   0.27151
 Alpha virt. eigenvalues --    0.28521   0.29487   0.34028   0.34198   0.35873
 Alpha virt. eigenvalues --    0.37466   0.38510   0.39675   0.40962   0.43682
 Alpha virt. eigenvalues --    0.44104   0.44379   0.45029   0.45396   0.45579
 Alpha virt. eigenvalues --    0.45871   0.46408   0.48415   0.49890   0.50381
 Alpha virt. eigenvalues --    0.50803   0.51026   0.51445   0.54977   0.55779
 Alpha virt. eigenvalues --    0.56806   0.57910   0.58954   0.59055   0.59611
 Alpha virt. eigenvalues --    0.59688   0.60668   0.61076   0.61497   0.61702
 Alpha virt. eigenvalues --    0.61853   0.62386   0.62465   0.63289   0.63468
 Alpha virt. eigenvalues --    0.64138   0.64999   0.65168   0.65419   0.66906
 Alpha virt. eigenvalues --    0.67406   0.68232   0.68440   0.70108   0.71414
 Alpha virt. eigenvalues --    0.72344   0.73800   0.74459   0.75066   0.76232
 Alpha virt. eigenvalues --    0.77300   0.78324   0.78601   0.80473   0.81168
 Alpha virt. eigenvalues --    0.81859   0.82197   0.82344   0.82820   0.82909
 Alpha virt. eigenvalues --    0.83517   0.83927   0.84057   0.84787   0.85607
 Alpha virt. eigenvalues --    0.86040   0.86384   0.86907   0.87456   0.88066
 Alpha virt. eigenvalues --    0.89685   0.90549   0.91276   0.92977   0.94407
 Alpha virt. eigenvalues --    0.96103   0.96853   0.97686   0.98153   0.98957
 Alpha virt. eigenvalues --    0.99322   1.00307   1.02808   1.05748   1.06236
 Alpha virt. eigenvalues --    1.06803   1.07145   1.08024   1.08381   1.10518
 Alpha virt. eigenvalues --    1.11099   1.12226   1.12489   1.13008   1.14264
 Alpha virt. eigenvalues --    1.14643   1.15396   1.18596   1.19499   1.21713
 Alpha virt. eigenvalues --    1.25345   1.26755   1.27699   1.28228   1.28837
 Alpha virt. eigenvalues --    1.30336   1.35141   1.39484   1.45218   1.46639
 Alpha virt. eigenvalues --    1.51679   1.52280   1.56516   2.54619   2.55624
 Alpha virt. eigenvalues --    2.56179   2.59190   2.61976   2.62499   2.64463
 Alpha virt. eigenvalues --    2.66992   2.67733   2.68458   2.72320   2.76760
 Alpha virt. eigenvalues --    2.77774   2.83499   2.87935   2.88629   2.94135
 Alpha virt. eigenvalues --    2.94279   2.94426   2.97083   2.97457   2.98028
 Alpha virt. eigenvalues --    3.00376   3.00783   3.04042   3.05743   3.07145
 Alpha virt. eigenvalues --    3.08139   3.08419   3.08957   3.09972   3.14328
 Alpha virt. eigenvalues --    3.14790   3.16344   3.16844   3.17571   3.18830
 Alpha virt. eigenvalues --    3.22649   3.25640   3.25811   3.28309   3.28886
 Alpha virt. eigenvalues --    3.30928   3.33379   3.34271   3.35159   3.42628
 Alpha virt. eigenvalues --    3.43061   3.44412   3.46929   3.49491   3.52253
 Alpha virt. eigenvalues --    3.53442   3.54453   3.59236   3.60649   3.60696
 Alpha virt. eigenvalues --    3.63128   3.63529   3.63782   3.65975   3.66672
 Alpha virt. eigenvalues --    3.68388   3.70283   3.70483   3.71434   3.73493
 Alpha virt. eigenvalues --    3.74201   3.75554   3.80878   3.85855   3.86667
 Alpha virt. eigenvalues --    3.93036  24.24843  24.30692  24.31558  24.50543
 Alpha virt. eigenvalues --   24.50842  24.51120  24.54000  24.54668  24.56111
 Alpha virt. eigenvalues --   24.77298  24.78598  24.79150  24.79616  24.80658
 Alpha virt. eigenvalues --   24.81857  24.83247  25.05556  25.05829  25.06137
          Condensed to atoms (all electrons):
              1          2          3          4          5          6
     1  C    5.830219   0.463897   0.185043  -0.054347  -0.026177   0.001401
     2  H    0.463897   0.512455  -0.074254   0.005556   0.002029  -0.000282
     3  C    0.185043  -0.074254   5.375103   0.438942   0.503464  -0.061689
     4  C   -0.054347   0.005556   0.438942   5.095474  -0.065526   0.479406
     5  C   -0.026177   0.002029   0.503464  -0.065526   5.070197  -0.033424
     6  C    0.001401  -0.000282  -0.061689   0.479406  -0.033424   5.035792
     7  H    0.003092   0.000066  -0.048427   0.388560   0.004050  -0.027225
     8  C    0.007665   0.001756  -0.072685  -0.029620   0.459758  -0.076854
     9  H   -0.000479   0.002413  -0.046694   0.004634   0.395783  -0.000239
    10  C    0.001273  -0.000013  -0.017892  -0.092067  -0.086301   0.494286
    11  H   -0.000319   0.000012   0.006072  -0.039061  -0.000449   0.396675
    12  H   -0.000368  -0.000037   0.007064  -0.000618  -0.039719   0.006228
    13  H   -0.000013  -0.000001  -0.001593   0.008014   0.007532  -0.042913
    14  C    0.170943  -0.073854  -0.112662  -0.006352  -0.000338   0.001781
    15  C   -0.045108   0.002845   0.001910   0.000225   0.000201   0.000028
    16  C   -0.046004   0.005106  -0.004659  -0.017226   0.001490  -0.001736
    17  C    0.008282   0.001518  -0.000682   0.000029  -0.000004  -0.000001
    18  H   -0.000747   0.002689   0.000360  -0.000026  -0.000021   0.000002
    19  C    0.003549  -0.000275   0.001548  -0.000015   0.000043  -0.000089
    20  H   -0.000269  -0.000140  -0.003030   0.002895  -0.000258   0.001158
    21  C    0.001143  -0.000016   0.000021  -0.000004  -0.000011   0.000001
    22  H   -0.000389  -0.000029   0.000014   0.000000   0.000001   0.000000
    23  H   -0.000295   0.000014   0.000011   0.000031   0.000002   0.000000
    24  H   -0.000019  -0.000001  -0.000002   0.000001   0.000000   0.000000
    25  C    0.157539  -0.059876  -0.154108  -0.007769  -0.005642   0.000730
    26  C   -0.050315  -0.003274   0.000693   0.000787   0.002047  -0.000068
    27  C   -0.039940   0.004902  -0.014036  -0.000063  -0.000321  -0.000030
    28  C    0.006266   0.001547  -0.000428   0.000194  -0.000036   0.000002
    29  H    0.001780   0.001059   0.000563  -0.000050   0.001436  -0.000018
    30  C    0.004855  -0.000248   0.000626  -0.000660   0.000027  -0.000016
    31  H   -0.001683  -0.000069  -0.001012   0.000487  -0.000081   0.000061
    32  C    0.000989   0.000009   0.000075   0.000030  -0.000003   0.000003
    33  H   -0.000351  -0.000026   0.000013   0.000003  -0.000001   0.000000
    34  H   -0.000325   0.000013   0.000005   0.000014   0.000000   0.000000
    35  H   -0.000012  -0.000002  -0.000001  -0.000001   0.000000   0.000000
              7          8          9         10         11         12
     1  C    0.003092   0.007665  -0.000479   0.001273  -0.000319  -0.000368
     2  H    0.000066   0.001756   0.002413  -0.000013   0.000012  -0.000037
     3  C   -0.048427  -0.072685  -0.046694  -0.017892   0.006072   0.007064
     4  C    0.388560  -0.029620   0.004634  -0.092067  -0.039061  -0.000618
     5  C    0.004050   0.459758   0.395783  -0.086301  -0.000449  -0.039719
     6  C   -0.027225  -0.076854  -0.000239   0.494286   0.396675   0.006228
     7  H    0.495135  -0.000168  -0.000260   0.004556  -0.003429   0.000021
     8  C   -0.000168   5.054986  -0.035048   0.496933   0.006003   0.396796
     9  H   -0.000260  -0.035048   0.510878   0.005163   0.000024  -0.004174
    10  C    0.004556   0.496933   0.005163   5.031064  -0.039564  -0.040788
    11  H   -0.003429   0.006003   0.000024  -0.039564   0.515391  -0.000211
    12  H    0.000021   0.396796  -0.004174  -0.040788  -0.000211   0.518314
    13  H   -0.000169  -0.042748  -0.000186   0.399630  -0.004456  -0.004584
    14  C   -0.003191  -0.000600   0.000559  -0.000035   0.000009   0.000020
    15  C   -0.000197  -0.000009   0.000137  -0.000001   0.000000   0.000000
    16  C    0.000292   0.000126   0.000002   0.000045   0.000016  -0.000001
    17  C    0.000016   0.000001   0.000003   0.000000   0.000000   0.000000
    18  H   -0.000007   0.000001  -0.000025   0.000000   0.000000   0.000000
    19  C    0.000861   0.000000   0.000003   0.000003   0.000001   0.000000
    20  H    0.003452  -0.000139  -0.000005   0.000079  -0.000105   0.000000
    21  C   -0.000011   0.000000  -0.000001   0.000000   0.000000   0.000000
    22  H    0.000000   0.000000   0.000000   0.000000   0.000000   0.000000
    23  H   -0.000053   0.000000   0.000000  -0.000001   0.000001   0.000000
    24  H    0.000000   0.000000   0.000000   0.000000   0.000000   0.000000
    25  C   -0.001867  -0.000464   0.000153   0.000097   0.000018   0.000011
    26  C   -0.000269  -0.000099   0.000251  -0.000013   0.000006   0.000003
    27  C    0.004719   0.000048  -0.000048  -0.000004  -0.000002   0.000000
    28  C   -0.000099   0.000006  -0.000006   0.000000   0.000001   0.000000
    29  H   -0.000037   0.000030   0.000253  -0.000012   0.000000  -0.000003
    30  C    0.000444  -0.000001   0.000000   0.000000  -0.000001   0.000000
    31  H    0.001008   0.000002   0.000000   0.000002  -0.000009   0.000000
    32  C   -0.000012   0.000000   0.000000   0.000000   0.000000   0.000000
    33  H    0.000001   0.000000  -0.000001   0.000000   0.000000   0.000000
    34  H   -0.000001   0.000000   0.000000   0.000000   0.000000   0.000000
    35  H   -0.000001   0.000000   0.000000   0.000000   0.000000   0.000000
             13         14         15         16         17         18
     1  C   -0.000013   0.170943  -0.045108  -0.046004   0.008282  -0.000747
     2  H   -0.000001  -0.073854   0.002845   0.005106   0.001518   0.002689
     3  C   -0.001593  -0.112662   0.001910  -0.004659  -0.000682   0.000360
     4  C    0.008014  -0.006352   0.000225  -0.017226   0.000029  -0.000026
     5  C    0.007532  -0.000338   0.000201   0.001490  -0.000004  -0.000021
     6  C   -0.042913   0.001781   0.000028  -0.001736  -0.000001   0.000002
     7  H   -0.000169  -0.003191  -0.000197   0.000292   0.000016  -0.000007
     8  C   -0.042748  -0.000600  -0.000009   0.000126   0.000001   0.000001
     9  H   -0.000186   0.000559   0.000137   0.000002   0.000003  -0.000025
    10  C    0.399630  -0.000035  -0.000001   0.000045   0.000000   0.000000
    11  H   -0.004456   0.000009   0.000000   0.000016   0.000000   0.000000
    12  H   -0.004584   0.000020   0.000000  -0.000001   0.000000   0.000000
    13  H    0.517453  -0.000001   0.000000   0.000001   0.000000   0.000000
    14  C   -0.000001   5.366859   0.495313   0.450098  -0.071627  -0.045641
    15  C    0.000000   0.495313   5.040776  -0.061437   0.471649   0.394447
    16  C    0.000001   0.450098  -0.061437   5.121920  -0.031258   0.004758
    17  C    0.000000  -0.071627   0.471649  -0.031258   5.044474  -0.034671
    18  H    0.000000  -0.045641   0.394447   0.004758  -0.034671   0.507644
    19  C    0.000000  -0.064445  -0.036164   0.473372  -0.075081  -0.000402
    20  H    0.000000  -0.053077   0.004504   0.386615  -0.000212  -0.000243
    21  C    0.000000  -0.017756  -0.086726  -0.094882   0.494784   0.005345
    22  H    0.000000   0.007159  -0.039698  -0.000600   0.396681  -0.004218
    23  H    0.000000   0.006025  -0.000391  -0.036757   0.005896   0.000022
    24  H    0.000000  -0.001596   0.007492   0.008131  -0.042962  -0.000183
    25  C   -0.000002  -0.103726  -0.001464  -0.005752  -0.000716   0.000481
    26  C    0.000000   0.006398   0.000440  -0.000172   0.000003   0.000114
    27  C    0.000000  -0.014318   0.001921  -0.007425   0.000225   0.000186
    28  C    0.000000  -0.000759  -0.000016   0.000025   0.000001  -0.000008
    29  H    0.000000   0.000695   0.000012  -0.000038   0.000001   0.000003
    30  C    0.000000   0.000521  -0.000088   0.000014  -0.000003   0.000009
    31  H    0.000000  -0.003196  -0.000888   0.001052  -0.000135  -0.000036
    32  C    0.000000   0.000045  -0.000013  -0.000019   0.000000  -0.000004
    33  H    0.000000   0.000011   0.000001   0.000000   0.000000   0.000000
    34  H    0.000000   0.000037   0.000007   0.000029   0.000001   0.000000
    35  H    0.000000  -0.000001   0.000000   0.000001   0.000000   0.000000
             19         20         21         22         23         24
     1  C    0.003549  -0.000269   0.001143  -0.000389  -0.000295  -0.000019
     2  H   -0.000275  -0.000140  -0.000016  -0.000029   0.000014  -0.000001
     3  C    0.001548  -0.003030   0.000021   0.000014   0.000011  -0.000002
     4  C   -0.000015   0.002895  -0.000004   0.000000   0.000031   0.000001
     5  C    0.000043  -0.000258  -0.000011   0.000001   0.000002   0.000000
     6  C   -0.000089   0.001158   0.000001   0.000000   0.000000   0.000000
     7  H    0.000861   0.003452  -0.000011   0.000000  -0.000053   0.000000
     8  C    0.000000  -0.000139   0.000000   0.000000   0.000000   0.000000
     9  H    0.000003  -0.000005  -0.000001   0.000000   0.000000   0.000000
    10  C    0.000003   0.000079   0.000000   0.000000  -0.000001   0.000000
    11  H    0.000001  -0.000105   0.000000   0.000000   0.000001   0.000000
    12  H    0.000000   0.000000   0.000000   0.000000   0.000000   0.000000
    13  H    0.000000   0.000000   0.000000   0.000000   0.000000   0.000000
    14  C   -0.064445  -0.053077  -0.017756   0.007159   0.006025  -0.001596
    15  C   -0.036164   0.004504  -0.086726  -0.039698  -0.000391   0.007492
    16  C    0.473372   0.386615  -0.094882  -0.000600  -0.036757   0.008131
    17  C   -0.075081  -0.000212   0.494784   0.396681   0.005896  -0.042962
    18  H   -0.000402  -0.000243   0.005345  -0.004218   0.000022  -0.000183
    19  C    5.056510  -0.025311   0.495771   0.006233   0.395580  -0.042564
    20  H   -0.025311   0.498379   0.004795   0.000020  -0.003439  -0.000183
    21  C    0.495771   0.004795   5.030327  -0.041072  -0.039648   0.399190
    22  H    0.006233   0.000020  -0.041072   0.517974  -0.000212  -0.004551
    23  H    0.395580  -0.003439  -0.039648  -0.000212   0.515440  -0.004359
    24  H   -0.042564  -0.000183   0.399190  -0.004551  -0.004359   0.517669
    25  C    0.000886  -0.000503   0.000023   0.000022  -0.000007   0.000001
    26  C    0.000023  -0.000028  -0.000001   0.000000  -0.000001   0.000000
    27  C   -0.001493   0.000353   0.000080  -0.000001   0.000014   0.000000
    28  C    0.000000   0.000006   0.000000   0.000000   0.000000   0.000000
    29  H    0.000000   0.000007   0.000000   0.000000   0.000000   0.000000
    30  C   -0.000031   0.000052   0.000004   0.000000   0.000001   0.000000
    31  H    0.000965   0.000147   0.000047   0.000001  -0.000003   0.000001
    32  C    0.000000   0.000001   0.000000   0.000000   0.000000   0.000000
    33  H    0.000000   0.000000   0.000000   0.000000   0.000000   0.000000
    34  H   -0.000001  -0.000017  -0.000001   0.000000   0.000000   0.000000
    35  H    0.000000   0.000000   0.000000   0.000000   0.000000   0.000000
             25         26         27         28         29         30
     1  C    0.157539  -0.050315  -0.039940   0.006266   0.001780   0.004855
     2  H   -0.059876  -0.003274   0.004902   0.001547   0.001059  -0.000248
     3  C   -0.154108   0.000693  -0.014036  -0.000428   0.000563   0.000626
     4  C   -0.007769   0.000787  -0.000063   0.000194  -0.000050  -0.000660
     5  C   -0.005642   0.002047  -0.000321  -0.000036   0.001436   0.000027
     6  C    0.000730  -0.000068  -0.000030   0.000002  -0.000018  -0.000016
     7  H   -0.001867  -0.000269   0.004719  -0.000099  -0.000037   0.000444
     8  C   -0.000464  -0.000099   0.000048   0.000006   0.000030  -0.000001
     9  H    0.000153   0.000251  -0.000048  -0.000006   0.000253   0.000000
    10  C    0.000097  -0.000013  -0.000004   0.000000  -0.000012   0.000000
    11  H    0.000018   0.000006  -0.000002   0.000001   0.000000  -0.000001
    12  H    0.000011   0.000003   0.000000   0.000000  -0.000003   0.000000
    13  H   -0.000002   0.000000   0.000000   0.000000   0.000000   0.000000
    14  C   -0.103726   0.006398  -0.014318  -0.000759   0.000695   0.000521
    15  C   -0.001464   0.000440   0.001921  -0.000016   0.000012  -0.000088
    16  C   -0.005752  -0.000172  -0.007425   0.000025  -0.000038   0.000014
    17  C   -0.000716   0.000003   0.000225   0.000001   0.000001  -0.000003
    18  H    0.000481   0.000114   0.000186  -0.000008   0.000003   0.000009
    19  C    0.000886   0.000023  -0.001493   0.000000   0.000000  -0.000031
    20  H   -0.000503  -0.000028   0.000353   0.000006   0.000007   0.000052
    21  C    0.000023  -0.000001   0.000080   0.000000   0.000000   0.000004
    22  H    0.000022   0.000000  -0.000001   0.000000   0.000000   0.000000
    23  H   -0.000007  -0.000001   0.000014   0.000000   0.000000   0.000001
    24  H    0.000001   0.000000   0.000000   0.000000   0.000000   0.000000
    25  C    5.365962   0.473101   0.486141  -0.065271  -0.050624  -0.064595
    26  C    0.473101   5.071606  -0.071996   0.466320   0.399577  -0.031601
    27  C    0.486141  -0.071996   5.087729  -0.027920   0.004146   0.471442
    28  C   -0.065271   0.466320  -0.027920   5.050198  -0.035583  -0.076889
    29  H   -0.050624   0.399577   0.004146  -0.035583   0.509897  -0.000336
    30  C   -0.064595  -0.031601   0.471442  -0.076889  -0.000336   5.050554
    31  H   -0.042628   0.004193   0.390192  -0.000182  -0.000249  -0.029953
    32  C   -0.018534  -0.086095  -0.093498   0.488919   0.005342   0.499311
    33  H    0.006706  -0.039652  -0.000524   0.397101  -0.004290   0.006128
    34  H    0.006181  -0.000423  -0.037570   0.006000   0.000024   0.395908
    35  H   -0.001480   0.007375   0.007829  -0.042960  -0.000185  -0.042211
             31         32         33         34         35
     1  C   -0.001683   0.000989  -0.000351  -0.000325  -0.000012
     2  H   -0.000069   0.000009  -0.000026   0.000013  -0.000002
     3  C   -0.001012   0.000075   0.000013   0.000005  -0.000001
     4  C    0.000487   0.000030   0.000003   0.000014  -0.000001
     5  C   -0.000081  -0.000003  -0.000001   0.000000   0.000000
     6  C    0.000061   0.000003   0.000000   0.000000   0.000000
     7  H    0.001008  -0.000012   0.000001  -0.000001  -0.000001
     8  C    0.000002   0.000000   0.000000   0.000000   0.000000
     9  H    0.000000   0.000000  -0.000001   0.000000   0.000000
    10  C    0.000002   0.000000   0.000000   0.000000   0.000000
    11  H   -0.000009   0.000000   0.000000   0.000000   0.000000
    12  H    0.000000   0.000000   0.000000   0.000000   0.000000
    13  H    0.000000   0.000000   0.000000   0.000000   0.000000
    14  C   -0.003196   0.000045   0.000011   0.000037  -0.000001
    15  C   -0.000888  -0.000013   0.000001   0.000007   0.000000
    16  C    0.001052  -0.000019   0.000000   0.000029   0.000001
    17  C   -0.000135   0.000000   0.000000   0.000001   0.000000
    18  H   -0.000036  -0.000004   0.000000   0.000000   0.000000
    19  C    0.000965   0.000000   0.000000  -0.000001   0.000000
    20  H    0.000147   0.000001   0.000000  -0.000017   0.000000
    21  C    0.000047   0.000000   0.000000  -0.000001   0.000000
    22  H    0.000001   0.000000   0.000000   0.000000   0.000000
    23  H   -0.000003   0.000000   0.000000   0.000000   0.000000
    24  H    0.000001   0.000000   0.000000   0.000000   0.000000
    25  C   -0.042628  -0.018534   0.006706   0.006181  -0.001480
    26  C    0.004193  -0.086095  -0.039652  -0.000423   0.007375
    27  C    0.390192  -0.093498  -0.000524  -0.037570   0.007829
    28  C   -0.000182   0.488919   0.397101   0.006000  -0.042960
    29  H   -0.000249   0.005342  -0.004290   0.000024  -0.000185
    30  C   -0.029953   0.499311   0.006128   0.395908  -0.042211
    31  H    0.481416   0.004712   0.000020  -0.003334  -0.000182
    32  C    0.004712   5.033414  -0.040734  -0.040261   0.399205
    33  H    0.000020  -0.040734   0.518597  -0.000213  -0.004489
    34  H   -0.003334  -0.040261  -0.000213   0.516807  -0.004448
    35  H   -0.000182   0.399205  -0.004489  -0.004448   0.518539
 Mulliken atomic charges:
              1
     1  C   -0.580775
     2  H    0.204509
     3  C    0.092328
     4  C   -0.111880
     5  C   -0.189748
     6  C   -0.172970
     7  H    0.179149
     8  C   -0.165677
     9  H    0.166907
    10  C   -0.156437
    11  H    0.163378
    12  H    0.162046
    13  H    0.164038
    14  C    0.066701
    15  C   -0.149705
    16  C   -0.145128
    17  C   -0.166210
    18  H    0.170171
    19  C   -0.189477
    20  H    0.184494
    21  C   -0.151402
    22  H    0.162668
    23  H    0.162127
    24  H    0.163938
    25  C    0.086979
    26  C   -0.148929
    27  C   -0.150741
    28  C   -0.166433
    29  H    0.166599
    30  C   -0.183264
    31  H    0.199334
    32  C   -0.152881
    33  H    0.161700
    34  H    0.161568
    35  H    0.163023
 Sum of Mulliken atomic charges =   0.00000
 Mulliken charges with hydrogens summed into heavy atoms:
              1
     1  C   -0.376266
     3  C    0.092328
     4  C    0.067269
     5  C   -0.022841
     6  C   -0.009592
     8  C   -0.003631
    10  C    0.007601
    14  C    0.066701
    15  C    0.020466
    16  C    0.039366
    17  C   -0.003542
    19  C   -0.027350
    21  C    0.012536
    25  C    0.086979
    26  C    0.017670
    27  C    0.048592
    28  C   -0.004732
    30  C   -0.021696
    32  C    0.010141
 Sum of Mulliken charges with hydrogens summed into heavy atoms =   0.00000
 Electronic spatial extent (au):  <R**2>=           4939.0714
 Charge=              0.0000 electrons
 Dipole moment (field-independent basis, Debye):
    X=             -0.0115    Y=             -0.0681    Z=             -0.0425  Tot=              0.0811
 Quadrupole moment (field-independent basis, Debye-Ang):
   XX=           -110.6116   YY=           -114.0538   ZZ=           -102.8617
   XY=              0.8126   XZ=              2.2702   YZ=             -0.1018
 Traceless Quadrupole moment (field-independent basis, Debye-Ang):
   XX=             -1.4359   YY=             -4.8781   ZZ=              6.3140
   XY=              0.8126   XZ=              2.2702   YZ=             -0.1018
 Octapole moment (field-independent basis, Debye-Ang**2):
  XXX=             40.2427  YYY=             17.0470  ZZZ=             -0.1832  XYY=            -45.0340
  XXY=            -13.1187  XXZ=             -6.4787  XZZ=              0.8185  YZZ=             -4.8630
  YYZ=             10.3907  XYZ=              0.0383
 Hexadecapole moment (field-independent basis, Debye-Ang**3):
 XXXX=          -3090.9427 YYYY=          -2907.5282 ZZZZ=           -786.5900 XXXY=             -7.4379
 XXXZ=              2.2532 YYYX=              4.1753 YYYZ=             59.5602 ZZZX=              6.2015
 ZZZY=             -3.8816 XXYY=           -972.9657 XXZZ=           -631.3003 YYZZ=           -601.2765
 XXYZ=            -50.1695 YYXZ=             20.9175 ZZXY=             15.7287
 N-N= 1.288450215565D+03 E-N=-4.272913066317D+03  KE= 7.285948858914D+02
 PrsmSu:  requested number of processors reduced to:  10 ShMem   1 Linda.
 Calling FoFJK, ICntrl=      2127 FMM=F ISym2X=0 I1Cent= 0 IOpClX= 0 NMat=1 NMatS=1 NMatT=0.
 ***** Axes restored to original set *****
 -------------------------------------------------------------------
 Center     Atomic                   Forces (Hartrees/Bohr)
 Number     Number              X              Y              Z
 -------------------------------------------------------------------
      1        6          -0.013163456   -0.001918475   -0.019883644
      2        1           0.016320425    0.003238333    0.021868301
      3        6           0.007603794   -0.003715148   -0.011373377
      4        6          -0.000261114    0.001577530    0.011667955
      5        6          -0.004168577    0.000218680   -0.004439940
      6        6           0.007451835    0.000595240    0.009994507
      7        1           0.008918843   -0.014032155   -0.021490937
      8        6           0.004345976   -0.002925339   -0.012233765
      9        1           0.012527498   -0.000678190    0.012525947
     10        6           0.011885426   -0.003592682   -0.005532512
     11        1          -0.012132036    0.000851325   -0.011482333
     12        1          -0.003094907    0.003238442    0.016021976
     13        1          -0.015574121    0.004256757    0.004704721
     14        6          -0.005465436    0.011658935   -0.003132648
     15        6          -0.004710971   -0.002194914   -0.003624639
     16        6           0.011803782   -0.004360916    0.004782727
     17        6          -0.010184137    0.007337562   -0.003817411
     18        1           0.012001798    0.007424583    0.010715687
     19        6           0.007841053    0.005023896    0.007868491
     20        1          -0.020960577    0.020404981   -0.008690383
     21        6          -0.002638881    0.012985877    0.002881314
     22        1           0.013218520   -0.008219635    0.005880145
     23        1          -0.010893741   -0.007528587   -0.010124016
     24        1           0.002367415   -0.016057155   -0.004303794
     25        6          -0.009677652   -0.009061639    0.005926838
     26        6          -0.000992330   -0.002846186   -0.005717523
     27        6           0.003856070    0.009517217    0.004445053
     28        6          -0.004573112   -0.011117866   -0.004553060
     29        1           0.001028616    0.004023590    0.016848746
     30        6           0.001121750    0.001027330    0.012062743
     31        1          -0.010313366   -0.018675702   -0.005221285
     32        6          -0.004564366   -0.008820647    0.009345624
     33        1           0.006417847    0.014360091    0.005401339
     34        1          -0.000942822   -0.003268527   -0.016301354
     35        1           0.005600952    0.011273395   -0.011019492
 -------------------------------------------------------------------
 Cartesian Forces:  Max     0.021868301 RMS     0.009557635

 GradGradGradGradGradGradGradGradGradGradGradGradGradGradGradGradGradGrad
 Berny optimization.
 Internal  Forces:  Max     0.029844863 RMS     0.007838366
 Search for a local minimum.
 Step number   1 out of a maximum of  197
 All quantities printed in internal units (Hartrees-Bohrs-Radians)
 Mixed Optimization -- RFO/linear search
 Second derivative matrix not updated -- first step.
     Eigenvalues ---    0.00634   0.00646   0.00653   0.01530   0.01533
     Eigenvalues ---    0.01537   0.02138   0.02141   0.02147   0.02169
     Eigenvalues ---    0.02171   0.02172   0.02181   0.02185   0.02186
     Eigenvalues ---    0.02202   0.02203   0.02203   0.02213   0.02214
     Eigenvalues ---    0.02215   0.02215   0.02216   0.02218   0.02218
     Eigenvalues ---    0.02219   0.02219   0.02220   0.02221   0.02223
     Eigenvalues ---    0.04521   0.06373   0.06674   0.15996   0.15999
     Eigenvalues ---    0.15999   0.16000   0.16000   0.16000   0.16000
     Eigenvalues ---    0.16000   0.16000   0.16000   0.16000   0.16000
     Eigenvalues ---    0.16000   0.16000   0.16000   0.18937   0.19361
     Eigenvalues ---    0.22000   0.22000   0.22000   0.22000   0.22000
     Eigenvalues ---    0.22000   0.23476   0.23476   0.23477   0.24996
     Eigenvalues ---    0.24999   0.25000   0.31166   0.31353   0.31446
     Eigenvalues ---    0.31502   0.33468   0.33605   0.33967   0.34075
     Eigenvalues ---    0.34078   0.34102   0.34261   0.34262   0.34265
     Eigenvalues ---    0.34266   0.34266   0.34267   0.34284   0.34285
     Eigenvalues ---    0.34288   0.42428   0.42441   0.42499   0.42573
     Eigenvalues ---    0.42577   0.42621   0.46353   0.46368   0.46443
     Eigenvalues ---    0.46762   0.46788   0.46832   0.47231   0.47234
     Eigenvalues ---    0.47274   0.47315   0.47347   0.473851000.00000
     Eigenvalues --- 1000.000001000.000001000.000001000.000001000.00000
     Eigenvalues --- 1000.000001000.000001000.000001000.000001000.00000
     Eigenvalues --- 1000.000001000.000001000.000001000.000001000.00000
     Eigenvalues --- 1000.000001000.000001000.000001000.000001000.00000
     Eigenvalues --- 1000.000001000.000001000.000001000.000001000.00000
     Eigenvalues --- 1000.000001000.000001000.000001000.000001000.00000
     Eigenvalues --- 1000.000001000.000001000.000001000.000001000.00000
     Eigenvalues --- 1000.000001000.000001000.000001000.000001000.00000
     Eigenvalues --- 1000.000001000.000001000.000001000.000001000.00000
     Eigenvalues --- 1000.000001000.000001000.000001000.000001000.00000
     Eigenvalues --- 1000.000001000.000001000.000001000.000001000.00000
     Eigenvalues --- 1000.000001000.000001000.000001000.000001000.00000
     Eigenvalues --- 1000.000001000.000001000.000001000.000001000.00000
     Eigenvalues --- 1000.000001000.000001000.000001000.000001000.00000
     Eigenvalues --- 1000.000001000.000001000.000001000.000001000.00000
     Eigenvalues --- 1000.000001000.000001000.000001000.000001000.00000
     Eigenvalues --- 1000.000001000.000001000.000001000.000001000.00000
     Eigenvalues --- 1000.000001000.00000
 RFO step:  Lambda=-4.29524627D-02 EMin= 6.33976422D-03
 Linear search not attempted -- first point.
 Maximum step size (   0.300) exceeded in Quadratic search.
    -- Step size scaled by   0.575
 Iteration  1 RMS(Cart)=  0.12615684 RMS(Int)=  0.00285075
 Iteration  2 RMS(Cart)=  0.00586774 RMS(Int)=  0.00029002
 Iteration  3 RMS(Cart)=  0.00000910 RMS(Int)=  0.00028997
 Iteration  4 RMS(Cart)=  0.00000000 RMS(Int)=  0.00028997
 Variable       Old X    -DE/DX   Delta X   Delta X   Delta X     New X
                                 (Linear)    (Quad)   (Total)
    R1        2.12398  -0.02747   0.00000  -0.04451  -0.04451   2.07947
    R2        2.85170   0.02273   0.00000   0.03655   0.03655   2.88824
    R3        2.85066   0.02571   0.00000   0.04127   0.04127   2.89193
    R4        2.85344   0.02086   0.00000   0.03363   0.03363   2.88707
    R5        2.63756   0.00083   0.00000   0.00109   0.00111   2.63867
    R6        2.63966  -0.00409   0.00000  -0.00458  -0.00457   2.63508
    R7        2.62621  -0.00470   0.00000  -0.00515  -0.00515   2.62107
    R8        2.08001  -0.02547   0.00000  -0.03862  -0.03862   2.04139
    R9        2.62758  -0.00292   0.00000  -0.00333  -0.00334   2.62424
   R10        2.07199  -0.01772   0.00000  -0.02654  -0.02654   2.04546
   R11        2.62786  -0.00541   0.00000  -0.00611  -0.00612   2.62174
   R12        2.06885  -0.01673   0.00000  -0.02492  -0.02492   2.04392
   R13        2.62758  -0.00830   0.00000  -0.00940  -0.00942   2.61817
   R14        2.06892  -0.01664   0.00000  -0.02479  -0.02479   2.04412
   R15        2.06853  -0.01682   0.00000  -0.02505  -0.02505   2.04348
   R16        2.64203  -0.00341   0.00000  -0.00384  -0.00382   2.63821
   R17        2.63799   0.00068   0.00000   0.00096   0.00097   2.63896
   R18        2.62602  -0.00347   0.00000  -0.00398  -0.00397   2.62205
   R19        2.07203  -0.01771   0.00000  -0.02652  -0.02652   2.04551
   R20        2.62693  -0.00309   0.00000  -0.00332  -0.00333   2.62360
   R21        2.08237  -0.02984   0.00000  -0.04541  -0.04541   2.03695
   R22        2.62817  -0.00848   0.00000  -0.00965  -0.00966   2.61850
   R23        2.06883  -0.01664   0.00000  -0.02479  -0.02479   2.04403
   R24        2.62661  -0.00658   0.00000  -0.00739  -0.00740   2.61920
   R25        2.06883  -0.01667   0.00000  -0.02484  -0.02484   2.04399
   R26        2.06853  -0.01679   0.00000  -0.02501  -0.02501   2.04352
   R27        2.64293  -0.00417   0.00000  -0.00479  -0.00479   2.63814
   R28        2.63522  -0.00250   0.00000  -0.00276  -0.00276   2.63246
   R29        2.62497  -0.00405   0.00000  -0.00457  -0.00457   2.62040
   R30        2.07158  -0.01734   0.00000  -0.02595  -0.02595   2.04563
   R31        2.62845  -0.00265   0.00000  -0.00289  -0.00289   2.62556
   R32        2.07385  -0.02180   0.00000  -0.03275  -0.03275   2.04111
   R33        2.62892  -0.00598   0.00000  -0.00675  -0.00675   2.62217
   R34        2.06890  -0.01663   0.00000  -0.02478  -0.02478   2.04412
   R35        2.62587  -0.00616   0.00000  -0.00683  -0.00683   2.61904
   R36        2.06884  -0.01665   0.00000  -0.02482  -0.02482   2.04402
   R37        2.06846  -0.01673   0.00000  -0.02491  -0.02491   2.04355
    A1        1.86798  -0.00595   0.00000  -0.03552  -0.03476   1.83322
    A2        1.85578  -0.00925   0.00000  -0.04558  -0.04463   1.81115
    A3        1.85825  -0.00027   0.00000  -0.01899  -0.01882   1.83944
    A4        1.97442   0.01481   0.00000   0.05395   0.05277   2.02719
    A5        1.92521  -0.00406   0.00000   0.00959   0.00725   1.93246
    A6        1.97379   0.00299   0.00000   0.02539   0.02348   1.99727
    A7        2.12684   0.01652   0.00000   0.03231   0.03222   2.15907
    A8        2.07814  -0.00636   0.00000  -0.01258  -0.01265   2.06550
    A9        2.07807  -0.01020   0.00000  -0.02001  -0.02002   2.05805
   A10        2.10365   0.00376   0.00000   0.00838   0.00831   2.11196
   A11        2.07581   0.00415   0.00000   0.01308   0.01296   2.08876
   A12        2.10351  -0.00786   0.00000  -0.02093  -0.02105   2.08246
   A13        2.10047   0.00694   0.00000   0.01483   0.01483   2.11530
   A14        2.09435  -0.00403   0.00000  -0.00900  -0.00902   2.08534
   A15        2.08836  -0.00291   0.00000  -0.00582  -0.00583   2.08253
   A16        2.09584   0.00211   0.00000   0.00423   0.00423   2.10007
   A17        2.09157  -0.00097   0.00000  -0.00187  -0.00188   2.08969
   A18        2.09577  -0.00114   0.00000  -0.00236  -0.00237   2.09341
   A19        2.09801  -0.00012   0.00000  -0.00107  -0.00109   2.09692
   A20        2.09109   0.00021   0.00000   0.00096   0.00097   2.09206
   A21        2.09409  -0.00009   0.00000   0.00010   0.00012   2.09421
   A22        2.09030  -0.00249   0.00000  -0.00625  -0.00628   2.08402
   A23        2.09646   0.00124   0.00000   0.00312   0.00313   2.09958
   A24        2.09643   0.00125   0.00000   0.00314   0.00314   2.09957
   A25        2.06594  -0.01298   0.00000  -0.02547  -0.02549   2.04045
   A26        2.14188   0.02514   0.00000   0.04929   0.04927   2.19115
   A27        2.07537  -0.01216   0.00000  -0.02381  -0.02378   2.05159
   A28        2.10285   0.00836   0.00000   0.01770   0.01773   2.12058
   A29        2.09362  -0.00487   0.00000  -0.01081  -0.01082   2.08280
   A30        2.08671  -0.00349   0.00000  -0.00689  -0.00691   2.07980
   A31        2.10367   0.00440   0.00000   0.00976   0.00977   2.11344
   A32        2.08531   0.00424   0.00000   0.01334   0.01334   2.09865
   A33        2.09417  -0.00864   0.00000  -0.02313  -0.02314   2.07103
   A34        2.09763   0.00000   0.00000  -0.00104  -0.00105   2.09658
   A35        2.09147   0.00007   0.00000   0.00073   0.00073   2.09220
   A36        2.09409  -0.00007   0.00000   0.00032   0.00032   2.09441
   A37        2.09765   0.00248   0.00000   0.00507   0.00504   2.10269
   A38        2.09037  -0.00119   0.00000  -0.00241  -0.00240   2.08797
   A39        2.09516  -0.00128   0.00000  -0.00266  -0.00265   2.09252
   A40        2.08920  -0.00308   0.00000  -0.00767  -0.00770   2.08149
   A41        2.09682   0.00153   0.00000   0.00379   0.00381   2.10063
   A42        2.09716   0.00155   0.00000   0.00387   0.00389   2.10105
   A43        2.06487  -0.00206   0.00000  -0.00395  -0.00395   2.06092
   A44        2.14075   0.00963   0.00000   0.01897   0.01897   2.15971
   A45        2.07755  -0.00757   0.00000  -0.01503  -0.01502   2.06253
   A46        2.10226   0.00532   0.00000   0.01115   0.01116   2.11342
   A47        2.09289  -0.00326   0.00000  -0.00728  -0.00728   2.08560
   A48        2.08803  -0.00206   0.00000  -0.00388  -0.00389   2.08415
   A49        2.10166   0.00314   0.00000   0.00683   0.00683   2.10849
   A50        2.09252   0.00059   0.00000   0.00268   0.00268   2.09520
   A51        2.08896  -0.00373   0.00000  -0.00954  -0.00954   2.07942
   A52        2.09706   0.00008   0.00000  -0.00037  -0.00038   2.09668
   A53        2.09199   0.00001   0.00000   0.00032   0.00032   2.09231
   A54        2.09414  -0.00009   0.00000   0.00006   0.00006   2.09419
   A55        2.09852   0.00133   0.00000   0.00280   0.00279   2.10132
   A56        2.08974  -0.00062   0.00000  -0.00127  -0.00127   2.08848
   A57        2.09492  -0.00071   0.00000  -0.00154  -0.00153   2.09339
[...]
 5,0.00009599,0.00005710,-0.00008483,-0.00011125,0.00030163,0.00026352,
 -0.00019705,0.00011365,0.00007251,-0.00008761,0.00005465,0.00001580,-0
 .00003920,0.00006847,-0.00004599,0.00004271,-0.00008682,0.00001751,0.0
 0001091,-0.00000796,-0.00000276,-0.00002116,0.00000580,-0.00001996,-0.
 00000207,0.00003481,-0.00025684,-0.00088417,0.00055862,-0.00023125,-0.
 00005525,0.00021297,0.00012366,0.00017662,0.00037273,-0.00003567,0.000
 13417,0.00003115,-0.00000787,0.00001624,-0.00013614,0.00007285,0.00006
 650,0.00005819,0.00008747,0.00004190,-0.00007104,-0.00004882,0.0000258
 0,-0.00007222,0.00002930,-0.00000481,0.00001858,-0.00002629,-0.0000137
 8,-0.00001329,0.00000679,-0.00004804,0.00000083,0.01319997,0.00447354,
 -0.05507525,0.00829416,0.02176356,-0.00849794,0.07680226,0.12199154,-0
 .24986091,-0.01758804,-0.04508667,0.00799318,-0.00003840,0.00064600,0.
 00084463,-0.08686792,0.06560071,0.81361613,-0.00387572,0.00118199,-0.0
 0096427,0.00032419,0.00025179,-0.00050520,-0.00001907,-0.00039568,0.00
 072838,-0.00000193,-0.00018603,0.00024591,-0.00023461,0.00004146,0.000
 00289,-0.00003875,0.00003391,-0.00008906,0.00002278,0.00025950,-0.0000
 6949,0.00004622,0.00001019,0.00002807,-0.00001196,-0.00000622,-0.00002
 720,-0.00000608,0.00001095,-0.00001849,-0.00001026,0.00000592,0.000008
 60,-0.00000902,0.00001101,-0.00000607,0.00001242,0.00000032,-0.0000174
 4,0.00017549,-0.00050847,0.00058591,-0.00019768,-0.00015392,0.00023564
 ,0.00018717,-0.00004681,0.00050436,-0.00017037,0.00038711,0.00016477,-
 0.00003818,-0.00002286,-0.00017333,0.00013547,-0.00021270,-0.00009008,
 -0.00025548,-0.00007051,0.00015726,-0.00018203,-0.00000874,-0.00007310
 ,-0.00000925,0.00002683,-0.00003734,-0.00001281,-0.00002736,-0.0000012
 9,-0.00001651,0.00001112,-0.00002125,0.00632250,0.00273232,0.00127273,
 0.00728844,-0.00248734,0.00187267,-0.07854062,-0.08708272,-0.02228414,
 -0.00078390,0.00062157,0.00008720,-0.00002674,0.00018284,0.00009659,0.
 00154234,-0.01247880,-0.00523517,0.06688969,0.00148262,-0.00114878,0.0
 0066243,-0.00000727,-0.00009925,0.00007571,-0.00010858,0.00032541,-0.0
 0037362,0.00009283,0.00024714,-0.00024895,0.00017755,-0.00002170,0.000
 00186,0.00002979,-0.00001135,0.00009305,-0.00000080,-0.00028700,0.0000
 2761,-0.00002490,-0.00000082,-0.00001100,-0.00000419,-0.00001049,0.000
 01546,0.00000075,-0.00001368,0.00000860,0.00001597,-0.00001111,-0.0000
 0910,0.00000865,-0.00000920,0.00000095,-0.00000898,-0.00000691,0.00001
 109,-0.00011014,-0.00043563,0.00236726,-0.00050039,0.00020745,0.000408
 35,-0.00023776,-0.00057230,0.00106257,0.00001851,-0.00009309,-0.000078
 54,0.00001399,0.00001954,-0.00007431,-0.00020885,0.00011196,0.00010366
 ,0.00016544,0.00007206,-0.00016015,0.00025218,-0.00007335,-0.00007148,
 -0.00000611,-0.00000923,-0.00000216,0.00000648,0.00001272,-0.00001064,
 0.00000463,0.00000382,-0.00000472,-0.00355310,-0.00408219,0.00021508,-
 0.00193187,0.00219716,-0.00150259,-0.08828518,-0.32082859,-0.08353277,
 0.00050101,0.00062403,0.00057982,-0.00014172,-0.00027550,-0.00000804,-
 0.00554533,-0.01373802,-0.01074276,0.09960448,0.33830222,-0.00090354,-
 0.00031533,0.00089101,-0.00003683,0.00005554,0.00025146,0.00008166,0.0
 0002708,0.00007349,-0.00000745,0.00005495,0.00002850,-0.00001123,0.000
 01667,-0.00000952,0.00005740,0.00002257,-0.00000211,-0.00002512,-0.000
 11614,-0.00001629,-0.00002477,0.00001763,-0.00001923,-0.00001011,-0.00
 001717,-0.00002289,-0.00001120,-0.00001502,0.00002714,-0.00001895,0.00
 000295,-0.00000619,-0.00000459,-0.00000353,0.00000465,-0.00001065,-0.0
 0000413,0.00000009,0.00042168,0.00047027,-0.00125738,-0.00056978,0.000
 35482,-0.00000921,0.00027866,0.00039116,0.00010225,-0.00013908,-0.0001
 4871,-0.00010628,0.00007325,-0.00002747,0.00001523,-0.00005255,0.00044
 797,0.00010352,0.00008401,0.00001037,-0.00009647,0.00033143,-0.0000458
 4,0.00000023,0.00004369,-0.00003471,0.00000383,-0.00005036,-0.00005455
 ,0.00000117,0.00001438,-0.00006326,0.00001178,-0.01102881,-0.03331833,
 -0.00342588,0.00203793,-0.00152530,-0.00616417,-0.02226158,-0.08185749
 ,-0.09773749,0.00025198,0.00059324,-0.00114058,-0.00059316,-0.00158945
 ,-0.00044786,0.00860508,0.02547409,0.01188252,0.02134306,0.08759151,0.
 09840099,-0.00054395,0.00059821,-0.00035765,0.00012084,0.00004357,0.00
 002935,0.00019521,-0.00019199,0.00016910,0.00009015,0.00009810,0.00005
 836,-0.00020387,0.00008334,0.00008607,-0.00009959,0.00001991,0.0000302
 2,0.00002766,-0.00003028,-0.00003734,0.00008850,-0.00003897,0.00005068
 ,0.00001125,-0.00000904,-0.00000995,-0.00002188,0.00002961,-0.00007855
 ,-0.00000233,0.00000692,0.00000506,-0.00001773,-0.00000349,0.00000530,
 -0.00000311,0.00000178,-0.00000481,-0.00009459,0.00008886,-0.00000615,
 -0.00006668,-0.00011772,0.00004039,0.00006050,0.00010132,0.00009146,-0
 .00000177,0.00011012,0.00002991,-0.00003195,0.00003011,-0.00001846,0.0
 0006692,-0.00006213,-0.00000476,-0.00000455,0.00000505,0.00000279,-0.0
 0007822,-0.00004115,-0.00005289,0.00001485,-0.00002450,0.00001314,-0.0
 0000494,-0.00001228,-0.00000298,-0.00000233,-0.00001334,-0.00000024,-0
 .00860784,-0.00901305,-0.01266802,0.01300799,0.01451304,0.01373487,-0.
 00192368,-0.02369166,0.01477584,-0.09710740,-0.01606923,0.03985794,0.0
 0673162,-0.00464753,0.00311172,-0.11624950,-0.09233524,-0.02166165,0.0
 0686804,-0.00367469,0.00318009,0.27859352,0.00112993,0.00017410,-0.001
 43179,0.00046246,-0.00003780,0.00065496,0.00044489,0.00066477,-0.00000
 248,0.00005306,0.00018872,0.00009494,-0.00031796,0.00022647,0.00021082
 ,-0.00023857,-0.00004262,0.00029839,0.00009824,-0.00031500,0.00026323,
 0.00022471,-0.00016103,0.00008888,0.00001450,0.00000343,-0.00001044,-0
 .00008429,0.00010837,-0.00023723,-0.00004437,0.00002192,0.00000897,-0.
 00002845,-0.00002863,-0.00000565,-0.00001309,0.00000100,0.00001273,-0.
 00052279,0.00021499,-0.00008461,-0.00001264,-0.00040151,0.00012450,0.0
 0008958,0.00028291,0.00022579,0.00005209,0.00035551,0.00013932,-0.0000
 2164,0.00000005,-0.00006066,0.00020893,-0.00022484,-0.00002378,0.00002
 735,0.00002415,0.00000118,-0.00029030,-0.00009083,-0.00014554,0.000022
 23,-0.00001924,0.00001675,-0.00001054,-0.00002297,-0.00001389,0.000000
 61,-0.00002369,0.00000005,-0.00909389,-0.05403955,-0.05418583,0.024499
 75,0.07827774,0.00619243,-0.03442639,-0.04730540,0.07202544,-0.0303878
 0,-0.16665844,-0.01456843,-0.00468590,-0.00156405,0.00330786,-0.077277
 18,-0.32439673,-0.09719717,-0.00378194,0.00018366,0.00271289,0.2138448
 2,0.71057673,0.00116119,-0.00069438,-0.00183268,0.00075235,0.00045382,
 0.00057728,-0.00000729,0.00149866,0.00000691,0.00029456,0.00021706,-0.
 00025907,0.00003307,0.00017024,0.00038401,-0.00028145,-0.00002711,0.00
 035252,0.00009757,-0.00018209,0.00003295,0.00025382,-0.00022961,0.0000
 4181,-0.00001676,0.00001435,0.00001953,0.00002580,0.00010181,-0.000337
 42,0.00006766,0.00001656,0.00002135,0.00001994,-0.00004425,-0.00003312
 ,0.00000897,-0.00001020,0.00000564,-0.00035646,0.00006457,-0.00043598,
 0.00003299,-0.00028422,0.00020386,-0.00005279,0.00038362,0.00013525,0.
 00005167,0.00030801,0.00018819,0.00001693,-0.00003637,-0.00009195,0.00
 017307,-0.00024347,-0.00004237,0.00001271,0.00001179,-0.00001229,-0.00
 027698,0.00001822,-0.00008234,-0.00000172,0.00002576,-0.00000706,0.000
 00572,0.00001733,-0.00000773,-0.00000199,0.00000349,-0.00000627,-0.014
 20171,-0.05540092,-0.05664859,0.03824922,0.07159002,-0.05503053,-0.010
 18632,0.00701166,0.08539371,0.00707387,-0.09684251,-0.34424618,0.00272
 721,0.00262669,-0.00079305,0.01108500,-0.01495835,-0.17680418,0.003463
 79,0.00304349,-0.00283061,-0.10994381,-0.01434575,0.76964786,-0.000139
 06,-0.00038464,-0.00035264,0.00002208,0.00002853,-0.00005564,0.0000441
 6,-0.00013334,0.00005019,-0.00004393,0.00003012,0.00001459,-0.00005521
 ,-0.00000338,-0.00001138,0.00001279,0.00001724,0.00002183,0.00001710,-
 0.00004601,-0.00001116,-0.00000236,0.00001778,0.00000668,0.00000071,-0
 .00000406,-0.00001397,-0.00003144,0.00001510,0.00001868,-0.00002609,-0
 .00000711,-0.00001190,-0.00000803,-0.00000123,0.00000366,-0.00000984,-
 0.00000687,0.00000125,-0.00023917,-0.00008800,0.00016087,0.00004320,-0
 .00005432,0.00002516,0.00002450,-0.00000592,0.00001189,-0.00000236,0.0
 0006282,0.00000603,-0.00000481,0.00000487,-0.00000997,0.00003532,-0.00
 003708,-0.00001674,-0.00000686,-0.00000036,0.00000722,-0.00005186,-0.0
 0002636,-0.00002040,0.00000428,0.00000057,0.00000219,-0.00000327,-0.00
 000896,-0.00000768,-0.00000030,-0.00000589,-0.00000108,0.00698928,-0.0
 0364765,0.00336512,0.00170293,-0.01239218,-0.00569584,-0.00073458,0.00
 060113,0.00025563,-0.08128226,-0.09204858,-0.02320488,-0.00414095,0.00
 226727,-0.00076017,0.00744855,-0.00224284,0.00180700,-0.00107149,0.000
 34970,-0.00024096,0.00602208,0.00253002,0.00244759,0.06939148,-0.00007
 030,-0.00070192,-0.00074866,0.00001424,-0.00000396,0.00006032,0.000164
 64,-0.00012784,0.00002041,-0.00005590,0.00003753,-0.00001774,-0.000094
 94,0.00005047,0.00001513,0.00001286,-0.00000776,0.00001796,0.00004290,
 -0.00002246,0.00002064,-0.00000648,0.00000993,0.00002051,0.00000940,-0
 .00001103,-0.00001176,-0.00002331,0.00000954,0.00002058,-0.00001900,0.
 00000018,-0.00001040,-0.00001801,-0.00000720,0.00001495,-0.00001746,-0
 .00000116,0.00000662,-0.00015361,0.00004889,0.00029886,-0.00003718,-0.
 00006894,-0.00002855,0.00005771,-0.00009638,-0.00000334,-0.00002004,0.
 00000554,-0.00001637,-0.00001221,0.00001631,-0.00000035,0.00000935,0.0
 0002284,-0.00001043,0.00000406,0.00000734,0.00000051,0.00001378,-0.000
 02978,-0.00000138,0.00001724,-0.00001846,-0.00000269,-0.00000773,-0.00
 001629,-0.00000832,0.00000217,-0.00001560,-0.00000240,-0.00400069,0.00
 042270,0.00310456,-0.00596743,-0.01443275,-0.01142851,0.00049430,0.000
 63996,0.00069515,-0.09203687,-0.31543239,-0.07936344,0.00204973,0.0004
 0325,0.00099685,-0.00212795,0.00243080,-0.00201218,0.00040003,-0.00024
 908,0.00001322,-0.00385002,-0.00320117,0.00227690,0.10323207,0.3303707
 3,0.00019571,0.00098315,0.00053689,-0.00007247,-0.00005078,0.00000870,
 -0.00008931,-0.00000437,0.00003430,0.00000579,-0.00001001,-0.00000673,
 0.00002662,-0.00002462,-0.00003917,0.00002315,-0.00000397,0.00000352,0
 .00000786,-0.00000036,-0.00000926,-0.00001197,0.00000354,-0.00001129,0
 .00000004,0.00000723,0.00000436,0.00000648,-0.00000867,0.00001042,-0.0
 0000050,-0.00000123,-0.00000227,0.00000441,0.00000466,0.00000009,-0.00
 000036,0.00000065,0.00000178,0.00012529,0.00003536,-0.00024435,-0.0000
 0058,0.00002816,0.00002457,-0.00001536,0.00004771,0.00003454,-0.000003
 96,0.00000252,0.00001701,-0.00000258,-0.00000121,-0.00001531,-0.000002
 67,-0.00000631,0.00002434,0.00000886,0.00000282,-0.00001406,-0.0000084
 6,0.00002262,0.00000218,-0.00000292,0.00000649,-0.00000095,0.00000217,
 0.00000744,-0.00000131,0.00000034,0.00000215,-0.00000378,0.00323264,0.
 00258942,-0.00281656,0.00891828,0.02508030,0.01194445,0.00026044,0.000
 61560,-0.00110678,-0.02331498,-0.07958524,-0.09727737,-0.00118597,-0.0
 0022445,0.00109336,0.00198127,-0.00148663,-0.00615996,-0.00021637,0.00
 004843,0.00005806,-0.01204867,-0.03400865,-0.00290982,0.02331850,0.086
 39535,0.09612853,-0.00008205,0.00015670,0.00049333,-0.00011610,-0.0001
 3397,0.00013536,0.00013967,-0.00002143,0.00004372,-0.00006095,-0.00004
 339,0.00006186,-0.00006914,0.00003534,0.00000963,0.00000054,-0.0000033
 1,-0.00000630,0.00003692,0.00001074,0.00001450,0.00000646,-0.00000902,
 0.00000065,-0.00000038,0.00001098,-0.00001466,-0.00001504,0.00000760,-
 0.00000416,-0.00002173,0.00000767,0.00000256,-0.00000605,-0.00000065,-
 0.00000133,-0.00000085,0.00000357,0.00000026,0.00000840,0.00017521,-0.
 00002621,0.00002348,0.00003377,-0.00001526,0.00000841,-0.00008098,-0.0
 0004465,-0.00001618,-0.00003513,-0.00000145,-0.00001115,-0.00000555,-0
 .00001715,-0.00002761,0.00002993,-0.00000261,-0.00001305,0.00000110,0.
 00001237,0.00003296,-0.00000137,0.00001136,-0.00000458,0.00000706,-0.0
 0000903,-0.00000786,-0.00001264,0.00000145,0.00000180,-0.00000054,-0.0
 0000109,0.00644437,-0.00447672,0.00248043,-0.00097326,-0.00006869,-0.0
 0008178,0.00471337,0.00429350,0.01389323,0.00686052,-0.00497613,0.0007
 6095,-0.00104341,0.00046280,-0.00018942,-0.05350948,-0.00268221,0.0209
 5920,-0.00407084,0.00183422,-0.00116645,0.00629520,-0.00365258,-0.0117
 8019,-0.00003746,-0.00011265,-0.00054106,0.03958161,0.00014466,0.00053
 838,0.00080063,-0.00004830,-0.00010837,0.00020467,0.00002502,-0.000082
 50,0.00005613,-0.00000642,0.00000902,-0.00002282,-0.00004047,-0.000006
 29,0.00001520,-0.00000804,0.00000989,-0.00000558,-0.00001602,0.0000055
 9,-0.00000602,-0.00000512,0.00000776,0.00000909,0.00000026,-0.00000259
 ,-0.00000766,-0.00000410,-0.00000032,0.00000447,0.00000231,-0.00000045
 ,-0.00000135,-0.00000305,0.00000178,0.00000349,-0.00000114,-0.00000116
 ,-0.00000131,0.00001677,0.00013505,-0.00004450,0.00001232,-0.00003017,
 -0.00001259,-0.00000608,0.00001284,-0.00003391,0.00001326,0.00000840,-
 0.00000550,-0.00000462,0.00000048,0.00001253,0.00000557,-0.00002105,-0
 .00001820,-0.00000612,0.00000314,0.00001288,0.00000085,-0.00003247,-0.
 00002083,0.00000240,-0.00000807,0.00000695,-0.00000419,-0.00000774,0.0
 0000739,-0.00000211,-0.00000414,0.00000648,-0.00460851,-0.00162641,0.0
 0292869,-0.00015495,-0.00114276,0.00061970,-0.00216717,0.01124756,0.02
 481479,-0.00502234,-0.00448922,-0.00148289,0.00045183,-0.00008257,0.00
 003263,-0.00284167,-0.09383077,-0.08243777,0.00219735,0.00052576,-0.00
 022463,0.00296659,-0.00247005,-0.03414526,0.00012996,-0.00039111,-0.00
 155058,0.00703513,0.09138384,-0.00027864,-0.00081632,-0.00060538,0.000
 12143,0.00015956,-0.00026059,-0.00013818,0.00021435,-0.00009891,0.0000
 9476,0.00000113,-0.00000258,0.00013431,-0.00002510,0.00000759,-0.00002
 327,0.00001877,-0.00001163,-0.00005455,-0.00000744,-0.00004137,0.00001
 346,-0.00001170,-0.00001316,-0.00001097,-0.00000529,0.00001773,0.00002
 567,-0.00000055,-0.00002026,0.00002322,-0.00001541,0.00000365,0.000016
 17,-0.00000247,-0.00001658,0.00001559,-0.00000418,-0.00000771,0.000085
 50,-0.00023337,-0.00004419,-0.00001787,0.00007245,0.00001922,-0.000048
 59,0.00004938,0.00001109,0.00000649,-0.00002806,0.00001674,0.00002966,
 -0.00001877,-0.00000499,-0.00001557,0.00000742,0.00002103,-0.00000043,
 -0.00001519,-0.00001765,0.00000114,0.00005979,0.00004048,-0.00001712,0
 .00002333,-0.00001556,0.00001538,0.00002706,-0.00000293,0.00000157,0.0
 0002377,-0.00000661,0.00298992,0.00326602,-0.00082918,-0.00004860,0.00
 071888,0.00088932,-0.00049410,-0.01149410,-0.01696247,0.00052797,-0.00
 195747,0.00170813,-0.00019513,0.00002118,-0.00016060,0.02084938,-0.082
 28047,-0.34638802,-0.00074955,0.00088269,0.00110919,0.00261409,0.00226
 051,-0.00399013,0.00005672,-0.00000580,-0.00041729,-0.02432957,0.08940
 453,0.36507610,-0.00096209,0.00032234,-0.00007734,-0.00002142,-0.00005
 931,-0.00013868,0.00001543,-0.00011270,0.00014688,-0.00003366,0.000018
 08,0.00001629,-0.00007004,0.00002781,0.00000183,0.00002367,-0.00000558
 ,0.00001403,0.00004168,-0.00002916,0.00000626,-0.00000561,0.00000591,0
 .00001158,0.00000111,-0.00000022,-0.00000828,-0.00001392,0.00000205,0.
 00000974,-0.00002007,0.00000118,-0.00000474,-0.00000762,0.00000015,0.0
 0000383,-0.00000702,-0.00000117,0.00000353,-0.00002007,-0.00001972,0.0
 0002079,-0.00002103,-0.00000980,0.00004150,0.00002554,0.00000751,0.000
 03559,-0.00001806,0.00000898,0.00000444,-0.00000285,-0.00000119,-0.000
 01608,0.00000624,0.00001742,0.00000523,-0.00000075,0.00000327,-0.00000
 950,0.00000373,-0.00000730,-0.00000610,0.00000383,0.00000219,-0.000003
 99,-0.00000599,-0.00000673,-0.00000115,0.00000139,-0.00000565,-0.00000
 240,-0.00063638,0.00049508,-0.00066325,0.00755224,-0.00230049,0.001176
 98,0.00722997,-0.00442680,0.00016756,0.00430052,-0.00217704,-0.0006313
 1,-0.00008483,-0.00001999,-0.00002475,0.00144893,-0.00535165,0.0092514
 6,-0.00023143,-0.00020896,0.00036284,-0.09312843,-0.07881286,0.0790527
 7,-0.00386715,0.00210731,-0.00059964,-0.00406652,0.00194616,-0.0012003
 0,0.08257063,0.00043841,-0.00003896,0.00000692,0.00000195,-0.00000328,
 0.00013507,0.00005400,0.00000076,-0.00003907,-0.00002898,0.00002491,-0
 .00003085,-0.00001674,0.00000753,-0.00000653,0.00001638,-0.00001374,0.
 00002061,0.00002962,-0.00002325,0.00001445,-0.00000783,0.00000436,-0.0
 0000049,0.00000435,-0.00000162,-0.00000257,-0.00000799,-0.00000125,0.0
 0000922,-0.00000548,0.00000468,-0.00000395,-0.00000539,-0.00000223,0.0
 0000820,-0.00000952,0.00000110,0.00000578,-0.00002745,0.00004267,0.000
 04749,-0.00004372,-0.00000811,-0.00000397,0.00003140,-0.00004288,0.000
 04526,-0.00002015,0.00000258,-0.00000929,-0.00000609,0.00001250,-0.000
 00484,0.00000134,0.00003641,0.00002095,0.00001848,0.00000913,-0.000015
 92,0.00001509,-0.00000364,-0.00000456,0.00001286,-0.00001173,0.0000042
 7,-0.00000627,-0.00000788,-0.00000706,0.00000198,-0.00001464,-0.000001
 67,0.00040224,-0.00042443,-0.00102494,-0.00238184,0.00139693,-0.002967
 15,-0.00429996,-0.00356633,-0.00361639,0.00423957,0.01101224,-0.010606
 68,0.00020991,0.00028101,-0.00039130,-0.01205464,-0.01352043,0.0261386
 6,-0.00050057,-0.00085565,0.00110412,-0.07871505,-0.19030096,0.1275904
 4,0.00185757,0.00035928,0.00108347,0.00221163,0.00044873,-0.00028913,0
 .08859090,0.19519618,-0.00017561,0.00011020,0.00004086,0.00002283,-0.0
 0005171,0.00003077,-0.00005746,0.00005768,0.00003192,0.00003837,0.0000
 0692,0.00000512,0.00002155,-0.00000266,0.00002152,-0.00002612,0.000010
 90,-0.00000808,-0.00002489,-0.00000324,-0.00001933,0.00001027,-0.00000
 741,0.00000774,-0.00000645,-0.00000646,0.00000523,0.00000795,-0.000001
 02,-0.00001713,0.00001151,-0.00000343,0.00000644,0.00000608,0.00000101
 ,-0.00000983,0.00001156,-0.00000112,-0.00000527,0.00006838,-0.00004737
 ,-0.00003175,-0.00001419,0.00003304,0.00000830,-0.00002053,0.00004698,
 0.00001532,0.00001129,-0.00001035,0.00000314,0.00001536,-0.00001280,0.
 00000283,-0.00000492,0.00000509,0.00000200,-0.00000393,-0.00000589,-0.
 00000280,0.00000336,0.00001405,0.00000336,-0.00000848,0.00000833,-0.00
 000133,0.00000437,0.00000826,0.00000413,-0.00000040,0.00000928,0.00000
 205,-0.00055903,-0.00103698,-0.00027993,0.00095350,-0.00359523,-0.0050
 3007,0.00036592,-0.00295012,0.00058324,0.01394488,0.02578348,-0.015906
 90,0.00058555,0.00110985,-0.00106519,-0.00521077,-0.01034920,0.0116030
 7,-0.00021902,-0.00036877,0.00032704,0.07900956,0.12768229,-0.21060950
 ,-0.00116638,-0.00030616,0.00110915,-0.00064850,0.00108114,0.00099753,
 -0.08694562,-0.13720856,0.21817634||-0.00001078,0.00001479,0.00000901,
 0.00000364,-0.00000641,-0.00000078,0.00000720,0.00000438,0.00000147,-0
 .00001999,0.00000409,-0.00000534,0.00000019,-0.00000381,-0.00000202,0.
 00001050,-0.00000351,-0.00001230,0.00000155,-0.00000124,0.00000386,-0.
 00000330,0.00000464,0.00000234,-0.00000115,0.00000119,-0.00000017,0.00
 000611,-0.00000025,0.00001008,0.00000012,0.00000184,0.00000336,-0.0000
 0061,-0.00000156,-0.00000140,0.00000044,-0.00000081,-0.00000182,0.0000
 4412,-0.00001123,0.00001787,-0.00002724,0.00003584,0.00000060,-0.00002
 595,-0.00005381,-0.00002095,-0.00001184,-0.00003982,-0.00001804,0.0000
 0195,-0.00000515,-0.00000039,-0.00003297,0.00004661,0.00000031,0.00000
 824,-0.00000052,-0.00000016,0.00004637,0.00000623,0.00002035,0.0000007
 1,0.00000281,0.00000138,0.00000353,-0.00000319,0.00000089,-0.00000349,
 0.00000137,-0.00000107,0.00001344,0.00001804,0.00002583,-0.00001789,-0
 .00002728,0.00000368,0.00001346,0.00001005,-0.00004669,0.00000266,0.00
 001205,-0.00003730,0.00000150,0.00000388,-0.00000164,-0.00002386,-0.00
 003753,0.00001085,-0.00000176,0.00000638,0.00000203,0.00001533,0.00002
 483,0.00003342,-0.00000094,-0.00000143,0.00000475,0.00000194,0.0000029
 6,0.00000006,-0.00000128,-0.00000442,-0.00000206|||@


 CONTRAIWISE...CONTINUED TWEEDLEDEE, IF IT WAS SO, IT MIGHT BE,
 AND IF IT WERE SO, IT WOULD BE.....
 BUT AS IT ISN'T, IT AIN'T....
 THAT'S LOGIC.....
 ALICE THROUGH THE LOOKING GLASS
 Job cpu time:  0 days  0 hours  6 minutes 26.0 seconds.
 File lengths (MBytes):  RWF=    350 Int=      0 D2E=      0 Chk=      7 Scr=      1
 Normal termination of Gaussian 09 at Mon Sep 06 19:04:53 2021.
