 Entering Link 1 = b:\programy\g09w\l1.exe PID=     10896.
  
 Copyright (c) 1988,1990,1992,1993,1995,1998,2003,2009, Gaussian, Inc.
                  All Rights Reserved.
  
 This is part of the Gaussian(R) 09 program.  It is based on
 the Gaussian(R) 03 system (copyright 2003, Gaussian, Inc.),
 the Gaussian(R) 98 system (copyright 1998, Gaussian, Inc.),
 the Gaussian(R) 94 system (copyright 1995, Gaussian, Inc.),
 the Gaussian 92(TM) system (copyright 1992, Gaussian, Inc.),
 the Gaussian 90(TM) system (copyright 1990, Gaussian, Inc.),
 the Gaussian 88(TM) system (copyright 1988, Gaussian, Inc.),
 the Gaussian 86(TM) system (copyright 1986, Carnegie Mellon
 University), and the Gaussian 82(TM) system (copyright 1983,
 Carnegie Mellon University). Gaussian is a federally registered
 trademark of Gaussian, Inc.
  
 This software contains proprietary and confidential information,
 including trade secrets, belonging to Gaussian, Inc.
  
 This software is provided under written license and may be
 used, copied, transmitted, or stored only in accord with that
 written license.
  
 The following legend is applicable only to US Government
 contracts under FAR:
  
                    RESTRICTED RIGHTS LEGEND
  
 Use, reproduction and disclosure by the US Government is
 subject to restrictions as set forth in subparagraphs (a)
 and (c) of the Commercial Computer Software - Restricted
 Rights clause in FAR 52.227-19.
  
 Gaussian, Inc.
 340 Quinnipiac St., Bldg. 40, Wallingford CT 06492
  
  
 ---------------------------------------------------------------
 Warning -- This program may not be used in any manner that
 competes with the business of Gaussian, Inc. or will provide
 assistance to any competitor of Gaussian, Inc.  The licensee
 of this program is prohibited from giving any competitor of
 Gaussian, Inc. access to this program.  By using this program,
 the user acknowledges that Gaussian, Inc. is engaged in the
 business of creating and licensing software in the field of
 computational chemistry and represents and warrants to the
 licensee that it is not a competitor of Gaussian, Inc. and that
 it will not use this program in any manner prohibited above.
 ---------------------------------------------------------------
  

 Cite this work as:
 Gaussian 09, Revision A.02,
 M. J. Frisch, G. W. Trucks, H. B. Schlegel, G. E. Scuseria, 
 M. A. Robb, J. R. Cheeseman, G. Scalmani, V. Barone, B. Mennucci, 
 G. A. Petersson, H. Nakatsuji, M. Caricato, X. Li, H. P. Hratchian, 
 A. F. Izmaylov, J. Bloino, G. Zheng, J. L. Sonnenberg, M. Hada, 
 M. Ehara, K. Toyota, R. Fukuda, J. Hasegawa, M. Ishida, T. Nakajima, 
 Y. Honda, O. Kitao, H. Nakai, T. Vreven, J. A. Montgomery, Jr., 
 J. E. Peralta, F. Ogliaro, M. Bearpark, J. J. Heyd, E. Brothers, 
 K. N. Kudin, V. N. Staroverov, R. Kobayashi, J. Normand, 
 K. Raghavachari, A. Rendell, J. C. Burant, S. S. Iyengar, J. Tomasi, 
 M. Cossi, N. Rega, J. M. Millam, M. Klene, J. E. Knox, J. B. Cross, 
 V. Bakken, C. Adamo, J. Jaramillo, R. Gomperts, R. E. Stratmann, 
 O. Yazyev, A. J. Austin, R. Cammi, C. Pomelli, J. W. Ochterski, 
 R. L. Martin, K. Morokuma, V. G. Zakrzewski, G. A. Voth, 
 P. Salvador, J. J. Dannenberg, S. Dapprich, A. D. Daniels, 
 O. Farkas, J. B. Foresman, J. V. Ortiz, J. Cioslowski, 
 and D. J. Fox, Gaussian, Inc., Wallingford CT, 2009.
 
 ******************************************
 Gaussian 09:  IA32W-G09RevA.02 11-Jun-2009
                07-Sep-2021 
 ******************************************
 %nprocshared=12
 Will use up to   12 processors via shared memory.
 ----------------------------------------------
 # opt freq=noraman hf/6-311g geom=connectivity
 ----------------------------------------------
 1/18=20,19=15,38=1,57=2/1,3;
 2/9=110,12=2,17=6,18=5,40=1/2;
 3/5=4,6=6,11=9,16=1,25=1,30=1,71=1/1,2,3;
 4//1;
 5/5=2,38=5/2;
 6/7=2,8=2,9=2,10=2,28=1/1;
 7//1,2,3,16;
 1/18=20,19=15/3(2);
 2/9=110/2;
 99//99;
 2/9=110/2;
 3/5=4,6=6,11=9,16=1,25=1,30=1,71=1/1,2,3;
 4/5=5,16=3/1;
 5/5=2,38=5/2;
 7//1,2,3,16;
 1/18=20,19=15/3(-5);
 2/9=110/2;
 6/7=2,8=2,9=2,10=2,19=2,28=1/1;
 99/9=1/99;
 -----
 M0001
 -----
 Symbolic Z-matrix:
 Charge =  0 Multiplicity = 1
 C                    -0.14161   0.74745   0.14539 
 H                    -0.3217    1.84333   0.31257 
 C                    -0.28655   0.47345  -1.3324 
 C                    -0.73403   1.49078  -2.17803 
 C                     0.02234  -0.77623  -1.87325 
 C                    -0.86523   1.26043  -3.54304 
 H                    -0.9845    2.47582  -1.76695 
 C                    -0.10714  -1.0032   -3.23777 
 H                     0.35224  -1.58305  -1.2011 
 C                    -0.54994   0.01536  -4.07543 
 H                    -1.21764   2.06306  -4.1991 
 H                     0.13897  -1.9861   -3.65238 
 H                    -0.65147  -0.16352  -5.15058 
 C                     1.27413   0.51401   0.6122 
 C                     2.31951   1.10274  -0.10802 
 C                     1.57292  -0.21655   1.76176 
 C                     3.63497   0.95629   0.31162 
 H                     2.0927    1.6788   -1.01324 
 C                     2.89168  -0.36065   2.18148 
 H                     0.76441  -0.68156   2.34028 
 C                     3.92466   0.22345   1.45881 
 H                     4.44474   1.4194   -0.2616 
 H                     3.11283  -0.9366    3.08603 
 H                     4.96164   0.10888   1.78995 
 C                    -1.18557  -0.00704   0.93013 
 C                    -2.11101   0.70879   1.69325 
 C                    -1.25693  -1.40175   0.90809 
 C                    -3.08852   0.0395    2.42125 
 H                    -2.06903   1.80415   1.72013 
 C                    -2.23458  -2.06837   1.63609 
 H                    -0.53607  -1.96489   0.29445 
 C                    -3.15188  -1.34899   2.39501 
 H                    -3.80984   0.60922   3.01607 
 H                    -2.28244  -3.16178   1.60985 
 H                    -3.92207  -1.87463   2.96846 
 

 GradGradGradGradGradGradGradGradGradGradGradGradGradGradGradGradGradGrad
 Berny optimization.
 Initialization pass.
                           ----------------------------
                           !    Initial Parameters    !
                           ! (Angstroms and Degrees)  !
 --------------------------                            --------------------------
 ! Name  Definition              Value          Derivative Info.                !
 --------------------------------------------------------------------------------
 ! R1    R(1,2)                  1.1231         estimate D2E/DX2                !
 ! R2    R(1,3)                  1.5099         estimate D2E/DX2                !
 ! R3    R(1,14)                 1.5089         estimate D2E/DX2                !
 ! R4    R(1,25)                 1.5083         estimate D2E/DX2                !
 ! R5    R(3,4)                  1.3965         estimate D2E/DX2                !
 ! R6    R(3,5)                  1.3963         estimate D2E/DX2                !
 ! R7    R(4,6)                  1.3905         estimate D2E/DX2                !
 ! R8    R(4,7)                  1.0964         estimate D2E/DX2                !
 ! R9    R(5,8)                  1.3893         estimate D2E/DX2                !
 ! R10   R(5,9)                  1.1007         estimate D2E/DX2                !
 ! R11   R(6,10)                 1.3903         estimate D2E/DX2                !
 ! R12   R(6,11)                 1.0949         estimate D2E/DX2                !
 ! R13   R(8,10)                 1.3911         estimate D2E/DX2                !
 ! R14   R(8,12)                 1.0948         estimate D2E/DX2                !
 ! R15   R(10,13)                1.0946         estimate D2E/DX2                !
 ! R16   R(14,15)                1.3993         estimate D2E/DX2                !
 ! R17   R(14,16)                1.3944         estimate D2E/DX2                !
 ! R18   R(15,17)                1.3885         estimate D2E/DX2                !
 ! R19   R(15,18)                1.0967         estimate D2E/DX2                !
 ! R20   R(16,19)                1.3914         estimate D2E/DX2                !
 ! R21   R(16,20)                1.0976         estimate D2E/DX2                !
 ! R22   R(17,21)                1.3918         estimate D2E/DX2                !
 ! R23   R(17,22)                1.0949         estimate D2E/DX2                !
 ! R24   R(19,21)                1.3894         estimate D2E/DX2                !
 ! R25   R(19,23)                1.0949         estimate D2E/DX2                !
 ! R26   R(21,24)                1.0946         estimate D2E/DX2                !
 ! R27   R(25,26)                1.3969         estimate D2E/DX2                !
 ! R28   R(25,27)                1.3967         estimate D2E/DX2                !
 ! R29   R(26,28)                1.3905         estimate D2E/DX2                !
 ! R30   R(26,29)                1.0965         estimate D2E/DX2                !
 ! R31   R(27,30)                1.3893         estimate D2E/DX2                !
 ! R32   R(27,31)                1.1015         estimate D2E/DX2                !
 ! R33   R(28,32)                1.3902         estimate D2E/DX2                !
 ! R34   R(28,33)                1.0948         estimate D2E/DX2                !
 ! R35   R(30,32)                1.391          estimate D2E/DX2                !
 ! R36   R(30,34)                1.0948         estimate D2E/DX2                !
 ! R37   R(32,35)                1.0947         estimate D2E/DX2                !
 ! A1    A(2,1,3)              107.8997         estimate D2E/DX2                !
 ! A2    A(2,1,14)             104.7956         estimate D2E/DX2                !
 ! A3    A(2,1,25)             107.4376         estimate D2E/DX2                !
 ! A4    A(3,1,14)             111.394          estimate D2E/DX2                !
 ! A5    A(3,1,25)             110.6093         estimate D2E/DX2                !
 ! A6    A(14,1,25)            114.2721         estimate D2E/DX2                !
 ! A7    A(1,3,4)              119.4194         estimate D2E/DX2                !
 ! A8    A(1,3,5)              121.3503         estimate D2E/DX2                !
 ! A9    A(4,3,5)              119.2299         estimate D2E/DX2                !
 ! A10   A(3,4,6)              120.2632         estimate D2E/DX2                !
 ! A11   A(3,4,7)              120.0439         estimate D2E/DX2                !
 ! A12   A(6,4,7)              119.6928         estimate D2E/DX2                !
 ! A13   A(3,5,8)              120.4001         estimate D2E/DX2                !
 ! A14   A(3,5,9)              119.0647         estimate D2E/DX2                !
 ! A15   A(8,5,9)              120.5263         estimate D2E/DX2                !
 ! A16   A(4,6,10)             120.1887         estimate D2E/DX2                !
 ! A17   A(4,6,11)             119.8108         estimate D2E/DX2                !
 ! A18   A(10,6,11)            120.0004         estimate D2E/DX2                !
 ! A19   A(5,8,10)             120.0961         estimate D2E/DX2                !
 ! A20   A(5,8,12)             119.8466         estimate D2E/DX2                !
 ! A21   A(10,8,12)            120.0572         estimate D2E/DX2                !
 ! A22   A(6,10,8)             119.8209         estimate D2E/DX2                !
 ! A23   A(6,10,13)            120.0929         estimate D2E/DX2                !
 ! A24   A(8,10,13)            120.0862         estimate D2E/DX2                !
 ! A25   A(1,14,15)            118.4648         estimate D2E/DX2                !
 ! A26   A(1,14,16)            122.4893         estimate D2E/DX2                !
 ! A27   A(15,14,16)           118.9893         estimate D2E/DX2                !
 ! A28   A(14,15,17)           120.5193         estimate D2E/DX2                !
 ! A29   A(14,15,18)           119.4275         estimate D2E/DX2                !
 ! A30   A(17,15,18)           120.0524         estimate D2E/DX2                !
 ! A31   A(14,16,19)           120.3988         estimate D2E/DX2                !
 ! A32   A(14,16,20)           119.9118         estimate D2E/DX2                !
 ! A33   A(19,16,20)           119.6894         estimate D2E/DX2                !
 ! A34   A(15,17,21)           120.1218         estimate D2E/DX2                !
 ! A35   A(15,17,22)           119.8573         estimate D2E/DX2                !
 ! A36   A(21,17,22)           120.0209         estimate D2E/DX2                !
 ! A37   A(16,19,21)           120.2786         estimate D2E/DX2                !
 ! A38   A(16,19,23)           119.6775         estimate D2E/DX2                !
 ! A39   A(21,19,23)           120.0439         estimate D2E/DX2                !
 ! A40   A(17,21,19)           119.6916         estimate D2E/DX2                !
 ! A41   A(17,21,24)           120.1102         estimate D2E/DX2                !
 ! A42   A(19,21,24)           120.1982         estimate D2E/DX2                !
 ! A43   A(1,25,26)            119.1078         estimate D2E/DX2                !
 ! A44   A(1,25,27)            121.7805         estimate D2E/DX2                !
 ! A45   A(26,25,27)           119.1106         estimate D2E/DX2                !
 ! A46   A(25,26,28)           120.3387         estimate D2E/DX2                !
 ! A47   A(25,26,29)           119.9975         estimate D2E/DX2                !
 ! A48   A(28,26,29)           119.6637         estimate D2E/DX2                !
 ! A49   A(25,27,30)           120.4523         estimate D2E/DX2                !
 ! A50   A(25,27,31)           119.0697         estimate D2E/DX2                !
 ! A51   A(30,27,31)           120.4726         estimate D2E/DX2                !
 ! A52   A(26,28,32)           120.1924         estimate D2E/DX2                !
 ! A53   A(26,28,33)           119.8106         estimate D2E/DX2                !
 ! A54   A(32,28,33)           119.997          estimate D2E/DX2                !
 ! A55   A(27,30,32)           120.1191         estimate D2E/DX2                !
 ! A56   A(27,30,34)           119.8301         estimate D2E/DX2                !
 ! A57   A(32,30,34)           120.0508         estimate D2E/DX2                !
 ! A58   A(28,32,30)           119.7869         estimate D2E/DX2                !
 ! A59   A(28,32,35)           120.1171         estimate D2E/DX2                !
 ! A60   A(30,32,35)           120.096          estimate D2E/DX2                !
 ! D1    D(2,1,3,4)             -6.8088         estimate D2E/DX2                !
 ! D2    D(2,1,3,5)            172.961          estimate D2E/DX2                !
 ! D3    D(14,1,3,4)          -121.313          estimate D2E/DX2                !
 ! D4    D(14,1,3,5)            58.4568         estimate D2E/DX2                !
 ! D5    D(25,1,3,4)           110.4432         estimate D2E/DX2                !
 ! D6    D(25,1,3,5)           -69.787          estimate D2E/DX2                !
 ! D7    D(2,1,14,15)          -66.7267         estimate D2E/DX2                !
 ! D8    D(2,1,14,16)          110.5064         estimate D2E/DX2                !
 ! D9    D(3,1,14,15)           49.6901         estimate D2E/DX2                !
 ! D10   D(3,1,14,16)         -133.0768         estimate D2E/DX2                !
 ! D11   D(25,1,14,15)         175.944          estimate D2E/DX2                !
 ! D12   D(25,1,14,16)          -6.8228         estimate D2E/DX2                !
 ! D13   D(2,1,25,26)           -1.1736         estimate D2E/DX2                !
 ! D14   D(2,1,25,27)          178.4387         estimate D2E/DX2                !
 ! D15   D(3,1,25,26)         -118.7096         estimate D2E/DX2                !
 ! D16   D(3,1,25,27)           60.9027         estimate D2E/DX2                !
 ! D17   D(14,1,25,26)         114.6287         estimate D2E/DX2                !
 ! D18   D(14,1,25,27)         -65.759          estimate D2E/DX2                !
 ! D19   D(1,3,4,6)            179.5613         estimate D2E/DX2                !
 ! D20   D(1,3,4,7)             -0.4918         estimate D2E/DX2                !
 ! D21   D(5,3,4,6)             -0.2134         estimate D2E/DX2                !
 ! D22   D(5,3,4,7)            179.7335         estimate D2E/DX2                !
 ! D23   D(1,3,5,8)           -179.4343         estimate D2E/DX2                !
 ! D24   D(1,3,5,9)              1.6483         estimate D2E/DX2                !
 ! D25   D(4,3,5,8)              0.336          estimate D2E/DX2                !
 ! D26   D(4,3,5,9)           -178.5815         estimate D2E/DX2                !
 ! D27   D(3,4,6,10)            -0.0805         estimate D2E/DX2                !
 ! D28   D(3,4,6,11)           179.9416         estimate D2E/DX2                !
 ! D29   D(7,4,6,10)           179.9724         estimate D2E/DX2                !
 ! D30   D(7,4,6,11)            -0.0055         estimate D2E/DX2                !
 ! D31   D(3,5,8,10)            -0.1647         estimate D2E/DX2                !
 ! D32   D(3,5,8,12)           179.9096         estimate D2E/DX2                !
 ! D33   D(9,5,8,10)           178.7369         estimate D2E/DX2                !
 ! D34   D(9,5,8,12)            -1.1888         estimate D2E/DX2                !
 ! D35   D(4,6,10,8)             0.2544         estimate D2E/DX2                !
 ! D36   D(4,6,10,13)         -179.8505         estimate D2E/DX2                !
 ! D37   D(11,6,10,8)         -179.7678         estimate D2E/DX2                !
 ! D38   D(11,6,10,13)           0.1273         estimate D2E/DX2                !
 ! D39   D(5,8,10,6)            -0.1321         estimate D2E/DX2                !
 ! D40   D(5,8,10,13)          179.9728         estimate D2E/DX2                !
 ! D41   D(12,8,10,6)          179.7934         estimate D2E/DX2                !
 ! D42   D(12,8,10,13)          -0.1017         estimate D2E/DX2                !
 ! D43   D(1,14,15,17)         177.6505         estimate D2E/DX2                !
 ! D44   D(1,14,15,18)          -2.6742         estimate D2E/DX2                !
 ! D45   D(16,14,15,17)          0.3185         estimate D2E/DX2                !
 ! D46   D(16,14,15,18)        179.9939         estimate D2E/DX2                !
 ! D47   D(1,14,16,19)        -177.4553         estimate D2E/DX2                !
 ! D48   D(1,14,16,20)           2.5519         estimate D2E/DX2                !
 ! D49   D(15,14,16,19)         -0.2361         estimate D2E/DX2                !
 ! D50   D(15,14,16,20)        179.7711         estimate D2E/DX2                !
 ! D51   D(14,15,17,21)         -0.2071         estimate D2E/DX2                !
 ! D52   D(14,15,17,22)        179.8406         estimate D2E/DX2                !
 ! D53   D(18,15,17,21)       -179.8804         estimate D2E/DX2                !
 ! D54   D(18,15,17,22)          0.1673         estimate D2E/DX2                !
 ! D55   D(14,16,19,21)          0.0427         estimate D2E/DX2                !
 ! D56   D(14,16,19,23)        179.9838         estimate D2E/DX2                !
 ! D57   D(20,16,19,21)       -179.9645         estimate D2E/DX2                !
 ! D58   D(20,16,19,23)         -0.0233         estimate D2E/DX2                !
 ! D59   D(15,17,21,19)          0.0095         estimate D2E/DX2                !
 ! D60   D(15,17,21,24)       -179.9449         estimate D2E/DX2                !
 ! D61   D(22,17,21,19)        179.9616         estimate D2E/DX2                !
 ! D62   D(22,17,21,24)          0.0073         estimate D2E/DX2                !
 ! D63   D(16,19,21,17)          0.0726         estimate D2E/DX2                !
 ! D64   D(16,19,21,24)       -179.9731         estimate D2E/DX2                !
 ! D65   D(23,19,21,17)       -179.8684         estimate D2E/DX2                !
 ! D66   D(23,19,21,24)          0.0859         estimate D2E/DX2                !
 ! D67   D(1,25,26,28)         179.6773         estimate D2E/DX2                !
 ! D68   D(1,25,26,29)          -0.3096         estimate D2E/DX2                !
 ! D69   D(27,25,26,28)          0.0545         estimate D2E/DX2                !
 ! D70   D(27,25,26,29)       -179.9325         estimate D2E/DX2                !
 ! D71   D(1,25,27,30)        -179.6576         estimate D2E/DX2                !
 ! D72   D(1,25,27,31)          -0.4982         estimate D2E/DX2                !
 ! D73   D(26,25,27,30)         -0.0453         estimate D2E/DX2                !
 ! D74   D(26,25,27,31)        179.1142         estimate D2E/DX2                !
 ! D75   D(25,26,28,32)          0.009          estimate D2E/DX2                !
 ! D76   D(25,26,28,33)       -179.9703         estimate D2E/DX2                !
 ! D77   D(29,26,28,32)        179.996          estimate D2E/DX2                !
 ! D78   D(29,26,28,33)          0.0167         estimate D2E/DX2                !
 ! D79   D(25,27,30,32)         -0.0275         estimate D2E/DX2                !
 ! D80   D(25,27,30,34)        179.8744         estimate D2E/DX2                !
 ! D81   D(31,27,30,32)       -179.1751         estimate D2E/DX2                !
 ! D82   D(31,27,30,34)          0.7268         estimate D2E/DX2                !
 ! D83   D(26,28,32,30)         -0.0822         estimate D2E/DX2                !
 ! D84   D(26,28,32,35)       -179.9888         estimate D2E/DX2                !
 ! D85   D(33,28,32,30)        179.8971         estimate D2E/DX2                !
 ! D86   D(33,28,32,35)         -0.0095         estimate D2E/DX2                !
 ! D87   D(27,30,32,28)          0.0914         estimate D2E/DX2                !
 ! D88   D(27,30,32,35)        179.998          estimate D2E/DX2                !
 ! D89   D(34,30,32,28)       -179.8103         estimate D2E/DX2                !
 ! D90   D(34,30,32,35)          0.0963         estimate D2E/DX2                !
 --------------------------------------------------------------------------------
 Trust Radius=3.00D-01 FncErr=1.00D-07 GrdErr=1.00D-07
 Number of steps in this run= 197 maximum allowed number of steps= 210.
 GradGradGradGradGradGradGradGradGradGradGradGradGradGradGradGradGradGrad

                          Input orientation:                          
 ---------------------------------------------------------------------
 Center     Atomic      Atomic             Coordinates (Angstroms)
 Number     Number       Type             X           Y           Z
 ---------------------------------------------------------------------
      1          6           0       -0.141605    0.747446    0.145388
      2          1           0       -0.321705    1.843332    0.312566
      3          6           0       -0.286548    0.473455   -1.332396
      4          6           0       -0.734028    1.490785   -2.178027
      5          6           0        0.022342   -0.776229   -1.873251
      6          6           0       -0.865233    1.260432   -3.543037
      7          1           0       -0.984503    2.475820   -1.766949
      8          6           0       -0.107142   -1.003203   -3.237766
      9          1           0        0.352238   -1.583053   -1.201096
     10          6           0       -0.549937    0.015356   -4.075430
     11          1           0       -1.217641    2.063058   -4.199100
     12          1           0        0.138969   -1.986103   -3.652383
     13          1           0       -0.651474   -0.163523   -5.150578
     14          6           0        1.274134    0.514005    0.612200
     15          6           0        2.319514    1.102738   -0.108015
     16          6           0        1.572920   -0.216550    1.761755
     17          6           0        3.634971    0.956290    0.311620
     18          1           0        2.092703    1.678796   -1.013241
     19          6           0        2.891679   -0.360652    2.181480
     20          1           0        0.764408   -0.681564    2.340281
     21          6           0        3.924662    0.223453    1.458814
     22          1           0        4.444738    1.419401   -0.261599
     23          1           0        3.112832   -0.936598    3.086035
     24          1           0        4.961636    0.108884    1.789945
     25          6           0       -1.185567   -0.007040    0.930129
     26          6           0       -2.111006    0.708792    1.693251
     27          6           0       -1.256927   -1.401749    0.908091
     28          6           0       -3.088520    0.039504    2.421249
     29          1           0       -2.069034    1.804148    1.720133
     30          6           0       -2.234575   -2.068369    1.636094
     31          1           0       -0.536074   -1.964894    0.294454
     32          6           0       -3.151881   -1.348990    2.395008
     33          1           0       -3.809840    0.609221    3.016072
     34          1           0       -2.282441   -3.161775    1.609847
     35          1           0       -3.922066   -1.874626    2.968456
 ---------------------------------------------------------------------
                    Distance matrix (angstroms):
                    1          2          3          4          5
     1  C    0.000000
     2  H    1.123098   0.000000
     3  C    1.509943   2.140957   0.000000
     4  C    2.510334   2.548990   1.396528   0.000000
     5  C    2.534437   3.429032   1.396298   2.409219   0.000000
     6  C    3.793584   3.937114   2.416846   1.390515   2.779203
     7  H    2.711971   2.272383   2.164589   1.096365   3.406004
     8  C    3.809422   4.555618   2.417259   2.781368   1.389311
     9  H    2.736445   3.805980   2.157432   3.403358   1.100721
    10  C    4.303255   4.759002   2.793469   2.410585   2.409088
    11  H    4.665111   4.605009   3.407604   2.155485   3.874104
    12  H    4.687652   5.531510   3.407760   3.876157   2.154694
    13  H    5.397878   5.829421   3.888113   3.402882   3.401516
    14  C    1.508882   2.098474   2.493758   3.573819   3.067434
    15  C    2.499510   2.775140   2.947315   3.709400   3.453053
    16  C    2.545884   3.151645   3.675255   4.874308   3.991341
    17  C    3.785998   4.054889   4.279513   5.056894   4.563592
    18  H    2.683648   2.759384   2.686176   3.063084   3.324629
    19  C    3.817639   4.321600   4.810841   5.964803   4.984641
    20  H    2.771369   3.415607   3.990882   5.232544   4.279425
    21  C    4.305135   4.687166   5.058424   6.044513   5.227822
    22  H    4.653139   4.819581   4.942316   5.522446   5.193823
    23  H    4.698379   5.216913   5.750354   6.957073   5.845627
    24  H    5.399574   5.753664   6.117628   7.077785   6.212814
    25  C    1.508285   2.133428   2.481558   3.479655   3.147957
    26  C    2.505177   2.528848   3.540984   4.182627   4.413207
    27  C    2.538641   3.429263   3.078605   4.261959   3.124687
    28  C    3.790123   3.918623   4.704169   5.366860   5.365222
    29  H    2.703964   2.244090   3.777027   4.132322   4.893323
    30  C    3.812026   4.551066   4.366647   5.428327   4.367929
    31  H    2.744926   3.814298   2.941845   4.253712   2.534501
    32  C    4.303208   4.747356   5.042319   5.901100   5.349933
    33  H    4.660030   4.582474   5.598320   6.100527   6.364791
    34  H    4.691463   5.529785   5.084808   6.196118   4.809867
    35  H    5.397857   5.817179   6.101459   6.926461   6.340896
                    6          7          8          9         10
     6  C    0.000000
     7  H    2.155431   0.000000
     8  C    2.406644   3.877714   0.000000
     9  H    3.879734   4.310628   2.166860   0.000000
    10  C    1.390349   3.401737   1.391119   3.410371   0.000000
    11  H    1.094905   2.477919   3.399900   4.974602   2.157361
    12  H    3.400054   4.972505   1.094792   2.493339   2.158564
    13  H    2.158131   4.304182   2.158751   4.315195   1.094646
    14  C    4.732868   3.822370   4.362577   2.921573   5.054677
    15  C    4.686882   3.943849   4.485420   3.504065   5.015629
    16  C    6.022200   5.122599   5.332602   3.483659   6.215548
    17  C    5.933188   5.288569   5.517351   4.417342   6.135554
    18  H    3.914624   3.266882   4.120795   3.701914   4.373509
    19  C    7.036505   6.217753   6.226880   4.402823   7.150877
    20  H    6.406288   5.467825   5.654880   3.677488   6.585936
    21  C    7.002639   6.291153   6.310150   4.806329   7.119916
    22  H    6.244110   5.732255   5.953670   5.161970   6.439210
    23  H    8.037198   7.210007   7.096698   5.139871   8.099918
    24  H    7.982429   7.321916   7.225450   5.749394   8.049150
    25  C    4.660291   3.671410   4.418902   3.064438   5.045806
    26  C    5.410635   4.045291   5.591183   4.438172   6.016267
    27  C    5.201267   4.718644   4.320761   2.659126   5.229102
    28  C    6.481233   5.282379   6.480764   5.252894   6.975086
    29  H    5.426391   3.713098   6.025861   5.086184   6.252679
    30  C    6.307093   5.813178   5.423566   3.869985   6.308837
    31  H    5.023686   4.916342   3.685839   1.780891   4.797653
    32  C    6.877371   6.053808   6.412344   5.026491   7.106204
    33  H    7.219190   5.860377   7.444486   6.317710   7.827455
    34  H    6.936614   6.698498   5.735043   4.163568   6.739296
    35  H    7.846806   7.069634   7.336908   5.978282   8.034901
                   11         12         13         14         15
    11  H    0.000000
    12  H    4.305228   0.000000
    13  H    2.486668   2.488209   0.000000
    14  C    5.635345   5.072061   6.113642   0.000000
    15  C    5.492782   5.182495   5.988123   1.399334   0.000000
    16  C    6.965316   5.873706   7.261617   1.394439   2.407066
    17  C    6.717095   6.049217   7.033007   2.420644   1.388513
    18  H    4.610394   4.920735   5.295489   2.160753   1.096686
    19  C    7.966975   6.652327   8.145665   2.417461   2.776810
    20  H    7.363761   6.164821   7.641077   2.162284   3.405326
    21  C    7.863804   6.733346   8.048281   2.797584   2.409273
    22  H    6.926813   6.452481   7.237343   3.411158   2.154168
    23  H    8.990223   7.439865   9.088973   3.406599   3.871718
    24  H    8.824450   7.567432   8.930401   3.892156   3.401589
    25  C    5.531304   5.164349   6.106123   2.534303   3.820332
    26  C    6.111623   6.395361   7.051890   3.558902   4.798881
    27  C    6.171696   4.804988   6.213473   3.188093   4.482840
    28  C    7.171051   7.169991   7.956945   4.746637   6.064196
    29  H    5.985751   6.935791   7.286143   3.750834   4.805565
    30  C    7.221657   5.797281   7.224512   4.475271   5.817007
    31  H    6.072969   4.004204   5.736430   3.085896   4.210313
    32  C    7.672393   6.914228   8.036992   5.122379   6.497097
    33  H    7.803322   8.172948   8.790141   5.624452   6.897279
    34  H    7.885210   5.910710   7.573171   5.211131   6.505007
    35  H    8.613543   7.767879   8.918709   6.185305   7.568797
                   16         17         18         19         20
    16  C    0.000000
    17  C    2.780378   0.000000
    18  H    3.400458   2.157745   0.000000
    19  C    1.391424   2.404828   3.873494   0.000000
    20  H    1.097553   3.877908   4.310659   2.157194   0.000000
    21  C    2.411652   1.391771   3.403698   1.389417   3.403417
    22  H    3.875259   1.094885   2.482805   3.398414   4.972793
    23  H    2.154882   3.398975   4.968401   1.094916   2.477153
    24  H    3.404423   2.159533   4.307349   2.158353   4.306322
    25  C    2.888727   4.954608   4.167227   4.279586   2.499182
    26  C    3.798982   5.914931   5.092855   5.138963   3.258795
    27  C    3.184568   5.463222   4.939767   4.462772   2.579851
    28  C    4.714819   7.106079   6.428691   5.998366   3.920657
    29  H    4.165187   5.936198   4.980673   5.432115   3.819914
    30  C    4.235805   6.734565   6.307579   5.430675   3.378314
    31  H    3.107658   5.092272   4.679425   4.228942   2.742918
    32  C    4.899712   7.464328   6.949052   6.127563   3.973131
    33  H    5.588319   7.928413   7.226297   6.822577   4.800683
    34  H    4.853992   7.325273   7.032326   5.911393   3.996031
    35  H    5.865170   8.495980   8.041030   7.024142   4.876580
                   21         22         23         24         25
    21  C    0.000000
    22  H    2.158841   0.000000
    23  H    2.156996   4.304806   0.000000
    24  H    1.094572   2.488669   2.488163   0.000000
    25  C    5.142672   5.929189   4.897779   6.208126   0.000000
    26  C    6.059687   6.877804   5.651163   7.098698   1.396856
    27  C    5.458337   6.468079   4.904549   6.459892   1.396708
    28  C    7.081302   8.114910   6.312803   8.075170   2.418023
    29  H    6.204134   6.819422   6.019063   7.232504   2.164491
    30  C    6.574198   7.770393   5.654909   7.519944   2.418240
    31  H    5.103211   6.047407   4.707954   6.063157   2.158499
    32  C    7.309344   8.510592   6.316187   8.265632   2.795192
    33  H    7.899139   8.918384   7.093507   8.870880   3.408481
    34  H    7.071825   8.351312   6.019926   7.950239   3.408446
    35  H    8.261483   9.554438   7.098135   9.178418   3.889870
                   26         27         28         29         30
    26  C    0.000000
    27  C    2.408384   0.000000
    28  C    1.390489   2.778775   0.000000
    29  H    1.096490   3.405394   2.155199   0.000000
    30  C    2.780496   1.389304   2.405996   3.876964   0.000000
    31  H    3.403769   1.101504   3.880187   4.311404   2.166936
    32  C    2.410467   2.409265   1.390187   3.401514   1.391009
    33  H    2.155413   3.873622   1.094849   2.477441   3.399306
    34  H    3.875259   2.154491   3.399460   4.971730   1.094768
    35  H    3.402960   3.401718   2.158270   4.304117   2.158784
                   31         32         33         34         35
    31  H    0.000000
    32  C    3.410882   0.000000
    33  H    4.975019   2.157132   0.000000
    34  H    2.492505   2.158378   4.304744   0.000000
    35  H    4.315481   1.094678   2.486836   2.488161   0.000000
 Stoichiometry    C19H16
 Framework group  C1[X(C19H16)]
 Deg. of freedom    99
 Full point group                 C1      NOp   1
 Largest Abelian subgroup         C1      NOp   1
 Largest concise Abelian subgroup C1      NOp   1
                         Standard orientation:                         
 ---------------------------------------------------------------------
 Center     Atomic      Atomic             Coordinates (Angstroms)
 Number     Number       Type             X           Y           Z
 ---------------------------------------------------------------------
      1          6           0       -0.012006    0.012385   -0.760059
      2          1           0        0.017707    0.015574   -1.882759
      3          6           0        0.751206   -1.198427   -0.279051
      4          6           0        1.207358   -2.135590   -1.208535
      5          6           0        1.015244   -1.399093    1.077292
      6          6           0        1.919847   -3.252360   -0.785787
      7          1           0        1.003758   -1.993521   -2.276420
      8          6           0        1.729508   -2.514379    1.496994
      9          1           0        0.634185   -0.671069    1.809660
     10          6           0        2.184350   -3.442458    0.565867
     11          1           0        2.273159   -3.982930   -1.520807
     12          1           0        1.932670   -2.661989    2.562595
     13          1           0        2.747491   -4.320909    0.896691
     14          6           0        0.674120    1.293048   -0.352801
     15          6           0        2.041662    1.429860   -0.615950
     16          6           0       -0.013685    2.361279    0.221890
     17          6           0        2.705350    2.608797   -0.303552
     18          1           0        2.589685    0.594213   -1.067709
     19          6           0        0.652943    3.542434    0.532599
     20          1           0       -1.087354    2.271770    0.431283
     21          6           0        2.011809    3.669302    0.272085
     22          1           0        3.776111    2.703149   -0.511739
     23          1           0        0.101221    4.373869    0.983330
     24          1           0        2.534997    4.598905    0.517444
     25          6           0       -1.459911   -0.073907   -0.346480
     26          6           0       -2.447778   -0.106126   -1.333540
     27          6           0       -1.839190   -0.130488    0.996554
     28          6           0       -3.790133   -0.192244   -0.981222
     29          1           0       -2.166301   -0.063661   -2.392435
     30          6           0       -3.180994   -0.216702    1.346259
     31          1           0       -1.058890   -0.119894    1.773941
     32          6           0       -4.159359   -0.246797    0.357925
     33          1           0       -4.557247   -0.217399   -1.761990
     34          1           0       -3.466722   -0.262554    2.402088
     35          1           0       -5.216497   -0.314765    0.633895
 ---------------------------------------------------------------------
 Rotational constants (GHZ):      0.4043134      0.3811978      0.2327089
 Standard basis: 6-311G (5D, 7F)
 There are   295 symmetry adapted basis functions of A   symmetry.
 Integral buffers will be    262144 words long.
 Raffenetti 1 integral format.
 Two-electron integral symmetry is turned on.
   295 basis functions,   574 primitive gaussians,   295 cartesian basis functions
    65 alpha electrons       65 beta electrons
       nuclear repulsion energy      1290.5695611203 Hartrees.
 NAtoms=   35 NActive=   35 NUniq=   35 SFac= 7.50D-01 NAtFMM=   80 NAOKFM=F Big=F
 One-electron integrals computed using PRISM.
 PrsmSu:  requested number of processors reduced to:  10 ShMem   1 Linda.
 NBasis=   295 RedAO= T  NBF=   295
 NBsUse=   295 1.00D-06 NBFU=   295
 Harris functional with IExCor=  205 diagonalized for initial guess.
 ExpMin= 1.03D-01 ExpMax= 4.56D+03 ExpMxC= 6.82D+02 IAcc=1 IRadAn=         1 AccDes= 0.00D+00
 HarFok:  IExCor=  205 AccDes= 0.00D+00 IRadAn=         1 IDoV= 1
 ScaDFX=  1.000000  1.000000  1.000000  1.000000
 FoFCou: FMM=F IPFlag=           0 FMFlag=      100000 FMFlg1=           0
         NFxFlg=           0 DoJE=T BraDBF=F KetDBF=T FulRan=T
         Omega=  0.000000  0.000000  1.000000  0.000000  0.000000 ICntrl=     500 IOpCl=  0
         NMat0=    1 NMatS0=    1 NMatT0=    0 NMatD0=    1 NMtDS0=    0 NMtDT0=    0
         I1Cent=           4 NGrid=           0.
 Petite list used in FoFCou.
 Initial guess orbital symmetries:
       Occupied  (A) (A) (A) (A) (A) (A) (A) (A) (A) (A) (A) (A)
                 (A) (A) (A) (A) (A) (A) (A) (A) (A) (A) (A) (A)
                 (A) (A) (A) (A) (A) (A) (A) (A) (A) (A) (A) (A)
                 (A) (A) (A) (A) (A) (A) (A) (A) (A) (A) (A) (A)
                 (A) (A) (A) (A) (A) (A) (A) (A) (A) (A) (A) (A)
                 (A) (A) (A) (A) (A)
       Virtual   (A) (A) (A) (A) (A) (A) (A) (A) (A) (A) (A) (A)
                 (A) (A) (A) (A) (A) (A) (A) (A) (A) (A) (A) (A)
                 (A) (A) (A) (A) (A) (A) (A) (A) (A) (A) (A) (A)
                 (A) (A) (A) (A) (A) (A) (A) (A) (A) (A) (A) (A)
                 (A) (A) (A) (A) (A) (A) (A) (A) (A) (A) (A) (A)
                 (A) (A) (A) (A) (A) (A) (A) (A) (A) (A) (A) (A)
                 (A) (A) (A) (A) (A) (A) (A) (A) (A) (A) (A) (A)
                 (A) (A) (A) (A) (A) (A) (A) (A) (A) (A) (A) (A)
                 (A) (A) (A) (A) (A) (A) (A) (A) (A) (A) (A) (A)
                 (A) (A) (A) (A) (A) (A) (A) (A) (A) (A) (A) (A)
                 (A) (A) (A) (A) (A) (A) (A) (A) (A) (A) (A) (A)
                 (A) (A) (A) (A) (A) (A) (A) (A) (A) (A) (A) (A)
                 (A) (A) (A) (A) (A) (A) (A) (A) (A) (A) (A) (A)
                 (A) (A) (A) (A) (A) (A) (A) (A) (A) (A) (A) (A)
                 (A) (A) (A) (A) (A) (A) (A) (A) (A) (A) (A) (A)
                 (A) (A) (A) (A) (A) (A) (A) (A) (A) (A) (A) (A)
                 (A) (A) (A) (A) (A) (A) (A) (A) (A) (A) (A) (A)
                 (A) (A) (A) (A) (A) (A) (A) (A) (A) (A) (A) (A)
                 (A) (A) (A) (A) (A) (A) (A) (A) (A) (A) (A) (A)
                 (A) (A)
 The electronic state of the initial guess is 1-A.
 Requested convergence on RMS density matrix=1.00D-08 within 128 cycles.
 Requested convergence on MAX density matrix=1.00D-06.
 Requested convergence on             energy=1.00D-06.
 No special actions if energy rises.
 Integral accuracy reduced to 1.0D-05 until final iterations.
 Initial convergence to 1.0D-05 achieved.  Increase integral accuracy.
 SCF Done:  E(RHF) =  -728.672361912     A.U. after   14 cycles
             Convg  =    0.8647D-08             -V/T =  2.0001

 **********************************************************************

            Population analysis using the SCF density.

 **********************************************************************

 Orbital symmetries:
       Occupied  (A) (A) (A) (A) (A) (A) (A) (A) (A) (A) (A) (A)
                 (A) (A) (A) (A) (A) (A) (A) (A) (A) (A) (A) (A)
                 (A) (A) (A) (A) (A) (A) (A) (A) (A) (A) (A) (A)
                 (A) (A) (A) (A) (A) (A) (A) (A) (A) (A) (A) (A)
                 (A) (A) (A) (A) (A) (A) (A) (A) (A) (A) (A) (A)
                 (A) (A) (A) (A) (A)
       Virtual   (A) (A) (A) (A) (A) (A) (A) (A) (A) (A) (A) (A)
                 (A) (A) (A) (A) (A) (A) (A) (A) (A) (A) (A) (A)
                 (A) (A) (A) (A) (A) (A) (A) (A) (A) (A) (A) (A)
                 (A) (A) (A) (A) (A) (A) (A) (A) (A) (A) (A) (A)
                 (A) (A) (A) (A) (A) (A) (A) (A) (A) (A) (A) (A)
                 (A) (A) (A) (A) (A) (A) (A) (A) (A) (A) (A) (A)
                 (A) (A) (A) (A) (A) (A) (A) (A) (A) (A) (A) (A)
                 (A) (A) (A) (A) (A) (A) (A) (A) (A) (A) (A) (A)
                 (A) (A) (A) (A) (A) (A) (A) (A) (A) (A) (A) (A)
                 (A) (A) (A) (A) (A) (A) (A) (A) (A) (A) (A) (A)
                 (A) (A) (A) (A) (A) (A) (A) (A) (A) (A) (A) (A)
                 (A) (A) (A) (A) (A) (A) (A) (A) (A) (A) (A) (A)
                 (A) (A) (A) (A) (A) (A) (A) (A) (A) (A) (A) (A)
                 (A) (A) (A) (A) (A) (A) (A) (A) (A) (A) (A) (A)
                 (A) (A) (A) (A) (A) (A) (A) (A) (A) (A) (A) (A)
                 (A) (A) (A) (A) (A) (A) (A) (A) (A) (A) (A) (A)
                 (A) (A) (A) (A) (A) (A) (A) (A) (A) (A) (A) (A)
                 (A) (A) (A) (A) (A) (A) (A) (A) (A) (A) (A) (A)
                 (A) (A) (A) (A) (A) (A) (A) (A) (A) (A) (A) (A)
                 (A) (A)
 The electronic state is 1-A.
 Alpha  occ. eigenvalues --  -11.25764 -11.25234 -11.25189 -11.24926 -11.24521
 Alpha  occ. eigenvalues --  -11.24433 -11.24420 -11.24371 -11.24222 -11.24167
 Alpha  occ. eigenvalues --  -11.24141 -11.24121 -11.24075 -11.24040 -11.24033
 Alpha  occ. eigenvalues --  -11.23976 -11.23736 -11.23642 -11.23505  -1.18613
 Alpha  occ. eigenvalues --   -1.15876  -1.15569  -1.09025  -1.02383  -1.02235
 Alpha  occ. eigenvalues --   -1.01879  -1.01483  -1.01094  -0.92918  -0.84290
 Alpha  occ. eigenvalues --   -0.83348  -0.82337  -0.81908  -0.81144  -0.77589
 Alpha  occ. eigenvalues --   -0.70865  -0.70369  -0.68983  -0.65695  -0.63893
 Alpha  occ. eigenvalues --   -0.63609  -0.62512  -0.61707  -0.61589  -0.59722
 Alpha  occ. eigenvalues --   -0.58845  -0.58487  -0.58320  -0.56798  -0.55040
 Alpha  occ. eigenvalues --   -0.51726  -0.50923  -0.50235  -0.49854  -0.49381
 Alpha  occ. eigenvalues --   -0.48433  -0.47941  -0.47508  -0.46320  -0.35014
 Alpha  occ. eigenvalues --   -0.34318  -0.33947  -0.33332  -0.32576  -0.31442
 Alpha virt. eigenvalues --    0.11527   0.12286   0.12773   0.13534   0.14972
 Alpha virt. eigenvalues --    0.15102   0.15619   0.16237   0.16482   0.16920
 Alpha virt. eigenvalues --    0.18904   0.19185   0.19230   0.21243   0.21299
 Alpha virt. eigenvalues --    0.21584   0.23572   0.23996   0.24970   0.25415
 Alpha virt. eigenvalues --    0.26879   0.31426   0.33191   0.34247   0.35775
 Alpha virt. eigenvalues --    0.37547   0.39817   0.40507   0.41514   0.43118
 Alpha virt. eigenvalues --    0.44088   0.44428   0.44912   0.45452   0.45622
 Alpha virt. eigenvalues --    0.45862   0.46748   0.47219   0.47997   0.50586
 Alpha virt. eigenvalues --    0.51085   0.51436   0.52139   0.54942   0.56049
 Alpha virt. eigenvalues --    0.57336   0.57839   0.58494   0.58926   0.59354
 Alpha virt. eigenvalues --    0.60186   0.60442   0.60623   0.61144   0.61460
 Alpha virt. eigenvalues --    0.62059   0.62233   0.62955   0.63469   0.63701
 Alpha virt. eigenvalues --    0.64270   0.64552   0.65221   0.65918   0.66401
 Alpha virt. eigenvalues --    0.67205   0.67815   0.68582   0.69862   0.72353
 Alpha virt. eigenvalues --    0.73127   0.73923   0.74382   0.75274   0.75744
 Alpha virt. eigenvalues --    0.76750   0.78873   0.79343   0.79882   0.81312
 Alpha virt. eigenvalues --    0.81509   0.82200   0.82499   0.82917   0.83267
 Alpha virt. eigenvalues --    0.83826   0.84359   0.84804   0.84901   0.85472
 Alpha virt. eigenvalues --    0.85965   0.86238   0.86456   0.87707   0.88157
 Alpha virt. eigenvalues --    0.90274   0.90798   0.92172   0.93425   0.95012
 Alpha virt. eigenvalues --    0.95959   0.96376   0.97053   0.98195   0.99697
 Alpha virt. eigenvalues --    0.99978   1.02318   1.03022   1.04721   1.06213
 Alpha virt. eigenvalues --    1.07110   1.08176   1.09259   1.10189   1.10768
 Alpha virt. eigenvalues --    1.11440   1.11730   1.12445   1.12725   1.13815
 Alpha virt. eigenvalues --    1.14975   1.16542   1.19623   1.20586   1.21015
 Alpha virt. eigenvalues --    1.23824   1.25794   1.27289   1.28211   1.29036
 Alpha virt. eigenvalues --    1.29424   1.32027   1.32935   1.46766   1.47706
 Alpha virt. eigenvalues --    1.52074   1.54147   1.57063   2.53530   2.55694
 Alpha virt. eigenvalues --    2.56090   2.57748   2.62078   2.62293   2.63901
 Alpha virt. eigenvalues --    2.66370   2.67145   2.68480   2.71991   2.74310
 Alpha virt. eigenvalues --    2.78335   2.83424   2.86593   2.91677   2.94352
 Alpha virt. eigenvalues --    2.94599   2.94749   2.96024   2.98070   2.98565
 Alpha virt. eigenvalues --    2.99981   3.02228   3.03908   3.04455   3.06467
 Alpha virt. eigenvalues --    3.08510   3.09230   3.09773   3.10091   3.13191
 Alpha virt. eigenvalues --    3.15165   3.16199   3.17701   3.18417   3.19382
 Alpha virt. eigenvalues --    3.21631   3.24120   3.25114   3.27657   3.28768
 Alpha virt. eigenvalues --    3.31377   3.33869   3.34294   3.35689   3.40987
 Alpha virt. eigenvalues --    3.41368   3.44157   3.45078   3.49932   3.52482
 Alpha virt. eigenvalues --    3.53490   3.55927   3.57533   3.58258   3.59603
 Alpha virt. eigenvalues --    3.62344   3.64105   3.65033   3.66244   3.66693
 Alpha virt. eigenvalues --    3.67668   3.69203   3.71252   3.72381   3.74181
 Alpha virt. eigenvalues --    3.76225   3.77470   3.78545   3.85522   3.87976
 Alpha virt. eigenvalues --    3.91140  24.26026  24.30039  24.31771  24.50516
 Alpha virt. eigenvalues --   24.50785  24.51026  24.53082  24.54597  24.56501
 Alpha virt. eigenvalues --   24.76227  24.77075  24.79114  24.80207  24.80694
 Alpha virt. eigenvalues --   24.82753  24.87337  25.04661  25.05779  25.07114
          Condensed to atoms (all electrons):
              1          2          3          4          5          6
     1  C    6.101397   0.473021   0.150421  -0.024544  -0.055535   0.006851
     2  H    0.473021   0.503134  -0.070602   0.001592   0.005519   0.001567
     3  C    0.150421  -0.070602   5.389739   0.492925   0.446936  -0.073712
     4  C   -0.024544   0.001592   0.492925   5.092077  -0.072066   0.454090
     5  C   -0.055535   0.005519   0.446936  -0.072066   5.069168  -0.026518
     6  C    0.006851   0.001567  -0.073712   0.454090  -0.026518   5.059553
     7  H   -0.000070   0.002358  -0.050692   0.400447   0.004329  -0.034861
     8  C    0.003208  -0.000263  -0.058293  -0.030644   0.478895  -0.078569
     9  H    0.000230   0.000111  -0.044623   0.004079   0.388840   0.000017
    10  C    0.001270  -0.000001  -0.018774  -0.086373  -0.091235   0.497651
    11  H   -0.000340  -0.000039   0.006927  -0.039671  -0.000684   0.396937
    12  H   -0.000348   0.000011   0.006026  -0.000478  -0.038929   0.005972
    13  H   -0.000012  -0.000001  -0.001547   0.007493   0.007890  -0.042571
    14  C    0.036048  -0.062447  -0.096590  -0.001628  -0.007366  -0.000418
    15  C   -0.085708  -0.004855  -0.006738   0.000594  -0.008429  -0.000107
    16  C   -0.029657   0.000976   0.000691  -0.000443   0.001657   0.000021
    17  C    0.008187   0.000656  -0.001575  -0.000048  -0.000253   0.000014
    18  H   -0.002684  -0.000141   0.003991   0.001690  -0.000582   0.000119
    19  C    0.012130  -0.000125  -0.000801   0.000007   0.000050   0.000000
    20  H   -0.011222  -0.000274   0.000412  -0.000017   0.000067   0.000000
    21  C    0.000408   0.000033   0.000127  -0.000003   0.000035   0.000000
    22  H   -0.000355   0.000004   0.000015  -0.000005   0.000014  -0.000001
    23  H   -0.000361   0.000014   0.000012   0.000000   0.000000   0.000000
    24  H   -0.000014  -0.000002   0.000002   0.000000   0.000000   0.000000
    25  C    0.118561  -0.075739  -0.139880  -0.002012  -0.003448  -0.000517
    26  C   -0.024554   0.006492  -0.004376   0.000612   0.000739  -0.000017
    27  C   -0.071262   0.004441  -0.003222   0.000521  -0.011935   0.000129
    28  C    0.008245   0.001463  -0.000594  -0.000011   0.000053   0.000002
    29  H   -0.002072   0.002830   0.000162   0.000196  -0.000025  -0.000002
    30  C    0.002517  -0.000225   0.001978   0.000044  -0.000100   0.000001
    31  H    0.000815  -0.000031  -0.003687  -0.000214   0.002006  -0.000061
    32  C    0.001713   0.000005  -0.000057  -0.000013  -0.000004   0.000000
    33  H   -0.000411  -0.000034   0.000020   0.000001  -0.000001   0.000000
    34  H   -0.000371   0.000012   0.000027   0.000002   0.000037   0.000000
    35  H   -0.000026  -0.000002  -0.000003   0.000000   0.000001   0.000000
              7          8          9         10         11         12
     1  C   -0.000070   0.003208   0.000230   0.001270  -0.000340  -0.000348
     2  H    0.002358  -0.000263   0.000111  -0.000001  -0.000039   0.000011
     3  C   -0.050692  -0.058293  -0.044623  -0.018774   0.006927   0.006026
     4  C    0.400447  -0.030644   0.004079  -0.086373  -0.039671  -0.000478
     5  C    0.004329   0.478895   0.388840  -0.091235  -0.000684  -0.038929
     6  C   -0.034861  -0.078569   0.000017   0.497651   0.396937   0.005972
     7  H    0.509740  -0.000281  -0.000272   0.005243  -0.004206   0.000025
     8  C   -0.000281   5.040369  -0.028444   0.491248   0.006235   0.397234
     9  H   -0.000272  -0.028444   0.496983   0.004551   0.000015  -0.003331
    10  C    0.005243   0.491248   0.004551   5.034087  -0.040668  -0.039834
    11  H   -0.004206   0.006235   0.000015  -0.040668   0.518062  -0.000206
    12  H    0.000025   0.397234  -0.003331  -0.039834  -0.000206   0.514834
    13  H   -0.000185  -0.042915  -0.000172   0.399669  -0.004586  -0.004471
    14  C    0.000138  -0.000560   0.001103   0.000046   0.000011   0.000024
    15  C    0.000297  -0.000331   0.000240   0.000107  -0.000002   0.000017
    16  C   -0.000035   0.000021  -0.000100  -0.000002   0.000000   0.000000
    17  C   -0.000008  -0.000008   0.000051   0.000002   0.000000   0.000001
    18  H    0.000206  -0.000242  -0.000067  -0.000089   0.000006   0.000005
    19  C    0.000000   0.000005  -0.000093   0.000000   0.000000   0.000000
    20  H    0.000001   0.000000   0.000020   0.000000   0.000000   0.000000
    21  C    0.000001   0.000002  -0.000041   0.000000   0.000000   0.000000
    22  H    0.000000   0.000002   0.000005   0.000000   0.000000   0.000000
    23  H    0.000000   0.000000   0.000000   0.000000   0.000000   0.000000
    24  H    0.000000   0.000000   0.000001   0.000000   0.000000   0.000000
    25  C    0.000363   0.001901  -0.002823  -0.000087   0.000025   0.000027
    26  C    0.000266   0.000029  -0.000198  -0.000009   0.000001   0.000000
    27  C   -0.000007  -0.000430  -0.001041  -0.000024   0.000000   0.000056
    28  C    0.000007  -0.000001   0.000001   0.000000   0.000000   0.000000
    29  H    0.000062   0.000001  -0.000002  -0.000001   0.000000   0.000000
    30  C   -0.000001  -0.000101   0.000875   0.000001   0.000000   0.000002
    31  H    0.000001   0.001148   0.001633   0.000005   0.000001  -0.000060
    32  C   -0.000002   0.000002  -0.000014   0.000000   0.000000   0.000000
    33  H    0.000000   0.000000   0.000000   0.000000   0.000000   0.000000
    34  H    0.000000  -0.000001  -0.000034   0.000000   0.000000   0.000001
    35  H    0.000000   0.000000   0.000000   0.000000   0.000000   0.000000
             13         14         15         16         17         18
     1  C   -0.000012   0.036048  -0.085708  -0.029657   0.008187  -0.002684
     2  H   -0.000001  -0.062447  -0.004855   0.000976   0.000656  -0.000141
     3  C   -0.001547  -0.096590  -0.006738   0.000691  -0.001575   0.003991
     4  C    0.007493  -0.001628   0.000594  -0.000443  -0.000048   0.001690
     5  C    0.007890  -0.007366  -0.008429   0.001657  -0.000253  -0.000582
     6  C   -0.042571  -0.000418  -0.000107   0.000021   0.000014   0.000119
     7  H   -0.000185   0.000138   0.000297  -0.000035  -0.000008   0.000206
     8  C   -0.042915  -0.000560  -0.000331   0.000021  -0.000008  -0.000242
     9  H   -0.000172   0.001103   0.000240  -0.000100   0.000051  -0.000067
    10  C    0.399669   0.000046   0.000107  -0.000002   0.000002  -0.000089
    11  H   -0.004586   0.000011  -0.000002   0.000000   0.000000   0.000006
    12  H   -0.004471   0.000024   0.000017   0.000000   0.000001   0.000005
    13  H    0.517420   0.000001   0.000000   0.000000   0.000000   0.000001
    14  C    0.000001   5.352819   0.471055   0.501197  -0.056829  -0.045375
    15  C    0.000000   0.471055   5.123486  -0.083311   0.463877   0.397539
    16  C    0.000000   0.501197  -0.083311   5.095484  -0.030012   0.004451
    17  C    0.000000  -0.056829   0.463877  -0.030012   5.061449  -0.035136
    18  H    0.000001  -0.045375   0.397539   0.004451  -0.035136   0.490307
    19  C    0.000000  -0.069224  -0.033300   0.454426  -0.073951  -0.000464
    20  H    0.000000  -0.034761   0.004947   0.393833  -0.000429  -0.000197
    21  C    0.000000  -0.020552  -0.085082  -0.090130   0.480428   0.005227
    22  H    0.000000   0.006149  -0.038384  -0.000439   0.397106  -0.003879
    23  H    0.000000   0.006484  -0.000407  -0.036822   0.006007   0.000017
    24  H    0.000000  -0.001455   0.007440   0.007668  -0.043226  -0.000173
    25  C   -0.000003  -0.065902   0.011438  -0.012574  -0.000880   0.000824
    26  C    0.000000  -0.000574  -0.000268   0.000862   0.000009  -0.000006
    27  C    0.000000   0.006676   0.000801  -0.018102  -0.000022  -0.000041
    28  C    0.000000  -0.000768   0.000005   0.000357   0.000000   0.000000
    29  H    0.000000   0.000500   0.000013   0.000139  -0.000001  -0.000002
    30  C    0.000000   0.000792   0.000016  -0.001448   0.000000   0.000000
    31  H    0.000000   0.001353   0.000020   0.001590  -0.000048   0.000021
    32  C    0.000000  -0.000069   0.000000   0.000133   0.000000   0.000000
    33  H    0.000000   0.000024   0.000000  -0.000007   0.000000   0.000000
    34  H    0.000000   0.000018   0.000000   0.000005   0.000000   0.000000
    35  H    0.000000   0.000002   0.000000  -0.000003   0.000000   0.000000
             19         20         21         22         23         24
     1  C    0.012130  -0.011222   0.000408  -0.000355  -0.000361  -0.000014
     2  H   -0.000125  -0.000274   0.000033   0.000004   0.000014  -0.000002
     3  C   -0.000801   0.000412   0.000127   0.000015   0.000012   0.000002
     4  C    0.000007  -0.000017  -0.000003  -0.000005   0.000000   0.000000
     5  C    0.000050   0.000067   0.000035   0.000014   0.000000   0.000000
     6  C    0.000000   0.000000   0.000000  -0.000001   0.000000   0.000000
     7  H    0.000000   0.000001   0.000001   0.000000   0.000000   0.000000
     8  C    0.000005   0.000000   0.000002   0.000002   0.000000   0.000000
     9  H   -0.000093   0.000020  -0.000041   0.000005   0.000000   0.000001
    10  C    0.000000   0.000000   0.000000   0.000000   0.000000   0.000000
    11  H    0.000000   0.000000   0.000000   0.000000   0.000000   0.000000
    12  H    0.000000   0.000000   0.000000   0.000000   0.000000   0.000000
    13  H    0.000000   0.000000   0.000000   0.000000   0.000000   0.000000
    14  C   -0.069224  -0.034761  -0.020552   0.006149   0.006484  -0.001455
    15  C   -0.033300   0.004947  -0.085082  -0.038384  -0.000407   0.007440
    16  C    0.454426   0.393833  -0.090130  -0.000439  -0.036822   0.007668
    17  C   -0.073951  -0.000429   0.480428   0.397106   0.006007  -0.043226
    18  H   -0.000464  -0.000197   0.005227  -0.003879   0.000017  -0.000173
    19  C    5.078448  -0.036317   0.496017   0.005996   0.395580  -0.042127
    20  H   -0.036317   0.477214   0.005023   0.000017  -0.003508  -0.000170
    21  C    0.496017   0.005023   5.042661  -0.040824  -0.041232   0.399475
    22  H    0.005996   0.000017  -0.040824   0.517588  -0.000213  -0.004402
    23  H    0.395580  -0.003508  -0.041232  -0.000213   0.517792  -0.004463
    24  H   -0.042127  -0.000170   0.399475  -0.004402  -0.004463   0.519364
    25  C   -0.001545   0.000865   0.000120   0.000012   0.000058   0.000001
    26  C   -0.000116  -0.001110  -0.000004   0.000000   0.000004   0.000000
    27  C   -0.000930  -0.001082  -0.000017   0.000000   0.000027   0.000001
    28  C    0.000004  -0.000124   0.000000   0.000000   0.000000   0.000000
    29  H    0.000005   0.000085   0.000000   0.000000   0.000000   0.000000
    30  C   -0.000040   0.000347   0.000000   0.000000  -0.000001   0.000000
    31  H    0.000103   0.000022   0.000001  -0.000001   0.000000   0.000000
    32  C    0.000004   0.000098   0.000000   0.000000  -0.000001   0.000000
    33  H    0.000000   0.000011   0.000000   0.000000   0.000000   0.000000
    34  H   -0.000002   0.000039   0.000000   0.000000   0.000000   0.000000
    35  H    0.000000   0.000009   0.000000   0.000000   0.000000   0.000000
             25         26         27         28         29         30
     1  C    0.118561  -0.024554  -0.071262   0.008245  -0.002072   0.002517
     2  H   -0.075739   0.006492   0.004441   0.001463   0.002830  -0.000225
     3  C   -0.139880  -0.004376  -0.003222  -0.000594   0.000162   0.001978
     4  C   -0.002012   0.000612   0.000521  -0.000011   0.000196   0.000044
     5  C   -0.003448   0.000739  -0.011935   0.000053  -0.000025  -0.000100
     6  C   -0.000517  -0.000017   0.000129   0.000002  -0.000002   0.000001
     7  H    0.000363   0.000266  -0.000007   0.000007   0.000062  -0.000001
     8  C    0.001901   0.000029  -0.000430  -0.000001   0.000001  -0.000101
     9  H   -0.002823  -0.000198  -0.001041   0.000001  -0.000002   0.000875
    10  C   -0.000087  -0.000009  -0.000024   0.000000  -0.000001   0.000001
    11  H    0.000025   0.000001   0.000000   0.000000   0.000000   0.000000
    12  H    0.000027   0.000000   0.000056   0.000000   0.000000   0.000002
    13  H   -0.000003   0.000000   0.000000   0.000000   0.000000   0.000000
    14  C   -0.065902  -0.000574   0.006676  -0.000768   0.000500   0.000792
    15  C    0.011438  -0.000268   0.000801   0.000005   0.000013   0.000016
    16  C   -0.012574   0.000862  -0.018102   0.000357   0.000139  -0.001448
    17  C   -0.000880   0.000009  -0.000022   0.000000  -0.000001   0.000000
    18  H    0.000824  -0.000006  -0.000041   0.000000  -0.000002   0.000000
    19  C   -0.001545  -0.000116  -0.000930   0.000004   0.000005  -0.000040
    20  H    0.000865  -0.001110  -0.001082  -0.000124   0.000085   0.000347
    21  C    0.000120  -0.000004  -0.000017   0.000000   0.000000   0.000000
    22  H    0.000012   0.000000   0.000000   0.000000   0.000000   0.000000
    23  H    0.000058   0.000004   0.000027   0.000000   0.000000  -0.000001
    24  H    0.000001   0.000000   0.000001   0.000000   0.000000   0.000000
    25  C    5.392733   0.499207   0.451028  -0.076861  -0.045574  -0.064152
    26  C    0.499207   5.047597  -0.063180   0.468518   0.394430  -0.034054
    27  C    0.451028  -0.063180   5.098081  -0.029575   0.004765   0.480140
    28  C   -0.076861   0.468518  -0.029575   5.047041  -0.033766  -0.077309
    29  H   -0.045574   0.394430   0.004765  -0.033766   0.506507  -0.000288
    30  C   -0.064152  -0.034054   0.480140  -0.077309  -0.000288   5.046675
    31  H   -0.047732   0.004607   0.386280  -0.000131  -0.000270  -0.027062
    32  C   -0.016084  -0.088984  -0.093581   0.499653   0.005070   0.490328
    33  H    0.007024  -0.039460  -0.000633   0.396369  -0.004076   0.006273
    34  H    0.005978  -0.000376  -0.038552   0.005902   0.000025   0.397009
    35  H   -0.001678   0.007567   0.007985  -0.042558  -0.000179  -0.042954
             31         32         33         34         35
     1  C    0.000815   0.001713  -0.000411  -0.000371  -0.000026
     2  H   -0.000031   0.000005  -0.000034   0.000012  -0.000002
     3  C   -0.003687  -0.000057   0.000020   0.000027  -0.000003
     4  C   -0.000214  -0.000013   0.000001   0.000002   0.000000
     5  C    0.002006  -0.000004  -0.000001   0.000037   0.000001
     6  C   -0.000061   0.000000   0.000000   0.000000   0.000000
     7  H    0.000001  -0.000002   0.000000   0.000000   0.000000
     8  C    0.001148   0.000002   0.000000  -0.000001   0.000000
     9  H    0.001633  -0.000014   0.000000  -0.000034   0.000000
    10  C    0.000005   0.000000   0.000000   0.000000   0.000000
    11  H    0.000001   0.000000   0.000000   0.000000   0.000000
    12  H   -0.000060   0.000000   0.000000   0.000001   0.000000
    13  H    0.000000   0.000000   0.000000   0.000000   0.000000
    14  C    0.001353  -0.000069   0.000024   0.000018   0.000002
    15  C    0.000020   0.000000   0.000000   0.000000   0.000000
    16  C    0.001590   0.000133  -0.000007   0.000005  -0.000003
    17  C   -0.000048   0.000000   0.000000   0.000000   0.000000
    18  H    0.000021   0.000000   0.000000   0.000000   0.000000
    19  C    0.000103   0.000004   0.000000  -0.000002   0.000000
    20  H    0.000022   0.000098   0.000011   0.000039   0.000009
    21  C    0.000001   0.000000   0.000000   0.000000   0.000000
    22  H   -0.000001   0.000000   0.000000   0.000000   0.000000
    23  H    0.000000  -0.000001   0.000000   0.000000   0.000000
    24  H    0.000000   0.000000   0.000000   0.000000   0.000000
    25  C   -0.047732  -0.016084   0.007024   0.005978  -0.001678
    26  C    0.004607  -0.088984  -0.039460  -0.000376   0.007567
    27  C    0.386280  -0.093581  -0.000633  -0.038552   0.007985
    28  C   -0.000131   0.499653   0.396369   0.005902  -0.042558
    29  H   -0.000270   0.005070  -0.004076   0.000025  -0.000179
    30  C   -0.027062   0.490328   0.006273   0.397009  -0.042954
    31  H    0.497328   0.004638   0.000017  -0.003395  -0.000171
    32  C    0.004638   5.033695  -0.041046  -0.039804   0.399447
    33  H    0.000017  -0.041046   0.517936  -0.000206  -0.004557
    34  H   -0.003395  -0.039804  -0.000206   0.514439  -0.004368
    35  H   -0.000171   0.399447  -0.004557  -0.004368   0.516919
 Mulliken atomic charges:
              1
     1  C   -0.615473
     2  H    0.210544
     3  C    0.075356
     4  C   -0.198201
     5  C   -0.089125
     6  C   -0.165570
     7  H    0.167137
     8  C   -0.179217
     9  H    0.182502
    10  C   -0.156783
    11  H    0.162183
    12  H    0.163422
    13  H    0.163989
    14  C    0.080080
    15  C   -0.134965
    16  C   -0.160422
    17  C   -0.175361
    18  H    0.184674
    19  C   -0.183739
    20  H    0.206199
    21  C   -0.151672
    22  H    0.161594
    23  H    0.161010
    24  H    0.162080
    25  C    0.067326
    26  C   -0.173655
    27  C   -0.107292
    28  C   -0.165920
    29  H    0.171468
    30  C   -0.179261
    31  H    0.181276
    32  C   -0.155126
    33  H    0.162758
    34  H    0.163616
    35  H    0.164566
 Sum of Mulliken atomic charges =   0.00000
 Mulliken charges with hydrogens summed into heavy atoms:
              1
     1  C   -0.404929
     3  C    0.075356
     4  C   -0.031064
     5  C    0.093377
     6  C   -0.003387
     8  C   -0.015796
    10  C    0.007206
    14  C    0.080080
    15  C    0.049709
    16  C    0.045777
    17  C   -0.013767
    19  C   -0.022729
    21  C    0.010408
    25  C    0.067326
    26  C   -0.002187
    27  C    0.073984
    28  C   -0.003162
    30  C   -0.015644
    32  C    0.009440
 Sum of Mulliken charges with hydrogens summed into heavy atoms =   0.00000
 Electronic spatial extent (au):  <R**2>=           4932.5498
 Charge=              0.0000 electrons
 Dipole moment (field-independent basis, Debye):
    X=             -0.0937    Y=             -0.1658    Z=             -0.0193  Tot=              0.1914
 Quadrupole moment (field-independent basis, Debye-Ang):
   XX=           -107.7048   YY=           -113.3043   ZZ=           -106.7519
   XY=             -2.7439   XZ=             -1.0170   YZ=              2.6224
 Traceless Quadrupole moment (field-independent basis, Debye-Ang):
   XX=              1.5489   YY=             -4.0506   ZZ=              2.5017
   XY=             -2.7439   XZ=             -1.0170   YZ=              2.6224
 Octapole moment (field-independent basis, Debye-Ang**2):
  XXX=            -28.0787  YYY=              9.1944  ZZZ=              0.7129  XYY=             37.0877
  XXY=              1.4489  XXZ=             -3.2183  XZZ=             -9.8761  YZZ=            -18.3045
  YYZ=             12.1344  XYZ=             -1.4827
 Hexadecapole moment (field-independent basis, Debye-Ang**3):
 XXXX=          -3057.7812 YYYY=          -2911.9630 ZZZZ=           -669.0001 XXXY=             61.8887
 XXXZ=            -15.8860 YYYX=            -65.1430 YYYZ=             75.3789 ZZZX=              6.5988
 ZZZY=             -2.7746 XXYY=          -1017.4313 XXZZ=           -628.4719 YYZZ=           -634.6363
 XXYZ=            -10.0951 YYXZ=              9.8428 ZZXY=            -33.1524
 N-N= 1.290569561120D+03 E-N=-4.277212079601D+03  KE= 7.286000357503D+02
 PrsmSu:  requested number of processors reduced to:  10 ShMem   1 Linda.
 Calling FoFJK, ICntrl=      2127 FMM=F ISym2X=0 I1Cent= 0 IOpClX= 0 NMat=1 NMatS=1 NMatT=0.
 ***** Axes restored to original set *****
 -------------------------------------------------------------------
 Center     Atomic                   Forces (Hartrees/Bohr)
 Number     Number              X              Y              Z
 -------------------------------------------------------------------
      1        6          -0.005095417    0.022351066    0.003571761
      2        1           0.000065926   -0.024729431   -0.005735302
      3        6          -0.003230898    0.007610645   -0.011843270
      4        6          -0.001579549    0.005010541    0.002695207
      5        6           0.003971788   -0.009398511    0.005092908
      6        6          -0.004287942    0.008262926   -0.010092335
      7        1           0.004236252   -0.015975099   -0.005985210
      8        6           0.002960196   -0.011853881   -0.002220814
      9        1          -0.001286464    0.017839114   -0.021372993
     10        6          -0.001979873   -0.000223172   -0.013611187
     11        1           0.005450299   -0.012317484    0.009805070
     12        1          -0.003796309    0.015050067    0.006243992
     13        1           0.001603240    0.002776872    0.016493681
     14        6           0.013294124   -0.002288656    0.006751448
     15        6           0.000962864    0.004897663   -0.006881761
     16        6          -0.008922002   -0.004585567    0.006818121
     17        6           0.007741237    0.006379296   -0.007676266
     18        1           0.004865008   -0.009775531    0.015187287
     19        6           0.005819878   -0.005949478    0.009644646
     20        1           0.017232486    0.009603393   -0.010047799
     21        6           0.012053169   -0.002770192    0.005760198
     22        1          -0.012345757   -0.007010215    0.008779827
     23        1          -0.003297963    0.008804946   -0.013814146
     24        1          -0.015768143    0.001647249   -0.005043900
     25        6          -0.010301322    0.003866260    0.008308337
     26        6           0.001086804    0.005985964   -0.000008895
     27        6           0.005807203   -0.008305251   -0.007296048
     28        6          -0.010011016    0.004902758    0.008053808
     29        1          -0.000140949   -0.017824114   -0.000708703
     30        6           0.001344845   -0.012387863   -0.001687041
     31        1          -0.019515737    0.009059648    0.020410150
     32        6          -0.010291357   -0.004610593    0.007840958
     33        1           0.010886039   -0.008817587   -0.009050528
     34        1           0.000670177    0.016668211    0.000454883
     35        1           0.011799165    0.008106007   -0.008836084
 -------------------------------------------------------------------
 Cartesian Forces:  Max     0.024729431 RMS     0.009561634

 GradGradGradGradGradGradGradGradGradGradGradGradGradGradGradGradGradGrad
 Berny optimization.
 Internal  Forces:  Max     0.028773647 RMS     0.007794915
 Search for a local minimum.
 Step number   1 out of a maximum of  197
 All quantities printed in internal units (Hartrees-Bohrs-Radians)
 Mixed Optimization -- RFO/linear search
 Second derivative matrix not updated -- first step.
     Eigenvalues ---    0.00634   0.00648   0.00656   0.01533   0.01538
     Eigenvalues ---    0.01538   0.02136   0.02142   0.02146   0.02171
     Eigenvalues ---    0.02171   0.02173   0.02182   0.02183   0.02185
     Eigenvalues ---    0.02201   0.02202   0.02202   0.02209   0.02211
     Eigenvalues ---    0.02212   0.02215   0.02215   0.02216   0.02216
     Eigenvalues ---    0.02217   0.02217   0.02220   0.02221   0.02224
     Eigenvalues ---    0.04553   0.06392   0.06636   0.15997   0.15998
     Eigenvalues ---    0.16000   0.16000   0.16000   0.16000   0.16000
     Eigenvalues ---    0.16000   0.16000   0.16000   0.16000   0.16000
     Eigenvalues ---    0.16000   0.16000   0.16000   0.18867   0.19347
     Eigenvalues ---    0.22000   0.22000   0.22000   0.22000   0.22000
     Eigenvalues ---    0.22000   0.23466   0.23477   0.23478   0.24970
     Eigenvalues ---    0.24999   0.25000   0.31252   0.31356   0.31463
     Eigenvalues ---    0.31523   0.33516   0.33602   0.33954   0.34051
     Eigenvalues ---    0.34073   0.34087   0.34251   0.34252   0.34254
     Eigenvalues ---    0.34258   0.34265   0.34267   0.34278   0.34281
     Eigenvalues ---    0.34290   0.42373   0.42461   0.42479   0.42569
     Eigenvalues ---    0.42584   0.42604   0.46303   0.46391   0.46435
     Eigenvalues ---    0.46736   0.46748   0.46787   0.47193   0.47208
     Eigenvalues ---    0.47226   0.47356   0.47360   0.474331000.00000
     Eigenvalues --- 1000.000001000.000001000.000001000.000001000.00000
     Eigenvalues --- 1000.000001000.000001000.000001000.000001000.00000
     Eigenvalues --- 1000.000001000.000001000.000001000.000001000.00000
     Eigenvalues --- 1000.000001000.000001000.000001000.000001000.00000
     Eigenvalues --- 1000.000001000.000001000.000001000.000001000.00000
     Eigenvalues --- 1000.000001000.000001000.000001000.000001000.00000
     Eigenvalues --- 1000.000001000.000001000.000001000.000001000.00000
     Eigenvalues --- 1000.000001000.000001000.000001000.000001000.00000
     Eigenvalues --- 1000.000001000.000001000.000001000.000001000.00000
     Eigenvalues --- 1000.000001000.000001000.000001000.000001000.00000
     Eigenvalues --- 1000.000001000.000001000.000001000.000001000.00000
     Eigenvalues --- 1000.000001000.000001000.000001000.000001000.00000
     Eigenvalues --- 1000.000001000.000001000.000001000.000001000.00000
     Eigenvalues --- 1000.000001000.000001000.000001000.000001000.00000
     Eigenvalues --- 1000.000001000.000001000.000001000.000001000.00000
     Eigenvalues --- 1000.000001000.000001000.000001000.000001000.00000
     Eigenvalues --- 1000.000001000.000001000.000001000.000001000.00000
     Eigenvalues --- 1000.000001000.00000
 RFO step:  Lambda=-4.19444372D-02 EMin= 6.34425753D-03
 Linear search not attempted -- first point.
 Maximum step size (   0.300) exceeded in Quadratic search.
    -- Step size scaled by   0.591
 Iteration  1 RMS(Cart)=  0.12544915 RMS(Int)=  0.00302806
 Iteration  2 RMS(Cart)=  0.00611436 RMS(Int)=  0.00028102
 Iteration  3 RMS(Cart)=  0.00001065 RMS(Int)=  0.00028096
 Iteration  4 RMS(Cart)=  0.00000000 RMS(Int)=  0.00028096
 Variable       Old X    -DE/DX   Delta X   Delta X   Delta X     New X
                                 (Linear)    (Quad)   (Total)
    R1        2.12235  -0.02499   0.00000  -0.04166  -0.04166   2.08069
    R2        2.85338   0.02284   0.00000   0.03796   0.03796   2.89133
    R3        2.85137   0.02339   0.00000   0.03876   0.03876   2.89014
    R4        2.85025   0.02369   0.00000   0.03919   0.03919   2.88944
    R5        2.63906  -0.00436   0.00000  -0.00506  -0.00504   2.63401
    R6        2.63862  -0.00004   0.00000   0.00005   0.00007   2.63869
    R7        2.62769  -0.00220   0.00000  -0.00258  -0.00259   2.62511
    R8        2.07183  -0.01756   0.00000  -0.02711  -0.02711   2.04472
    R9        2.62542  -0.00457   0.00000  -0.00519  -0.00518   2.62024
   R10        2.08006  -0.02651   0.00000  -0.04144  -0.04144   2.03862
   R11        2.62738  -0.00871   0.00000  -0.01011  -0.01013   2.61725
   R12        2.06907  -0.01666   0.00000  -0.02560  -0.02560   2.04347
   R13        2.62883  -0.00541   0.00000  -0.00629  -0.00630   2.62253
   R14        2.06886  -0.01673   0.00000  -0.02570  -0.02570   2.04316
   R15        2.06858  -0.01680   0.00000  -0.02580  -0.02580   2.04278
   R16        2.64436  -0.00222   0.00000  -0.00258  -0.00257   2.64179
   R17        2.63511  -0.00246   0.00000  -0.00274  -0.00273   2.63238
   R18        2.62391  -0.00497   0.00000  -0.00576  -0.00576   2.61815
   R19        2.07244  -0.01868   0.00000  -0.02885  -0.02885   2.04358
   R20        2.62941  -0.00135   0.00000  -0.00147  -0.00147   2.62794
   R21        2.07408  -0.02206   0.00000  -0.03416  -0.03416   2.03991
   R22        2.63007  -0.00507   0.00000  -0.00598  -0.00598   2.62408
   R23        2.06903  -0.01669   0.00000  -0.02565  -0.02565   2.04338
   R24        2.62562  -0.00765   0.00000  -0.00881  -0.00882   2.61680
   R25        2.06909  -0.01671   0.00000  -0.02568  -0.02568   2.04341
   R26        2.06844  -0.01664   0.00000  -0.02554  -0.02554   2.04290
   R27        2.63968  -0.00432   0.00000  -0.00501  -0.00499   2.63469
   R28        2.63940   0.00087   0.00000   0.00117   0.00118   2.64058
   R29        2.62764  -0.00237   0.00000  -0.00280  -0.00280   2.62484
   R30        2.07207  -0.01783   0.00000  -0.02753  -0.02753   2.04454
   R31        2.62540  -0.00428   0.00000  -0.00481  -0.00481   2.62059
   R32        2.08154  -0.02877   0.00000  -0.04508  -0.04508   2.03646
   R33        2.62707  -0.00905   0.00000  -0.01053  -0.01054   2.61653
   R34        2.06896  -0.01668   0.00000  -0.02563  -0.02563   2.04334
   R35        2.62863  -0.00567   0.00000  -0.00658  -0.00660   2.62203
   R36        2.06881  -0.01669   0.00000  -0.02563  -0.02563   2.04318
   R37        2.06864  -0.01682   0.00000  -0.02584  -0.02584   2.04281
    A1        1.88321  -0.00855   0.00000  -0.04783  -0.04702   1.83619
    A2        1.82903   0.00371   0.00000  -0.00031  -0.00006   1.82897
    A3        1.87514  -0.01002   0.00000  -0.05137  -0.05046   1.82469
    A4        1.94419  -0.00337   0.00000   0.01174   0.00957   1.95376
    A5        1.93050   0.01535   0.00000   0.05431   0.05315   1.98365
    A6        1.99442   0.00099   0.00000   0.02188   0.01999   2.01441
    A7        2.08426  -0.00774   0.00000  -0.01564  -0.01569   2.06857
    A8        2.11796   0.01847   0.00000   0.03740   0.03734   2.15530
    A9        2.08095  -0.01073   0.00000  -0.02182  -0.02182   2.05914
   A10        2.09899   0.00735   0.00000   0.01618   0.01619   2.11518
   A11        2.09516  -0.00437   0.00000  -0.01011  -0.01012   2.08504
   A12        2.08903  -0.00299   0.00000  -0.00608  -0.00609   2.08295
   A13        2.10138   0.00422   0.00000   0.00947   0.00942   2.11080
   A14        2.07807   0.00369   0.00000   0.01238   0.01228   2.09035
   A15        2.10358  -0.00787   0.00000  -0.02145  -0.02155   2.08203
   A16        2.09769  -0.00026   0.00000  -0.00129  -0.00131   2.09638
   A17        2.09109   0.00035   0.00000   0.00128   0.00129   2.09239
   A18        2.09440  -0.00009   0.00000   0.00001   0.00002   2.09442
   A19        2.09607   0.00224   0.00000   0.00461   0.00460   2.10067
   A20        2.09172  -0.00101   0.00000  -0.00200  -0.00200   2.08972
   A21        2.09539  -0.00122   0.00000  -0.00261  -0.00261   2.09278
   A22        2.09127  -0.00281   0.00000  -0.00708  -0.00712   2.08415
   A23        2.09602   0.00139   0.00000   0.00350   0.00350   2.09952
   A24        2.09590   0.00142   0.00000   0.00359   0.00360   2.09950
   A25        2.06760   0.00045   0.00000   0.00083   0.00082   2.06842
   A26        2.13784   0.00748   0.00000   0.01507   0.01505   2.15289
   A27        2.07676  -0.00796   0.00000  -0.01613  -0.01611   2.06064
   A28        2.10346   0.00475   0.00000   0.01035   0.01036   2.11382
   A29        2.08440  -0.00132   0.00000  -0.00211  -0.00211   2.08229
   A30        2.09531  -0.00342   0.00000  -0.00825  -0.00825   2.08706
   A31        2.10135   0.00349   0.00000   0.00800   0.00800   2.10936
   A32        2.09286  -0.00010   0.00000   0.00083   0.00082   2.09368
   A33        2.08897  -0.00339   0.00000  -0.00882  -0.00883   2.08015
   A34        2.09652   0.00083   0.00000   0.00115   0.00114   2.09767
   A35        2.09190  -0.00040   0.00000  -0.00055  -0.00055   2.09136
   A36        2.09476  -0.00042   0.00000  -0.00060  -0.00060   2.09416
   A37        2.09926   0.00113   0.00000   0.00232   0.00231   2.10157
   A38        2.08877  -0.00048   0.00000  -0.00092  -0.00092   2.08785
   A39        2.09516  -0.00065   0.00000  -0.00140  -0.00140   2.09377
   A40        2.08901  -0.00224   0.00000  -0.00571  -0.00572   2.08329
   A41        2.09632   0.00117   0.00000   0.00299   0.00300   2.09931
   A42        2.09785   0.00107   0.00000   0.00272   0.00272   2.10058
   A43        2.07882  -0.01109   0.00000  -0.02241  -0.02243   2.05639
   A44        2.12547   0.02298   0.00000   0.04654   0.04652   2.17199
   A45        2.07887  -0.01188   0.00000  -0.02410  -0.02406   2.05481
   A46        2.10031   0.00816   0.00000   0.01788   0.01791   2.11821
   A47        2.09435  -0.00469   0.00000  -0.01074  -0.01076   2.08360
   A48        2.08853  -0.00346   0.00000  -0.00714  -0.00715   2.08137
   A49        2.10229   0.00455   0.00000   0.01028   0.01027   2.11256
   A50        2.07816   0.00439   0.00000   0.01442   0.01439   2.09254
   A51        2.10264  -0.00892   0.00000  -0.02453  -0.02456   2.07808
   A52        2.09775  -0.00019   0.00000  -0.00134  -0.00134   2.09641
   A53        2.09109   0.00026   0.00000   0.00117   0.00117   2.09226
   A54        2.09434  -0.00008   0.00000   0.00017   0.00017   2.09451
   A55        2.09647   0.00236   0.00000   0.00491   0.00489   2.10136
   A56        2.09143  -0.00110   0.00000  -0.00221  -0.00220   2.08923
   A57        2.09528  -0.00126   0.00000  -0.00269  -0.00268   2.09260
[...]
 126292,0.00033117,-0.00169266,-0.00014158,-0.00037450,-0.00009632,0.00
 037793,0.00018442,-0.00044374,0.00018828,-0.00010275,0.00028172,0.0000
 0137,-0.00000596,-0.00004602,-0.00050452,-0.00028291,0.00003893,-0.000
 06413,-0.00015099,0.00040178,0.00012249,0.00032295,-0.00014827,0.00001
 562,0.00002146,0.00004411,0.00002460,-0.00003072,-0.00002377,-0.000016
 51,-0.00001454,0.00000830,0.00442870,0.07305003,0.06771802,0.04745885,
 -0.00353655,-0.07646207,0.08968520,-0.00754335,-0.21115777,-0.05767043
 ,-0.08402960,0.00968108,0.00029664,0.00037411,-0.00100458,-0.19352895,
 0.16864362,0.59745131,-0.00193128,0.00211243,-0.00156541,0.00053243,0.
 00034732,-0.00015749,-0.00072572,-0.00115194,0.00076129,-0.00015237,-0
 .00021302,0.00026887,-0.00026241,-0.00047168,0.00031229,-0.00010430,-0
 .00017237,-0.00039726,0.00001585,0.00018176,-0.00001307,0.00009986,0.0
 0009445,0.00037517,-0.00029257,-0.00003743,0.00002240,-0.00020865,0.00
 017962,-0.00005185,-0.00000459,0.00003905,-0.00004340,0.00001129,-0.00
 000183,0.00000111,-0.00000242,0.00002634,-0.00004162,-0.00034639,-0.00
 044778,0.00033015,-0.00016045,0.00006545,-0.00005740,-0.00008292,-0.00
 014437,0.00016399,0.00002990,-0.00004897,0.00000846,-0.00000085,0.0000
 1399,-0.00000213,-0.00001845,0.00008013,-0.00003131,0.00008282,0.00000
 549,-0.00023531,0.00001301,0.00002290,-0.00001547,0.00000010,0.0000074
 5,-0.00001110,-0.00000254,-0.00000897,-0.00000184,0.00001907,0.0000066
 1,0.00000074,0.00990502,-0.00833915,-0.01406419,0.00286815,-0.00579064
 ,0.00236470,-0.08124327,0.03061274,0.07308769,-0.00088451,-0.00031944,
 -0.00047753,0.00017959,-0.00043026,-0.00074429,-0.00119003,0.01416234,
 0.02249603,0.07543726,0.00220719,-0.00049222,0.00043760,-0.00009813,0.
 00008171,0.00012224,-0.00068100,-0.00035700,0.00011342,0.00060450,-0.0
 0011578,0.00038288,-0.00012451,0.00053882,0.00019112,0.00015559,-0.000
 11213,0.00005030,-0.00007053,-0.00004234,-0.00003733,-0.00000189,0.000
 09300,0.00032342,-0.00000577,-0.00004223,-0.00000760,-0.00023511,0.000
 06436,-0.00009457,-0.00003351,0.00000095,-0.00002637,0.00005247,-0.000
 02823,-0.00004953,0.00000171,-0.00000210,-0.00005241,0.00010553,0.0003
 0394,-0.00012478,0.00007066,-0.00003901,0.00004467,0.00003948,0.000090
 89,-0.00000434,-0.00000039,-0.00000647,0.00002103,0.00000274,-0.000035
 50,-0.00001505,-0.00005143,-0.00000535,0.00002714,-0.00000128,-0.00004
 547,-0.00002552,0.00002026,0.00000959,-0.00000902,0.00000687,-0.000001
 21,0.00000142,0.00001560,-0.00001042,0.00000728,0.00000299,-0.00000809
 ,-0.00000309,0.00983834,-0.00889154,-0.02747988,-0.00597446,-0.0027998
 9,-0.00269097,0.03035709,-0.13965711,-0.12882065,-0.00047907,-0.000753
 27,0.00090155,0.00053598,-0.00072313,-0.00125417,-0.00602161,0.0116958
 7,0.01429098,-0.02786179,0.13988378,-0.00142423,0.00144818,-0.00170784
 ,0.00013870,0.00009334,-0.00013764,0.00117017,0.00195687,-0.00043578,0
 .00051132,0.00017148,0.00026923,0.00073773,0.00067887,-0.00056124,-0.0
 0007070,-0.00008622,-0.00015417,-0.00003731,-0.00002981,0.00002314,0.0
 0023367,0.00002239,0.00015826,-0.00027009,-0.00006882,0.00005449,-0.00
 025166,0.00004992,-0.00011042,0.00000920,-0.00000033,-0.00001098,-0.00
 001688,-0.00000249,0.00001808,-0.00000734,0.00000197,0.00000361,-0.000
 16939,-0.00044782,0.00042227,-0.00018783,0.00008761,-0.00006609,-0.000
 24281,-0.00019070,0.00026558,0.00002211,-0.00002671,0.00000278,0.00001
 153,0.00001725,-0.00000901,0.00001843,0.00010820,-0.00002845,0.0000641
 5,-0.00000267,-0.00031751,0.00000436,0.00000864,-0.00001530,-0.0000069
 5,0.00000460,-0.00001246,-0.00001908,-0.00000295,-0.00001459,0.0000162
 1,0.00000743,-0.00000539,0.00410497,-0.00189442,-0.00220140,0.00189245
 ,-0.00241024,0.00324841,0.07347929,-0.13082511,-0.27621863,-0.00035546
 ,0.00086024,0.00033711,0.00012547,-0.00007427,-0.00020651,0.00280503,-
 0.01320865,-0.01081473,-0.08551099,0.14172386,0.28828506,-0.00073946,0
 .00000112,-0.00097201,-0.00010069,0.00020022,0.00012585,-0.00006445,-0
 .00016113,-0.00007233,-0.00005793,0.00006664,0.00002295,0.00005121,-0.
 00008203,0.00005255,0.00000216,0.00003666,-0.00001918,-0.00003503,-0.0
 0000205,-0.00004778,0.00001052,-0.00001754,-0.00001490,-0.00000821,-0.
 00000506,-0.00000335,0.00001405,0.00003147,0.00005613,0.00000305,-0.00
 001833,0.00003869,-0.00000983,0.00000705,0.00001969,-0.00000436,0.0000
 0016,0.00001629,0.00005097,-0.00014851,0.00075891,-0.00018455,0.000148
 66,-0.00007600,-0.00010676,-0.00014530,-0.00001857,-0.00001025,-0.0000
 4087,-0.00003885,0.00002328,0.00001048,0.00001597,0.00003791,0.0000728
 0,-0.00002724,0.00000268,0.00001094,-0.00000896,-0.00005589,-0.0000201
 2,-0.00000302,-0.00003138,-0.00000604,-0.00001577,-0.00003142,0.000018
 22,-0.00000861,-0.00000455,0.00000728,-0.00000767,-0.00378965,-0.00478
 361,-0.00840278,-0.01792792,-0.03170485,0.00835820,-0.00020833,0.01660
 291,0.02914246,-0.16085857,-0.12499335,-0.01214304,0.00147896,-0.00433
 516,0.00629134,-0.14128516,0.02438101,0.09979140,0.00118254,-0.0051837
 2,0.00540681,0.51458530,-0.00164326,-0.00142240,-0.00042462,-0.0004964
 9,0.00092288,0.00025358,0.00018573,-0.00052686,0.00020978,0.00013953,0
 .00015380,-0.00035572,0.00003321,0.00021114,0.00040764,-0.00001117,0.0
 0024247,0.00034047,-0.00003867,-0.00009063,-0.00001530,-0.00016716,0.0
 0001629,-0.00030088,-0.00001772,-0.00000169,0.00001353,0.00023512,-0.0
 0023436,0.00004890,-0.00000745,0.00000514,0.00000942,-0.00000696,-0.00
 000714,0.00000790,0.00000064,-0.00000690,-0.00000431,-0.00026398,0.000
 27646,0.00130202,0.00022654,0.00035388,0.00020776,-0.00039722,-0.00002
 087,0.00020994,-0.00019811,0.00015536,-0.00029171,0.00001179,0.0000085
 6,0.00001036,0.00044755,0.00019317,0.00001816,-0.00005106,0.00006118,-
 0.00023084,-0.00017598,-0.00031377,0.00013095,-0.00001260,-0.00002769,
 -0.00004390,-0.00004233,0.00004540,0.00000950,-0.00000166,0.00000534,-
 0.00000935,-0.00305953,-0.07066648,-0.05309779,-0.06756739,-0.01212098
 ,0.07301170,0.05286927,0.07575554,-0.01064603,-0.07788713,-0.29570882,
 -0.09134847,-0.00383756,0.00284856,-0.00059808,-0.02271410,-0.19202775
 ,-0.07120779,-0.00551522,0.00161114,0.00030934,0.21916128,0.61953787,-
 0.00158240,-0.00064958,-0.00004074,-0.00008556,0.00071102,-0.00016188,
 0.00037680,-0.00023329,0.00027628,0.00009694,0.00005296,-0.00035995,-0
 .00001895,0.00024163,0.00021598,-0.00003434,0.00016797,0.00029703,-0.0
 0000713,-0.00005436,0.00000195,-0.00014768,0.00003563,-0.00022704,-0.0
 0002678,0.00001504,0.00001724,0.00018698,-0.00023467,-0.00003093,-0.00
 000892,0.00001932,-0.00001965,0.00000619,-0.00001804,-0.00001866,0.000
 00209,-0.00000164,-0.00002104,-0.00045938,0.00020986,0.00053907,0.0002
 9701,0.00006525,0.00023749,-0.00000187,0.00011411,0.00014765,-0.000121
 41,0.00013352,-0.00017600,-0.00001635,-0.00000261,0.00000236,0.0003052
 7,0.00015566,-0.00002058,0.00007515,0.00023990,-0.00031878,-0.00002889
 ,-0.00020663,0.00011866,0.00002447,-0.00001814,-0.00002041,0.00004173,
 -0.00001066,0.00002700,0.00001684,0.00000664,0.00000271,-0.00799939,-0
 .05225410,-0.04484337,-0.02496921,0.02220582,0.06630534,0.06293810,0.0
 3943509,-0.03938119,0.03114474,-0.02844659,-0.15164886,0.00656455,-0.0
 0005886,0.00004180,0.05584606,-0.13376721,-0.28393234,0.00539875,0.000
 00744,0.00143296,-0.25312924,0.11801543,0.62469829,-0.00003470,0.00077
 337,0.00077898,0.00007282,0.00001357,-0.00003893,-0.00039312,-0.000131
 32,0.00004929,0.00001716,-0.00001318,0.00007510,0.00002912,-0.00000641
 ,0.00004426,0.00000660,-0.00000140,-0.00005565,-0.00000234,0.00000334,
 -0.00000793,0.00003810,0.00001322,0.00003150,-0.00001381,-0.00000737,-
 0.00000052,-0.00003327,0.00003872,0.00002874,0.00000512,-0.00000433,0.
 00000609,-0.00000303,0.00001029,0.00001200,-0.00000138,0.00000071,0.00
 000817,0.00005702,-0.00005565,0.00015126,-0.00006755,0.00002105,-0.000
 02648,-0.00004493,0.00000405,-0.00004361,-0.00000176,-0.00001496,-0.00
 001447,0.00000740,0.00001456,0.00000767,-0.00000364,-0.00002165,-0.000
 01427,0.00001125,0.00000059,0.00004624,-0.00003433,-0.00000160,-0.0000
 2340,-0.00001310,0.00000049,0.00000227,-0.00001901,0.00002133,0.000000
 75,-0.00001128,0.00000420,0.00000463,0.00127988,-0.00547565,0.00519893
 ,-0.00098566,0.01464510,0.02231200,-0.00091824,-0.00047067,-0.00043844
 ,-0.08390795,0.03258146,0.07719317,-0.00187028,0.00186959,-0.00268912,
 0.00308482,-0.00576055,0.00215525,-0.00058647,0.00052148,-0.00040434,0
 .00957935,-0.00942222,-0.01422347,0.07635701,-0.00007940,0.00034789,0.
 00060557,0.00004992,-0.00003411,-0.00002408,-0.00004775,-0.00010924,0.
 00000729,0.00000156,0.00003132,-0.00000858,0.00000864,0.00003687,0.000
 02680,0.00000902,0.00001491,0.00002895,-0.00000298,-0.00001829,0.00000
 459,-0.00000345,0.00001587,-0.00002107,-0.00000960,-0.00000599,0.00000
 266,0.00002093,-0.00001675,0.00001103,-0.00000167,0.00000069,0.0000037
 2,-0.00000217,-0.00000480,0.00000140,-0.00000184,-0.00000381,-0.000002
 15,0.00007196,0.00002238,-0.00006784,-0.00000520,-0.00004075,-0.000014
 03,0.00001545,-0.00000902,0.00001112,0.00000743,-0.00000841,0.00001394
 ,-0.00000313,-0.00000191,0.00000342,-0.00001899,0.00002470,-0.00000282
 ,-0.00001864,-0.00000418,-0.00002448,0.00001725,0.00001348,0.00000034,
 0.00000230,0.00000274,0.00000291,0.00000910,-0.00001344,-0.00000126,0.
 00000730,-0.00000033,-0.00000138,-0.00524095,0.00161110,-0.00002838,-0
 .00632568,0.01157786,0.01385631,-0.00045583,-0.00063755,0.00090393,0.0
 3272748,-0.14018804,-0.12782247,0.00250896,-0.00025863,0.00117528,-0.0
 0602791,-0.00285394,-0.00252622,0.00048900,-0.00026954,0.00026210,0.01
 139219,-0.00833292,-0.02794656,-0.03125654,0.13995534,-0.00016014,-0.0
 0073212,-0.00061729,0.00001814,0.00006674,-0.00001192,0.00021380,0.000
 20979,0.00006765,0.00003309,-0.00005549,-0.00004970,-0.00003742,0.0000
 0477,-0.00010330,0.00001012,-0.00002478,-0.00000125,0.00000869,-0.0000
 0093,0.00001683,-0.00001052,-0.00000295,0.00002851,-0.00000529,0.00000
 271,0.00000623,-0.00001603,0.00000837,-0.00002944,-0.00001335,0.000001
 96,-0.00002095,0.00000549,-0.00001082,-0.00001304,-0.00000083,-0.00000
 257,-0.00001448,-0.00012344,0.00006273,-0.00012878,0.00007707,-0.00001
 249,0.00006437,0.00002979,-0.00003380,0.00004082,0.00001229,0.00001616
 ,0.00000646,-0.00001073,-0.00000588,-0.00001146,-0.00000106,0.00001509
 ,-0.00001249,-0.00002312,0.00003495,-0.00002169,0.00002201,0.00000837,
 0.00000939,0.00002177,0.00000503,-0.00000478,0.00000901,-0.00001300,0.
 00000426,0.00001648,-0.00000081,0.00000239,0.00571536,0.00026346,0.001
 69974,0.00304920,-0.01401633,-0.01138175,-0.00030895,0.00093043,0.0003
 5432,0.07725925,-0.12763280,-0.26989932,-0.00203536,0.00211484,-0.0005
 1236,0.00185351,-0.00292282,0.00349389,-0.00046144,0.00025552,-0.00040
 654,0.00492384,-0.00024017,-0.00133100,-0.08765326,0.14076442,0.279580
 94,-0.00021091,-0.00082238,-0.00050504,-0.00028407,-0.00014426,0.00018
 362,0.00001811,-0.00001100,-0.00027556,0.00003647,0.00000929,0.0000090
 7,0.00003315,0.00004360,0.00009275,-0.00001231,0.00001684,0.00001483,-
 0.00001546,0.00001965,-0.00000766,-0.00000666,0.00001723,-0.00002398,-
 0.00001863,-0.00001419,-0.00000898,0.00002600,0.00000058,0.00003532,0.
 00000272,-0.00000052,0.00000531,-0.00001746,0.00000544,0.00002128,-0.0
 0000213,-0.00000145,0.00001129,0.00011259,-0.00014403,0.00015672,-0.00
 010906,0.00004024,-0.00006200,-0.00011359,-0.00000387,0.00002335,-0.00
 000406,-0.00000621,0.00000220,0.00001483,0.00001643,-0.00001179,0.0000
 0762,-0.00000149,0.00001103,0.00003743,-0.00005094,-0.00000260,-0.0000
 2375,0.00000453,-0.00001093,-0.00001403,-0.00000057,-0.00000261,-0.000
 02433,0.00001001,-0.00001816,-0.00000756,-0.00000044,-0.00000590,0.001
 40217,-0.00363174,0.00633065,-0.00069125,0.00075438,0.00035007,-0.0047
 8097,-0.02370813,-0.00834492,0.00419301,-0.00144833,0.00503844,-0.0006
 0834,0.00036792,-0.00052690,-0.11501493,-0.11922770,-0.02233693,-0.001
 85163,0.00249586,-0.00190395,0.00952954,0.01064709,0.00471496,0.000164
 72,0.00049991,0.00011828,0.11011793,0.00021660,-0.00040685,-0.00054200
 ,-0.00012680,-0.00010835,0.00007225,-0.00008098,-0.00003033,-0.0001320
 1,-0.00000186,0.00001537,0.00007512,0.00002966,-0.00002683,0.00001988,
 0.00001068,0.00000830,-0.00003907,-0.00002102,-0.00000244,-0.00002213,
 0.00002669,0.00000586,0.00001997,0.00000358,-0.00001260,-0.00001114,-0
 .00000335,0.00004693,0.00004448,0.00000482,-0.00001975,0.00002642,-0.0
 0001206,0.00000525,0.00001630,-0.00000698,-0.00000192,0.00002035,0.000
 00544,-0.00006464,0.00018629,-0.00007193,0.00004679,-0.00002432,-0.000
 04208,0.00004150,-0.00002692,-0.00001540,-0.00000518,-0.00001516,0.000
 01290,0.00000393,0.00000080,0.00001121,-0.00001948,0.00002082,0.000018
 47,-0.00004390,0.00000608,-0.00002339,-0.00001047,0.00000064,-0.000016
 63,-0.00000904,-0.00000358,-0.00000763,0.00000760,-0.00001291,-0.00001
 481,-0.00000096,-0.00000441,-0.00418422,0.00267310,0.00002414,0.000709
 52,0.00062146,0.00052151,-0.00299451,-0.00634938,-0.00708596,-0.001135
 74,0.00215796,-0.00482993,0.00037606,-0.00040629,0.00030456,-0.1191380
 6,-0.29433460,-0.06961419,0.00187794,-0.00024762,0.00193469,-0.0100994
 9,-0.00898147,-0.00010364,-0.00036600,-0.00069399,-0.00006811,0.132558
 52,0.30643435,0.00008776,0.00079206,0.00046885,0.00012335,0.00014733,-
 0.00009250,-0.00004131,-0.00001589,0.00011145,-0.00000721,-0.00001040,
 -0.00003931,-0.00000994,-0.00002297,0.00002608,-0.00001855,0.00000291,
 0.00001298,0.00000991,0.00001261,0.00000223,-0.00001412,-0.00001513,-0
 .00002686,0.00000774,0.00000910,0.00000368,-0.00000132,-0.00002798,-0.
 00003196,0.00000179,0.00000868,-0.00001117,0.00000709,0.00000425,-0.00
 000631,0.00000583,0.00000459,-0.00000489,0.00002818,0.00004000,-0.0000
 8969,0.00003756,-0.00000376,-0.00000565,-0.00001616,-0.00002795,0.0000
 1763,0.00000877,0.00000684,0.00001032,-0.00000266,-0.00000540,-0.00000
 401,0.00000324,-0.00000527,0.00001065,0.00001419,-0.00001354,0.0000075
 9,0.00000516,0.00000419,-0.00000140,0.00000405,0.00000310,0.00000221,-
 0.00000510,0.00000017,-0.00000180,0.00000131,-0.00000176,-0.00000120,0
 .00636902,-0.00026512,-0.00008167,0.00038970,0.00040133,-0.00115698,0.
 01089725,0.02062374,0.01013227,0.00525057,-0.00445755,-0.00227674,-0.0
 0051290,0.00030946,-0.00027196,-0.02227324,-0.06983917,-0.08438038,-0.
 00264319,0.00115753,-0.00033974,-0.01470704,-0.02782965,-0.00071721,-0
 .00067300,-0.00126252,-0.00031657,0.01958547,0.07814067,0.07949189,-0.
 00057835,0.00035075,-0.00036046,0.00002094,0.00012259,0.00002032,-0.00
 006091,-0.00001466,-0.00001533,-0.00003412,-0.00001921,0.00002188,0.00
 001597,-0.00004100,0.00002666,-0.00002001,0.00000718,-0.00001659,-0.00
 000110,0.00001806,-0.00000850,0.00000664,-0.00001141,-0.00001643,0.000
 00814,0.00000630,-0.00000642,0.00000500,0.00000661,0.00001316,0.000008
 46,-0.00000111,0.00000457,-0.00000705,0.00000797,0.00000889,0.00000139
 ,0.00000350,0.00001097,-0.00002420,-0.00010579,0.00013628,-0.00005888,
 0.00003522,-0.00003975,-0.00004628,0.00001164,-0.00002462,-0.00001108,
 -0.00000299,-0.00001037,0.00000848,0.00000694,-0.00000203,0.00002123,-
 0.00002997,0.00001818,0.00003581,-0.00003262,0.00003708,-0.00002222,-0
 .00000882,-0.00000419,-0.00001288,-0.00000362,-0.00000075,-0.00001743,
 0.00001621,-0.00000755,-0.00001389,-0.00000035,-0.00000147,0.00013028,
 0.00057106,-0.00089096,0.00413077,-0.00498656,0.00148712,0.00492488,-0
 .00146863,0.00408394,-0.00500580,-0.00236709,0.01125477,-0.00049116,-0
 .00016756,0.00041382,-0.00155811,-0.00672041,0.00280104,-0.00032507,-0
 .00021011,0.00012741,-0.21103713,-0.09042278,0.13482431,-0.00176449,0.
 00166333,-0.00253627,-0.00188516,0.00250088,-0.00191222,0.21365734,0.0
 0042427,-0.00017899,0.00031218,-0.00000702,-0.00001622,-0.00007189,-0.
 00004483,0.00000230,-0.00005331,0.00003074,0.00001374,0.00002795,0.000
 01280,0.00003339,0.00003904,0.00000195,0.00000277,-0.00000550,-0.00001
 125,-0.00000046,-0.00001228,0.00000209,0.00000692,0.00001580,-0.000001
 63,-0.00000855,-0.00000218,-0.00000695,0.00000369,0.00000800,0.0000021
 1,-0.00000322,0.00000786,-0.00000013,0.00000294,0.00000346,-0.00000071
 ,0.00000129,0.00000417,0.00007077,0.00006128,0.00000820,0.00001725,0.0
 0001394,0.00001093,-0.00001442,0.00001618,0.00001298,0.00000013,0.0000
 1267,-0.00000528,0.00000560,-0.00000183,-0.00000521,0.00001019,-0.0000
 0342,0.00000787,-0.00000165,-0.00001470,-0.00001650,-0.00000484,-0.000
 00920,0.00000019,-0.00000434,-0.00000493,0.00000070,0.00000045,0.00000
 342,-0.00000244,-0.00000668,0.00000013,-0.00000233,0.00047473,-0.00097
 258,-0.00061194,-0.00465501,-0.00288411,-0.00441218,-0.00178530,0.0007
 7100,-0.00532818,-0.02327885,-0.00540561,0.02142730,-0.00103730,-0.000
 58473,0.00096716,0.01411132,0.01184276,-0.01276404,0.00062982,0.000311
 60,-0.00047577,-0.09040191,-0.11191344,0.06217427,0.00247239,-0.000149
 52,0.00101055,0.00170972,-0.00029233,0.00213553,0.10128645,0.10934382,
 -0.00051942,0.00025618,-0.00020260,0.00006117,0.00014321,0.00000125,0.
 00003644,0.00003470,0.00004933,0.00003077,-0.00002733,-0.00000048,-0.0
 0000209,0.00004014,-0.00005142,0.00001087,-0.00001606,0.00000489,0.000
 00284,-0.00000297,0.00001405,0.00000354,0.00002168,0.00003108,-0.00002
 369,-0.00000386,0.00000600,-0.00001368,0.00000226,-0.00000518,-0.00000
 726,0.00000819,-0.00001447,0.00000275,-0.00000928,-0.00000561,-0.00000
 022,-0.00000208,-0.00001387,-0.00007777,-0.00003483,0.00001105,0.00000
 115,-0.00000891,0.00000397,0.00000471,-0.00003785,0.00002650,0.0000047
 3,-0.00000514,0.00000495,-0.00000432,0.00000046,-0.00000194,-0.0000022
 5,0.00002043,-0.00001598,-0.00001222,0.00002019,-0.00002204,0.00000892
 ,0.00000479,-0.00000089,0.00000749,0.00000507,-0.00000186,0.00000014,-
 0.00000353,0.00000507,0.00000986,0.00000135,0.00000256,-0.00079013,-0.
 00062734,-0.00049855,0.00179603,-0.00391661,0.00267751,0.00371639,-0.0
 0584180,-0.00145406,-0.00795999,-0.00634704,0.00982161,-0.00034644,-0.
 00019231,0.00020685,0.02232438,0.01499069,-0.01075732,0.00093464,0.000
 63589,-0.00074657,0.13469524,0.06212824,-0.17109222,-0.00179938,0.0020
 6807,-0.00048771,-0.00265671,0.00110049,-0.00043982,-0.14943649,-0.064
 40510,0.17294591||0.00000199,0.00000040,-0.00001565,0.00000008,-0.0000
 0350,0.00000113,-0.00000192,0.00000250,0.00000398,-0.00000419,0.000001
 52,-0.00000295,0.00000068,0.00000123,0.00000395,0.00000002,0.00000610,
 0.00000334,-0.00000011,-0.00000093,0.00000052,0.00000062,-0.00000015,-
 0.00000352,-0.00000121,-0.00000108,0.00000174,0.00000266,-0.00000502,0
 .00000084,0.,-0.00000081,0.00000022,0.00000005,0.00000019,-0.00000005,
 0.00000005,-0.00000025,0.00000071,0.00000746,0.00003676,-0.00000710,-0
 .00004717,-0.00002207,-0.00000967,0.00004016,-0.00002963,0.00002180,0.
 00003726,-0.00002734,0.00002634,0.00000277,0.00000339,-0.00000015,-0.0
 0004931,-0.00001729,-0.00000771,-0.00000160,0.00000303,-0.00000085,0.0
 0001421,0.00004906,-0.00001838,-0.00000413,0.00000279,-0.00000281,0.00
 000401,0.00000199,0.00000071,-0.00000137,-0.00000543,0.00000165,0.0000
 0449,0.00002683,0.00003684,0.00001555,0.00000278,-0.00003853,-0.000027
 42,-0.00002453,0.00000073,-0.00001840,-0.00002858,0.00001219,-0.000001
 66,0.00000015,0.00000246,0.00002389,-0.00000367,-0.00002796,0.00000296
 ,0.00000204,-0.00000411,-0.00000026,0.00002952,0.00002031,0.00000143,0
 .00000167,-0.00000136,-0.00000121,0.00000027,0.00000288,-0.00000037,-0
 .00000193,-0.00000156|||@


 THESE ARE THE TIMES THAT TRY MENS SOULS.
 THE SUMMER SOLDIER AND THE SUNSHINE PATRIOT WILL IN THIS CRISIS,
 SHRINK FROM THE SERVICE OF HIS COUNTRY.  BUT HE THAT STANDS NOW,
 DESERVES THE LOVE AND THANKS OF MAN AND WOMAN.
 TYRANNY, LIKE HELL, IS NOT EASILY CONQUERED,
 YET WE HAVE THIS CONSOLATION WITH US,
 THAT THE HARDER THE CONFLICT, THE MORE GLORIOUS THE TRIUMPH.
 WHAT WE OBTAIN TOO CHEAP, WE ESTEEM TOO LIGHTLY, 
 'TIS DEARNESS ONLY THAT GIVES EVERYTHING ITS VALUE.

                                              -- TOM PAINE
 Job cpu time:  0 days  0 hours  6 minutes 17.0 seconds.
 File lengths (MBytes):  RWF=    350 Int=      0 D2E=      0 Chk=      7 Scr=      1
 Normal termination of Gaussian 09 at Tue Sep 07 00:40:32 2021.
