 Entering Link 1 = b:\programy\g09w\l1.exe PID=      3124.
  
 Copyright (c) 1988,1990,1992,1993,1995,1998,2003,2009, Gaussian, Inc.
                  All Rights Reserved.
  
 This is part of the Gaussian(R) 09 program.  It is based on
 the Gaussian(R) 03 system (copyright 2003, Gaussian, Inc.),
 the Gaussian(R) 98 system (copyright 1998, Gaussian, Inc.),
 the Gaussian(R) 94 system (copyright 1995, Gaussian, Inc.),
 the Gaussian 92(TM) system (copyright 1992, Gaussian, Inc.),
 the Gaussian 90(TM) system (copyright 1990, Gaussian, Inc.),
 the Gaussian 88(TM) system (copyright 1988, Gaussian, Inc.),
 the Gaussian 86(TM) system (copyright 1986, Carnegie Mellon
 University), and the Gaussian 82(TM) system (copyright 1983,
 Carnegie Mellon University). Gaussian is a federally registered
 trademark of Gaussian, Inc.
  
 This software contains proprietary and confidential information,
 including trade secrets, belonging to Gaussian, Inc.
  
 This software is provided under written license and may be
 used, copied, transmitted, or stored only in accord with that
 written license.
  
 The following legend is applicable only to US Government
 contracts under FAR:
  
                    RESTRICTED RIGHTS LEGEND
  
 Use, reproduction and disclosure by the US Government is
 subject to restrictions as set forth in subparagraphs (a)
 and (c) of the Commercial Computer Software - Restricted
 Rights clause in FAR 52.227-19.
  
 Gaussian, Inc.
 340 Quinnipiac St., Bldg. 40, Wallingford CT 06492
  
  
 ---------------------------------------------------------------
 Warning -- This program may not be used in any manner that
 competes with the business of Gaussian, Inc. or will provide
 assistance to any competitor of Gaussian, Inc.  The licensee
 of this program is prohibited from giving any competitor of
 Gaussian, Inc. access to this program.  By using this program,
 the user acknowledges that Gaussian, Inc. is engaged in the
 business of creating and licensing software in the field of
 computational chemistry and represents and warrants to the
 licensee that it is not a competitor of Gaussian, Inc. and that
 it will not use this program in any manner prohibited above.
 ---------------------------------------------------------------
  

 Cite this work as:
 Gaussian 09, Revision A.02,
 M. J. Frisch, G. W. Trucks, H. B. Schlegel, G. E. Scuseria, 
 M. A. Robb, J. R. Cheeseman, G. Scalmani, V. Barone, B. Mennucci, 
 G. A. Petersson, H. Nakatsuji, M. Caricato, X. Li, H. P. Hratchian, 
 A. F. Izmaylov, J. Bloino, G. Zheng, J. L. Sonnenberg, M. Hada, 
 M. Ehara, K. Toyota, R. Fukuda, J. Hasegawa, M. Ishida, T. Nakajima, 
 Y. Honda, O. Kitao, H. Nakai, T. Vreven, J. A. Montgomery, Jr., 
 J. E. Peralta, F. Ogliaro, M. Bearpark, J. J. Heyd, E. Brothers, 
 K. N. Kudin, V. N. Staroverov, R. Kobayashi, J. Normand, 
 K. Raghavachari, A. Rendell, J. C. Burant, S. S. Iyengar, J. Tomasi, 
 M. Cossi, N. Rega, J. M. Millam, M. Klene, J. E. Knox, J. B. Cross, 
 V. Bakken, C. Adamo, J. Jaramillo, R. Gomperts, R. E. Stratmann, 
 O. Yazyev, A. J. Austin, R. Cammi, C. Pomelli, J. W. Ochterski, 
 R. L. Martin, K. Morokuma, V. G. Zakrzewski, G. A. Voth, 
 P. Salvador, J. J. Dannenberg, S. Dapprich, A. D. Daniels, 
 O. Farkas, J. B. Foresman, J. V. Ortiz, J. Cioslowski, 
 and D. J. Fox, Gaussian, Inc., Wallingford CT, 2009.
 
 ******************************************
 Gaussian 09:  IA32W-G09RevA.02 11-Jun-2009
                06-Sep-2021 
 ******************************************
 %nprocshared=12
 Will use up to   12 processors via shared memory.
 ----------------------------------------------
 # opt freq=noraman hf/6-311g geom=connectivity
 ----------------------------------------------
 1/18=20,19=15,38=1,57=2/1,3;
 2/9=110,12=2,17=6,18=5,40=1/2;
 3/5=4,6=6,11=9,16=1,25=1,30=1,71=1/1,2,3;
 4//1;
 5/5=2,38=5/2;
 6/7=2,8=2,9=2,10=2,28=1/1;
 7//1,2,3,16;
 1/18=20,19=15/3(2);
 2/9=110/2;
 99//99;
 2/9=110/2;
 3/5=4,6=6,11=9,16=1,25=1,30=1,71=1/1,2,3;
 4/5=5,16=3/1;
 5/5=2,38=5/2;
 7//1,2,3,16;
 1/18=20,19=15/3(-5);
 2/9=110/2;
 6/7=2,8=2,9=2,10=2,19=2,28=1/1;
 99/9=1/99;
 -----
 M0001
 -----
 Symbolic Z-matrix:
 Charge =  0 Multiplicity = 1
 C                    -0.2172    0.02848  -0.73697 
 H                    -0.50812   0.1284   -1.81802 
 C                    -0.36534  -1.43242  -0.39133 
 C                    -0.40926  -2.3609   -1.43593 
 C                    -0.4558   -1.89153   0.92379 
 C                    -0.54235  -3.71802  -1.16796 
 H                    -0.33722  -2.01962  -2.47553 
 C                    -0.59243  -3.24915   1.19002 
 H                    -0.42583  -1.1678    1.75427 
 C                    -0.63538  -4.16548   0.14557 
 H                    -0.57471  -4.4357   -1.99424 
 H                    -0.66696  -3.59497   2.22616 
 H                    -0.74257  -5.23439   0.35567 
 C                     1.20662   0.51958  -0.62932 
 C                     2.10359   0.02408   0.31648 
 C                     1.6332    1.51679  -1.51233 
 C                     3.40373   0.51464   0.37879 
 H                     1.78621  -0.76443   1.0107 
 C                     2.93142   2.00696  -1.44674 
 H                     0.93917   1.91881  -2.25968 
 C                     3.82036   1.5065   -0.50084 
 H                     4.09957   0.1155    1.12386 
 H                     3.25466   2.78871  -2.14176 
 H                     4.84353   1.89214  -0.45061 
 C                    -1.14095   0.92262   0.0534 
 C                    -2.19338   1.56285  -0.60542 
 C                    -0.96116   1.14454   1.41965 
 C                    -3.04458   2.4132    0.09124 
 H                    -2.35098   1.39662  -1.67767 
 C                    -1.81021   1.99783   2.11396 
 H                    -0.1495    0.61631   1.94252 
 C                    -2.85292   2.63526   1.45049 
 H                    -3.867     2.90992  -0.43361 
 H                    -1.65673   2.1665    3.18465 
 H                    -3.52149   3.30819   1.99673 
 

 GradGradGradGradGradGradGradGradGradGradGradGradGradGradGradGradGradGrad
 Berny optimization.
 Initialization pass.
                           ----------------------------
                           !    Initial Parameters    !
                           ! (Angstroms and Degrees)  !
 --------------------------                            --------------------------
 ! Name  Definition              Value          Derivative Info.                !
 --------------------------------------------------------------------------------
 ! R1    R(1,2)                  1.124          estimate D2E/DX2                !
 ! R2    R(1,3)                  1.5085         estimate D2E/DX2                !
 ! R3    R(1,14)                 1.51           estimate D2E/DX2                !
 ! R4    R(1,25)                 1.5091         estimate D2E/DX2                !
 ! R5    R(3,4)                  1.3983         estimate D2E/DX2                !
 ! R6    R(3,5)                  1.3959         estimate D2E/DX2                !
 ! R7    R(4,6)                  1.3897         estimate D2E/DX2                !
 ! R8    R(4,7)                  1.0966         estimate D2E/DX2                !
 ! R9    R(5,8)                  1.3902         estimate D2E/DX2                !
 ! R10   R(5,9)                  1.102          estimate D2E/DX2                !
 ! R11   R(6,10)                 1.3908         estimate D2E/DX2                !
 ! R12   R(6,11)                 1.0949         estimate D2E/DX2                !
 ! R13   R(8,10)                 1.3901         estimate D2E/DX2                !
 ! R14   R(8,12)                 1.0949         estimate D2E/DX2                !
 ! R15   R(10,13)                1.0946         estimate D2E/DX2                !
 ! R16   R(14,15)                1.3945         estimate D2E/DX2                !
 ! R17   R(14,16)                1.3986         estimate D2E/DX2                !
 ! R18   R(15,17)                1.391          estimate D2E/DX2                !
 ! R19   R(15,18)                1.0975         estimate D2E/DX2                !
 ! R20   R(16,19)                1.3892         estimate D2E/DX2                !
 ! R21   R(16,20)                1.0963         estimate D2E/DX2                !
 ! R22   R(17,21)                1.3896         estimate D2E/DX2                !
 ! R23   R(17,22)                1.0948         estimate D2E/DX2                !
 ! R24   R(19,21)                1.3912         estimate D2E/DX2                !
 ! R25   R(19,23)                1.0948         estimate D2E/DX2                !
 ! R26   R(21,24)                1.0946         estimate D2E/DX2                !
 ! R27   R(25,26)                1.397          estimate D2E/DX2                !
 ! R28   R(25,27)                1.3958         estimate D2E/DX2                !
 ! R29   R(26,28)                1.3903         estimate D2E/DX2                !
 ! R30   R(26,29)                1.0965         estimate D2E/DX2                !
 ! R31   R(27,30)                1.3896         estimate D2E/DX2                !
 ! R32   R(27,31)                1.1005         estimate D2E/DX2                !
 ! R33   R(28,32)                1.3905         estimate D2E/DX2                !
 ! R34   R(28,33)                1.0948         estimate D2E/DX2                !
 ! R35   R(30,32)                1.3906         estimate D2E/DX2                !
 ! R36   R(30,34)                1.0947         estimate D2E/DX2                !
 ! R37   R(32,35)                1.0946         estimate D2E/DX2                !
 ! A1    A(2,1,3)              106.3233         estimate D2E/DX2                !
 ! A2    A(2,1,14)             106.4826         estimate D2E/DX2                !
 ! A3    A(2,1,25)             107.0148         estimate D2E/DX2                !
 ! A4    A(3,1,14)             113.0313         estimate D2E/DX2                !
 ! A5    A(3,1,25)             113.1832         estimate D2E/DX2                !
 ! A6    A(14,1,25)            110.3126         estimate D2E/DX2                !
 ! A7    A(1,3,4)              118.357          estimate D2E/DX2                !
 ! A8    A(1,3,5)              122.7352         estimate D2E/DX2                !
 ! A9    A(4,3,5)              118.9075         estimate D2E/DX2                !
 ! A10   A(3,4,6)              120.4909         estimate D2E/DX2                !
 ! A11   A(3,4,7)              119.9689         estimate D2E/DX2                !
 ! A12   A(6,4,7)              119.5401         estimate D2E/DX2                !
 ! A13   A(3,5,8)              120.5297         estimate D2E/DX2                !
 ! A14   A(3,5,9)              119.4878         estimate D2E/DX2                !
 ! A15   A(8,5,9)              119.9809         estimate D2E/DX2                !
 ! A16   A(4,6,10)             120.1797         estimate D2E/DX2                !
 ! A17   A(4,6,11)             119.829          estimate D2E/DX2                !
 ! A18   A(10,6,11)            119.9913         estimate D2E/DX2                !
 ! A19   A(5,8,10)             120.191          estimate D2E/DX2                !
 ! A20   A(5,8,12)             119.7601         estimate D2E/DX2                !
 ! A21   A(10,8,12)            120.0489         estimate D2E/DX2                !
 ! A22   A(6,10,8)             119.7007         estimate D2E/DX2                !
 ! A23   A(6,10,13)            120.1333         estimate D2E/DX2                !
 ! A24   A(8,10,13)            120.166          estimate D2E/DX2                !
 ! A25   A(1,14,15)            122.6365         estimate D2E/DX2                !
 ! A26   A(1,14,16)            118.326          estimate D2E/DX2                !
 ! A27   A(15,14,16)           119.0365         estimate D2E/DX2                !
 ! A28   A(14,15,17)           120.4157         estimate D2E/DX2                !
 ! A29   A(14,15,18)           119.8885         estimate D2E/DX2                !
 ! A30   A(17,15,18)           119.6934         estimate D2E/DX2                !
 ! A31   A(14,16,19)           120.4504         estimate D2E/DX2                !
 ! A32   A(14,16,20)           119.9192         estimate D2E/DX2                !
 ! A33   A(19,16,20)           119.63           estimate D2E/DX2                !
 ! A34   A(15,17,21)           120.2377         estimate D2E/DX2                !
 ! A35   A(15,17,22)           119.7333         estimate D2E/DX2                !
 ! A36   A(21,17,22)           120.029          estimate D2E/DX2                !
 ! A37   A(16,19,21)           120.152          estimate D2E/DX2                !
 ! A38   A(16,19,23)           119.859          estimate D2E/DX2                !
 ! A39   A(21,19,23)           119.9891         estimate D2E/DX2                !
 ! A40   A(17,21,19)           119.7076         estimate D2E/DX2                !
 ! A41   A(17,21,24)           120.1765         estimate D2E/DX2                !
 ! A42   A(19,21,24)           120.116          estimate D2E/DX2                !
 ! A43   A(1,25,26)            119.0575         estimate D2E/DX2                !
 ! A44   A(1,25,27)            121.8705         estimate D2E/DX2                !
 ! A45   A(26,25,27)           119.0643         estimate D2E/DX2                !
 ! A46   A(25,26,28)           120.347          estimate D2E/DX2                !
 ! A47   A(25,26,29)           119.9993         estimate D2E/DX2                !
 ! A48   A(28,26,29)           119.6537         estimate D2E/DX2                !
 ! A49   A(25,27,30)           120.5307         estimate D2E/DX2                !
 ! A50   A(25,27,31)           118.9292         estimate D2E/DX2                !
 ! A51   A(30,27,31)           120.5274         estimate D2E/DX2                !
 ! A52   A(26,28,32)           120.2048         estimate D2E/DX2                !
 ! A53   A(26,28,33)           119.8149         estimate D2E/DX2                !
 ! A54   A(32,28,33)           119.9802         estimate D2E/DX2                !
 ! A55   A(27,30,32)           120.0807         estimate D2E/DX2                !
 ! A56   A(27,30,34)           119.8433         estimate D2E/DX2                !
 ! A57   A(32,30,34)           120.0759         estimate D2E/DX2                !
 ! A58   A(28,32,30)           119.7705         estimate D2E/DX2                !
 ! A59   A(28,32,35)           120.1183         estimate D2E/DX2                !
 ! A60   A(30,32,35)           120.1111         estimate D2E/DX2                !
 ! D1    D(2,1,3,4)             18.4493         estimate D2E/DX2                !
 ! D2    D(2,1,3,5)           -161.7463         estimate D2E/DX2                !
 ! D3    D(14,1,3,4)           -98.022          estimate D2E/DX2                !
 ! D4    D(14,1,3,5)            81.7824         estimate D2E/DX2                !
 ! D5    D(25,1,3,4)           135.6502         estimate D2E/DX2                !
 ! D6    D(25,1,3,5)           -44.5454         estimate D2E/DX2                !
 ! D7    D(2,1,14,15)         -149.7306         estimate D2E/DX2                !
 ! D8    D(2,1,14,16)           30.6317         estimate D2E/DX2                !
 ! D9    D(3,1,14,15)          -33.3536         estimate D2E/DX2                !
 ! D10   D(3,1,14,16)          147.0086         estimate D2E/DX2                !
 ! D11   D(25,1,14,15)          94.4893         estimate D2E/DX2                !
 ! D12   D(25,1,14,16)         -85.1485         estimate D2E/DX2                !
 ! D13   D(2,1,25,26)            5.8911         estimate D2E/DX2                !
 ! D14   D(2,1,25,27)         -173.0896         estimate D2E/DX2                !
 ! D15   D(3,1,25,26)         -110.9034         estimate D2E/DX2                !
 ! D16   D(3,1,25,27)           70.1159         estimate D2E/DX2                !
 ! D17   D(14,1,25,26)         121.3372         estimate D2E/DX2                !
 ! D18   D(14,1,25,27)         -57.6435         estimate D2E/DX2                !
 ! D19   D(1,3,4,6)            179.8847         estimate D2E/DX2                !
 ! D20   D(1,3,4,7)             -0.0397         estimate D2E/DX2                !
 ! D21   D(5,3,4,6)              0.0727         estimate D2E/DX2                !
 ! D22   D(5,3,4,7)           -179.8517         estimate D2E/DX2                !
 ! D23   D(1,3,5,8)            179.9542         estimate D2E/DX2                !
 ! D24   D(1,3,5,9)              0.4142         estimate D2E/DX2                !
 ! D25   D(4,3,5,8)             -0.2424         estimate D2E/DX2                !
 ! D26   D(4,3,5,9)           -179.7825         estimate D2E/DX2                !
 ! D27   D(3,4,6,10)             0.101          estimate D2E/DX2                !
 ! D28   D(3,4,6,11)          -179.9476         estimate D2E/DX2                !
 ! D29   D(7,4,6,10)          -179.9743         estimate D2E/DX2                !
 ! D30   D(7,4,6,11)            -0.0229         estimate D2E/DX2                !
 ! D31   D(3,5,8,10)             0.2393         estimate D2E/DX2                !
 ! D32   D(3,5,8,12)          -179.7154         estimate D2E/DX2                !
 ! D33   D(9,5,8,10)           179.7772         estimate D2E/DX2                !
 ! D34   D(9,5,8,12)            -0.1776         estimate D2E/DX2                !
 ! D35   D(4,6,10,8)            -0.1063         estimate D2E/DX2                !
 ! D36   D(4,6,10,13)          179.855          estimate D2E/DX2                !
 ! D37   D(11,6,10,8)          179.9423         estimate D2E/DX2                !
 ! D38   D(11,6,10,13)          -0.0964         estimate D2E/DX2                !
 ! D39   D(5,8,10,6)            -0.0628         estimate D2E/DX2                !
 ! D40   D(5,8,10,13)          179.9758         estimate D2E/DX2                !
 ! D41   D(12,8,10,6)          179.8918         estimate D2E/DX2                !
 ! D42   D(12,8,10,13)          -0.0696         estimate D2E/DX2                !
 ! D43   D(1,14,15,17)        -179.6926         estimate D2E/DX2                !
 ! D44   D(1,14,15,18)           0.8761         estimate D2E/DX2                !
 ! D45   D(16,14,15,17)         -0.0573         estimate D2E/DX2                !
 ! D46   D(16,14,15,18)       -179.4886         estimate D2E/DX2                !
 ! D47   D(1,14,16,19)         179.5926         estimate D2E/DX2                !
 ! D48   D(1,14,16,20)          -0.1686         estimate D2E/DX2                !
 ! D49   D(15,14,16,19)         -0.0585         estimate D2E/DX2                !
 ! D50   D(15,14,16,20)       -179.8197         estimate D2E/DX2                !
 ! D51   D(14,15,17,21)          0.1239         estimate D2E/DX2                !
 ! D52   D(14,15,17,22)       -179.8196         estimate D2E/DX2                !
 ! D53   D(18,15,17,21)        179.5562         estimate D2E/DX2                !
 ! D54   D(18,15,17,22)         -0.3872         estimate D2E/DX2                !
 ! D55   D(14,16,19,21)          0.1085         estimate D2E/DX2                !
 ! D56   D(14,16,19,23)       -179.9093         estimate D2E/DX2                !
 ! D57   D(20,16,19,21)        179.8703         estimate D2E/DX2                !
 ! D58   D(20,16,19,23)         -0.1474         estimate D2E/DX2                !
 ! D59   D(15,17,21,19)         -0.0738         estimate D2E/DX2                !
 ! D60   D(15,17,21,24)        179.9705         estimate D2E/DX2                !
 ! D61   D(22,17,21,19)        179.8695         estimate D2E/DX2                !
 ! D62   D(22,17,21,24)         -0.0862         estimate D2E/DX2                !
 ! D63   D(16,19,21,17)         -0.0419         estimate D2E/DX2                !
 ! D64   D(16,19,21,24)        179.9139         estimate D2E/DX2                !
 ! D65   D(23,19,21,17)        179.9759         estimate D2E/DX2                !
 ! D66   D(23,19,21,24)         -0.0684         estimate D2E/DX2                !
 ! D67   D(1,25,26,28)        -178.7268         estimate D2E/DX2                !
 ! D68   D(1,25,26,29)           1.2164         estimate D2E/DX2                !
 ! D69   D(27,25,26,28)          0.2828         estimate D2E/DX2                !
 ! D70   D(27,25,26,29)       -179.7739         estimate D2E/DX2                !
 ! D71   D(1,25,27,30)         178.5037         estimate D2E/DX2                !
 ! D72   D(1,25,27,31)          -2.7867         estimate D2E/DX2                !
 ! D73   D(26,25,27,30)         -0.477          estimate D2E/DX2                !
 ! D74   D(26,25,27,31)        178.2326         estimate D2E/DX2                !
 ! D75   D(25,26,28,32)          0.1276         estimate D2E/DX2                !
 ! D76   D(25,26,28,33)       -179.959          estimate D2E/DX2                !
 ! D77   D(29,26,28,32)       -179.8158         estimate D2E/DX2                !
 ! D78   D(29,26,28,33)          0.0975         estimate D2E/DX2                !
 ! D79   D(25,27,30,32)          0.2607         estimate D2E/DX2                !
 ! D80   D(25,27,30,34)       -179.7829         estimate D2E/DX2                !
 ! D81   D(31,27,30,32)       -178.4282         estimate D2E/DX2                !
 ! D82   D(31,27,30,34)          1.5282         estimate D2E/DX2                !
 ! D83   D(26,28,32,30)         -0.348          estimate D2E/DX2                !
 ! D84   D(26,28,32,35)        179.7529         estimate D2E/DX2                !
 ! D85   D(33,28,32,30)        179.7388         estimate D2E/DX2                !
 ! D86   D(33,28,32,35)         -0.1604         estimate D2E/DX2                !
 ! D87   D(27,30,32,28)          0.1547         estimate D2E/DX2                !
 ! D88   D(27,30,32,35)       -179.9462         estimate D2E/DX2                !
 ! D89   D(34,30,32,28)       -179.8016         estimate D2E/DX2                !
 ! D90   D(34,30,32,35)          0.0976         estimate D2E/DX2                !
 --------------------------------------------------------------------------------
 Trust Radius=3.00D-01 FncErr=1.00D-07 GrdErr=1.00D-07
 Number of steps in this run= 197 maximum allowed number of steps= 210.
 GradGradGradGradGradGradGradGradGradGradGradGradGradGradGradGradGradGrad

                          Input orientation:                          
 ---------------------------------------------------------------------
 Center     Atomic      Atomic             Coordinates (Angstroms)
 Number     Number       Type             X           Y           Z
 ---------------------------------------------------------------------
      1          6           0       -0.217196    0.028476   -0.736972
      2          1           0       -0.508121    0.128398   -1.818022
      3          6           0       -0.365339   -1.432416   -0.391326
      4          6           0       -0.409262   -2.360900   -1.435928
      5          6           0       -0.455799   -1.891532    0.923793
      6          6           0       -0.542349   -3.718019   -1.167960
      7          1           0       -0.337221   -2.019619   -2.475526
      8          6           0       -0.592429   -3.249151    1.190019
      9          1           0       -0.425829   -1.167802    1.754267
     10          6           0       -0.635382   -4.165482    0.145570
     11          1           0       -0.574705   -4.435704   -1.994236
     12          1           0       -0.666957   -3.594968    2.226158
     13          1           0       -0.742574   -5.234388    0.355675
     14          6           0        1.206624    0.519576   -0.629324
     15          6           0        2.103592    0.024079    0.316482
     16          6           0        1.633205    1.516788   -1.512326
     17          6           0        3.403731    0.514644    0.378786
     18          1           0        1.786214   -0.764429    1.010697
     19          6           0        2.931415    2.006955   -1.446738
     20          1           0        0.939174    1.918815   -2.259682
     21          6           0        3.820356    1.506496   -0.500840
     22          1           0        4.099573    0.115503    1.123864
     23          1           0        3.254659    2.788707   -2.141764
     24          1           0        4.843530    1.892139   -0.450608
     25          6           0       -1.140945    0.922621    0.053398
     26          6           0       -2.193382    1.562855   -0.605415
     27          6           0       -0.961164    1.144538    1.419648
     28          6           0       -3.044578    2.413201    0.091240
     29          1           0       -2.350977    1.396618   -1.677673
     30          6           0       -1.810213    1.997826    2.113962
     31          1           0       -0.149505    0.616311    1.942516
     32          6           0       -2.852923    2.635257    1.450485
     33          1           0       -3.866998    2.909917   -0.433606
     34          1           0       -1.656733    2.166501    3.184654
     35          1           0       -3.521490    3.308189    1.996731
 ---------------------------------------------------------------------
                    Distance matrix (angstroms):
                    1          2          3          4          5
     1  C    0.000000
     2  H    1.123962   0.000000
     3  C    1.508516   2.119431   0.000000
     4  C    2.496907   2.520392   1.398287   0.000000
     5  C    2.549804   3.405936   1.395890   2.406399   0.000000
     6  C    3.785194   3.901111   2.420428   1.389708   2.778305
     7  H    2.689176   2.252885   2.165522   1.096552   3.403797
     8  C    3.820593   4.523633   2.419246   2.778154   1.390207
     9  H    2.771440   3.801073   2.162695   3.406039   1.101985
    10  C    4.306163   4.723271   2.798362   2.410141   2.410131
    11  H    4.651604   4.567987   3.410703   2.154968   3.873221
    12  H    4.702315   5.499461   3.408640   3.873010   2.154632
    13  H    5.400707   5.791321   3.892982   3.402627   3.402894
    14  C    1.509977   2.122822   2.517535   3.399830   3.315005
    15  C    2.548694   3.374616   2.952624   3.882461   3.254055
    16  C    2.498046   2.570282   3.734785   4.383375   4.681373
    17  C    3.819999   4.503081   4.311612   5.108900   4.580687
    18  H    2.774292   3.750035   2.653498   3.654423   2.510884
    19  C    3.785750   3.936653   4.879729   5.498946   5.682503
    20  H    2.688721   2.344209   4.052561   4.562106   5.157441
    21  C    4.306058   4.729676   5.115588   5.806963   5.644615
    22  H    4.701573   5.466782   4.962589   5.745842   4.981931
    23  H    4.652537   4.619585   5.829777   6.359322   6.713403
    24  H    5.400574   5.798342   6.179684   6.830156   6.654926
    25  C    1.509136   2.129195   2.519037   3.678990   3.024313
    26  C    2.505381   2.523526   3.515569   4.389611   4.158179
    27  C    2.539703   3.423492   3.205515   4.554888   3.117529
    28  C    3.790374   3.911422   4.711684   5.662965   5.091723
    29  H    2.703655   2.241473   3.687937   4.236465   4.601223
    30  C    3.813642   4.544305   4.486724   5.793348   4.286962
    31  H    2.744046   3.808977   3.112986   4.510559   2.724131
    32  C    4.304339   4.739787   5.111391   6.266135   5.149313
    33  H    4.660021   4.575535   5.578465   6.382954   6.044231
    34  H    4.692821   5.522675   5.235221   6.588120   4.798058
    35  H    5.398889   5.808942   6.175552   7.321726   6.130803
                    6          7          8          9         10
     6  C    0.000000
     7  H    2.153223   0.000000
     8  C    2.404665   3.874675   0.000000
     9  H    3.880283   4.315622   2.162903   0.000000
    10  C    1.390769   3.400554   1.390102   3.408505   0.000000
    11  H    1.094921   2.474976   3.398192   4.975201   2.157654
    12  H    3.398633   4.969536   1.094864   2.484343   2.157622
    13  H    2.158919   4.302877   2.158666   4.312020   1.094621
    14  C    4.615868   3.498489   4.555206   3.345691   5.093448
    15  C    4.817454   4.234333   4.329623   3.144166   5.008354
    16  C    5.679333   4.161310   5.913568   4.702901   6.339029
    17  C    5.989942   5.344559   5.549194   4.403193   6.186469
    18  H    4.346544   4.270624   3.444408   2.368278   4.263770
    19  C    6.702245   5.287313   6.855408   5.621086   7.304551
    20  H    5.929642   4.145724   6.399540   5.244256   6.729274
    21  C    6.839138   5.798130   6.704317   5.501588   7.241739
    22  H    6.441722   6.099139   5.774094   4.745898   6.457840
    23  H    7.596252   6.011073   7.896619   6.661758   8.290058
    24  H    7.810004   6.800171   7.659907   6.480035   8.189547
    25  C    4.835863   3.962096   4.358493   2.788228   5.113989
    26  C    5.561473   4.447107   5.379780   4.018560   5.983743
    27  C    5.524091   5.057032   4.415111   2.396971   5.470441
    28  C    6.740815   5.793786   6.267582   4.737835   7.006158
    29  H    5.448894   4.045053   5.735793   4.696877   6.099544
    30  C    6.711883   6.274789   5.465111   3.473773   6.575802
    31  H    5.349374   5.148053   3.962856   1.815172   5.131339
    32  C    7.249767   6.588641   6.309036   4.521761   7.271200
    33  H    7.451315   6.397585   7.161919   5.766821   7.800004
    34  H    7.403693   7.162565   5.868611   3.831279   7.097408
    35  H    8.261848   7.650241   7.226955   5.447604   8.222662
                   11         12         13         14         15
    11  H    0.000000
    12  H    4.304309   0.000000
    13  H    2.487601   2.488398   0.000000
    14  C    5.439753   5.347294   6.154486   0.000000
    15  C    5.692307   4.941690   5.979438   1.394495   0.000000
    16  C    6.367044   6.737734   7.396765   1.398605   2.407069
    17  C    6.779759   6.072248   7.088283   2.417352   1.391006
    18  H    5.299228   3.937937   5.177293   2.162004   1.097455
    19  C    7.355303   7.603946   8.317689   2.419787   2.779575
    20  H    6.537751   7.287264   7.799787   2.165056   3.403309
    21  C    7.540327   7.321027   8.184954   2.796805   2.410987
    22  H    7.230830   6.140233   7.256572   3.406772   2.155033
    23  H    8.177891   8.672319   9.305113   3.410408   3.874416
    24  H    8.472405   8.224286   9.090767   3.891395   3.403724
    25  C    5.764120   5.035292   6.177284   2.477829   3.376923
    26  C    6.366446   6.078726   7.016484   3.556549   4.656362
    27  C    6.553095   4.816631   6.470744   3.047649   3.444580
    28  C    7.573439   6.805075   7.990918   4.709325   5.679990
    29  H    6.105025   6.556809   7.119810   3.811137   5.069882
    30  C    7.732664   5.709551   7.519066   4.337297   4.737560
    31  H    6.418852   4.252420   6.091016   2.909089   2.840980
    32  C    8.188704   6.647994   8.220919   5.028085   5.715877
    33  H    8.199568   7.721926   8.758693   5.611923   6.673728
    34  H    8.460543   5.923925   7.975711   5.045552   5.191957
    35  H    9.196697   7.473591   9.131870   6.085030   6.726824
                   16         17         18         19         20
    16  C    0.000000
    17  C    2.777654   0.000000
    18  H    3.404851   2.156780   0.000000
    19  C    1.389215   2.404707   3.876989   0.000000
    20  H    1.096287   3.873919   4.314238   2.153526   0.000000
    21  C    2.409739   1.389636   3.402878   1.391186   3.400697
    22  H    3.872476   1.094829   2.477644   3.398556   4.968746
    23  H    2.154782   3.398052   4.971832   1.094844   2.476306
    24  H    3.402105   2.158335   4.305804   2.159083   4.303191
    25  C    3.240437   4.574539   3.511527   4.473288   3.266440
    26  C    3.932858   5.778847   4.885207   5.212350   3.560366
    27  C    3.932657   4.531277   3.370383   4.910408   4.212867
    28  C    5.025597   6.728142   5.854851   6.184085   4.652045
    29  H    3.989422   6.174429   5.386447   5.322548   3.381792
    30  C    5.023793   5.691738   4.667069   5.929731   5.166636
    31  H    3.990595   3.883436   2.553769   4.786753   4.532130
    32  C    5.491318   6.692628   5.768264   6.499788   5.353375
    33  H    5.775524   7.698105   6.895335   6.932547   5.236041
    34  H    5.771260   6.017460   5.017003   6.521223   6.036628
    35  H    6.487949   7.640702   6.762411   7.429043   6.320200
                   21         22         23         24         25
    21  C    0.000000
    22  H    2.156963   0.000000
    23  H    2.157941   4.303978   0.000000
    24  H    1.094590   2.487744   2.487640   0.000000
    25  C    5.026191   5.409286   5.255696   6.083414   0.000000
    26  C    6.014911   6.684798   5.791738   7.046312   1.396981
    27  C    5.165483   5.172762   5.758481   6.144203   1.395782
    28  C    6.949819   7.575264   6.693855   7.923846   2.418073
    29  H    6.283499   7.148389   5.794519   7.315201   2.164592
    30  C    6.227512   6.280845   6.662554   7.131653   2.418659
    31  H    4.745757   4.356107   5.743603   5.682004   2.155353
    32  C    7.043751   7.402233   7.087338   7.962523   2.795683
    33  H    7.814700   8.584913   7.324650   8.769804   3.408502
    34  H    6.634529   6.448915   7.271839   7.452772   3.408524
    35  H    7.961574   8.308775   7.956959   8.829961   3.890304
                   26         27         28         29         30
    26  C    0.000000
    27  C    2.407121   0.000000
    28  C    1.390306   2.777550   0.000000
    29  H    1.096452   3.404192   2.154896   0.000000
    30  C    2.780474   1.389625   2.405743   3.876903   0.000000
    31  H    3.400784   1.100548   3.877819   4.308263   2.167009
    32  C    2.410761   2.408723   1.390535   3.401698   1.390599
    33  H    2.155247   3.872336   1.094791   2.477115   3.398880
    34  H    3.875179   2.154871   3.399439   4.971612   1.094709
    35  H    3.403120   3.401423   2.158552   4.304120   2.158532
                   31         32         33         34         35
    31  H    0.000000
    32  C    3.409796   0.000000
    33  H    4.972559   2.157218   0.000000
    34  H    2.493538   2.158228   4.304620   0.000000
    35  H    4.315024   1.094624   2.486873   2.488360   0.000000
 Stoichiometry    C19H16
 Framework group  C1[X(C19H16)]
 Deg. of freedom    99
 Full point group                 C1      NOp   1
 Largest Abelian subgroup         C1      NOp   1
 Largest concise Abelian subgroup C1      NOp   1
                         Standard orientation:                         
 ---------------------------------------------------------------------
 Center     Atomic      Atomic             Coordinates (Angstroms)
 Number     Number       Type             X           Y           Z
 ---------------------------------------------------------------------
      1          6           0        0.022370   -0.013149   -0.754441
      2          1           0       -0.000215   -0.006493   -1.878156
      3          6           0        1.456250   -0.267256   -0.360691
      4          6           0        2.455728   -0.046030   -1.313219
      5          6           0        1.822725   -0.708460    0.911921
      6          6           0        3.791446   -0.263669   -0.997340
      7          1           0        2.187622    0.302961   -2.317586
      8          6           0        3.159083   -0.929062    1.225222
      9          1           0        1.042544   -0.889308    1.668877
     10          6           0        4.146422   -0.706775    0.272262
     11          1           0        4.565315   -0.086150   -1.751305
     12          1           0        3.431967   -1.279597    2.225915
     13          1           0        5.198551   -0.880226    0.519513
     14          6           0       -0.482331    1.338074   -0.307781
     15          6           0       -0.058787    1.946216    0.873485
     16          6           0       -1.417517    1.996462   -1.112795
     17          6           0       -0.559151    3.190154    1.243827
     18          1           0        0.680853    1.445888    1.511460
     19          6           0       -1.917705    3.237666   -0.739778
     20          1           0       -1.762739    1.530271   -2.043028
     21          6           0       -1.489175    3.837976    0.439793
     22          1           0       -0.216657    3.658733    2.172150
     23          1           0       -2.650579    3.743774   -1.376515
     24          1           0       -1.882615    4.816598    0.732426
     25          6           0       -0.920126   -1.100761   -0.300242
     26          6           0       -1.507326   -1.932741   -1.256569
     27          6           0       -1.237965   -1.285629    1.046238
     28          6           0       -2.399947   -2.926205   -0.870293
     29          1           0       -1.265704   -1.803456   -2.318224
     30          6           0       -2.133367   -2.276364    1.430628
     31          1           0       -0.751755   -0.648367    1.800362
     32          6           0       -2.717496   -3.097770    0.472583
     33          1           0       -2.854530   -3.573751   -1.627001
     34          1           0       -2.377290   -2.409171    2.489521
     35          1           0       -3.423553   -3.877764    0.774732
 ---------------------------------------------------------------------
 Rotational constants (GHZ):      0.4000689      0.3721062      0.2368993
 Standard basis: 6-311G (5D, 7F)
 There are   295 symmetry adapted basis functions of A   symmetry.
 Integral buffers will be    262144 words long.
 Raffenetti 1 integral format.
 Two-electron integral symmetry is turned on.
   295 basis functions,   574 primitive gaussians,   295 cartesian basis functions
    65 alpha electrons       65 beta electrons
       nuclear repulsion energy      1288.4024176033 Hartrees.
 NAtoms=   35 NActive=   35 NUniq=   35 SFac= 7.50D-01 NAtFMM=   80 NAOKFM=F Big=F
 One-electron integrals computed using PRISM.
 PrsmSu:  requested number of processors reduced to:  10 ShMem   1 Linda.
 NBasis=   295 RedAO= T  NBF=   295
 NBsUse=   295 1.00D-06 NBFU=   295
 Harris functional with IExCor=  205 diagonalized for initial guess.
 ExpMin= 1.03D-01 ExpMax= 4.56D+03 ExpMxC= 6.82D+02 IAcc=1 IRadAn=         1 AccDes= 0.00D+00
 HarFok:  IExCor=  205 AccDes= 0.00D+00 IRadAn=         1 IDoV= 1
 ScaDFX=  1.000000  1.000000  1.000000  1.000000
 FoFCou: FMM=F IPFlag=           0 FMFlag=      100000 FMFlg1=           0
         NFxFlg=           0 DoJE=T BraDBF=F KetDBF=T FulRan=T
         Omega=  0.000000  0.000000  1.000000  0.000000  0.000000 ICntrl=     500 IOpCl=  0
         NMat0=    1 NMatS0=    1 NMatT0=    0 NMatD0=    1 NMtDS0=    0 NMtDT0=    0
         I1Cent=           4 NGrid=           0.
 Petite list used in FoFCou.
 Initial guess orbital symmetries:
       Occupied  (A) (A) (A) (A) (A) (A) (A) (A) (A) (A) (A) (A)
                 (A) (A) (A) (A) (A) (A) (A) (A) (A) (A) (A) (A)
                 (A) (A) (A) (A) (A) (A) (A) (A) (A) (A) (A) (A)
                 (A) (A) (A) (A) (A) (A) (A) (A) (A) (A) (A) (A)
                 (A) (A) (A) (A) (A) (A) (A) (A) (A) (A) (A) (A)
                 (A) (A) (A) (A) (A)
       Virtual   (A) (A) (A) (A) (A) (A) (A) (A) (A) (A) (A) (A)
                 (A) (A) (A) (A) (A) (A) (A) (A) (A) (A) (A) (A)
                 (A) (A) (A) (A) (A) (A) (A) (A) (A) (A) (A) (A)
                 (A) (A) (A) (A) (A) (A) (A) (A) (A) (A) (A) (A)
                 (A) (A) (A) (A) (A) (A) (A) (A) (A) (A) (A) (A)
                 (A) (A) (A) (A) (A) (A) (A) (A) (A) (A) (A) (A)
                 (A) (A) (A) (A) (A) (A) (A) (A) (A) (A) (A) (A)
                 (A) (A) (A) (A) (A) (A) (A) (A) (A) (A) (A) (A)
                 (A) (A) (A) (A) (A) (A) (A) (A) (A) (A) (A) (A)
                 (A) (A) (A) (A) (A) (A) (A) (A) (A) (A) (A) (A)
                 (A) (A) (A) (A) (A) (A) (A) (A) (A) (A) (A) (A)
                 (A) (A) (A) (A) (A) (A) (A) (A) (A) (A) (A) (A)
                 (A) (A) (A) (A) (A) (A) (A) (A) (A) (A) (A) (A)
                 (A) (A) (A) (A) (A) (A) (A) (A) (A) (A) (A) (A)
                 (A) (A) (A) (A) (A) (A) (A) (A) (A) (A) (A) (A)
                 (A) (A) (A) (A) (A) (A) (A) (A) (A) (A) (A) (A)
                 (A) (A) (A) (A) (A) (A) (A) (A) (A) (A) (A) (A)
                 (A) (A) (A) (A) (A) (A) (A) (A) (A) (A) (A) (A)
                 (A) (A) (A) (A) (A) (A) (A) (A) (A) (A) (A) (A)
                 (A) (A)
 The electronic state of the initial guess is 1-A.
 Requested convergence on RMS density matrix=1.00D-08 within 128 cycles.
 Requested convergence on MAX density matrix=1.00D-06.
 Requested convergence on             energy=1.00D-06.
 No special actions if energy rises.
 Integral accuracy reduced to 1.0D-05 until final iterations.
 Initial convergence to 1.0D-05 achieved.  Increase integral accuracy.
 SCF Done:  E(RHF) =  -728.671737331     A.U. after   14 cycles
             Convg  =    0.6178D-08             -V/T =  2.0001

 **********************************************************************

            Population analysis using the SCF density.

 **********************************************************************

 Orbital symmetries:
       Occupied  (A) (A) (A) (A) (A) (A) (A) (A) (A) (A) (A) (A)
                 (A) (A) (A) (A) (A) (A) (A) (A) (A) (A) (A) (A)
                 (A) (A) (A) (A) (A) (A) (A) (A) (A) (A) (A) (A)
                 (A) (A) (A) (A) (A) (A) (A) (A) (A) (A) (A) (A)
                 (A) (A) (A) (A) (A) (A) (A) (A) (A) (A) (A) (A)
                 (A) (A) (A) (A) (A)
       Virtual   (A) (A) (A) (A) (A) (A) (A) (A) (A) (A) (A) (A)
                 (A) (A) (A) (A) (A) (A) (A) (A) (A) (A) (A) (A)
                 (A) (A) (A) (A) (A) (A) (A) (A) (A) (A) (A) (A)
                 (A) (A) (A) (A) (A) (A) (A) (A) (A) (A) (A) (A)
                 (A) (A) (A) (A) (A) (A) (A) (A) (A) (A) (A) (A)
                 (A) (A) (A) (A) (A) (A) (A) (A) (A) (A) (A) (A)
                 (A) (A) (A) (A) (A) (A) (A) (A) (A) (A) (A) (A)
                 (A) (A) (A) (A) (A) (A) (A) (A) (A) (A) (A) (A)
                 (A) (A) (A) (A) (A) (A) (A) (A) (A) (A) (A) (A)
                 (A) (A) (A) (A) (A) (A) (A) (A) (A) (A) (A) (A)
                 (A) (A) (A) (A) (A) (A) (A) (A) (A) (A) (A) (A)
                 (A) (A) (A) (A) (A) (A) (A) (A) (A) (A) (A) (A)
                 (A) (A) (A) (A) (A) (A) (A) (A) (A) (A) (A) (A)
                 (A) (A) (A) (A) (A) (A) (A) (A) (A) (A) (A) (A)
                 (A) (A) (A) (A) (A) (A) (A) (A) (A) (A) (A) (A)
                 (A) (A) (A) (A) (A) (A) (A) (A) (A) (A) (A) (A)
                 (A) (A) (A) (A) (A) (A) (A) (A) (A) (A) (A) (A)
                 (A) (A) (A) (A) (A) (A) (A) (A) (A) (A) (A) (A)
                 (A) (A) (A) (A) (A) (A) (A) (A) (A) (A) (A) (A)
                 (A) (A)
 The electronic state is 1-A.
 Alpha  occ. eigenvalues --  -11.25831 -11.25272 -11.25261 -11.25130 -11.24446
 Alpha  occ. eigenvalues --  -11.24432 -11.24356 -11.24348 -11.24210 -11.24190
 Alpha  occ. eigenvalues --  -11.24125 -11.24116 -11.24111 -11.24053 -11.24025
 Alpha  occ. eigenvalues --  -11.24018 -11.23914 -11.23834 -11.23738  -1.18592
 Alpha  occ. eigenvalues --   -1.15826  -1.15681  -1.09037  -1.02411  -1.02115
 Alpha  occ. eigenvalues --   -1.01890  -1.01496  -1.01388  -0.92962  -0.84537
 Alpha  occ. eigenvalues --   -0.82942  -0.82544  -0.81706  -0.81563  -0.77733
 Alpha  occ. eigenvalues --   -0.70731  -0.70449  -0.69109  -0.65997  -0.63618
 Alpha  occ. eigenvalues --   -0.63502  -0.62369  -0.62034  -0.61899  -0.59568
 Alpha  occ. eigenvalues --   -0.58772  -0.58518  -0.58430  -0.57618  -0.53918
 Alpha  occ. eigenvalues --   -0.51741  -0.51079  -0.50853  -0.49676  -0.49166
 Alpha  occ. eigenvalues --   -0.48682  -0.47791  -0.47469  -0.46766  -0.34694
 Alpha  occ. eigenvalues --   -0.34243  -0.33699  -0.33588  -0.33278  -0.31180
 Alpha virt. eigenvalues --    0.11655   0.12013   0.13579   0.13746   0.14055
 Alpha virt. eigenvalues --    0.14931   0.15134   0.16274   0.16374   0.16882
 Alpha virt. eigenvalues --    0.18809   0.19133   0.19284   0.21284   0.21420
 Alpha virt. eigenvalues --    0.21511   0.23639   0.24244   0.24977   0.27163
 Alpha virt. eigenvalues --    0.28521   0.29473   0.34031   0.34191   0.35871
 Alpha virt. eigenvalues --    0.37468   0.38509   0.39680   0.40953   0.43682
 Alpha virt. eigenvalues --    0.44098   0.44376   0.45027   0.45398   0.45574
 Alpha virt. eigenvalues --    0.45870   0.46401   0.48415   0.49902   0.50382
 Alpha virt. eigenvalues --    0.50797   0.51013   0.51445   0.54976   0.55784
 Alpha virt. eigenvalues --    0.56803   0.57908   0.58956   0.59052   0.59614
 Alpha virt. eigenvalues --    0.59686   0.60672   0.61071   0.61494   0.61697
 Alpha virt. eigenvalues --    0.61848   0.62382   0.62468   0.63283   0.63465
 Alpha virt. eigenvalues --    0.64127   0.64998   0.65165   0.65426   0.66904
 Alpha virt. eigenvalues --    0.67414   0.68221   0.68434   0.70122   0.71389
 Alpha virt. eigenvalues --    0.72347   0.73800   0.74458   0.75072   0.76208
 Alpha virt. eigenvalues --    0.77288   0.78321   0.78620   0.80472   0.81184
 Alpha virt. eigenvalues --    0.81861   0.82194   0.82345   0.82823   0.82910
 Alpha virt. eigenvalues --    0.83522   0.83920   0.84058   0.84789   0.85605
 Alpha virt. eigenvalues --    0.86042   0.86384   0.86903   0.87459   0.88060
 Alpha virt. eigenvalues --    0.89664   0.90560   0.91266   0.92978   0.94409
 Alpha virt. eigenvalues --    0.96091   0.96856   0.97684   0.98135   0.98946
 Alpha virt. eigenvalues --    0.99334   1.00295   1.02794   1.05739   1.06223
 Alpha virt. eigenvalues --    1.06810   1.07141   1.08018   1.08381   1.10513
 Alpha virt. eigenvalues --    1.11083   1.12223   1.12492   1.12987   1.14266
 Alpha virt. eigenvalues --    1.14641   1.15377   1.18601   1.19494   1.21734
 Alpha virt. eigenvalues --    1.25368   1.26742   1.27698   1.28220   1.28837
 Alpha virt. eigenvalues --    1.30341   1.35140   1.39558   1.45225   1.46610
 Alpha virt. eigenvalues --    1.51671   1.52254   1.56503   2.54630   2.55623
 Alpha virt. eigenvalues --    2.56175   2.59220   2.61966   2.62494   2.64480
 Alpha virt. eigenvalues --    2.67006   2.67720   2.68454   2.72301   2.76741
 Alpha virt. eigenvalues --    2.77760   2.83508   2.87896   2.88635   2.94132
 Alpha virt. eigenvalues --    2.94275   2.94425   2.97080   2.97455   2.98027
 Alpha virt. eigenvalues --    3.00379   3.00778   3.04045   3.05740   3.07123
 Alpha virt. eigenvalues --    3.08138   3.08431   3.08984   3.09968   3.14341
 Alpha virt. eigenvalues --    3.14778   3.16345   3.16829   3.17570   3.18837
 Alpha virt. eigenvalues --    3.22650   3.25646   3.25823   3.28296   3.28903
 Alpha virt. eigenvalues --    3.30911   3.33380   3.34271   3.35151   3.42619
 Alpha virt. eigenvalues --    3.43065   3.44416   3.46950   3.49480   3.52253
 Alpha virt. eigenvalues --    3.53440   3.54460   3.59249   3.60658   3.60677
 Alpha virt. eigenvalues --    3.63133   3.63503   3.63775   3.65967   3.66661
 Alpha virt. eigenvalues --    3.68391   3.70279   3.70473   3.71431   3.73486
 Alpha virt. eigenvalues --    3.74205   3.75555   3.80870   3.85867   3.86660
 Alpha virt. eigenvalues --    3.93027  24.24840  24.30693  24.31558  24.50541
 Alpha virt. eigenvalues --   24.50838  24.51117  24.53996  24.54676  24.56104
 Alpha virt. eigenvalues --   24.77295  24.78601  24.79147  24.79617  24.80643
 Alpha virt. eigenvalues --   24.81839  24.83245  25.05551  25.05811  25.06127
          Condensed to atoms (all electrons):
              1          2          3          4          5          6
     1  C    5.829816   0.463890   0.170713  -0.045425  -0.045797   0.008258
     2  H    0.463890   0.512447  -0.073729   0.002787   0.005104   0.001515
     3  C    0.170713  -0.073729   5.366717   0.495065   0.450450  -0.071535
     4  C   -0.045425   0.002787   0.495065   5.040965  -0.061517   0.471683
     5  C   -0.045797   0.005104   0.450450  -0.061517   5.121744  -0.031223
     6  C    0.008258   0.001515  -0.071535   0.471683  -0.031223   5.044646
     7  H   -0.000702   0.002678  -0.045675   0.394492   0.004746  -0.034689
     8  C    0.003586  -0.000276  -0.064492  -0.036084   0.473330  -0.075094
     9  H   -0.000331  -0.000141  -0.053031   0.004508   0.386639  -0.000213
    10  C    0.001138  -0.000016  -0.017757  -0.086751  -0.094856   0.494589
    11  H   -0.000389  -0.000029   0.007147  -0.039667  -0.000598   0.396653
    12  H   -0.000295   0.000014   0.006031  -0.000392  -0.036758   0.005895
    13  H   -0.000019  -0.000001  -0.001593   0.007489   0.008122  -0.042964
    14  C    0.157816  -0.059887  -0.104058  -0.001461  -0.005857  -0.000715
    15  C   -0.040113   0.004920  -0.014498   0.001899  -0.007340   0.000227
    16  C   -0.050002  -0.003281   0.006369   0.000457  -0.000177   0.000003
    17  C    0.004812  -0.000248   0.000514  -0.000090   0.000017  -0.000004
    18  H   -0.001627  -0.000067  -0.003177  -0.000889   0.001078  -0.000135
    19  C    0.006263   0.001549  -0.000759  -0.000017   0.000025   0.000001
    20  H    0.001769   0.001063   0.000693   0.000014  -0.000038   0.000001
    21  C    0.000991   0.000009   0.000046  -0.000013  -0.000019   0.000000
    22  H   -0.000325   0.000013   0.000037   0.000007   0.000028   0.000001
    23  H   -0.000351  -0.000026   0.000011   0.000001   0.000000   0.000000
    24  H   -0.000012  -0.000002  -0.000001   0.000000   0.000001   0.000000
    25  C    0.185221  -0.074342  -0.112116   0.002011  -0.004656  -0.000680
    26  C   -0.026253   0.002070  -0.000340   0.000193   0.001504  -0.000004
    27  C   -0.054368   0.005550  -0.006285   0.000220  -0.017240   0.000029
    28  C    0.007686   0.001757  -0.000602  -0.000009   0.000125   0.000001
    29  H   -0.000490   0.002417   0.000559   0.000134   0.000003   0.000003
    30  C    0.001397  -0.000282   0.001775   0.000027  -0.001746  -0.000001
    31  H    0.003106   0.000066  -0.003175  -0.000194   0.000322   0.000016
    32  C    0.001273  -0.000013  -0.000035  -0.000001   0.000046   0.000000
    33  H   -0.000368  -0.000037   0.000020   0.000000  -0.000001   0.000000
    34  H   -0.000319   0.000012   0.000008   0.000000   0.000016   0.000000
    35  H   -0.000013  -0.000001  -0.000001   0.000000   0.000001   0.000000
              7          8          9         10         11         12
     1  C   -0.000702   0.003586  -0.000331   0.001138  -0.000389  -0.000295
     2  H    0.002678  -0.000276  -0.000141  -0.000016  -0.000029   0.000014
     3  C   -0.045675  -0.064492  -0.053031  -0.017757   0.007147   0.006031
     4  C    0.394492  -0.036084   0.004508  -0.086751  -0.039667  -0.000392
     5  C    0.004746   0.473330   0.386639  -0.094856  -0.000598  -0.036758
     6  C   -0.034689  -0.075094  -0.000213   0.494589   0.396653   0.005895
     7  H    0.507654  -0.000401  -0.000243   0.005350  -0.004217   0.000022
     8  C   -0.000401   5.056481  -0.025340   0.495866   0.006224   0.395569
     9  H   -0.000243  -0.025340   0.498352   0.004796   0.000020  -0.003441
    10  C    0.005350   0.495866   0.004796   5.030385  -0.041053  -0.039657
    11  H   -0.004217   0.006224   0.000020  -0.041053   0.517936  -0.000212
    12  H    0.000022   0.395569  -0.003441  -0.039657  -0.000212   0.515466
    13  H   -0.000183  -0.042541  -0.000183   0.399172  -0.004547  -0.004354
    14  C    0.000479   0.000878  -0.000496   0.000023   0.000022  -0.000007
    15  C    0.000187  -0.001484   0.000338   0.000081  -0.000001   0.000013
    16  C    0.000119   0.000023  -0.000028  -0.000001   0.000000  -0.000001
    17  C    0.000009  -0.000031   0.000051   0.000004   0.000000   0.000001
    18  H   -0.000037   0.000956   0.000138   0.000047   0.000001  -0.000002
    19  C   -0.000008   0.000000   0.000006   0.000000   0.000000   0.000000
    20  H    0.000004   0.000000   0.000007   0.000000   0.000000   0.000000
    21  C   -0.000004   0.000000   0.000001   0.000000   0.000000   0.000000
    22  H    0.000000  -0.000001  -0.000017  -0.000001   0.000000   0.000000
    23  H    0.000000   0.000000   0.000000   0.000000   0.000000   0.000000
    24  H    0.000000   0.000000   0.000000   0.000000   0.000000   0.000000
    25  C    0.000364   0.001540  -0.003025   0.000021   0.000014   0.000011
    26  C   -0.000022   0.000042  -0.000258  -0.000011   0.000001   0.000002
    27  C   -0.000025  -0.000012   0.002844  -0.000005   0.000000   0.000032
    28  C    0.000001   0.000000  -0.000140   0.000000   0.000000   0.000000
    29  H   -0.000025   0.000003  -0.000005  -0.000001   0.000000   0.000000
    30  C    0.000002  -0.000089   0.001157   0.000001   0.000000   0.000000
    31  H   -0.000007   0.000857   0.003456  -0.000011   0.000000  -0.000053
    32  C    0.000000   0.000003   0.000080   0.000000   0.000000  -0.000001
    33  H    0.000000   0.000000   0.000000   0.000000   0.000000   0.000000
    34  H    0.000000   0.000001  -0.000106   0.000000   0.000000   0.000001
    35  H    0.000000   0.000000   0.000000   0.000000   0.000000   0.000000
             13         14         15         16         17         18
     1  C   -0.000019   0.157816  -0.040113  -0.050002   0.004812  -0.001627
     2  H   -0.000001  -0.059887   0.004920  -0.003281  -0.000248  -0.000067
     3  C   -0.001593  -0.104058  -0.014498   0.006369   0.000514  -0.003177
     4  C    0.007489  -0.001461   0.001899   0.000457  -0.000090  -0.000889
     5  C    0.008122  -0.005857  -0.007340  -0.000177   0.000017   0.001078
     6  C   -0.042964  -0.000715   0.000227   0.000003  -0.000004  -0.000135
     7  H   -0.000183   0.000479   0.000187   0.000119   0.000009  -0.000037
     8  C   -0.042541   0.000878  -0.001484   0.000023  -0.000031   0.000956
     9  H   -0.000183  -0.000496   0.000338  -0.000028   0.000051   0.000138
    10  C    0.399172   0.000023   0.000081  -0.000001   0.000004   0.000047
    11  H   -0.004547   0.000022  -0.000001   0.000000   0.000000   0.000001
    12  H   -0.004354  -0.000007   0.000013  -0.000001   0.000001  -0.000002
    13  H    0.517664   0.000001  -0.000001   0.000000   0.000000   0.000001
    14  C    0.000001   5.366469   0.485828   0.473116  -0.064550  -0.042674
    15  C   -0.000001   0.485828   5.087640  -0.071976   0.471593   0.390198
    16  C    0.000000   0.473116  -0.071976   5.071659  -0.031584   0.004186
    17  C    0.000000  -0.064550   0.471593  -0.031584   5.050351  -0.029919
    18  H    0.000001  -0.042674   0.390198   0.004186  -0.029919   0.481504
    19  C    0.000000  -0.065322  -0.027892   0.466278  -0.076913  -0.000181
    20  H    0.000000  -0.050637   0.004144   0.399579  -0.000335  -0.000249
    21  C    0.000000  -0.018522  -0.093475  -0.086094   0.499250   0.004710
    22  H    0.000000   0.006179  -0.037581  -0.000424   0.395909  -0.003332
    23  H    0.000000   0.006707  -0.000524  -0.039651   0.006127   0.000020
    24  H    0.000000  -0.001480   0.007825   0.007373  -0.042206  -0.000182
    25  C   -0.000002  -0.154181  -0.014071   0.000720   0.000635  -0.001037
    26  C    0.000000  -0.005688  -0.000318   0.002045   0.000027  -0.000082
    27  C    0.000001  -0.007702  -0.000075   0.000799  -0.000663   0.000497
    28  C    0.000000  -0.000465   0.000048  -0.000099  -0.000001   0.000002
    29  H    0.000000   0.000150  -0.000048   0.000251   0.000000   0.000000
    30  C    0.000000   0.000744  -0.000031  -0.000065  -0.000016   0.000063
    31  H    0.000000  -0.001884   0.004764  -0.000266   0.000447   0.001035
    32  C    0.000000   0.000096  -0.000004  -0.000014   0.000000   0.000002
    33  H    0.000000   0.000011   0.000000   0.000003   0.000000   0.000000
    34  H    0.000000   0.000018  -0.000002   0.000006  -0.000001  -0.000009
    35  H    0.000000  -0.000002   0.000000   0.000000   0.000000   0.000000
             19         20         21         22         23         24
     1  C    0.006263   0.001769   0.000991  -0.000325  -0.000351  -0.000012
     2  H    0.001549   0.001063   0.000009   0.000013  -0.000026  -0.000002
     3  C   -0.000759   0.000693   0.000046   0.000037   0.000011  -0.000001
     4  C   -0.000017   0.000014  -0.000013   0.000007   0.000001   0.000000
     5  C    0.000025  -0.000038  -0.000019   0.000028   0.000000   0.000001
     6  C    0.000001   0.000001   0.000000   0.000001   0.000000   0.000000
     7  H   -0.000008   0.000004  -0.000004   0.000000   0.000000   0.000000
     8  C    0.000000   0.000000   0.000000  -0.000001   0.000000   0.000000
     9  H    0.000006   0.000007   0.000001  -0.000017   0.000000   0.000000
    10  C    0.000000   0.000000   0.000000  -0.000001   0.000000   0.000000
    11  H    0.000000   0.000000   0.000000   0.000000   0.000000   0.000000
    12  H    0.000000   0.000000   0.000000   0.000000   0.000000   0.000000
    13  H    0.000000   0.000000   0.000000   0.000000   0.000000   0.000000
    14  C   -0.065322  -0.050637  -0.018522   0.006179   0.006707  -0.001480
    15  C   -0.027892   0.004144  -0.093475  -0.037581  -0.000524   0.007825
    16  C    0.466278   0.399579  -0.086094  -0.000424  -0.039651   0.007373
    17  C   -0.076913  -0.000335   0.499250   0.395909   0.006127  -0.042206
    18  H   -0.000181  -0.000249   0.004710  -0.003332   0.000020  -0.000182
    19  C    5.050265  -0.035572   0.488951   0.006000   0.397091  -0.042950
    20  H   -0.035572   0.509954   0.005340   0.000024  -0.004287  -0.000185
    21  C    0.488951   0.005340   5.033429  -0.040258  -0.040728   0.399196
    22  H    0.006000   0.000024  -0.040258   0.516806  -0.000213  -0.004445
    23  H    0.397091  -0.004287  -0.040728  -0.000213   0.518595  -0.004487
    24  H   -0.042950  -0.000185   0.399196  -0.004445  -0.004487   0.518515
    25  C   -0.000424   0.000562   0.000075   0.000005   0.000012  -0.000001
    26  C   -0.000036   0.001428  -0.000003   0.000000  -0.000001   0.000000
    27  C    0.000193  -0.000050   0.000029   0.000014   0.000003  -0.000001
    28  C    0.000006   0.000030   0.000000   0.000000   0.000000   0.000000
    29  H   -0.000006   0.000254   0.000000   0.000000  -0.000001   0.000000
    30  C    0.000002  -0.000018   0.000003   0.000000   0.000000   0.000000
    31  H   -0.000099  -0.000037  -0.000011  -0.000001   0.000001  -0.000001
    32  C    0.000000  -0.000011   0.000000   0.000000   0.000000   0.000000
    33  H    0.000000  -0.000003   0.000000   0.000000   0.000000   0.000000
    34  H    0.000001   0.000000   0.000000   0.000000   0.000000   0.000000
    35  H    0.000000   0.000000   0.000000   0.000000   0.000000   0.000000
             25         26         27         28         29         30
     1  C    0.185221  -0.026253  -0.054368   0.007686  -0.000490   0.001397
     2  H   -0.074342   0.002070   0.005550   0.001757   0.002417  -0.000282
     3  C   -0.112116  -0.000340  -0.006285  -0.000602   0.000559   0.001775
     4  C    0.002011   0.000193   0.000220  -0.000009   0.000134   0.000027
     5  C   -0.004656   0.001504  -0.017240   0.000125   0.000003  -0.001746
     6  C   -0.000680  -0.000004   0.000029   0.000001   0.000003  -0.000001
     7  H    0.000364  -0.000022  -0.000025   0.000001  -0.000025   0.000002
     8  C    0.001540   0.000042  -0.000012   0.000000   0.000003  -0.000089
     9  H   -0.003025  -0.000258   0.002844  -0.000140  -0.000005   0.001157
    10  C    0.000021  -0.000011  -0.000005   0.000000  -0.000001   0.000001
    11  H    0.000014   0.000001   0.000000   0.000000   0.000000   0.000000
    12  H    0.000011   0.000002   0.000032   0.000000   0.000000   0.000000
    13  H   -0.000002   0.000000   0.000001   0.000000   0.000000   0.000000
    14  C   -0.154181  -0.005688  -0.007702  -0.000465   0.000150   0.000744
    15  C   -0.014071  -0.000318  -0.000075   0.000048  -0.000048  -0.000031
    16  C    0.000720   0.002045   0.000799  -0.000099   0.000251  -0.000065
    17  C    0.000635   0.000027  -0.000663  -0.000001   0.000000  -0.000016
    18  H   -0.001037  -0.000082   0.000497   0.000002   0.000000   0.000063
    19  C   -0.000424  -0.000036   0.000193   0.000006  -0.000006   0.000002
    20  H    0.000562   0.001428  -0.000050   0.000030   0.000254  -0.000018
    21  C    0.000075  -0.000003   0.000029   0.000000   0.000000   0.000003
    22  H    0.000005   0.000000   0.000014   0.000000   0.000000   0.000000
    23  H    0.000012  -0.000001   0.000003   0.000000  -0.000001   0.000000
    24  H   -0.000001   0.000000  -0.000001   0.000000   0.000000   0.000000
    25  C    5.374506   0.503564   0.438979  -0.072737  -0.046636  -0.061717
    26  C    0.503564   5.070013  -0.065443   0.459804   0.395724  -0.033467
    27  C    0.438979  -0.065443   5.095618  -0.029637   0.004633   0.479256
    28  C   -0.072737   0.459804  -0.029637   5.054909  -0.035041  -0.076828
    29  H   -0.046636   0.395724   0.004633  -0.035041   0.510836  -0.000239
    30  C   -0.061717  -0.033467   0.479256  -0.076828  -0.000239   5.035912
    31  H   -0.048498   0.004051   0.388597  -0.000169  -0.000260  -0.027221
    32  C   -0.017875  -0.086321  -0.092108   0.496957   0.005163   0.494377
    33  H    0.007064  -0.039711  -0.000618   0.396790  -0.004176   0.006226
    34  H    0.006070  -0.000449  -0.039063   0.006001   0.000024   0.396682
    35  H   -0.001594   0.007534   0.008020  -0.042751  -0.000186  -0.042922
             31         32         33         34         35
     1  C    0.003106   0.001273  -0.000368  -0.000319  -0.000013
     2  H    0.000066  -0.000013  -0.000037   0.000012  -0.000001
     3  C   -0.003175  -0.000035   0.000020   0.000008  -0.000001
     4  C   -0.000194  -0.000001   0.000000   0.000000   0.000000
     5  C    0.000322   0.000046  -0.000001   0.000016   0.000001
     6  C    0.000016   0.000000   0.000000   0.000000   0.000000
     7  H   -0.000007   0.000000   0.000000   0.000000   0.000000
     8  C    0.000857   0.000003   0.000000   0.000001   0.000000
     9  H    0.003456   0.000080   0.000000  -0.000106   0.000000
    10  C   -0.000011   0.000000   0.000000   0.000000   0.000000
    11  H    0.000000   0.000000   0.000000   0.000000   0.000000
    12  H   -0.000053  -0.000001   0.000000   0.000001   0.000000
    13  H    0.000000   0.000000   0.000000   0.000000   0.000000
    14  C   -0.001884   0.000096   0.000011   0.000018  -0.000002
    15  C    0.004764  -0.000004   0.000000  -0.000002   0.000000
    16  C   -0.000266  -0.000014   0.000003   0.000006   0.000000
    17  C    0.000447   0.000000   0.000000  -0.000001   0.000000
    18  H    0.001035   0.000002   0.000000  -0.000009   0.000000
    19  C   -0.000099   0.000000   0.000000   0.000001   0.000000
    20  H   -0.000037  -0.000011  -0.000003   0.000000   0.000000
    21  C   -0.000011   0.000000   0.000000   0.000000   0.000000
    22  H   -0.000001   0.000000   0.000000   0.000000   0.000000
    23  H    0.000001   0.000000   0.000000   0.000000   0.000000
    24  H   -0.000001   0.000000   0.000000   0.000000   0.000000
    25  C   -0.048498  -0.017875   0.007064   0.006070  -0.001594
    26  C    0.004051  -0.086321  -0.039711  -0.000449   0.007534
    27  C    0.388597  -0.092108  -0.000618  -0.039063   0.008020
    28  C   -0.000169   0.496957   0.396790   0.006001  -0.042751
    29  H   -0.000260   0.005163  -0.004176   0.000024  -0.000186
    30  C   -0.027221   0.494377   0.006226   0.396682  -0.042922
    31  H    0.495200   0.004557   0.000021  -0.003435  -0.000169
    32  C    0.004557   5.031013  -0.040787  -0.039553   0.399629
    33  H    0.000021  -0.040787   0.518295  -0.000211  -0.004582
    34  H   -0.003435  -0.039553  -0.000211   0.515373  -0.004457
    35  H   -0.000169   0.399629  -0.004582  -0.004457   0.517473
 Mulliken atomic charges:
              1
     1  C   -0.580537
     2  H    0.204517
     3  C    0.066703
     4  C   -0.149440
     5  C   -0.145477
     6  C   -0.166263
     7  H    0.170132
     8  C   -0.189515
     9  H    0.184606
    10  C   -0.151354
    11  H    0.162697
    12  H    0.162115
    13  H    0.163938
    14  C    0.087052
    15  C   -0.150272
    16  C   -0.149324
    17  C   -0.183189
    18  H    0.199162
    19  C   -0.166454
    20  H    0.166558
    21  C   -0.152903
    22  H    0.161576
    23  H    0.161701
    24  H    0.163042
    25  C    0.092214
    26  C   -0.189597
    27  C   -0.112020
    28  C   -0.165640
    29  H    0.166958
    30  C   -0.172983
    31  H    0.178996
    32  C   -0.156473
    33  H    0.162063
    34  H    0.163391
    35  H    0.164022
 Sum of Mulliken atomic charges =   0.00000
 Mulliken charges with hydrogens summed into heavy atoms:
              1
     1  C   -0.376020
     3  C    0.066703
     4  C    0.020692
     5  C    0.039129
     6  C   -0.003566
     8  C   -0.027400
    10  C    0.012584
    14  C    0.087052
    15  C    0.048890
    16  C    0.017234
    17  C   -0.021613
    19  C   -0.004754
    21  C    0.010139
    25  C    0.092214
    26  C   -0.022639
    27  C    0.066976
    28  C   -0.003576
    30  C   -0.009593
    32  C    0.007549
 Sum of Mulliken charges with hydrogens summed into heavy atoms =   0.00000
 Electronic spatial extent (au):  <R**2>=           4939.4868
 Charge=              0.0000 electrons
 Dipole moment (field-independent basis, Debye):
    X=             -0.0136    Y=             -0.0652    Z=             -0.0425  Tot=              0.0790
 Quadrupole moment (field-independent basis, Debye-Ang):
   XX=           -110.6083   YY=           -114.0581   ZZ=           -102.8616
   XY=              0.7912   XZ=              2.2715   YZ=             -0.1850
 Traceless Quadrupole moment (field-independent basis, Debye-Ang):
   XX=             -1.4323   YY=             -4.8821   ZZ=              6.3144
   XY=              0.7912   XZ=              2.2715   YZ=             -0.1850
 Octapole moment (field-independent basis, Debye-Ang**2):
  XXX=             39.7534  YYY=             18.8835  ZZZ=             -0.1860  XYY=            -44.4191
  XXY=            -14.8117  XXZ=             -6.4789  XZZ=              0.6555  YZZ=             -4.7996
  YYZ=             10.3798  XYZ=              0.1240
 Hexadecapole moment (field-independent basis, Debye-Ang**3):
 XXXX=          -3091.6050 YYYY=          -2907.9207 ZZZZ=           -786.6690 XXXY=             -5.7041
 XXXZ=              0.2277 YYYX=              2.1840 YYYZ=             58.2240 ZZZX=              6.2665
 ZZZY=             -4.1089 XXYY=           -972.8213 XXZZ=           -631.2369 YYZZ=           -601.3879
 XXYZ=            -49.9157 YYXZ=             23.1192 ZZXY=             15.6001
 N-N= 1.288402417603D+03 E-N=-4.272814871601D+03  KE= 7.285920199829D+02
 PrsmSu:  requested number of processors reduced to:  10 ShMem   1 Linda.
 Calling FoFJK, ICntrl=      2127 FMM=F ISym2X=0 I1Cent= 0 IOpClX= 0 NMat=1 NMatS=1 NMatT=0.
 ***** Axes restored to original set *****
 -------------------------------------------------------------------
 Center     Atomic                   Forces (Hartrees/Bohr)
 Number     Number              X              Y              Z
 -------------------------------------------------------------------
      1        6          -0.007215321    0.001404943   -0.022752656
      2        1           0.006526810   -0.001882365    0.026630285
      3        6          -0.003847673   -0.011992328   -0.004525592
      4        6           0.000636341    0.001108381   -0.006178545
      5        6          -0.001135500    0.007017612    0.011438146
      6        6          -0.000091671   -0.009339508   -0.009169726
      7        1          -0.001229403   -0.004840153    0.017052862
      8        6          -0.000225649   -0.003601970    0.011599088
      9        1          -0.002956636   -0.024096682   -0.018524294
     10        6          -0.001273271   -0.013299441    0.001825291
     11        1           0.000318698    0.010925444    0.012675938
     12        1           0.001155600    0.005222239   -0.015846598
     13        1           0.001507797    0.016411986   -0.003218620
     14        6           0.013109062    0.003734519   -0.005188325
     15        6          -0.002214361   -0.008205588    0.007188235
     16        6          -0.002635714    0.003469654   -0.004738382
     17        6           0.008028666   -0.003092610    0.008529521
     18        1           0.008690267    0.014523212   -0.013986790
     19        6           0.003177575    0.009453733   -0.008019222
     20        1           0.010629576   -0.006855755    0.011931859
     21        6           0.012767848    0.004491251    0.001013574
     22        1          -0.010556558    0.006072825   -0.011404883
     23        1          -0.004818666   -0.012008576    0.010477058
     24        1          -0.015588261   -0.006031475   -0.000874725
     25        6          -0.011281163    0.008391262   -0.001829086
     26        6          -0.001045226   -0.000812509   -0.005940238
     27        6           0.008356756   -0.004034574    0.007129504
     28        6          -0.010492080    0.006820771   -0.004575216
     29        1           0.002962053    0.002318967    0.017328614
     30        6           0.003202676    0.000004784    0.012017548
     31        1          -0.015610887    0.020401845   -0.008560070
     32        6          -0.009210060    0.008591620    0.005133857
     33        1           0.012494259   -0.007406923    0.008070416
     34        1          -0.002447333   -0.002581181   -0.016291075
     35        1           0.010311449   -0.010283409   -0.008417754
 -------------------------------------------------------------------
 Cartesian Forces:  Max     0.026630285 RMS     0.009555894

 GradGradGradGradGradGradGradGradGradGradGradGradGradGradGradGradGradGrad
 Berny optimization.
 Internal  Forces:  Max     0.029866154 RMS     0.007836407
 Search for a local minimum.
 Step number   1 out of a maximum of  197
 All quantities printed in internal units (Hartrees-Bohrs-Radians)
 Mixed Optimization -- RFO/linear search
 Second derivative matrix not updated -- first step.
     Eigenvalues ---    0.00634   0.00645   0.00653   0.01530   0.01533
     Eigenvalues ---    0.01536   0.02137   0.02140   0.02146   0.02167
     Eigenvalues ---    0.02170   0.02172   0.02181   0.02185   0.02187
     Eigenvalues ---    0.02202   0.02202   0.02203   0.02213   0.02214
     Eigenvalues ---    0.02215   0.02216   0.02216   0.02217   0.02217
     Eigenvalues ---    0.02218   0.02219   0.02219   0.02220   0.02222
     Eigenvalues ---    0.04520   0.06373   0.06674   0.15996   0.15999
     Eigenvalues ---    0.16000   0.16000   0.16000   0.16000   0.16000
     Eigenvalues ---    0.16000   0.16000   0.16000   0.16000   0.16000
     Eigenvalues ---    0.16000   0.16000   0.16000   0.18938   0.19362
     Eigenvalues ---    0.22000   0.22000   0.22000   0.22000   0.22000
     Eigenvalues ---    0.22000   0.23476   0.23476   0.23477   0.24996
     Eigenvalues ---    0.24999   0.25000   0.31165   0.31353   0.31437
     Eigenvalues ---    0.31500   0.33464   0.33622   0.33965   0.34066
     Eigenvalues ---    0.34078   0.34096   0.34250   0.34257   0.34259
     Eigenvalues ---    0.34260   0.34265   0.34274   0.34284   0.34284
     Eigenvalues ---    0.34287   0.42420   0.42424   0.42490   0.42571
     Eigenvalues ---    0.42583   0.42614   0.46337   0.46361   0.46435
     Eigenvalues ---    0.46758   0.46779   0.46829   0.47220   0.47234
     Eigenvalues ---    0.47258   0.47333   0.47334   0.473651000.00000
     Eigenvalues --- 1000.000001000.000001000.000001000.000001000.00000
     Eigenvalues --- 1000.000001000.000001000.000001000.000001000.00000
     Eigenvalues --- 1000.000001000.000001000.000001000.000001000.00000
     Eigenvalues --- 1000.000001000.000001000.000001000.000001000.00000
     Eigenvalues --- 1000.000001000.000001000.000001000.000001000.00000
     Eigenvalues --- 1000.000001000.000001000.000001000.000001000.00000
     Eigenvalues --- 1000.000001000.000001000.000001000.000001000.00000
     Eigenvalues --- 1000.000001000.000001000.000001000.000001000.00000
     Eigenvalues --- 1000.000001000.000001000.000001000.000001000.00000
     Eigenvalues --- 1000.000001000.000001000.000001000.000001000.00000
     Eigenvalues --- 1000.000001000.000001000.000001000.000001000.00000
     Eigenvalues --- 1000.000001000.000001000.000001000.000001000.00000
     Eigenvalues --- 1000.000001000.000001000.000001000.000001000.00000
     Eigenvalues --- 1000.000001000.000001000.000001000.000001000.00000
     Eigenvalues --- 1000.000001000.000001000.000001000.000001000.00000
     Eigenvalues --- 1000.000001000.000001000.000001000.000001000.00000
     Eigenvalues --- 1000.000001000.000001000.000001000.000001000.00000
     Eigenvalues --- 1000.000001000.00000
 RFO step:  Lambda=-4.29104124D-02 EMin= 6.33966780D-03
 Linear search not attempted -- first point.
 Maximum step size (   0.300) exceeded in Quadratic search.
    -- Step size scaled by   0.575
 Iteration  1 RMS(Cart)=  0.12597582 RMS(Int)=  0.00284423
 Iteration  2 RMS(Cart)=  0.00585329 RMS(Int)=  0.00028925
 Iteration  3 RMS(Cart)=  0.00000907 RMS(Int)=  0.00028921
 Iteration  4 RMS(Cart)=  0.00000000 RMS(Int)=  0.00028921
 Variable       Old X    -DE/DX   Delta X   Delta X   Delta X     New X
                                 (Linear)    (Quad)   (Total)
    R1        2.12398  -0.02747   0.00000  -0.04453  -0.04453   2.07945
    R2        2.85068   0.02569   0.00000   0.04126   0.04126   2.89194
    R3        2.85344   0.02086   0.00000   0.03364   0.03364   2.88708
    R4        2.85185   0.02263   0.00000   0.03640   0.03640   2.88825
    R5        2.64238  -0.00358   0.00000  -0.00404  -0.00402   2.63836
    R6        2.63785   0.00070   0.00000   0.00098   0.00099   2.63884
    R7        2.62617  -0.00357   0.00000  -0.00410  -0.00409   2.62208
    R8        2.07218  -0.01775   0.00000  -0.02661  -0.02661   2.04558
    R9        2.62711  -0.00315   0.00000  -0.00339  -0.00340   2.62371
   R10        2.08245  -0.02987   0.00000  -0.04547  -0.04547   2.03698
   R11        2.62817  -0.00845   0.00000  -0.00962  -0.00963   2.61854
   R12        2.06910  -0.01674   0.00000  -0.02496  -0.02496   2.04414
   R13        2.62691  -0.00678   0.00000  -0.00761  -0.00763   2.61928
   R14        2.06899  -0.01672   0.00000  -0.02494  -0.02494   2.04405
   R15        2.06853  -0.01679   0.00000  -0.02502  -0.02502   2.04351
   R16        2.63521  -0.00248   0.00000  -0.00274  -0.00274   2.63248
   R17        2.64298  -0.00424   0.00000  -0.00487  -0.00487   2.63811
   R18        2.62862  -0.00278   0.00000  -0.00304  -0.00304   2.62558
   R19        2.07389  -0.02180   0.00000  -0.03275  -0.03275   2.04114
   R20        2.62524  -0.00416   0.00000  -0.00469  -0.00469   2.62054
   R21        2.07168  -0.01738   0.00000  -0.02602  -0.02602   2.04566
   R22        2.62603  -0.00621   0.00000  -0.00690  -0.00690   2.61913
   R23        2.06893  -0.01668   0.00000  -0.02488  -0.02488   2.04405
   R24        2.62896  -0.00603   0.00000  -0.00680  -0.00680   2.62216
   R25        2.06895  -0.01665   0.00000  -0.02482  -0.02482   2.04413
   R26        2.06848  -0.01674   0.00000  -0.02494  -0.02494   2.04354
   R27        2.63991  -0.00419   0.00000  -0.00471  -0.00469   2.63522
   R28        2.63765   0.00077   0.00000   0.00102   0.00104   2.63869
   R29        2.62730  -0.00280   0.00000  -0.00319  -0.00320   2.62410
   R30        2.07199  -0.01772   0.00000  -0.02655  -0.02655   2.04544
   R31        2.62601  -0.00457   0.00000  -0.00502  -0.00501   2.62100
   R32        2.07973  -0.02537   0.00000  -0.03847  -0.03847   2.04127
   R33        2.62773  -0.00836   0.00000  -0.00947  -0.00949   2.61824
   R34        2.06885  -0.01662   0.00000  -0.02477  -0.02477   2.04408
   R35        2.62785  -0.00542   0.00000  -0.00613  -0.00614   2.62171
   R36        2.06870  -0.01667   0.00000  -0.02485  -0.02485   2.04385
   R37        2.06854  -0.01682   0.00000  -0.02506  -0.02506   2.04348
    A1        1.85569  -0.00924   0.00000  -0.04551  -0.04457   1.81112
    A2        1.85847  -0.00029   0.00000  -0.01905  -0.01888   1.83960
    A3        1.86776  -0.00591   0.00000  -0.03537  -0.03462   1.83314
    A4        1.97277   0.00304   0.00000   0.02551   0.02360   1.99637
    A5        1.97542   0.01475   0.00000   0.05379   0.05261   2.02803
    A6        1.92532  -0.00408   0.00000   0.00950   0.00716   1.93248
    A7        2.06572  -0.01296   0.00000  -0.02545  -0.02546   2.04026
    A8        2.14213   0.02509   0.00000   0.04923   0.04921   2.19134
    A9        2.07533  -0.01214   0.00000  -0.02377  -0.02374   2.05159
   A10        2.10296   0.00831   0.00000   0.01761   0.01764   2.12060
   A11        2.09385  -0.00490   0.00000  -0.01090  -0.01091   2.08294
   A12        2.08637  -0.00342   0.00000  -0.00671  -0.00673   2.07964
   A13        2.10364   0.00441   0.00000   0.00979   0.00979   2.11343
   A14        2.08546   0.00422   0.00000   0.01329   0.01329   2.09874
   A15        2.09406  -0.00863   0.00000  -0.02311  -0.02311   2.07095
   A16        2.09753   0.00004   0.00000  -0.00096  -0.00097   2.09656
   A17        2.09141   0.00006   0.00000   0.00072   0.00072   2.09213
   A18        2.09424  -0.00010   0.00000   0.00025   0.00025   2.09449
   A19        2.09773   0.00245   0.00000   0.00502   0.00499   2.10272
   A20        2.09021  -0.00116   0.00000  -0.00233  -0.00232   2.08789
   A21        2.09525  -0.00129   0.00000  -0.00269  -0.00268   2.09257
   A22        2.08917  -0.00308   0.00000  -0.00767  -0.00771   2.08146
   A23        2.09672   0.00155   0.00000   0.00387   0.00388   2.10060
   A24        2.09729   0.00153   0.00000   0.00381   0.00382   2.10111
   A25        2.14041   0.00961   0.00000   0.01895   0.01894   2.15936
   A26        2.06518  -0.00205   0.00000  -0.00393  -0.00394   2.06124
   A27        2.07758  -0.00756   0.00000  -0.01502  -0.01501   2.06257
   A28        2.10165   0.00314   0.00000   0.00684   0.00684   2.10849
   A29        2.09245   0.00059   0.00000   0.00269   0.00269   2.09514
   A30        2.08904  -0.00373   0.00000  -0.00956  -0.00956   2.07948
   A31        2.10226   0.00531   0.00000   0.01114   0.01114   2.11340
   A32        2.09298  -0.00327   0.00000  -0.00730  -0.00731   2.08568
   A33        2.08794  -0.00204   0.00000  -0.00384  -0.00384   2.08409
   A34        2.09854   0.00132   0.00000   0.00278   0.00276   2.10131
   A35        2.08974  -0.00061   0.00000  -0.00126  -0.00125   2.08849
   A36        2.09490  -0.00070   0.00000  -0.00152  -0.00152   2.09338
   A37        2.09705   0.00008   0.00000  -0.00037  -0.00037   2.09667
   A38        2.09193   0.00001   0.00000   0.00033   0.00033   2.09227
   A39        2.09420  -0.00009   0.00000   0.00004   0.00004   2.09424
   A40        2.08929  -0.00228   0.00000  -0.00536  -0.00537   2.08392
   A41        2.09748   0.00113   0.00000   0.00264   0.00264   2.10012
   A42        2.09642   0.00115   0.00000   0.00272   0.00272   2.09914
   A43        2.07795  -0.00631   0.00000  -0.01249  -0.01256   2.06538
   A44        2.12704   0.01648   0.00000   0.03223   0.03215   2.15919
   A45        2.07806  -0.01019   0.00000  -0.02003  -0.02003   2.05803
   A46        2.10045   0.00695   0.00000   0.01485   0.01485   2.11530
   A47        2.09438  -0.00405   0.00000  -0.00905  -0.00906   2.08533
   A48        2.08835  -0.00290   0.00000  -0.00580  -0.00581   2.08254
   A49        2.10366   0.00376   0.00000   0.00838   0.00831   2.11197
   A50        2.07571   0.00416   0.00000   0.01310   0.01298   2.08868
   A51        2.10360  -0.00786   0.00000  -0.02096  -0.02107   2.08253
   A52        2.09797  -0.00011   0.00000  -0.00104  -0.00106   2.09691
   A53        2.09116   0.00021   0.00000   0.00094   0.00095   2.09212
   A54        2.09405  -0.00009   0.00000   0.00009   0.00010   2.09415
   A55        2.09580   0.00212   0.00000   0.00426   0.00426   2.10006
   A56        2.09166  -0.00098   0.00000  -0.00190  -0.00191   2.08975
   A57        2.09572  -0.00114   0.00000  -0.00236  -0.00237   2.09335
[...]
 119,-0.00040444,-0.00096936,0.00004639,-0.00026708,0.00017317,0.000303
 05,-0.00017978,-0.00033062,-0.00006341,-0.00004363,0.00001272,-0.00001
 354,0.00000758,0.00006132,-0.00007349,0.00014875,0.00020769,-0.0001579
 7,-0.00013122,0.00018158,0.00002265,0.00001204,-0.00006797,-0.00001779
 ,-0.00001068,0.00000948,0.00000750,-0.00002452,0.00000285,-0.00000446,
 0.00002888,0.00002011,-0.00075543,0.00035736,0.00047613,0.00010093,0.0
 0003502,0.00025843,0.00000932,0.00018043,0.00000617,0.00008513,0.00000
 523,0.00006921,0.00004803,-0.00010988,-0.00002106,0.00004908,0.0000170
 8,-0.00003499,0.00001971,-0.00002605,-0.00006289,0.00003036,-0.0000154
 8,-0.00004295,-0.00001158,0.00001077,-0.00001819,-0.00000689,-0.000013
 24,0.00003499,-0.00004055,-0.00000738,0.00000889,0.00852001,-0.0303660
 0,-0.02921121,0.01180733,-0.00269522,-0.00570750,0.08868114,-0.1035281
 0,-0.18763417,-0.03903120,0.00429306,-0.00170623,0.00059189,0.00074234
 ,0.00034947,0.11034721,0.28818255,0.62227669,-0.00088162,-0.00072898,0
 .00105197,-0.00006360,-0.00001573,0.00004544,0.00025424,-0.00000675,-0
 .00032899,0.00000034,-0.00013527,0.00006681,0.00022571,-0.00015864,-0.
 00017746,-0.00000152,0.00001493,-0.00001683,-0.00001192,0.00000927,0.0
 0000864,0.00000033,0.00000994,0.00008650,-0.00025873,-0.00001282,0.000
 04002,-0.00001265,0.00000266,0.00000794,-0.00000720,-0.00000707,0.0000
 0427,-0.00000906,-0.00001687,-0.00000074,-0.00000743,0.00001056,0.0000
 0537,-0.00036482,0.00104701,0.00213503,-0.00052639,0.00062253,0.000967
 44,0.00016509,0.00069147,0.00013682,0.00009108,0.00022680,-0.00000448,
 0.00007254,-0.00018438,-0.00007750,-0.00006114,-0.00002672,-0.00005647
 ,0.00001280,-0.00005028,-0.00007868,-0.00005186,-0.00026130,0.00004071
 ,0.00000698,-0.00000653,-0.00000907,-0.00000857,0.00000138,-0.00000694
 ,0.00000223,-0.00000575,-0.00000456,-0.00557972,0.00266061,-0.00077807
 ,0.00164300,0.00039195,-0.00200904,-0.34421669,0.02217271,-0.09307667,
 0.00078019,-0.00009222,0.00059770,-0.00034256,0.00011959,-0.00005967,-
 0.01478738,-0.00128448,-0.01052530,0.36433528,-0.00086869,-0.00242041,
 0.00265355,-0.00021656,0.00050581,0.00039973,0.00036539,-0.00028974,-0
 .00060281,-0.00000794,-0.00020290,0.00009037,0.00019936,-0.00008709,-0
 .00022118,-0.00000895,0.00003368,-0.00005397,-0.00000129,0.00000116,0.
 00001694,-0.00001070,-0.00002020,0.00010591,-0.00030439,0.00002932,0.0
 0006508,-0.00001594,0.00001055,0.00002800,-0.00001096,-0.00000382,0.00
 001074,-0.00000514,-0.00000724,-0.00000862,-0.00000367,0.00002172,0.00
 000813,0.00058279,-0.00034678,-0.00084305,0.00014393,-0.00006765,-0.00
 033592,0.00028559,0.00004234,-0.00023786,0.00037928,0.00023344,0.00001
 755,0.00009478,-0.00032993,-0.00006391,-0.00041488,-0.00020457,-0.0001
 0305,0.00002444,0.00000818,0.00016832,0.00002077,-0.00026873,0.0001948
 5,0.00000096,0.00000931,-0.00000359,-0.00003505,-0.00001199,0.00004640
 ,-0.00003342,-0.00001189,0.00003381,-0.01835631,0.00714341,-0.00540113
 ,0.00089565,0.00343397,-0.00665399,0.02180789,-0.05952238,-0.00458704,
 -0.00018028,-0.00101331,-0.00008779,-0.00090668,0.00002788,-0.00027980
 ,0.02159374,0.00386436,0.00703617,-0.02786627,0.04971414,0.00004864,0.
 00249938,-0.00083162,0.00017652,-0.00007985,0.00003446,-0.00014474,0.0
 0009571,0.00041546,0.00002034,0.00011248,-0.00006305,-0.00004604,0.000
 07580,0.00013509,0.00001983,-0.00000002,-0.00000584,-0.00002008,-0.000
 00343,-0.00003462,0.00003682,-0.00004694,-0.00003249,0.00002746,-0.000
 00630,-0.00005036,-0.00000821,0.00001763,0.00000936,0.00000141,0.00000
 867,-0.00000255,0.00000356,0.00002051,-0.00001125,-0.00000370,-0.00000
 067,-0.00000872,0.00024484,-0.00086906,-0.00080715,0.00042788,-0.00019
 366,0.00030830,0.00017662,0.00054009,-0.00020566,0.00030646,0.00001833
 ,0.00002685,-0.00003226,0.00003817,-0.00002313,0.00001568,0.00017402,-
 0.00010550,-0.00003298,-0.00006952,-0.00002424,-0.00001765,-0.00019256
 ,0.00006624,-0.00006706,0.00004188,-0.00001516,-0.00001551,-0.00003908
 ,0.00000595,-0.00005151,-0.00000825,0.00000875,-0.02915604,0.00285105,
 -0.00274784,-0.00225622,-0.00679454,-0.00175699,-0.09105559,-0.0044805
 1,-0.09338025,0.00067493,-0.00025550,-0.00106756,-0.00139486,0.0002167
 0,-0.00043526,0.02011035,-0.00242001,0.01060992,0.09919179,0.01121695,
 0.08955781,0.00025893,-0.00165096,-0.00093484,0.00007447,-0.00016224,0
 .00082890,0.00075234,-0.00035365,0.00014963,0.00021419,0.00042375,0.00
 004864,0.00021955,-0.00001400,0.00009465,-0.00014242,-0.00019229,0.000
 20549,0.00000419,-0.00001770,-0.00000351,-0.00005498,0.00036721,0.0001
 7692,-0.00029918,-0.00000851,0.00030535,0.00009378,-0.00002674,-0.0002
 8019,-0.00003414,0.00002105,-0.00001568,0.00001915,0.00004340,-0.00001
 015,-0.00000020,0.00001700,0.00000552,0.00016110,0.00046190,-0.0003457
 7,0.00032783,0.00004493,0.00022847,-0.00041649,0.00004230,0.00015268,-
 0.00021583,-0.00022993,0.00009250,0.00002795,-0.00002217,0.00001034,0.
 00038846,0.00004651,0.00012461,-0.00000377,-0.00000687,-0.00007011,-0.
 00013372,0.00020331,-0.00026194,-0.00002504,0.00000158,-0.00001553,-0.
 00001708,-0.00001516,0.00002782,-0.00002465,-0.00000230,0.00000208,-0.
 06053298,-0.01997896,-0.05149826,0.08522587,-0.01588499,0.00907705,-0.
 04924396,0.06067986,0.05884873,-0.17602852,0.01161408,-0.02526598,-0.0
 0218428,0.00480158,0.00179126,-0.34509691,0.00722852,-0.10478951,-0.00
 026235,0.00380860,0.00142122,0.74964112,-0.00072594,-0.00128864,0.0000
 0412,0.00019355,-0.00009682,0.00034249,0.00084449,0.00013324,-0.000271
 57,0.00004031,-0.00010775,0.00016677,0.00001906,-0.00011164,-0.0001213
 1,-0.00007213,-0.00005811,0.00000881,0.00001342,0.00002285,0.00000673,
 -0.00003155,0.00010761,0.00011517,-0.00007014,0.00000084,0.00007897,0.
 00002423,-0.00006028,-0.00007681,-0.00001661,-0.00002989,-0.00000652,0
 .00000597,-0.00002244,0.00001647,-0.00000494,-0.00000218,0.00000990,-0
 .00005498,0.00001449,-0.00021472,0.00008882,0.00006816,-0.00004361,-0.
 00003791,-0.00004288,0.00009107,-0.00006417,-0.00004041,0.00000496,0.0
 0000342,-0.00001375,-0.00000212,0.00006810,0.00000816,0.00006550,-0.00
 003991,-0.00004622,-0.00000689,0.00002941,0.00006827,-0.00003394,0.000
 01716,-0.00000490,-0.00000047,0.00002942,0.00000769,-0.00002017,0.0000
 1155,-0.00000131,-0.00000271,-0.02070830,-0.00991461,-0.01354514,0.023
 10679,-0.01959620,-0.03132350,0.02113604,0.01919906,0.02234214,-0.0391
 9045,-0.16250218,-0.12636933,0.00444327,0.00387545,-0.00527634,0.05868
 084,-0.11651998,-0.01887431,0.00387851,0.00316497,-0.00600495,-0.15205
 209,0.42698822,-0.00038073,-0.00139590,-0.00117403,0.00052519,-0.00037
 944,0.00068256,0.00120767,0.00009543,-0.00001897,0.00018096,0.00019676
 ,0.00030079,0.00024254,-0.00034559,-0.00008683,-0.00017844,-0.00021591
 ,0.00016945,0.00000806,0.00001724,0.00000712,-0.00002803,0.00037716,0.
 00015772,-0.00013850,-0.00009805,0.00004234,0.00008218,-0.00014847,-0.
 00028425,-0.00003838,-0.00002636,-0.00001552,0.00002375,-0.00004722,0.
 00004436,-0.00000756,-0.00000699,0.00000577,0.00002530,0.00012102,-0.0
 0048980,0.00036407,0.00011647,0.00008186,-0.00025936,0.00005847,0.0001
 9542,-0.00020761,-0.00018324,0.00005617,0.00001094,-0.00000989,-0.0000
 0682,0.00030265,0.00005969,0.00014467,-0.00002311,-0.00004170,-0.00007
 346,-0.00002492,0.00019491,-0.00018545,0.00001244,-0.00000561,-0.00000
 568,0.00001457,-0.00000235,-0.00000209,-0.00000102,0.00000002,-0.00000
 634,-0.05267867,-0.01215757,-0.04884741,0.06545029,-0.04803700,-0.0293
 7359,0.00310813,0.03950511,0.06620983,-0.09558184,-0.10349488,-0.26955
 361,0.00116541,-0.00497103,0.00268158,-0.03482618,-0.04167974,-0.15576
 932,0.00178641,-0.00625486,0.00132019,0.04479017,0.28059222,0.58219612
 ,-0.00073250,-0.00031436,-0.00065372,0.00000077,0.00001128,0.00005475,
 -0.00012153,-0.00014708,0.00010691,0.00003800,0.00009807,-0.00003560,0
 .00003259,0.00005011,-0.00004381,0.00001201,0.00001636,0.00001441,-0.0
 0001054,-0.00001496,-0.00000676,-0.00000336,-0.00000536,0.00002538,-0.
 00002148,-0.00003433,0.00003845,0.00000883,0.00003441,0.00000856,-0.00
 000837,0.00002270,0.00000645,-0.00000356,0.00001443,-0.00001978,-0.000
 00358,0.00001935,-0.00000156,0.00003496,0.00028973,0.00019614,-0.00008
 702,-0.00006085,0.00003310,-0.00007732,0.00001257,-0.00002941,0.000019
 14,-0.00001507,-0.00000600,0.00000777,-0.00000245,0.00000150,0.0000095
 4,0.00001278,-0.00002314,0.00001507,0.00001185,-0.00000877,-0.00003055
 ,-0.00001083,0.00000284,-0.00001798,0.00000183,-0.00001016,-0.00001606
 ,-0.00001817,0.00000678,-0.00001581,-0.00000434,-0.00000009,-0.0000498
 4,0.00419582,0.00168004,-0.01555772,-0.00130855,-0.01128415,0.00080084
 ,-0.00003214,0.00071710,-0.33959161,0.02795067,-0.09158098,0.00084565,
 -0.00090747,0.00145451,0.00185915,0.00035172,-0.00257024,-0.00017619,-
 0.00026340,0.00012344,-0.00470612,0.00401330,0.00097245,0.35723633,0.0
 0075436,0.00008528,0.00046445,-0.00005040,0.00006649,0.00003565,0.0000
 9840,0.00005475,-0.00006286,0.00000205,-0.00005071,0.00001815,-0.00002
 493,-0.00004360,0.00000269,-0.00001435,-0.00000189,-0.00000863,0.00000
 645,0.00000619,0.00001170,-0.00001848,-0.00000817,-0.00001364,0.000038
 57,0.00001417,-0.00000017,-0.00001373,-0.00003215,0.00000426,0.0000032
 7,-0.00000758,0.00000120,0.00000860,-0.00001522,0.00001674,0.00000712,
 -0.00000598,0.00000270,0.00011523,-0.00032075,-0.00010325,0.00001566,0
 .00002476,-0.00000823,0.00004990,0.00003596,-0.00003556,0.00002977,0.0
 0004214,0.00000572,0.00000268,-0.00001452,-0.00000708,-0.00005464,-0.0
 0000298,0.00000488,-0.00000323,-0.00000129,0.00000333,0.00003653,-0.00
 002878,0.00003330,0.00001051,0.00000032,0.00000562,0.00000030,0.000002
 30,-0.00000400,0.00000497,-0.00000051,-0.00000096,0.00364747,0.0032949
 9,-0.00619826,0.02130407,0.00404555,0.00739222,-0.00016132,-0.00102949
 ,-0.00022327,0.02785881,-0.06000210,-0.00316564,-0.00166029,-0.0026594
 1,0.00273148,0.00069387,0.00359443,-0.00669812,-0.00020104,-0.00072902
 ,0.00062937,-0.01845621,0.00702600,-0.00608151,-0.03245994,0.04911950,
 0.00080953,0.00012416,0.00034318,-0.00004017,0.00003951,-0.00004046,-0
 .00005511,0.00008635,0.00001740,-0.00002876,-0.00002807,-0.00003119,-0
 .00000039,0.00000856,-0.00000208,0.00000819,0.00000692,-0.00001386,0.0
 0000562,0.00000047,-0.00000160,0.00000762,-0.00001758,0.00002013,-0.00
 001734,-0.00001739,-0.00000736,-0.00000212,0.00001147,0.00001184,0.000
 00453,-0.00000144,0.00000082,-0.00000548,0.00000590,-0.00000943,-0.000
 00247,0.00000316,0.00000033,-0.00001511,-0.00009966,-0.00014906,0.0000
 4924,0.00002726,0.00002493,0.00001221,-0.00000303,0.00004010,-0.000021
 31,-0.00000564,0.00002123,0.00000180,-0.00000827,-0.00000681,0.0000288
 7,0.00001315,0.00001372,-0.00000162,-0.00000487,-0.00001757,0.00000804
 ,0.00002582,-0.00002015,0.00000426,-0.00000238,-0.00000319,0.00000742,
 0.00000283,-0.00000138,0.00000063,-0.00000150,-0.00000336,0.00135879,-
 0.00614015,0.00134886,0.01989482,-0.00282167,0.01072364,0.00069173,-0.
 00024073,-0.00097267,-0.09179693,-0.00307914,-0.09439689,0.00041787,0.
 00301012,-0.00082951,-0.00213373,-0.00680798,-0.00173263,0.00013535,0.
 00061117,-0.00035729,-0.03001282,0.00404100,-0.00240628,0.10056760,0.0
 0857681,0.08953378,0.00056178,0.00028650,0.00074639,-0.00011087,0.0001
 2951,0.00017233,-0.00006791,-0.00001205,0.00007159,-0.00000732,0.00004
 433,-0.00000262,0.00000260,0.00000133,-0.00001848,0.00000611,0.0000075
 6,0.00000552,-0.00000200,-0.00000351,-0.00000755,0.00000896,0.00000596
 ,-0.00001081,0.00000444,0.00001068,-0.00001231,0.00000012,0.00000546,0
 .00000079,0.00000137,0.00000390,0.00000092,-0.00000025,-0.00000127,-0.
 00000038,-0.00000107,-0.00000031,-0.00000159,0.00014185,-0.00002914,-0
 .00004760,0.00000360,-0.00000944,-0.00003794,-0.00002191,-0.00002016,-
 0.00000398,-0.00001777,-0.00001053,-0.00001341,0.00000232,0.00001276,0
 .00000858,0.00000426,-0.00001233,0.00000033,-0.00000101,0.00000841,0.0
 0000748,-0.00002978,-0.00001401,-0.00001133,-0.00000794,0.00000646,0.0
 0000548,-0.00000578,0.00000078,0.00000569,-0.00000300,0.00000400,0.000
 00491,-0.00221176,0.00455629,0.00141313,-0.00110108,0.00042724,0.00056
 826,0.01200744,0.01335269,0.02118739,-0.00557798,0.00280960,-0.0025247
 6,0.00000588,-0.00029268,0.00014507,-0.10165635,-0.04193869,-0.0805012
 2,0.00093084,-0.00159755,0.00038632,-0.00392178,-0.01888544,-0.0300193
 7,-0.00045740,-0.00084607,-0.00136728,0.10064644,-0.00048061,-0.000281
 42,-0.00055257,0.00018631,-0.00021712,-0.00014709,0.00008111,0.0001394
 1,-0.00015718,-0.00003025,-0.00011030,0.00004977,0.00004773,-0.0001074
 9,-0.00001553,0.00000337,-0.00000176,-0.00000551,-0.00001185,0.0000116
 9,0.00001741,0.00001058,0.00001104,-0.00000566,-0.00002013,0.00003752,
 -0.00005186,-0.00000460,-0.00002439,0.00000676,0.00000074,-0.00001344,
 0.00000008,-0.00001029,-0.00002813,0.00001309,-0.00000443,-0.00000865,
 0.00000029,-0.00024231,-0.00004677,0.00003570,0.00009318,0.00005191,0.
 00001722,-0.00000337,0.00003390,0.00000718,-0.00002270,-0.00001429,0.0
 0001908,-0.00000687,-0.00001817,-0.00001062,0.00002229,-0.00001141,0.0
 0001338,0.,-0.00001426,0.00002265,0.00002143,0.00003045,-0.00000943,0.
 00002367,-0.00001110,0.00000195,0.00000284,0.00000387,0.00000015,0.000
 01018,0.00000123,-0.00000261,0.00462540,0.00377197,-0.00465762,0.00039
 575,-0.00051409,0.00078970,-0.00918917,-0.00419182,-0.01733209,0.00254
 504,0.00592121,-0.00303947,-0.00030792,-0.00078649,0.00050780,-0.04202
 229,-0.13000405,-0.12994194,-0.00076297,-0.00259571,0.00296042,0.00383
 850,0.00682851,0.00334555,0.00008288,0.00002277,0.00018732,0.04277915,
 0.12477825,-0.00076190,0.00003595,-0.00042930,0.00009364,-0.00013436,-
 0.00015681,0.00017918,0.00004281,-0.00011338,0.00000387,-0.00008185,0.
 00004976,-0.00001046,-0.00004406,0.00005054,-0.00001382,-0.00002034,-0
 .00000332,-0.00000050,0.00001355,0.00000506,0.00001178,0.00001368,-0.0
 0002121,-0.00000744,0.00001538,-0.00004090,0.00000371,-0.00002393,-0.0
 0001137,-0.00000202,-0.00001805,-0.00000879,-0.00000905,-0.00000918,0.
 00000984,-0.00000093,-0.00001546,0.,-0.00013999,-0.00010305,0.00000420
 ,0.00000420,0.00003368,-0.00002306,0.00008145,0.00001811,0.00000052,0.
 00001910,0.00003365,0.00000445,-0.00001453,-0.00000131,-0.00001172,-0.
 00004022,0.00000524,0.00001610,-0.00001730,-0.00002717,-0.00000040,0.0
 0005928,0.00000967,0.00004027,0.00002061,-0.00000937,0.00000051,0.0000
 2179,0.00000975,-0.00002627,0.00002134,-0.00000345,-0.00000717,0.00181
 449,-0.00513099,0.00242966,0.00069650,0.00076434,0.00038842,-0.0097776
 4,-0.00732441,-0.00881737,-0.00294931,-0.00286292,0.00373445,0.0001389
 7,0.00051160,-0.00050593,-0.08030045,-0.12982351,-0.26206518,0.0012571
 7,0.00268439,-0.00077186,0.00096518,-0.00665135,-0.00307275,-0.0000372
 5,-0.00022584,-0.00041108,0.08835723,0.14536077,0.27061558,0.00003694,
 -0.00028870,0.00013702,-0.00000650,0.00005048,0.00010966,-0.00000417,-
 0.00005724,0.00000411,0.00000754,0.00001949,-0.00001562,0.00002220,0.0
 0001740,-0.00004118,0.00000380,0.00000798,-0.00000276,-0.00000161,-0.0
 0000528,-0.00000098,-0.00001075,-0.00000764,0.00002819,-0.00002201,-0.
 00002549,0.00002901,-0.00000163,0.00001217,0.00000473,-0.00000242,0.00
 000865,0.00000498,0.00000363,0.00000498,-0.00000717,0.00000011,0.00001
 133,0.00000109,0.00003708,0.00004742,0.00002867,-0.00003356,-0.0000113
 2,0.00006218,-0.00001258,0.00004146,-0.00001824,0.00003924,0.00001074,
 0.00001675,0.00001031,-0.00002291,-0.00000838,0.00000029,0.00001577,-0
 .00001717,0.00001070,0.00000321,-0.00000921,-0.00000226,-0.00001646,0.
 00000244,-0.00000916,0.00000235,-0.00000839,-0.00000938,-0.00001075,0.
 00000979,-0.00001448,-0.00000385,0.00000054,-0.00042766,-0.00078317,-0
 .00082745,0.00066323,0.00010217,-0.00346334,-0.00467142,0.00124360,-0.
 00429977,0.01185032,-0.00872319,-0.00897942,0.00032964,-0.00036665,-0.
 00032859,-0.01445573,0.02155486,0.02090946,-0.00088925,0.00090490,0.00
 088832,-0.19406454,0.11530688,0.09412053,0.00076787,-0.00072396,0.0014
 8648,0.00087493,-0.00165040,0.00033331,0.19998129,-0.00014899,-0.00072
 070,0.00045100,0.00004031,0.00004041,0.00014363,0.00011597,-0.00001146
 ,-0.00013494,-0.00001731,-0.00006264,0.00003883,-0.00000696,-0.0000473
 0,0.00000653,-0.00000743,-0.00001166,-0.00000193,-0.00000267,0.0000069
 8,0.00000732,0.00000454,0.00002249,-0.00002709,0.00001721,0.00003747,-
 0.00003311,-0.00000139,-0.00002059,-0.00000716,0.00000080,-0.00001115,
 -0.00000250,0.00000059,-0.00001754,0.00001585,0.00000157,-0.00001158,-
 0.00000007,0.00000433,-0.00005317,-0.00000641,0.00000599,0.00001774,-0
 .00003296,0.00002173,-0.00002132,-0.00002857,-0.00001145,0.00000504,-0
 .00000427,-0.00000442,0.00000186,0.00000606,-0.00001022,-0.00001993,0.
 00000639,-0.00000182,-0.00000149,0.00001775,0.00001246,0.00000448,0.00
 000450,0.00000977,-0.00000439,0.00000413,0.00000019,0.00000697,0.00000
 036,0.00000785,0.00000302,0.00000138,-0.00086242,-0.00022875,0.0005899
 1,-0.00025883,0.00444371,-0.00597076,0.00165882,0.00610904,-0.00322271
 ,0.01383088,-0.00422934,-0.00660939,0.00053319,-0.00047244,-0.00032129
 ,-0.00128831,0.00346943,-0.00294896,-0.00003584,-0.00011086,-0.0000523
 1,0.11543068,-0.15705331,-0.09909675,-0.00159056,-0.00248143,0.0024975
 1,-0.00077942,-0.00264289,0.00295802,-0.12666883,0.15406529,0.00017185
 ,0.00056498,-0.00027628,-0.00007173,-0.00003456,-0.00002793,0.00000276
 ,0.00008607,0.00006376,0.00000868,0.00001772,0.00001414,0.00001479,-0.
 00001339,0.00002155,-0.00000318,-0.00000202,0.00001439,-0.00000628,0.0
 0000529,-0.00000066,0.00000683,0.00001277,-0.00000991,-0.00001473,-0.0
 0000143,-0.00001640,-0.00000026,-0.00000698,-0.00001012,0.00000110,-0.
 00000578,-0.00000611,-0.00000254,-0.00000052,0.00000497,-0.00000086,-0
 .00000918,0.00000027,-0.00004948,-0.00006444,0.00000675,0.00004886,0.0
 0002399,0.00001374,0.00002539,0.00002917,0.00001303,0.00000865,0.00000
 337,0.00000038,-0.00000552,0.00000232,-0.00000658,-0.00000502,-0.00000
 185,0.00000728,-0.00001177,-0.00001451,0.00000327,0.00001020,-0.000001
 84,0.00000131,0.00000561,0.00000034,0.00000384,0.00000847,0.00000574,-
 0.00000682,0.00000724,0.00000094,0.00000026,-0.00078987,0.00048080,-0.
 00068439,-0.00400970,-0.00582214,-0.00118622,-0.00374024,-0.00334088,0
 .00280803,0.02209128,-0.01679688,-0.00821273,0.00096892,-0.00075202,-0
 .00072628,-0.01011625,0.00710337,0.01051670,-0.00035491,0.00035051,0.0
 0024003,0.09415707,-0.09904059,-0.14292375,0.00030100,0.00289671,-0.00
 068610,0.00149323,0.00257290,-0.00085147,-0.10014962,0.11175200,0.1418
 9805||0.00000662,-0.00001929,-0.00000057,-0.00000004,0.00000741,0.0000
 0140,-0.00000657,0.00002207,0.00004313,0.00000205,-0.00004255,-0.00001
 510,0.00001886,0.00004447,-0.00004080,0.00000802,0.00003624,-0.0000263
 6,0.00000059,0.00000553,0.00000049,0.00000035,-0.00005432,-0.00001826,
 -0.00000434,0.00000317,0.00000604,-0.00001236,0.00000619,0.00004935,-0
 .00000050,-0.00000260,0.00000185,0.00000002,0.00000392,0.00000279,0.00
 000064,-0.00000225,-0.00000307,0.00000564,-0.00001737,0.00002926,-0.00
 004650,0.00000554,-0.00001720,0.00002277,0.00001799,-0.00001568,0.0000
 3523,0.00002367,-0.00001727,0.00000004,-0.00000707,0.00000087,-0.00003
 424,-0.00000215,-0.00001945,-0.00000350,-0.00000271,0.00000066,0.00000
 766,-0.00002447,0.00003635,-0.00000217,-0.00000206,0.00000199,0.000004
 62,-0.00000003,0.00000204,0.00000076,0.00000405,-0.00000293,-0.0000035
 5,-0.00000171,0.00000760,-0.00000074,0.00000440,-0.00000170,0.00000526
 ,-0.00000983,-0.00001867,0.00000190,-0.00000613,-0.00000084,0.00000008
 ,-0.00000152,-0.00000075,-0.00001416,0.00000984,-0.00000007,0.00000240
 ,0.00000095,0.00000351,0.00000476,0.00000021,0.00001144,-0.00000011,0.
 00000151,-0.00000153,0.00000182,-0.00000242,0.00000243,-0.00000132,0.0
 0000130,-0.00000096|||@


 The chemist is a guest at the physicist's table and
 frequently dines well.
                   -- Richard Bersohn
 Job cpu time:  0 days  0 hours  6 minutes 36.0 seconds.
 File lengths (MBytes):  RWF=    350 Int=      0 D2E=      0 Chk=      7 Scr=      1
 Normal termination of Gaussian 09 at Mon Sep 06 17:16:16 2021.
