 Entering Link 1 = b:\programy\g09w\l1.exe PID=      8412.
  
 Copyright (c) 1988,1990,1992,1993,1995,1998,2003,2009, Gaussian, Inc.
                  All Rights Reserved.
  
 This is part of the Gaussian(R) 09 program.  It is based on
 the Gaussian(R) 03 system (copyright 2003, Gaussian, Inc.),
 the Gaussian(R) 98 system (copyright 1998, Gaussian, Inc.),
 the Gaussian(R) 94 system (copyright 1995, Gaussian, Inc.),
 the Gaussian 92(TM) system (copyright 1992, Gaussian, Inc.),
 the Gaussian 90(TM) system (copyright 1990, Gaussian, Inc.),
 the Gaussian 88(TM) system (copyright 1988, Gaussian, Inc.),
 the Gaussian 86(TM) system (copyright 1986, Carnegie Mellon
 University), and the Gaussian 82(TM) system (copyright 1983,
 Carnegie Mellon University). Gaussian is a federally registered
 trademark of Gaussian, Inc.
  
 This software contains proprietary and confidential information,
 including trade secrets, belonging to Gaussian, Inc.
  
 This software is provided under written license and may be
 used, copied, transmitted, or stored only in accord with that
 written license.
  
 The following legend is applicable only to US Government
 contracts under FAR:
  
                    RESTRICTED RIGHTS LEGEND
  
 Use, reproduction and disclosure by the US Government is
 subject to restrictions as set forth in subparagraphs (a)
 and (c) of the Commercial Computer Software - Restricted
 Rights clause in FAR 52.227-19.
  
 Gaussian, Inc.
 340 Quinnipiac St., Bldg. 40, Wallingford CT 06492
  
  
 ---------------------------------------------------------------
 Warning -- This program may not be used in any manner that
 competes with the business of Gaussian, Inc. or will provide
 assistance to any competitor of Gaussian, Inc.  The licensee
 of this program is prohibited from giving any competitor of
 Gaussian, Inc. access to this program.  By using this program,
 the user acknowledges that Gaussian, Inc. is engaged in the
 business of creating and licensing software in the field of
 computational chemistry and represents and warrants to the
 licensee that it is not a competitor of Gaussian, Inc. and that
 it will not use this program in any manner prohibited above.
 ---------------------------------------------------------------
  

 Cite this work as:
 Gaussian 09, Revision A.02,
 M. J. Frisch, G. W. Trucks, H. B. Schlegel, G. E. Scuseria, 
 M. A. Robb, J. R. Cheeseman, G. Scalmani, V. Barone, B. Mennucci, 
 G. A. Petersson, H. Nakatsuji, M. Caricato, X. Li, H. P. Hratchian, 
 A. F. Izmaylov, J. Bloino, G. Zheng, J. L. Sonnenberg, M. Hada, 
 M. Ehara, K. Toyota, R. Fukuda, J. Hasegawa, M. Ishida, T. Nakajima, 
 Y. Honda, O. Kitao, H. Nakai, T. Vreven, J. A. Montgomery, Jr., 
 J. E. Peralta, F. Ogliaro, M. Bearpark, J. J. Heyd, E. Brothers, 
 K. N. Kudin, V. N. Staroverov, R. Kobayashi, J. Normand, 
 K. Raghavachari, A. Rendell, J. C. Burant, S. S. Iyengar, J. Tomasi, 
 M. Cossi, N. Rega, J. M. Millam, M. Klene, J. E. Knox, J. B. Cross, 
 V. Bakken, C. Adamo, J. Jaramillo, R. Gomperts, R. E. Stratmann, 
 O. Yazyev, A. J. Austin, R. Cammi, C. Pomelli, J. W. Ochterski, 
 R. L. Martin, K. Morokuma, V. G. Zakrzewski, G. A. Voth, 
 P. Salvador, J. J. Dannenberg, S. Dapprich, A. D. Daniels, 
 O. Farkas, J. B. Foresman, J. V. Ortiz, J. Cioslowski, 
 and D. J. Fox, Gaussian, Inc., Wallingford CT, 2009.
 
 ******************************************
 Gaussian 09:  IA32W-G09RevA.02 11-Jun-2009
                06-Sep-2021 
 ******************************************
 %nprocshared=12
 Will use up to   12 processors via shared memory.
 ----------------------------------------------
 # opt freq=noraman hf/6-311g geom=connectivity
 ----------------------------------------------
 1/18=20,19=15,38=1,57=2/1,3;
 2/9=110,12=2,17=6,18=5,40=1/2;
 3/5=4,6=6,11=9,16=1,25=1,30=1,71=1/1,2,3;
 4//1;
 5/5=2,38=5/2;
 6/7=2,8=2,9=2,10=2,28=1/1;
 7//1,2,3,16;
 1/18=20,19=15/3(2);
 2/9=110/2;
 99//99;
 2/9=110/2;
 3/5=4,6=6,11=9,16=1,25=1,30=1,71=1/1,2,3;
 4/5=5,16=3/1;
 5/5=2,38=5/2;
 7//1,2,3,16;
 1/18=20,19=15/3(-5);
 2/9=110/2;
 6/7=2,8=2,9=2,10=2,19=2,28=1/1;
 99/9=1/99;
 -----
 M0001
 -----
 Symbolic Z-matrix:
 Charge =  0 Multiplicity = 1
 C                     0.19887  -0.21764   0.71665 
 H                     0.44375  -0.51337   1.77202 
 C                    -1.28374  -0.41625   0.51095 
 C                    -1.91679   0.00123  -0.66164 
 C                    -2.03993  -1.02576   1.51429 
 C                    -3.2844   -0.18084  -0.82554 
 H                    -1.31402   0.45979  -1.46048 
 C                    -3.40817  -1.20939   1.34675 
 H                    -1.55587  -1.36266   2.4385 
 C                    -4.03285  -0.78536   0.17909 
 H                    -3.77182   0.15164  -1.74778 
 H                    -3.99384  -1.68896   2.13786 
 H                    -5.11042  -0.92849   0.05001 
 C                     0.57838   1.23993   0.62793 
 C                     1.67599   1.68327  -0.10898 
 C                    -0.16661   2.17026   1.36055 
 C                     2.01993   3.0314   -0.11816 
 H                     2.27316   0.96596  -0.68619 
 C                     0.17727   3.51545   1.34859 
 H                    -1.03117   1.8297    1.94291 
 C                     1.27262   3.94988   0.60838 
 H                     2.88435   3.36653  -0.70052 
 H                    -0.41496   4.23447   1.92375 
 H                     1.54391   5.01024   0.5996 
 C                     0.98611  -1.11974  -0.20064 
 C                     0.88536  -1.02321  -1.59056 
 C                     1.83163  -2.08308   0.35431 
 C                     1.61721  -1.87316  -2.41034 
 H                     0.20673  -0.2733   -2.02687 
 C                     2.56323  -2.93269  -0.46812 
 H                     1.92087  -2.17253   1.44346 
 C                     2.45837  -2.82919  -1.85063 
 H                     1.52909  -1.79002  -3.49839 
 H                     3.22301  -3.68513  -0.02405 
 H                     3.03478  -3.499    -2.49672 
 

 GradGradGradGradGradGradGradGradGradGradGradGradGradGradGradGradGradGrad
 Berny optimization.
 Initialization pass.
                           ----------------------------
                           !    Initial Parameters    !
                           ! (Angstroms and Degrees)  !
 --------------------------                            --------------------------
 ! Name  Definition              Value          Derivative Info.                !
 --------------------------------------------------------------------------------
 ! R1    R(1,2)                  1.123          estimate D2E/DX2                !
 ! R2    R(1,3)                  1.5099         estimate D2E/DX2                !
 ! R3    R(1,14)                 1.5088         estimate D2E/DX2                !
 ! R4    R(1,25)                 1.5083         estimate D2E/DX2                !
 ! R5    R(3,4)                  1.3964         estimate D2E/DX2                !
 ! R6    R(3,5)                  1.3964         estimate D2E/DX2                !
 ! R7    R(4,6)                  1.3894         estimate D2E/DX2                !
 ! R8    R(4,7)                  1.1008         estimate D2E/DX2                !
 ! R9    R(5,8)                  1.3906         estimate D2E/DX2                !
 ! R10   R(5,9)                  1.0963         estimate D2E/DX2                !
 ! R11   R(6,10)                 1.391          estimate D2E/DX2                !
 ! R12   R(6,11)                 1.0948         estimate D2E/DX2                !
 ! R13   R(8,10)                 1.3905         estimate D2E/DX2                !
 ! R14   R(8,12)                 1.0949         estimate D2E/DX2                !
 ! R15   R(10,13)                1.0947         estimate D2E/DX2                !
 ! R16   R(14,15)                1.3944         estimate D2E/DX2                !
 ! R17   R(14,16)                1.399          estimate D2E/DX2                !
 ! R18   R(15,17)                1.3913         estimate D2E/DX2                !
 ! R19   R(15,18)                1.0974         estimate D2E/DX2                !
 ! R20   R(16,19)                1.3885         estimate D2E/DX2                !
 ! R21   R(16,20)                1.0966         estimate D2E/DX2                !
 ! R22   R(17,21)                1.3892         estimate D2E/DX2                !
 ! R23   R(17,22)                1.0948         estimate D2E/DX2                !
 ! R24   R(19,21)                1.3916         estimate D2E/DX2                !
 ! R25   R(19,23)                1.0948         estimate D2E/DX2                !
 ! R26   R(21,24)                1.0946         estimate D2E/DX2                !
 ! R27   R(25,26)                1.3969         estimate D2E/DX2                !
 ! R28   R(25,27)                1.3967         estimate D2E/DX2                !
 ! R29   R(26,28)                1.3893         estimate D2E/DX2                !
 ! R30   R(26,29)                1.1015         estimate D2E/DX2                !
 ! R31   R(27,30)                1.3905         estimate D2E/DX2                !
 ! R32   R(27,31)                1.0965         estimate D2E/DX2                !
 ! R33   R(28,32)                1.391          estimate D2E/DX2                !
 ! R34   R(28,33)                1.0948         estimate D2E/DX2                !
 ! R35   R(30,32)                1.3903         estimate D2E/DX2                !
 ! R36   R(30,34)                1.0948         estimate D2E/DX2                !
 ! R37   R(32,35)                1.0947         estimate D2E/DX2                !
 ! A1    A(2,1,3)              107.908          estimate D2E/DX2                !
 ! A2    A(2,1,14)             104.7618         estimate D2E/DX2                !
 ! A3    A(2,1,25)             107.4705         estimate D2E/DX2                !
 ! A4    A(3,1,14)             111.4717         estimate D2E/DX2                !
 ! A5    A(3,1,25)             110.5471         estimate D2E/DX2                !
 ! A6    A(14,1,25)            114.2517         estimate D2E/DX2                !
 ! A7    A(1,3,4)              121.3463         estimate D2E/DX2                !
 ! A8    A(1,3,5)              119.4224         estimate D2E/DX2                !
 ! A9    A(4,3,5)              119.231          estimate D2E/DX2                !
 ! A10   A(3,4,6)              120.4054         estimate D2E/DX2                !
 ! A11   A(3,4,7)              119.0562         estimate D2E/DX2                !
 ! A12   A(6,4,7)              120.5295         estimate D2E/DX2                !
 ! A13   A(3,5,8)              120.2561         estimate D2E/DX2                !
 ! A14   A(3,5,9)              120.0485         estimate D2E/DX2                !
 ! A15   A(8,5,9)              119.6954         estimate D2E/DX2                !
 ! A16   A(4,6,10)             120.0919         estimate D2E/DX2                !
 ! A17   A(4,6,11)             119.8548         estimate D2E/DX2                !
 ! A18   A(10,6,11)            120.0532         estimate D2E/DX2                !
 ! A19   A(5,8,10)             120.1933         estimate D2E/DX2                !
 ! A20   A(5,8,12)             119.8063         estimate D2E/DX2                !
 ! A21   A(10,8,12)            120.0004         estimate D2E/DX2                !
 ! A22   A(6,10,8)             119.8211         estimate D2E/DX2                !
 ! A23   A(6,10,13)            120.0873         estimate D2E/DX2                !
 ! A24   A(8,10,13)            120.0915         estimate D2E/DX2                !
 ! A25   A(1,14,15)            122.4267         estimate D2E/DX2                !
 ! A26   A(1,14,16)            118.5339         estimate D2E/DX2                !
 ! A27   A(15,14,16)           118.9795         estimate D2E/DX2                !
 ! A28   A(14,15,17)           120.4068         estimate D2E/DX2                !
 ! A29   A(14,15,18)           119.9004         estimate D2E/DX2                !
 ! A30   A(17,15,18)           119.6928         estimate D2E/DX2                !
 ! A31   A(14,16,19)           120.5206         estimate D2E/DX2                !
 ! A32   A(14,16,20)           119.433          estimate D2E/DX2                !
 ! A33   A(19,16,20)           120.0456         estimate D2E/DX2                !
 ! A34   A(15,17,21)           120.2771         estimate D2E/DX2                !
 ! A35   A(15,17,22)           119.688          estimate D2E/DX2                !
 ! A36   A(21,17,22)           120.0349         estimate D2E/DX2                !
 ! A37   A(16,19,21)           120.1307         estimate D2E/DX2                !
 ! A38   A(16,19,23)           119.8536         estimate D2E/DX2                !
 ! A39   A(21,19,23)           120.0156         estimate D2E/DX2                !
 ! A40   A(17,21,19)           119.6845         estimate D2E/DX2                !
 ! A41   A(17,21,24)           120.1964         estimate D2E/DX2                !
 ! A42   A(19,21,24)           120.1191         estimate D2E/DX2                !
 ! A43   A(1,25,26)            121.7455         estimate D2E/DX2                !
 ! A44   A(1,25,27)            119.1323         estimate D2E/DX2                !
 ! A45   A(26,25,27)           119.1208         estimate D2E/DX2                !
 ! A46   A(25,26,28)           120.4545         estimate D2E/DX2                !
 ! A47   A(25,26,29)           119.0526         estimate D2E/DX2                !
 ! A48   A(28,26,29)           120.4873         estimate D2E/DX2                !
 ! A49   A(25,27,30)           120.326          estimate D2E/DX2                !
 ! A50   A(25,27,31)           120.014          estimate D2E/DX2                !
 ! A51   A(30,27,31)           119.66           estimate D2E/DX2                !
 ! A52   A(26,28,32)           120.1072         estimate D2E/DX2                !
 ! A53   A(26,28,33)           119.8402         estimate D2E/DX2                !
 ! A54   A(32,28,33)           120.0525         estimate D2E/DX2                !
 ! A55   A(27,30,32)           120.1967         estimate D2E/DX2                !
 ! A56   A(27,30,34)           119.8081         estimate D2E/DX2                !
 ! A57   A(32,30,34)           119.9951         estimate D2E/DX2                !
 ! A58   A(28,32,30)           119.7946         estimate D2E/DX2                !
 ! A59   A(28,32,35)           120.0975         estimate D2E/DX2                !
 ! A60   A(30,32,35)           120.1078         estimate D2E/DX2                !
 ! D1    D(2,1,3,4)            173.068          estimate D2E/DX2                !
 ! D2    D(2,1,3,5)             -6.7237         estimate D2E/DX2                !
 ! D3    D(14,1,3,4)            58.5581         estimate D2E/DX2                !
 ! D4    D(14,1,3,5)          -121.2336         estimate D2E/DX2                !
 ! D5    D(25,1,3,4)           -69.6703         estimate D2E/DX2                !
 ! D6    D(25,1,3,5)           110.538          estimate D2E/DX2                !
 ! D7    D(2,1,14,15)          109.4727         estimate D2E/DX2                !
 ! D8    D(2,1,14,16)          -67.6824         estimate D2E/DX2                !
 ! D9    D(3,1,14,15)         -134.0819         estimate D2E/DX2                !
 ! D10   D(3,1,14,16)           48.763          estimate D2E/DX2                !
 ! D11   D(25,1,14,15)          -7.864          estimate D2E/DX2                !
 ! D12   D(25,1,14,16)         174.9809         estimate D2E/DX2                !
 ! D13   D(2,1,25,26)          178.8677         estimate D2E/DX2                !
 ! D14   D(2,1,25,27)           -0.7029         estimate D2E/DX2                !
 ! D15   D(3,1,25,26)           61.3368         estimate D2E/DX2                !
 ! D16   D(3,1,25,27)         -118.2339         estimate D2E/DX2                !
 ! D17   D(14,1,25,26)         -65.3618         estimate D2E/DX2                !
 ! D18   D(14,1,25,27)         115.0675         estimate D2E/DX2                !
 ! D19   D(1,3,4,6)           -179.4405         estimate D2E/DX2                !
 ! D20   D(1,3,4,7)              1.6385         estimate D2E/DX2                !
 ! D21   D(5,3,4,6)              0.3516         estimate D2E/DX2                !
 ! D22   D(5,3,4,7)           -178.5694         estimate D2E/DX2                !
 ! D23   D(1,3,5,8)            179.5787         estimate D2E/DX2                !
 ! D24   D(1,3,5,9)             -0.4714         estimate D2E/DX2                !
 ! D25   D(4,3,5,8)             -0.2174         estimate D2E/DX2                !
 ! D26   D(4,3,5,9)            179.7325         estimate D2E/DX2                !
 ! D27   D(3,4,6,10)            -0.1802         estimate D2E/DX2                !
 ! D28   D(3,4,6,11)           179.8834         estimate D2E/DX2                !
 ! D29   D(7,4,6,10)           178.7248         estimate D2E/DX2                !
 ! D30   D(7,4,6,11)            -1.2116         estimate D2E/DX2                !
 ! D31   D(3,5,8,10)            -0.0882         estimate D2E/DX2                !
 ! D32   D(3,5,8,12)           179.946          estimate D2E/DX2                !
 ! D33   D(9,5,8,10)           179.9617         estimate D2E/DX2                !
 ! D34   D(9,5,8,12)            -0.004          estimate D2E/DX2                !
 ! D35   D(4,6,10,8)            -0.1285         estimate D2E/DX2                !
 ! D36   D(4,6,10,13)          179.9806         estimate D2E/DX2                !
 ! D37   D(11,6,10,8)          179.8079         estimate D2E/DX2                !
 ! D38   D(11,6,10,13)          -0.083          estimate D2E/DX2                !
 ! D39   D(5,8,10,6)             0.2623         estimate D2E/DX2                !
 ! D40   D(5,8,10,13)         -179.8468         estimate D2E/DX2                !
 ! D41   D(12,8,10,6)         -179.772          estimate D2E/DX2                !
 ! D42   D(12,8,10,13)           0.1189         estimate D2E/DX2                !
 ! D43   D(1,14,15,17)        -177.391          estimate D2E/DX2                !
 ! D44   D(1,14,15,18)           2.6338         estimate D2E/DX2                !
 ! D45   D(16,14,15,17)         -0.248          estimate D2E/DX2                !
 ! D46   D(16,14,15,18)        179.7768         estimate D2E/DX2                !
 ! D47   D(1,14,16,19)         177.5896         estimate D2E/DX2                !
 ! D48   D(1,14,16,20)          -2.732          estimate D2E/DX2                !
 ! D49   D(15,14,16,19)          0.3345         estimate D2E/DX2                !
 ! D50   D(15,14,16,20)       -179.9871         estimate D2E/DX2                !
 ! D51   D(14,15,17,21)          0.0398         estimate D2E/DX2                !
 ! D52   D(14,15,17,22)        179.9725         estimate D2E/DX2                !
 ! D53   D(18,15,17,21)       -179.985          estimate D2E/DX2                !
 ! D54   D(18,15,17,22)         -0.0522         estimate D2E/DX2                !
 ! D55   D(14,16,19,21)         -0.2123         estimate D2E/DX2                !
 ! D56   D(14,16,19,23)        179.8344         estimate D2E/DX2                !
 ! D57   D(20,16,19,21)       -179.8887         estimate D2E/DX2                !
 ! D58   D(20,16,19,23)          0.158          estimate D2E/DX2                !
 ! D59   D(15,17,21,19)          0.0864         estimate D2E/DX2                !
 ! D60   D(15,17,21,24)       -179.9527         estimate D2E/DX2                !
 ! D61   D(22,17,21,19)       -179.846          estimate D2E/DX2                !
 ! D62   D(22,17,21,24)          0.1148         estimate D2E/DX2                !
 ! D63   D(16,19,21,17)         -0.0004         estimate D2E/DX2                !
 ! D64   D(16,19,21,24)       -179.9613         estimate D2E/DX2                !
 ! D65   D(23,19,21,17)        179.9528         estimate D2E/DX2                !
 ! D66   D(23,19,21,24)         -0.0081         estimate D2E/DX2                !
 ! D67   D(1,25,26,28)        -179.6284         estimate D2E/DX2                !
 ! D68   D(1,25,26,29)          -0.4853         estimate D2E/DX2                !
 ! D69   D(27,25,26,28)         -0.0577         estimate D2E/DX2                !
 ! D70   D(27,25,26,29)        179.0854         estimate D2E/DX2                !
 ! D71   D(1,25,27,30)         179.6419         estimate D2E/DX2                !
 ! D72   D(1,25,27,31)          -0.3387         estimate D2E/DX2                !
 ! D73   D(26,25,27,30)          0.0598         estimate D2E/DX2                !
 ! D74   D(26,25,27,31)       -179.9208         estimate D2E/DX2                !
 ! D75   D(25,26,28,32)         -0.0117         estimate D2E/DX2                !
 ! D76   D(25,26,28,33)        179.88           estimate D2E/DX2                !
 ! D77   D(29,26,28,32)       -179.1424         estimate D2E/DX2                !
 ! D78   D(29,26,28,33)          0.7493         estimate D2E/DX2                !
 ! D79   D(25,27,30,32)          0.0074         estimate D2E/DX2                !
 ! D80   D(25,27,30,34)       -179.9659         estimate D2E/DX2                !
 ! D81   D(31,27,30,32)        179.9881         estimate D2E/DX2                !
 ! D82   D(31,27,30,34)          0.0147         estimate D2E/DX2                !
 ! D83   D(26,28,32,30)          0.0795         estimate D2E/DX2                !
 ! D84   D(26,28,32,35)        179.9848         estimate D2E/DX2                !
 ! D85   D(33,28,32,30)       -179.812          estimate D2E/DX2                !
 ! D86   D(33,28,32,35)          0.0934         estimate D2E/DX2                !
 ! D87   D(27,30,32,28)         -0.0773         estimate D2E/DX2                !
 ! D88   D(27,30,32,35)       -179.9827         estimate D2E/DX2                !
 ! D89   D(34,30,32,28)        179.8959         estimate D2E/DX2                !
 ! D90   D(34,30,32,35)         -0.0094         estimate D2E/DX2                !
 --------------------------------------------------------------------------------
 Trust Radius=3.00D-01 FncErr=1.00D-07 GrdErr=1.00D-07
 Number of steps in this run= 197 maximum allowed number of steps= 210.
 GradGradGradGradGradGradGradGradGradGradGradGradGradGradGradGradGradGrad

                          Input orientation:                          
 ---------------------------------------------------------------------
 Center     Atomic      Atomic             Coordinates (Angstroms)
 Number     Number       Type             X           Y           Z
 ---------------------------------------------------------------------
      1          6           0        0.198870   -0.217640    0.716650
      2          1           0        0.443746   -0.513369    1.772018
      3          6           0       -1.283736   -0.416246    0.510947
      4          6           0       -1.916790    0.001232   -0.661640
      5          6           0       -2.039928   -1.025757    1.514294
      6          6           0       -3.284397   -0.180837   -0.825537
      7          1           0       -1.314016    0.459787   -1.460482
      8          6           0       -3.408174   -1.209394    1.346750
      9          1           0       -1.555874   -1.362657    2.438504
     10          6           0       -4.032853   -0.785360    0.179094
     11          1           0       -3.771821    0.151636   -1.747781
     12          1           0       -3.993845   -1.688961    2.137864
     13          1           0       -5.110423   -0.928485    0.050013
     14          6           0        0.578380    1.239934    0.627934
     15          6           0        1.675989    1.683267   -0.108981
     16          6           0       -0.166611    2.170257    1.360552
     17          6           0        2.019926    3.031401   -0.118164
     18          1           0        2.273162    0.965957   -0.686190
     19          6           0        0.177273    3.515453    1.348595
     20          1           0       -1.031170    1.829704    1.942905
     21          6           0        1.272617    3.949876    0.608381
     22          1           0        2.884354    3.366533   -0.700520
     23          1           0       -0.414964    4.234474    1.923746
     24          1           0        1.543907    5.010239    0.599597
     25          6           0        0.986112   -1.119738   -0.200640
     26          6           0        0.885355   -1.023211   -1.590562
     27          6           0        1.831629   -2.083077    0.354312
     28          6           0        1.617215   -1.873160   -2.410338
     29          1           0        0.206727   -0.273298   -2.026872
     30          6           0        2.563226   -2.932689   -0.468116
     31          1           0        1.920871   -2.172531    1.443459
     32          6           0        2.458369   -2.829190   -1.850627
     33          1           0        1.529086   -1.790016   -3.498395
     34          1           0        3.223008   -3.685134   -0.024047
     35          1           0        3.034781   -3.498997   -2.496722
 ---------------------------------------------------------------------
                    Distance matrix (angstroms):
                    1          2          3          4          5
     1  C    0.000000
     2  H    1.123041   0.000000
     3  C    1.509927   2.141011   0.000000
     4  C    2.534484   3.429232   1.396426   0.000000
     5  C    2.510280   2.549039   1.396436   2.409265   0.000000
     6  C    3.809573   4.555976   2.417489   1.389374   2.781619
     7  H    2.736355   3.806024   2.157519   1.100799   3.403393
     8  C    3.793596   3.937333   2.416793   2.779113   1.390644
     9  H    2.712005   2.272438   2.164539   3.406075   1.096346
    10  C    4.303343   4.759341   2.793567   2.409000   2.410872
    11  H    4.687875   5.531927   3.408065   2.154869   3.876447
    12  H    4.665136   4.605222   3.407543   3.874032   2.155567
    13  H    5.397990   5.829787   3.888236   3.401487   3.403163
    14  C    1.508782   2.097886   2.494814   3.069733   3.574147
    15  C    2.544994   3.143531   3.681337   4.005339   4.876666
    16  C    2.500048   2.782748   2.942753   3.443408   3.707757
    17  C    3.816992   4.315382   4.816247   4.997502   5.967233
    18  H    2.769756   3.402639   3.999393   4.299651   5.235628
    19  C    3.786266   4.059766   4.277202   4.558058   5.056286
    20  H    2.684831   2.773909   2.675553   3.303224   3.058587
    21  C    4.304979   4.686324   5.060380   5.232309   6.045705
    22  H    4.697499   5.208037   5.757608   5.863255   6.960328
    23  H    4.653515   4.827258   4.937607   5.182668   5.520706
    24  H    5.399403   5.752840   6.119654   6.217500   7.079110
    25  C    1.508294   2.133828   2.480618   3.145781   3.479475
    26  C    2.538392   3.429563   3.080537   3.124804   4.265843
    27  C    2.505403   2.529841   3.536716   4.407624   4.177612
    28  C    3.811889   4.551720   4.367153   4.365831   5.430978
    29  H    2.744098   3.813840   2.946599   2.539400   4.260694
    30  C    3.790164   3.919631   4.700018   5.358721   5.362403
    31  H    2.704651   2.245589   3.771422   4.887160   4.124081
    32  C    4.303074   4.748188   5.040108   5.344811   5.899978
    33  H    4.691316   5.530375   5.086653   4.809347   6.200726
    34  H    4.660209   4.583693   5.593084   6.357149   6.094036
    35  H    5.397727   5.818039   6.099100   6.335392   6.925160
                    6          7          8          9         10
     6  C    0.000000
     7  H    2.167016   0.000000
     8  C    2.406674   3.879719   0.000000
     9  H    3.877945   4.310672   2.155559   0.000000
    10  C    1.391013   3.410378   1.390485   3.402004   0.000000
    11  H    1.094831   2.493653   3.400112   4.972774   2.158459
    12  H    3.399926   4.974605   1.094923   2.478015   2.157498
    13  H    2.158689   4.315276   2.158260   4.304441   1.094670
    14  C    4.364884   2.924256   4.733764   3.821870   5.056358
    15  C    5.347314   3.501941   6.027882   5.119792   6.226395
    16  C    4.475178   3.492919   4.682944   3.946330   5.007929
    17  C    6.241369   4.419297   7.042342   6.215356   7.161855
    18  H    5.676356   3.704536   6.414248   5.463302   6.601641
    19  C    5.511131   4.410437   5.931241   5.290337   6.131060
    20  H    4.096776   3.679636   3.904058   3.272935   4.354273
    21  C    6.315479   4.811609   7.005216   6.290685   7.124238
    22  H    7.117089   5.162657   8.045268   7.206549   8.115399
    23  H    5.940301   5.148744   6.239226   5.735376   6.428972
    24  H    7.231238   5.754847   7.985311   7.321478   8.053947
    25  C    4.416931   3.061485   4.659635   3.672299   5.044405
    26  C    4.322233   2.655831   5.205465   4.723156   5.232307
    27  C    5.584289   4.433364   5.404054   4.042034   6.008904
    28  C    5.422301   3.864839   6.309582   5.817248   6.309654
    29  H    3.693197   1.780694   5.032407   4.922708   4.806510
    30  C    6.472645   5.246588   6.474651   5.280192   6.966934
    31  H    6.017476   5.081976   5.416246   3.705910   6.242572
    32  C    6.406556   5.020008   6.874830   6.054875   7.101618
    33  H    5.736136   4.159079   6.941836   6.704207   6.743028
    34  H    7.434299   6.310967   7.209781   5.856259   7.816487
    35  H    7.330421   5.971416   7.843866   7.070681   8.029650
                   11         12         13         14         15
    11  H    0.000000
    12  H    4.305267   0.000000
    13  H    2.488088   2.486803   0.000000
    14  C    5.074708   5.635917   6.115433   0.000000
    15  C    5.891536   6.969020   7.273370   1.394393   0.000000
    16  C    5.170503   5.490492   5.980050   1.399014   2.406628
    17  C    6.670309   7.971005   8.157871   2.417451   1.391346
    18  H    6.191277   7.368802   7.658214   2.162006   1.097415
    19  C    6.041370   6.716182   7.028132   2.420377   2.779853
    20  H    4.893694   4.603960   5.275505   2.160470   3.400058
    21  C    6.739768   7.865838   8.053159   2.797522   2.411397
    22  H    7.465721   8.995780   9.106423   3.406571   2.154867
    23  H    6.435695   6.923967   7.225951   3.410738   3.874626
    24  H    7.574508   8.826791   8.935916   3.892074   3.404155
    25  C    5.162167   5.531056   6.104682   2.533936   2.888108
    26  C    4.805651   6.176648   6.216898   3.183989   3.185154
    27  C    6.388379   6.105123   7.043988   3.562009   3.797922
    28  C    5.794868   7.225237   7.225431   4.472318   4.236493
    29  H    4.010899   6.082264   5.745852   3.078310   3.108888
    30  C    7.161245   7.164717   7.947967   4.748866   4.714151
    31  H    6.927663   5.974940   7.275194   3.756633   4.163798
    32  C    6.907328   7.670674   8.031920   5.122050   4.899767
    33  H    5.910523   7.891792   7.577369   5.206825   4.855245
    34  H    8.162089   7.793685   8.777851   5.628093   5.587504
    35  H    7.760018   8.611457   8.912786   6.185051   5.865448
                   16         17         18         19         20
    16  C    0.000000
    17  C    2.776529   0.000000
    18  H    3.404700   2.157045   0.000000
    19  C    1.388507   2.404383   3.877245   0.000000
    20  H    1.096620   3.873148   4.310083   2.157613   0.000000
    21  C    2.409186   1.389221   3.403054   1.391552   3.403457
    22  H    3.871367   1.094847   2.477202   3.398432   4.967985
    23  H    2.154034   3.397863   4.972021   1.094777   2.482539
    24  H    3.401532   2.158141   4.305959   2.159415   4.307123
    25  C    3.819706   4.278730   2.498476   4.953720   4.166944
    26  C    4.473695   4.460391   2.588568   5.453393   4.929258
    27  C    4.805864   5.139706   3.251800   5.921911   5.101873
    28  C    5.809549   5.428716   3.385785   6.726080   6.298879
    29  H    4.193446   4.225150   2.757415   5.074375   4.659844
    30  C    6.069275   5.999001   3.915499   7.111382   6.435301
    31  H    4.819156   5.434095   3.809150   5.949983   4.998188
    32  C    6.495896   6.127005   3.974086   7.462769   6.947882
    33  H    6.493729   5.908718   4.007185   7.312230   7.018906
    34  H    6.905956   6.824083   4.793045   7.937827   7.237428
    35  H    7.567557   7.023786   4.877900   8.494370   8.039733
                   21         22         23         24         25
    21  C    0.000000
    22  H    2.156666   0.000000
    23  H    2.158497   4.304137   0.000000
    24  H    1.094553   2.487744   2.488445   0.000000
    25  C    5.141749   4.896921   5.928206   6.207104   0.000000
    26  C    5.451322   4.904898   6.456350   6.452364   1.396909
    27  C    6.064121   5.649704   6.886346   7.103385   1.396743
    28  C    6.568041   5.655396   7.759976   7.513073   2.418409
    29  H    5.090764   4.709275   6.026102   6.049972   2.158478
    30  C    7.084788   6.311682   8.121506   8.078931   2.417772
    31  H    6.213007   6.017158   6.836412   7.241988   2.164535
    32  C    7.308110   6.315948   8.508660   8.264169   2.795036
    33  H    7.062418   6.021201   8.335073   7.939599   3.408707
    34  H    7.905527   7.092130   8.930226   8.877940   3.408246
    35  H    8.260302   7.098202   9.552375   9.176982   3.889719
                   26         27         28         29         30
    26  C    0.000000
    27  C    2.408586   0.000000
    28  C    1.389267   2.780886   0.000000
    29  H    1.101486   3.403769   2.167044   0.000000
    30  C    2.778712   1.390490   2.406192   3.880099   0.000000
    31  H    3.405660   1.096453   3.877316   4.311447   2.155129
    32  C    2.409060   2.410652   1.390975   3.410797   1.390339
    33  H    2.154578   3.875663   1.094782   2.492879   3.399667
    34  H    3.873554   2.155383   3.399441   4.974925   1.094844
    35  H    3.401569   3.403057   2.158773   4.315528   2.158312
                   31         32         33         34         35
    31  H    0.000000
    32  C    3.401634   0.000000
    33  H    4.972096   2.158376   0.000000
    34  H    2.477317   2.157245   4.304873   0.000000
    35  H    4.304107   1.094683   2.488188   2.486805   0.000000
 Stoichiometry    C19H16
 Framework group  C1[X(C19H16)]
 Deg. of freedom    99
 Full point group                 C1      NOp   1
 Largest Abelian subgroup         C1      NOp   1
 Largest concise Abelian subgroup C1      NOp   1
                         Standard orientation:                         
 ---------------------------------------------------------------------
 Center     Atomic      Atomic             Coordinates (Angstroms)
 Number     Number       Type             X           Y           Z
 ---------------------------------------------------------------------
      1          6           0       -0.011208    0.013045   -0.760447
      2          1           0        0.018131    0.016767   -1.883099
      3          6           0        0.751912   -1.198057   -0.280072
      4          6           0        1.014326   -1.400313    1.076481
      5          6           0        1.209220   -2.134027   -1.210052
      6          6           0        1.728444   -2.515890    1.495865
      7          1           0        0.632061   -0.673139    1.809182
      8          6           0        1.921386   -3.251265   -0.787570
      9          1           0        1.006940   -1.990787   -2.278013
     10          6           0        2.184464   -3.442794    0.564301
     11          1           0        1.930714   -2.664565    2.561528
     12          1           0        2.275722   -3.980943   -1.523010
     13          1           0        2.747376   -4.321552    0.894782
     14          6           0        0.673644    1.294441   -0.353726
     15          6           0       -0.019768    2.369087    0.201834
     16          6           0        2.044741    1.426239   -0.598603
     17          6           0        0.644905    3.551430    0.511863
     18          1           0       -1.096323    2.283465    0.396820
     19          6           0        2.706489    2.606420   -0.286812
     20          1           0        2.597349    0.585825   -1.035527
     21          6           0        2.007452    3.673153    0.269824
     22          1           0        0.088790    4.387990    0.947286
     23          1           0        3.780197    2.696718   -0.480548
     24          1           0        2.529171    4.603621    0.514947
     25          6           0       -1.458686   -0.074477   -0.345598
     26          6           0       -1.836422   -0.122994    0.998395
     27          6           0       -2.447204   -0.117033   -1.331454
     28          6           0       -3.177518   -0.211186    1.350169
     29          1           0       -1.055114   -0.104705    1.774601
     30          6           0       -3.788875   -0.205263   -0.977054
     31          1           0       -2.167091   -0.081193   -2.390916
     32          6           0       -4.156604   -0.251666    0.362970
     33          1           0       -3.462142   -0.250569    2.406572
     34          1           0       -4.556698   -0.238632   -1.756809
     35          1           0       -5.213268   -0.321408    0.640327
 ---------------------------------------------------------------------
 Rotational constants (GHZ):      0.4040979      0.3817082      0.2326392
 Standard basis: 6-311G (5D, 7F)
 There are   295 symmetry adapted basis functions of A   symmetry.
 Integral buffers will be    262144 words long.
 Raffenetti 1 integral format.
 Two-electron integral symmetry is turned on.
   295 basis functions,   574 primitive gaussians,   295 cartesian basis functions
    65 alpha electrons       65 beta electrons
       nuclear repulsion energy      1290.6461906962 Hartrees.
 NAtoms=   35 NActive=   35 NUniq=   35 SFac= 7.50D-01 NAtFMM=   80 NAOKFM=F Big=F
 One-electron integrals computed using PRISM.
 PrsmSu:  requested number of processors reduced to:  10 ShMem   1 Linda.
 NBasis=   295 RedAO= T  NBF=   295
 NBsUse=   295 1.00D-06 NBFU=   295
 Harris functional with IExCor=  205 diagonalized for initial guess.
 ExpMin= 1.03D-01 ExpMax= 4.56D+03 ExpMxC= 6.82D+02 IAcc=1 IRadAn=         1 AccDes= 0.00D+00
 HarFok:  IExCor=  205 AccDes= 0.00D+00 IRadAn=         1 IDoV= 1
 ScaDFX=  1.000000  1.000000  1.000000  1.000000
 FoFCou: FMM=F IPFlag=           0 FMFlag=      100000 FMFlg1=           0
         NFxFlg=           0 DoJE=T BraDBF=F KetDBF=T FulRan=T
         Omega=  0.000000  0.000000  1.000000  0.000000  0.000000 ICntrl=     500 IOpCl=  0
         NMat0=    1 NMatS0=    1 NMatT0=    0 NMatD0=    1 NMtDS0=    0 NMtDT0=    0
         I1Cent=           4 NGrid=           0.
 Petite list used in FoFCou.
 Initial guess orbital symmetries:
       Occupied  (A) (A) (A) (A) (A) (A) (A) (A) (A) (A) (A) (A)
                 (A) (A) (A) (A) (A) (A) (A) (A) (A) (A) (A) (A)
                 (A) (A) (A) (A) (A) (A) (A) (A) (A) (A) (A) (A)
                 (A) (A) (A) (A) (A) (A) (A) (A) (A) (A) (A) (A)
                 (A) (A) (A) (A) (A) (A) (A) (A) (A) (A) (A) (A)
                 (A) (A) (A) (A) (A)
       Virtual   (A) (A) (A) (A) (A) (A) (A) (A) (A) (A) (A) (A)
                 (A) (A) (A) (A) (A) (A) (A) (A) (A) (A) (A) (A)
                 (A) (A) (A) (A) (A) (A) (A) (A) (A) (A) (A) (A)
                 (A) (A) (A) (A) (A) (A) (A) (A) (A) (A) (A) (A)
                 (A) (A) (A) (A) (A) (A) (A) (A) (A) (A) (A) (A)
                 (A) (A) (A) (A) (A) (A) (A) (A) (A) (A) (A) (A)
                 (A) (A) (A) (A) (A) (A) (A) (A) (A) (A) (A) (A)
                 (A) (A) (A) (A) (A) (A) (A) (A) (A) (A) (A) (A)
                 (A) (A) (A) (A) (A) (A) (A) (A) (A) (A) (A) (A)
                 (A) (A) (A) (A) (A) (A) (A) (A) (A) (A) (A) (A)
                 (A) (A) (A) (A) (A) (A) (A) (A) (A) (A) (A) (A)
                 (A) (A) (A) (A) (A) (A) (A) (A) (A) (A) (A) (A)
                 (A) (A) (A) (A) (A) (A) (A) (A) (A) (A) (A) (A)
                 (A) (A) (A) (A) (A) (A) (A) (A) (A) (A) (A) (A)
                 (A) (A) (A) (A) (A) (A) (A) (A) (A) (A) (A) (A)
                 (A) (A) (A) (A) (A) (A) (A) (A) (A) (A) (A) (A)
                 (A) (A) (A) (A) (A) (A) (A) (A) (A) (A) (A) (A)
                 (A) (A) (A) (A) (A) (A) (A) (A) (A) (A) (A) (A)
                 (A) (A) (A) (A) (A) (A) (A) (A) (A) (A) (A) (A)
                 (A) (A)
 The electronic state of the initial guess is 1-A.
 Requested convergence on RMS density matrix=1.00D-08 within 128 cycles.
 Requested convergence on MAX density matrix=1.00D-06.
 Requested convergence on             energy=1.00D-06.
 No special actions if energy rises.
 Integral accuracy reduced to 1.0D-05 until final iterations.
 Initial convergence to 1.0D-05 achieved.  Increase integral accuracy.
 SCF Done:  E(RHF) =  -728.672393748     A.U. after   14 cycles
             Convg  =    0.8699D-08             -V/T =  2.0001

 **********************************************************************

            Population analysis using the SCF density.

 **********************************************************************

 Orbital symmetries:
       Occupied  (A) (A) (A) (A) (A) (A) (A) (A) (A) (A) (A) (A)
                 (A) (A) (A) (A) (A) (A) (A) (A) (A) (A) (A) (A)
                 (A) (A) (A) (A) (A) (A) (A) (A) (A) (A) (A) (A)
                 (A) (A) (A) (A) (A) (A) (A) (A) (A) (A) (A) (A)
                 (A) (A) (A) (A) (A) (A) (A) (A) (A) (A) (A) (A)
                 (A) (A) (A) (A) (A)
       Virtual   (A) (A) (A) (A) (A) (A) (A) (A) (A) (A) (A) (A)
                 (A) (A) (A) (A) (A) (A) (A) (A) (A) (A) (A) (A)
                 (A) (A) (A) (A) (A) (A) (A) (A) (A) (A) (A) (A)
                 (A) (A) (A) (A) (A) (A) (A) (A) (A) (A) (A) (A)
                 (A) (A) (A) (A) (A) (A) (A) (A) (A) (A) (A) (A)
                 (A) (A) (A) (A) (A) (A) (A) (A) (A) (A) (A) (A)
                 (A) (A) (A) (A) (A) (A) (A) (A) (A) (A) (A) (A)
                 (A) (A) (A) (A) (A) (A) (A) (A) (A) (A) (A) (A)
                 (A) (A) (A) (A) (A) (A) (A) (A) (A) (A) (A) (A)
                 (A) (A) (A) (A) (A) (A) (A) (A) (A) (A) (A) (A)
                 (A) (A) (A) (A) (A) (A) (A) (A) (A) (A) (A) (A)
                 (A) (A) (A) (A) (A) (A) (A) (A) (A) (A) (A) (A)
                 (A) (A) (A) (A) (A) (A) (A) (A) (A) (A) (A) (A)
                 (A) (A) (A) (A) (A) (A) (A) (A) (A) (A) (A) (A)
                 (A) (A) (A) (A) (A) (A) (A) (A) (A) (A) (A) (A)
                 (A) (A) (A) (A) (A) (A) (A) (A) (A) (A) (A) (A)
                 (A) (A) (A) (A) (A) (A) (A) (A) (A) (A) (A) (A)
                 (A) (A) (A) (A) (A) (A) (A) (A) (A) (A) (A) (A)
                 (A) (A) (A) (A) (A) (A) (A) (A) (A) (A) (A) (A)
                 (A) (A)
 The electronic state is 1-A.
 Alpha  occ. eigenvalues --  -11.25761 -11.25233 -11.25189 -11.24917 -11.24520
 Alpha  occ. eigenvalues --  -11.24433 -11.24421 -11.24375 -11.24220 -11.24167
 Alpha  occ. eigenvalues --  -11.24142 -11.24123 -11.24078 -11.24036 -11.24030
 Alpha  occ. eigenvalues --  -11.23968 -11.23729 -11.23630 -11.23501  -1.18615
 Alpha  occ. eigenvalues --   -1.15874  -1.15573  -1.09027  -1.02381  -1.02238
 Alpha  occ. eigenvalues --   -1.01878  -1.01488  -1.01087  -0.92919  -0.84284
 Alpha  occ. eigenvalues --   -0.83358  -0.82330  -0.81917  -0.81137  -0.77587
 Alpha  occ. eigenvalues --   -0.70870  -0.70366  -0.68984  -0.65687  -0.63899
 Alpha  occ. eigenvalues --   -0.63611  -0.62514  -0.61705  -0.61582  -0.59724
 Alpha  occ. eigenvalues --   -0.58848  -0.58490  -0.58319  -0.56771  -0.55070
 Alpha  occ. eigenvalues --   -0.51727  -0.50919  -0.50225  -0.49861  -0.49379
 Alpha  occ. eigenvalues --   -0.48425  -0.47952  -0.47503  -0.46317  -0.35019
 Alpha  occ. eigenvalues --   -0.34321  -0.33957  -0.33329  -0.32547  -0.31457
 Alpha virt. eigenvalues --    0.11534   0.12291   0.12754   0.13516   0.14986
 Alpha virt. eigenvalues --    0.15119   0.15637   0.16238   0.16484   0.16916
 Alpha virt. eigenvalues --    0.18904   0.19187   0.19231   0.21239   0.21296
 Alpha virt. eigenvalues --    0.21589   0.23565   0.24006   0.24951   0.25411
 Alpha virt. eigenvalues --    0.26828   0.31495   0.33159   0.34244   0.35776
 Alpha virt. eigenvalues --    0.37570   0.39798   0.40537   0.41503   0.43104
 Alpha virt. eigenvalues --    0.44094   0.44430   0.44931   0.45451   0.45611
 Alpha virt. eigenvalues --    0.45866   0.46749   0.47232   0.47963   0.50595
 Alpha virt. eigenvalues --    0.51073   0.51429   0.52184   0.54956   0.56070
 Alpha virt. eigenvalues --    0.57321   0.57837   0.58506   0.58897   0.59348
 Alpha virt. eigenvalues --    0.60219   0.60452   0.60624   0.61136   0.61469
 Alpha virt. eigenvalues --    0.62055   0.62217   0.62959   0.63408   0.63688
 Alpha virt. eigenvalues --    0.64260   0.64570   0.65222   0.65932   0.66400
 Alpha virt. eigenvalues --    0.67223   0.67817   0.68582   0.69843   0.72352
 Alpha virt. eigenvalues --    0.73114   0.73918   0.74457   0.75305   0.75739
 Alpha virt. eigenvalues --    0.76777   0.78863   0.79374   0.79921   0.81271
 Alpha virt. eigenvalues --    0.81507   0.82213   0.82497   0.82904   0.83291
 Alpha virt. eigenvalues --    0.83833   0.84365   0.84831   0.84939   0.85475
 Alpha virt. eigenvalues --    0.85944   0.86214   0.86481   0.87736   0.88149
 Alpha virt. eigenvalues --    0.90229   0.90840   0.92150   0.93462   0.95050
 Alpha virt. eigenvalues --    0.95941   0.96351   0.97039   0.98221   0.99719
 Alpha virt. eigenvalues --    1.00030   1.02329   1.03052   1.04786   1.06216
 Alpha virt. eigenvalues --    1.07122   1.08146   1.09320   1.10138   1.10857
 Alpha virt. eigenvalues --    1.11505   1.11726   1.12418   1.12765   1.13802
 Alpha virt. eigenvalues --    1.14999   1.16516   1.19728   1.20561   1.21105
 Alpha virt. eigenvalues --    1.23756   1.25735   1.27316   1.28103   1.29071
 Alpha virt. eigenvalues --    1.29442   1.31961   1.32863   1.46846   1.47740
 Alpha virt. eigenvalues --    1.52024   1.54189   1.56973   2.53509   2.55701
 Alpha virt. eigenvalues --    2.56060   2.57745   2.62081   2.62329   2.63884
 Alpha virt. eigenvalues --    2.66412   2.67106   2.68466   2.72056   2.74295
 Alpha virt. eigenvalues --    2.78343   2.83395   2.86648   2.91749   2.94352
 Alpha virt. eigenvalues --    2.94609   2.94747   2.96022   2.98103   2.98577
 Alpha virt. eigenvalues --    2.99955   3.02249   3.03920   3.04416   3.06501
 Alpha virt. eigenvalues --    3.08497   3.09262   3.09820   3.10071   3.13196
 Alpha virt. eigenvalues --    3.15141   3.16172   3.17715   3.18409   3.19407
 Alpha virt. eigenvalues --    3.21632   3.24096   3.25063   3.27675   3.28776
 Alpha virt. eigenvalues --    3.31425   3.33872   3.34328   3.35703   3.40910
 Alpha virt. eigenvalues --    3.41317   3.44158   3.45059   3.49938   3.52548
 Alpha virt. eigenvalues --    3.53513   3.55955   3.57583   3.58289   3.59562
 Alpha virt. eigenvalues --    3.62382   3.64077   3.65063   3.66253   3.66767
 Alpha virt. eigenvalues --    3.67677   3.69216   3.71257   3.72315   3.74267
 Alpha virt. eigenvalues --    3.76322   3.77529   3.78501   3.85578   3.88035
 Alpha virt. eigenvalues --    3.91094  24.26054  24.30027  24.31750  24.50527
 Alpha virt. eigenvalues --   24.50776  24.51039  24.53047  24.54601  24.56492
 Alpha virt. eigenvalues --   24.76206  24.77058  24.79106  24.80215  24.80719
 Alpha virt. eigenvalues --   24.82797  24.87417  25.04647  25.05797  25.07119
          Condensed to atoms (all electrons):
              1          2          3          4          5          6
     1  C    6.106875   0.472757   0.149506  -0.055965  -0.024564   0.003261
     2  H    0.472757   0.502721  -0.070504   0.005469   0.001693  -0.000262
     3  C    0.149506  -0.070504   5.391097   0.447607   0.492623  -0.058197
     4  C   -0.055965   0.005469   0.447607   5.068297  -0.072100   0.478870
     5  C   -0.024564   0.001693   0.492623  -0.072100   5.091925  -0.030649
     6  C    0.003261  -0.000262  -0.058197   0.478870  -0.030649   5.040643
     7  H    0.000172   0.000107  -0.044580   0.388715   0.004093  -0.028500
     8  C    0.006851   0.001560  -0.073902  -0.026438   0.454310  -0.078639
     9  H   -0.000095   0.002374  -0.050659   0.004329   0.400406  -0.000280
    10  C    0.001272  -0.000001  -0.018760  -0.091325  -0.086405   0.491137
    11  H   -0.000349   0.000011   0.006019  -0.038894  -0.000476   0.397228
    12  H   -0.000340  -0.000039   0.006926  -0.000685  -0.039670   0.006237
    13  H   -0.000012  -0.000001  -0.001548   0.007892   0.007489  -0.042915
    14  C    0.034293  -0.062417  -0.095068  -0.007010  -0.001541  -0.000544
    15  C   -0.030558   0.000835   0.001158   0.001651  -0.000444   0.000020
    16  C   -0.085659  -0.004794  -0.007050  -0.008795   0.000570  -0.000338
    17  C    0.012205  -0.000119  -0.000810   0.000050   0.000007   0.000004
    18  H   -0.011320  -0.000273   0.000424   0.000060  -0.000017   0.000000
    19  C    0.008336   0.000625  -0.001614  -0.000283  -0.000049  -0.000009
    20  H   -0.003010  -0.000139   0.004055  -0.000603   0.001619  -0.000253
    21  C    0.000388   0.000034   0.000129   0.000033  -0.000003   0.000002
    22  H   -0.000362   0.000014   0.000012   0.000000   0.000000   0.000000
    23  H   -0.000355   0.000005   0.000015   0.000014  -0.000004   0.000002
    24  H   -0.000014  -0.000002   0.000002   0.000000   0.000000   0.000000
    25  C    0.117966  -0.075417  -0.140981  -0.003336  -0.002092   0.001898
    26  C   -0.071831   0.004440  -0.003202  -0.011810   0.000519  -0.000401
    27  C   -0.024284   0.006440  -0.004476   0.000747   0.000619   0.000029
    28  C    0.002614  -0.000225   0.001976  -0.000100   0.000043  -0.000101
    29  H    0.000737  -0.000025  -0.003720   0.001899  -0.000213   0.001140
    30  C    0.008225   0.001459  -0.000589   0.000055  -0.000012  -0.000001
    31  H   -0.002056   0.002829   0.000158  -0.000025   0.000207   0.000001
    32  C    0.001702   0.000006  -0.000060  -0.000005  -0.000013   0.000002
    33  H   -0.000372   0.000012   0.000027   0.000038   0.000002   0.000000
    34  H   -0.000410  -0.000034   0.000021  -0.000001   0.000001   0.000000
    35  H   -0.000026  -0.000002  -0.000002   0.000001   0.000000   0.000000
              7          8          9         10         11         12
     1  C    0.000172   0.006851  -0.000095   0.001272  -0.000349  -0.000340
     2  H    0.000107   0.001560   0.002374  -0.000001   0.000011  -0.000039
     3  C   -0.044580  -0.073902  -0.050659  -0.018760   0.006019   0.006926
     4  C    0.388715  -0.026438   0.004329  -0.091325  -0.038894  -0.000685
     5  C    0.004093   0.454310   0.400406  -0.086405  -0.000476  -0.039670
     6  C   -0.028500  -0.078639  -0.000280   0.491137   0.397228   0.006237
     7  H    0.497237   0.000022  -0.000272   0.004556  -0.003326   0.000014
     8  C    0.000022   5.059281  -0.034804   0.497826   0.005967   0.396920
     9  H   -0.000272  -0.034804   0.509611   0.005233   0.000025  -0.004200
    10  C    0.004556   0.497826   0.005233   5.034142  -0.039837  -0.040670
    11  H   -0.003326   0.005967   0.000025  -0.039837   0.514781  -0.000205
    12  H    0.000014   0.396920  -0.004200  -0.040670  -0.000205   0.518081
    13  H   -0.000173  -0.042560  -0.000184   0.399655  -0.004470  -0.004583
    14  C    0.001121  -0.000421   0.000144   0.000042   0.000024   0.000011
    15  C   -0.000149   0.000020  -0.000034  -0.000002   0.000000   0.000000
    16  C    0.000299  -0.000101   0.000292   0.000111   0.000016  -0.000002
    17  C   -0.000103   0.000000   0.000000   0.000000   0.000000   0.000000
    18  H    0.000023   0.000000   0.000001   0.000000   0.000000   0.000000
    19  C    0.000064   0.000014  -0.000008   0.000002   0.000001   0.000000
    20  H   -0.000061   0.000119   0.000204  -0.000087   0.000005   0.000006
    21  C   -0.000040   0.000000   0.000001   0.000000   0.000000   0.000000
    22  H    0.000000   0.000000   0.000000   0.000000   0.000000   0.000000
    23  H    0.000005  -0.000001   0.000000   0.000000   0.000000   0.000000
    24  H    0.000001   0.000000   0.000000   0.000000   0.000000   0.000000
    25  C   -0.002847  -0.000519   0.000356  -0.000087   0.000027   0.000025
    26  C   -0.000967   0.000127  -0.000007  -0.000025   0.000056   0.000000
    27  C   -0.000199  -0.000017   0.000269  -0.000009   0.000000   0.000001
    28  C    0.000883   0.000001  -0.000001   0.000001   0.000002   0.000000
    29  H    0.001557  -0.000058   0.000001   0.000004  -0.000058   0.000001
    30  C    0.000000   0.000002   0.000006   0.000000   0.000000   0.000000
    31  H   -0.000002  -0.000002   0.000065  -0.000001   0.000000   0.000000
    32  C   -0.000014   0.000000  -0.000002   0.000000   0.000000   0.000000
    33  H   -0.000033   0.000000   0.000000   0.000000   0.000001   0.000000
    34  H    0.000000   0.000000   0.000000   0.000000   0.000000   0.000000
    35  H    0.000000   0.000000   0.000000   0.000000   0.000000   0.000000
             13         14         15         16         17         18
     1  C   -0.000012   0.034293  -0.030558  -0.085659   0.012205  -0.011320
     2  H   -0.000001  -0.062417   0.000835  -0.004794  -0.000119  -0.000273
     3  C   -0.001548  -0.095068   0.001158  -0.007050  -0.000810   0.000424
     4  C    0.007892  -0.007010   0.001651  -0.008795   0.000050   0.000060
     5  C    0.007489  -0.001541  -0.000444   0.000570   0.000007  -0.000017
     6  C   -0.042915  -0.000544   0.000020  -0.000338   0.000004   0.000000
     7  H   -0.000173   0.001121  -0.000149   0.000299  -0.000103   0.000023
     8  C   -0.042560  -0.000421   0.000020  -0.000101   0.000000   0.000000
     9  H   -0.000184   0.000144  -0.000034   0.000292   0.000000   0.000001
    10  C    0.399655   0.000042  -0.000002   0.000111   0.000000   0.000000
    11  H   -0.004470   0.000024   0.000000   0.000016   0.000000   0.000000
    12  H   -0.004583   0.000011   0.000000  -0.000002   0.000000   0.000000
    13  H    0.517407   0.000001   0.000000   0.000000   0.000000   0.000000
    14  C    0.000001   5.352179   0.500567   0.471403  -0.068909  -0.034826
    15  C    0.000000   0.500567   5.096575  -0.083732   0.454432   0.393984
    16  C    0.000000   0.471403  -0.083732   5.124571  -0.033340   0.004969
    17  C    0.000000  -0.068909   0.454432  -0.033340   5.078531  -0.036398
    18  H    0.000000  -0.034826   0.393984   0.004969  -0.036398   0.477440
    19  C    0.000000  -0.056827  -0.030145   0.463610  -0.073905  -0.000437
    20  H    0.000001  -0.045081   0.004478   0.397499  -0.000468  -0.000196
    21  C    0.000000  -0.020656  -0.089960  -0.085080   0.495612   0.005041
    22  H    0.000000   0.006481  -0.036838  -0.000407   0.395625  -0.003522
    23  H    0.000000   0.006150  -0.000437  -0.038340   0.006002   0.000017
    24  H    0.000000  -0.001454   0.007663   0.007443  -0.042144  -0.000170
    25  C   -0.000003  -0.065401  -0.012600   0.011451  -0.001593   0.001011
    26  C    0.000000   0.006674  -0.018286   0.000836  -0.000951  -0.001018
    27  C    0.000000  -0.000477   0.000874  -0.000278  -0.000114  -0.001068
    28  C    0.000000   0.000752  -0.001441   0.000015  -0.000040   0.000292
    29  H    0.000000   0.001421   0.001654   0.000012   0.000114   0.000038
    30  C    0.000000  -0.000765   0.000348   0.000005   0.000004  -0.000125
    31  H    0.000000   0.000497   0.000135   0.000012   0.000004   0.000089
    32  C    0.000000  -0.000068   0.000139   0.000000   0.000004   0.000102
    33  H    0.000000   0.000019   0.000003   0.000000  -0.000002   0.000038
    34  H    0.000000   0.000024  -0.000008   0.000000   0.000000   0.000011
    35  H    0.000000   0.000002  -0.000003   0.000000   0.000000   0.000009
             19         20         21         22         23         24
     1  C    0.008336  -0.003010   0.000388  -0.000362  -0.000355  -0.000014
     2  H    0.000625  -0.000139   0.000034   0.000014   0.000005  -0.000002
     3  C   -0.001614   0.004055   0.000129   0.000012   0.000015   0.000002
     4  C   -0.000283  -0.000603   0.000033   0.000000   0.000014   0.000000
     5  C   -0.000049   0.001619  -0.000003   0.000000  -0.000004   0.000000
     6  C   -0.000009  -0.000253   0.000002   0.000000   0.000002   0.000000
     7  H    0.000064  -0.000061  -0.000040   0.000000   0.000005   0.000001
     8  C    0.000014   0.000119   0.000000   0.000000  -0.000001   0.000000
     9  H   -0.000008   0.000204   0.000001   0.000000   0.000000   0.000000
    10  C    0.000002  -0.000087   0.000000   0.000000   0.000000   0.000000
    11  H    0.000001   0.000005   0.000000   0.000000   0.000000   0.000000
    12  H    0.000000   0.000006   0.000000   0.000000   0.000000   0.000000
    13  H    0.000000   0.000001   0.000000   0.000000   0.000000   0.000000
    14  C   -0.056827  -0.045081  -0.020656   0.006481   0.006150  -0.001454
    15  C   -0.030145   0.004478  -0.089960  -0.036838  -0.000437   0.007663
    16  C    0.463610   0.397499  -0.085080  -0.000407  -0.038340   0.007443
    17  C   -0.073905  -0.000468   0.495612   0.395625   0.006002  -0.042144
    18  H   -0.000437  -0.000196   0.005041  -0.003522   0.000017  -0.000170
    19  C    5.061958  -0.035152   0.480566   0.006015   0.397103  -0.043205
    20  H   -0.035152   0.489814   0.005229   0.000017  -0.003870  -0.000173
    21  C    0.480566   0.005229   5.042780  -0.041256  -0.040853   0.399488
    22  H    0.006015   0.000017  -0.041256   0.517810  -0.000213  -0.004468
    23  H    0.397103  -0.003870  -0.040853  -0.000213   0.517611  -0.004407
    24  H   -0.043205  -0.000173   0.399488  -0.004468  -0.004407   0.519360
    25  C   -0.000881   0.000815   0.000122   0.000058   0.000012   0.000001
    26  C   -0.000022  -0.000041  -0.000016   0.000026   0.000000   0.000001
    27  C    0.000009  -0.000006  -0.000004   0.000004   0.000000   0.000000
    28  C    0.000000   0.000000   0.000000  -0.000001   0.000000   0.000000
    29  H   -0.000053   0.000022   0.000000   0.000001  -0.000001   0.000000
    30  C    0.000000   0.000000   0.000000   0.000000   0.000000   0.000000
    31  H    0.000000  -0.000001   0.000000   0.000000   0.000000   0.000000
    32  C    0.000000   0.000000   0.000000  -0.000001   0.000000   0.000000
    33  H    0.000000   0.000000   0.000000   0.000000   0.000000   0.000000
    34  H    0.000000   0.000000   0.000000   0.000000   0.000000   0.000000
    35  H    0.000000   0.000000   0.000000   0.000000   0.000000   0.000000
             25         26         27         28         29         30
     1  C    0.117966  -0.071831  -0.024284   0.002614   0.000737   0.008225
     2  H   -0.075417   0.004440   0.006440  -0.000225  -0.000025   0.001459
     3  C   -0.140981  -0.003202  -0.004476   0.001976  -0.003720  -0.000589
     4  C   -0.003336  -0.011810   0.000747  -0.000100   0.001899   0.000055
     5  C   -0.002092   0.000519   0.000619   0.000043  -0.000213  -0.000012
     6  C    0.001898  -0.000401   0.000029  -0.000101   0.001140  -0.000001
     7  H   -0.002847  -0.000967  -0.000199   0.000883   0.001557   0.000000
     8  C   -0.000519   0.000127  -0.000017   0.000001  -0.000058   0.000002
     9  H    0.000356  -0.000007   0.000269  -0.000001   0.000001   0.000006
    10  C   -0.000087  -0.000025  -0.000009   0.000001   0.000004   0.000000
    11  H    0.000027   0.000056   0.000000   0.000002  -0.000058   0.000000
    12  H    0.000025   0.000000   0.000001   0.000000   0.000001   0.000000
    13  H   -0.000003   0.000000   0.000000   0.000000   0.000000   0.000000
    14  C   -0.065401   0.006674  -0.000477   0.000752   0.001421  -0.000765
    15  C   -0.012600  -0.018286   0.000874  -0.001441   0.001654   0.000348
    16  C    0.011451   0.000836  -0.000278   0.000015   0.000012   0.000005
    17  C   -0.001593  -0.000951  -0.000114  -0.000040   0.000114   0.000004
    18  H    0.001011  -0.001018  -0.001068   0.000292   0.000038  -0.000125
    19  C   -0.000881  -0.000022   0.000009   0.000000  -0.000053   0.000000
    20  H    0.000815  -0.000041  -0.000006   0.000000   0.000022   0.000000
    21  C    0.000122  -0.000016  -0.000004   0.000000   0.000000   0.000000
    22  H    0.000058   0.000026   0.000004  -0.000001   0.000001   0.000000
    23  H    0.000012   0.000000   0.000000   0.000000  -0.000001   0.000000
    24  H    0.000001   0.000001   0.000000   0.000000   0.000000   0.000000
    25  C    5.393742   0.451201   0.498660  -0.063862  -0.047519  -0.076808
    26  C    0.451201   5.097095  -0.063373   0.480181   0.386295  -0.029535
    27  C    0.498660  -0.063373   5.048725  -0.033958   0.004602   0.468128
    28  C   -0.063862   0.480181  -0.033958   5.046426  -0.027139  -0.077336
    29  H   -0.047519   0.386295   0.004602  -0.027139   0.497302  -0.000126
    30  C   -0.076808  -0.029535   0.468128  -0.077336  -0.000126   5.047358
    31  H   -0.045680   0.004756   0.394556  -0.000287  -0.000270  -0.033765
    32  C   -0.016107  -0.093590  -0.088985   0.490299   0.004632   0.499800
    33  H    0.005972  -0.038552  -0.000378   0.397007  -0.003389   0.005898
    34  H    0.007017  -0.000632  -0.039455   0.006269   0.000016   0.396362
    35  H   -0.001680   0.007990   0.007571  -0.042974  -0.000170  -0.042556
             31         32         33         34         35
     1  C   -0.002056   0.001702  -0.000372  -0.000410  -0.000026
     2  H    0.002829   0.000006   0.000012  -0.000034  -0.000002
     3  C    0.000158  -0.000060   0.000027   0.000021  -0.000002
     4  C   -0.000025  -0.000005   0.000038  -0.000001   0.000001
     5  C    0.000207  -0.000013   0.000002   0.000001   0.000000
     6  C    0.000001   0.000002   0.000000   0.000000   0.000000
     7  H   -0.000002  -0.000014  -0.000033   0.000000   0.000000
     8  C   -0.000002   0.000000   0.000000   0.000000   0.000000
     9  H    0.000065  -0.000002   0.000000   0.000000   0.000000
    10  C   -0.000001   0.000000   0.000000   0.000000   0.000000
    11  H    0.000000   0.000000   0.000001   0.000000   0.000000
    12  H    0.000000   0.000000   0.000000   0.000000   0.000000
    13  H    0.000000   0.000000   0.000000   0.000000   0.000000
    14  C    0.000497  -0.000068   0.000019   0.000024   0.000002
    15  C    0.000135   0.000139   0.000003  -0.000008  -0.000003
    16  C    0.000012   0.000000   0.000000   0.000000   0.000000
    17  C    0.000004   0.000004  -0.000002   0.000000   0.000000
    18  H    0.000089   0.000102   0.000038   0.000011   0.000009
    19  C    0.000000   0.000000   0.000000   0.000000   0.000000
    20  H   -0.000001   0.000000   0.000000   0.000000   0.000000
    21  C    0.000000   0.000000   0.000000   0.000000   0.000000
    22  H    0.000000  -0.000001   0.000000   0.000000   0.000000
    23  H    0.000000   0.000000   0.000000   0.000000   0.000000
    24  H    0.000000   0.000000   0.000000   0.000000   0.000000
    25  C   -0.045680  -0.016107   0.005972   0.007017  -0.001680
    26  C    0.004756  -0.093590  -0.038552  -0.000632   0.007990
    27  C    0.394556  -0.088985  -0.000378  -0.039455   0.007571
    28  C   -0.000287   0.490299   0.397007   0.006269  -0.042974
    29  H   -0.000270   0.004632  -0.003389   0.000016  -0.000170
    30  C   -0.033765   0.499800   0.005898   0.396362  -0.042556
    31  H    0.506531   0.005066   0.000025  -0.004076  -0.000178
    32  C    0.005066   5.033636  -0.039790  -0.041023   0.399450
    33  H    0.000025  -0.039790   0.514372  -0.000206  -0.004370
    34  H   -0.004076  -0.041023  -0.000206   0.517953  -0.004555
    35  H   -0.000178   0.399450  -0.004370  -0.004555   0.516953
 Mulliken atomic charges:
              1
     1  C   -0.615577
     2  H    0.210863
     3  C    0.073967
     4  C   -0.088353
     5  C   -0.197874
     6  C   -0.179386
     7  H    0.182398
     8  C   -0.165560
     9  H    0.167227
    10  C   -0.156771
    11  H    0.163452
    12  H    0.162172
    13  H    0.164004
    14  C    0.079661
    15  C   -0.159900
    16  C   -0.135199
    17  C   -0.183698
    18  H    0.205820
    19  C   -0.175713
    20  H    0.185259
    21  C   -0.151556
    22  H    0.161006
    23  H    0.161545
    24  H    0.162079
    25  C    0.067077
    26  C   -0.105935
    27  C   -0.174154
    28  C   -0.179294
    29  H    0.181294
    30  C   -0.166033
    31  H    0.171411
    32  C   -0.155180
    33  H    0.163678
    34  H    0.162727
    35  H    0.164541
 Sum of Mulliken atomic charges =   0.00000
 Mulliken charges with hydrogens summed into heavy atoms:
              1
     1  C   -0.404714
     3  C    0.073967
     4  C    0.094045
     5  C   -0.030646
     6  C   -0.015934
     8  C   -0.003388
    10  C    0.007233
    14  C    0.079661
    15  C    0.045921
    16  C    0.050060
    17  C   -0.022692
    19  C   -0.014167
    21  C    0.010522
    25  C    0.067077
    26  C    0.075359
    27  C   -0.002743
    28  C   -0.015616
    30  C   -0.003306
    32  C    0.009361
 Sum of Mulliken charges with hydrogens summed into heavy atoms =   0.00000
 Electronic spatial extent (au):  <R**2>=           4932.1116
 Charge=              0.0000 electrons
 Dipole moment (field-independent basis, Debye):
    X=             -0.0940    Y=             -0.1674    Z=             -0.0191  Tot=              0.1929
 Quadrupole moment (field-independent basis, Debye-Ang):
   XX=           -107.6691   YY=           -113.2658   ZZ=           -106.8295
   XY=             -2.7715   XZ=             -0.9367   YZ=              2.6315
 Traceless Quadrupole moment (field-independent basis, Debye-Ang):
   XX=              1.5857   YY=             -4.0110   ZZ=              2.4253
   XY=             -2.7715   XZ=             -0.9367   YZ=              2.6315
 Octapole moment (field-independent basis, Debye-Ang**2):
  XXX=            -27.8361  YYY=              9.6081  ZZZ=              0.7575  XYY=             36.8361
  XXY=              1.2338  XXZ=             -2.9307  XZZ=             -9.9851  YZZ=            -18.5725
  YYZ=             11.9378  XYZ=             -1.4454
 Hexadecapole moment (field-independent basis, Debye-Ang**3):
 XXXX=          -3055.1738 YYYY=          -2914.1550 ZZZZ=           -666.1940 XXXY=             62.6387
 XXXZ=            -15.0605 YYYX=            -66.1889 YYYZ=             74.3600 ZZZX=              6.5553
 ZZZY=             -2.5688 XXYY=          -1017.8317 XXZZ=           -628.1541 YYZZ=           -635.8550
 XXYZ=             -8.7545 YYXZ=             10.3421 ZZXY=            -33.1893
 N-N= 1.290646190696D+03 E-N=-4.277368332545D+03  KE= 7.286020519034D+02
 PrsmSu:  requested number of processors reduced to:  10 ShMem   1 Linda.
 Calling FoFJK, ICntrl=      2127 FMM=F ISym2X=0 I1Cent= 0 IOpClX= 0 NMat=1 NMatS=1 NMatT=0.
 ***** Axes restored to original set *****
 -------------------------------------------------------------------
 Center     Atomic                   Forces (Hartrees/Bohr)
 Number     Number              X              Y              Z
 -------------------------------------------------------------------
      1        6           0.005246580   -0.007443622    0.021340587
      2        1          -0.007267184    0.002480011   -0.024126001
      3        6          -0.011180246   -0.004705966    0.007719143
      4        6           0.004336896    0.005295446   -0.009134376
      5        6           0.002921559   -0.001996836    0.004616167
      6        6          -0.002995239    0.004225684   -0.011322584
      7        1          -0.020200593   -0.004649993    0.018768986
      8        6          -0.009307539   -0.005745046    0.008205900
      9        1          -0.007182880    0.005677488   -0.014995118
     10        6          -0.013474490   -0.002828017    0.000500321
     11        1           0.007394225   -0.005143492    0.014130177
     12        1           0.008725087    0.007384553   -0.012136411
     13        1           0.016544778    0.002238829    0.002028147
     14        6           0.005831314    0.013751516   -0.001185530
     15        6           0.007149965   -0.007873626   -0.005889464
     16        6          -0.006864623    0.000065210    0.005404248
     17        6           0.009195165    0.006811785   -0.005706511
     18        1          -0.010412557    0.015363302    0.011814885
     19        6          -0.007800653    0.006600588    0.007586838
     20        1           0.014449258    0.006811717   -0.009764111
     21        6           0.004944737    0.012744938   -0.001549042
     22        1          -0.013175270   -0.005053545    0.008861454
     23        1           0.009021038   -0.010926878   -0.008682353
     24        1          -0.004140388   -0.016098625    0.000053683
     25        6           0.008978207   -0.010155698    0.001964113
     26        6          -0.007994638    0.006395863   -0.006945518
     27        6           0.000315167    0.000330247    0.006020928
     28        6          -0.002529533    0.002766165   -0.011988078
     29        1           0.021858586   -0.019211754    0.005460621
     30        6           0.008776464   -0.010121445    0.003028965
     31        1          -0.001756175    0.002000533   -0.017615179
     32        6           0.008106439   -0.009305075   -0.006081861
     33        1           0.001394534   -0.001319727    0.016589661
     34        1          -0.010035127    0.011374667   -0.006923940
     35        1          -0.008872866    0.010260808    0.009951251
 -------------------------------------------------------------------
 Cartesian Forces:  Max     0.024126001 RMS     0.009556485

 GradGradGradGradGradGradGradGradGradGradGradGradGradGradGradGradGradGrad
 Berny optimization.
 Internal  Forces:  Max     0.028709861 RMS     0.007789866
 Search for a local minimum.
 Step number   1 out of a maximum of  197
 All quantities printed in internal units (Hartrees-Bohrs-Radians)
 Mixed Optimization -- RFO/linear search
 Second derivative matrix not updated -- first step.
     Eigenvalues ---    0.00635   0.00650   0.00656   0.01532   0.01537
     Eigenvalues ---    0.01540   0.02138   0.02141   0.02146   0.02171
     Eigenvalues ---    0.02172   0.02173   0.02182   0.02183   0.02184
     Eigenvalues ---    0.02201   0.02201   0.02202   0.02211   0.02212
     Eigenvalues ---    0.02212   0.02214   0.02214   0.02215   0.02216
     Eigenvalues ---    0.02218   0.02219   0.02220   0.02221   0.02226
     Eigenvalues ---    0.04554   0.06396   0.06631   0.15997   0.15998
     Eigenvalues ---    0.16000   0.16000   0.16000   0.16000   0.16000
     Eigenvalues ---    0.16000   0.16000   0.16000   0.16000   0.16000
     Eigenvalues ---    0.16000   0.16000   0.16000   0.18867   0.19345
     Eigenvalues ---    0.22000   0.22000   0.22000   0.22000   0.22000
     Eigenvalues ---    0.22000   0.23466   0.23477   0.23478   0.24968
     Eigenvalues ---    0.24999   0.25000   0.31257   0.31358   0.31473
     Eigenvalues ---    0.31523   0.33518   0.33594   0.33970   0.34059
     Eigenvalues ---    0.34077   0.34089   0.34250   0.34259   0.34259
     Eigenvalues ---    0.34260   0.34266   0.34266   0.34277   0.34278
     Eigenvalues ---    0.34292   0.42404   0.42456   0.42479   0.42566
     Eigenvalues ---    0.42573   0.42615   0.46337   0.46387   0.46431
     Eigenvalues ---    0.46727   0.46746   0.46811   0.47197   0.47217
     Eigenvalues ---    0.47217   0.47342   0.47363   0.474441000.00000
     Eigenvalues --- 1000.000001000.000001000.000001000.000001000.00000
     Eigenvalues --- 1000.000001000.000001000.000001000.000001000.00000
     Eigenvalues --- 1000.000001000.000001000.000001000.000001000.00000
     Eigenvalues --- 1000.000001000.000001000.000001000.000001000.00000
     Eigenvalues --- 1000.000001000.000001000.000001000.000001000.00000
     Eigenvalues --- 1000.000001000.000001000.000001000.000001000.00000
     Eigenvalues --- 1000.000001000.000001000.000001000.000001000.00000
     Eigenvalues --- 1000.000001000.000001000.000001000.000001000.00000
     Eigenvalues --- 1000.000001000.000001000.000001000.000001000.00000
     Eigenvalues --- 1000.000001000.000001000.000001000.000001000.00000
     Eigenvalues --- 1000.000001000.000001000.000001000.000001000.00000
     Eigenvalues --- 1000.000001000.000001000.000001000.000001000.00000
     Eigenvalues --- 1000.000001000.000001000.000001000.000001000.00000
     Eigenvalues --- 1000.000001000.000001000.000001000.000001000.00000
     Eigenvalues --- 1000.000001000.000001000.000001000.000001000.00000
     Eigenvalues --- 1000.000001000.000001000.000001000.000001000.00000
     Eigenvalues --- 1000.000001000.000001000.000001000.000001000.00000
     Eigenvalues --- 1000.000001000.00000
 RFO step:  Lambda=-4.18962922D-02 EMin= 6.34633490D-03
 Linear search not attempted -- first point.
 Maximum step size (   0.300) exceeded in Quadratic search.
    -- Step size scaled by   0.591
 Iteration  1 RMS(Cart)=  0.12550941 RMS(Int)=  0.00303302
 Iteration  2 RMS(Cart)=  0.00612843 RMS(Int)=  0.00028099
 Iteration  3 RMS(Cart)=  0.00001070 RMS(Int)=  0.00028093
 Iteration  4 RMS(Cart)=  0.00000000 RMS(Int)=  0.00028093
 Variable       Old X    -DE/DX   Delta X   Delta X   Delta X     New X
                                 (Linear)    (Quad)   (Total)
    R1        2.12224  -0.02491   0.00000  -0.04156  -0.04156   2.08068
    R2        2.85335   0.02287   0.00000   0.03804   0.03804   2.89139
    R3        2.85118   0.02345   0.00000   0.03888   0.03888   2.89007
    R4        2.85026   0.02366   0.00000   0.03917   0.03917   2.88943
    R5        2.63886  -0.00016   0.00000  -0.00008  -0.00006   2.63880
    R6        2.63888  -0.00428   0.00000  -0.00496  -0.00495   2.63393
    R7        2.62554  -0.00465   0.00000  -0.00528  -0.00528   2.62026
    R8        2.08021  -0.02662   0.00000  -0.04166  -0.04166   2.03855
    R9        2.62794  -0.00231   0.00000  -0.00271  -0.00272   2.62522
   R10        2.07179  -0.01756   0.00000  -0.02712  -0.02712   2.04467
   R11        2.62863  -0.00530   0.00000  -0.00616  -0.00618   2.62246
   R12        2.06893  -0.01676   0.00000  -0.02577  -0.02577   2.04316
   R13        2.62764  -0.00887   0.00000  -0.01031  -0.01033   2.61731
   R14        2.06910  -0.01667   0.00000  -0.02565  -0.02565   2.04346
   R15        2.06863  -0.01682   0.00000  -0.02585  -0.02585   2.04277
   R16        2.63502  -0.00230   0.00000  -0.00254  -0.00254   2.63248
   R17        2.64375  -0.00194   0.00000  -0.00224  -0.00224   2.64152
   R18        2.62926  -0.00137   0.00000  -0.00150  -0.00150   2.62776
   R19        2.07381  -0.02192   0.00000  -0.03397  -0.03397   2.03984
   R20        2.62390  -0.00486   0.00000  -0.00563  -0.00563   2.61827
   R21        2.07231  -0.01869   0.00000  -0.02890  -0.02890   2.04341
   R22        2.62525  -0.00736   0.00000  -0.00848  -0.00849   2.61676
   R23        2.06896  -0.01666   0.00000  -0.02563  -0.02563   2.04333
   R24        2.62965  -0.00492   0.00000  -0.00581  -0.00581   2.62384
   R25        2.06883  -0.01662   0.00000  -0.02555  -0.02555   2.04327
   R26        2.06841  -0.01662   0.00000  -0.02554  -0.02554   2.04286
   R27        2.63978   0.00067   0.00000   0.00094   0.00095   2.64073
   R28        2.63946  -0.00428   0.00000  -0.00496  -0.00494   2.63452
   R29        2.62533  -0.00429   0.00000  -0.00483  -0.00483   2.62050
   R30        2.08151  -0.02871   0.00000  -0.04502  -0.04502   2.03648
   R31        2.62765  -0.00232   0.00000  -0.00275  -0.00275   2.62490
   R32        2.07200  -0.01780   0.00000  -0.02751  -0.02751   2.04448
   R33        2.62856  -0.00559   0.00000  -0.00649  -0.00651   2.62205
   R34        2.06884  -0.01670   0.00000  -0.02568  -0.02568   2.04316
   R35        2.62736  -0.00922   0.00000  -0.01074  -0.01075   2.61661
   R36        2.06895  -0.01667   0.00000  -0.02564  -0.02564   2.04331
   R37        2.06865  -0.01682   0.00000  -0.02586  -0.02586   2.04279
    A1        1.88335  -0.00864   0.00000  -0.04818  -0.04736   1.83599
    A2        1.82844   0.00381   0.00000   0.00013   0.00037   1.82881
    A3        1.87571  -0.01001   0.00000  -0.05147  -0.05055   1.82516
    A4        1.94555  -0.00331   0.00000   0.01189   0.00973   1.95527
    A5        1.92941   0.01540   0.00000   0.05445   0.05330   1.98271
    A6        1.99407   0.00084   0.00000   0.02157   0.01967   2.01374
    A7        2.11789   0.01857   0.00000   0.03766   0.03760   2.15549
    A8        2.08431  -0.00782   0.00000  -0.01582  -0.01588   2.06844
    A9        2.08097  -0.01075   0.00000  -0.02189  -0.02188   2.05909
   A10        2.10147   0.00419   0.00000   0.00942   0.00937   2.11084
   A11        2.07792   0.00374   0.00000   0.01252   0.01242   2.09034
   A12        2.10364  -0.00789   0.00000  -0.02154  -0.02164   2.08200
   A13        2.09887   0.00741   0.00000   0.01632   0.01633   2.11519
   A14        2.09524  -0.00439   0.00000  -0.01017  -0.01018   2.08506
   A15        2.08908  -0.00302   0.00000  -0.00616  -0.00617   2.08291
   A16        2.09600   0.00227   0.00000   0.00469   0.00468   2.10068
   A17        2.09186  -0.00105   0.00000  -0.00210  -0.00210   2.08976
   A18        2.09532  -0.00121   0.00000  -0.00258  -0.00259   2.09274
   A19        2.09777  -0.00029   0.00000  -0.00137  -0.00139   2.09638
   A20        2.09101   0.00037   0.00000   0.00135   0.00136   2.09237
   A21        2.09440  -0.00008   0.00000   0.00003   0.00004   2.09444
   A22        2.09127  -0.00282   0.00000  -0.00709  -0.00713   2.08414
   A23        2.09592   0.00143   0.00000   0.00362   0.00363   2.09955
   A24        2.09599   0.00138   0.00000   0.00348   0.00349   2.09948
   A25        2.13675   0.00729   0.00000   0.01468   0.01467   2.15141
   A26        2.06881   0.00060   0.00000   0.00112   0.00111   2.06992
   A27        2.07658  -0.00791   0.00000  -0.01605  -0.01604   2.06055
   A28        2.10150   0.00348   0.00000   0.00798   0.00799   2.10948
   A29        2.09266  -0.00010   0.00000   0.00082   0.00081   2.09347
   A30        2.08903  -0.00338   0.00000  -0.00880  -0.00880   2.08023
   A31        2.10348   0.00470   0.00000   0.01028   0.01029   2.11377
   A32        2.08450  -0.00127   0.00000  -0.00198  -0.00198   2.08251
   A33        2.09519  -0.00343   0.00000  -0.00831  -0.00831   2.08688
   A34        2.09923   0.00112   0.00000   0.00229   0.00228   2.10151
   A35        2.08895  -0.00051   0.00000  -0.00100  -0.00100   2.08795
   A36        2.09500  -0.00061   0.00000  -0.00129  -0.00128   2.09372
   A37        2.09668   0.00080   0.00000   0.00111   0.00110   2.09777
   A38        2.09184  -0.00041   0.00000  -0.00057  -0.00057   2.09127
   A39        2.09467  -0.00039   0.00000  -0.00054  -0.00053   2.09414
   A40        2.08889  -0.00220   0.00000  -0.00562  -0.00564   2.08325
   A41        2.09782   0.00107   0.00000   0.00271   0.00272   2.10054
   A42        2.09647   0.00113   0.00000   0.00291   0.00291   2.09939
   A43        2.12486   0.02289   0.00000   0.04642   0.04640   2.17126
   A44        2.07925  -0.01102   0.00000  -0.02228  -0.02230   2.05695
   A45        2.07905  -0.01187   0.00000  -0.02410  -0.02407   2.05498
   A46        2.10233   0.00452   0.00000   0.01022   0.01021   2.11253
   A47        2.07786   0.00440   0.00000   0.01445   0.01442   2.09228
   A48        2.10290  -0.00890   0.00000  -0.02449  -0.02453   2.07837
   A49        2.10009   0.00818   0.00000   0.01795   0.01797   2.11806
   A50        2.09464  -0.00473   0.00000  -0.01085  -0.01087   2.08377
   A51        2.08846  -0.00345   0.00000  -0.00710  -0.00711   2.08135
   A52        2.09627   0.00241   0.00000   0.00502   0.00499   2.10126
   A53        2.09161  -0.00113   0.00000  -0.00229  -0.00228   2.08933
   A54        2.09531  -0.00128   0.00000  -0.00272  -0.00271   2.09260
   A55        2.09783  -0.00021   0.00000  -0.00139  -0.00140   2.09643
   A56        2.09105   0.00029   0.00000   0.00123   0.00123   2.09228
   A57        2.09431  -0.00008   0.00000   0.00016   0.00016   2.09447
[...]
 00067694,0.00031834,0.00133295,-0.00041803,-0.00004666,-0.00022845,0.0
 0026798,-0.00003292,-0.00024922,0.00030122,0.00010077,-0.00007556,-0.0
 0003590,0.00005320,0.00001803,-0.00031327,0.00000078,-0.00024654,0.000
 00421,-0.00001217,0.00013908,-0.00004686,-0.00024697,0.00021805,-0.000
 00356,-0.00000048,0.00000474,-0.00001633,0.00000010,-0.00000957,0.0000
 0919,0.00000118,0.00001153,-0.00069052,-0.00030123,-0.00062123,-0.0002
 0542,0.00029135,-0.00006223,-0.00029017,-0.00041603,-0.00023301,-0.000
 02597,-0.00047230,-0.00030977,0.00028180,0.00008294,-0.00008941,0.0002
 9025,0.00029140,-0.00018732,-0.00003649,0.00001624,-0.00001512,-0.0001
 6817,0.00006161,0.00037864,-0.00002501,0.00000024,-0.00000813,0.000029
 83,-0.00001853,0.00001573,0.00000323,-0.00001552,-0.00000584,0.0548684
 4,0.00773135,0.08191358,0.01854349,-0.04620990,-0.07366102,0.00986650,
 -0.07122705,-0.20004733,-0.09419018,0.04135492,-0.01503788,0.00075745,
 -0.00024848,-0.00093609,0.14435543,0.17497309,0.65541688,0.00043955,-0
 .00224375,-0.00099702,-0.00051254,0.00011222,0.00126250,-0.00006366,-0
 .00017498,0.00035697,0.00015876,0.00006873,0.00009052,-0.00000146,0.00
 008697,-0.00004876,0.00003902,-0.00004781,0.00001551,-0.00000512,-0.00
 001746,-0.00000429,0.00000905,-0.00001429,0.00001955,-0.00002716,-0.00
 004912,-0.00000464,0.00002193,0.00000559,0.00000404,0.00002261,-0.0000
 1050,0.00000282,0.00000674,0.00000373,-0.00000571,0.00001134,-0.000003
 54,0.00000299,0.00024155,0.00018492,-0.00002128,0.00000674,-0.00006405
 ,-0.00017388,-0.00005731,-0.00002160,-0.00002671,-0.00005110,-0.000025
 86,0.00000388,-0.00000298,-0.00000894,0.00008372,0.00003019,0.00005966
 ,0.00002966,-0.00004224,0.00002948,0.00003322,-0.00005154,-0.00003775,
 0.00002994,-0.00000969,-0.00002711,0.00002053,0.00000341,-0.00001600,-
 0.00000578,0.00000053,-0.00001616,0.00001071,-0.00314211,-0.01105665,-
 0.02957927,-0.00364666,0.00497678,-0.00347449,-0.08976983,-0.01871456,
 -0.07729549,-0.00098426,0.00031155,0.00055245,-0.00025737,-0.00062960,
 -0.00139071,0.01088397,0.00927172,0.02231428,0.08738207,-0.00099233,-0
 .00241063,0.00130675,0.00026741,0.00027262,0.00076689,-0.00011728,0.00
 021296,0.00017676,-0.00004086,0.00000589,0.00003276,-0.00010724,0.0000
 9098,-0.00012918,-0.00000368,-0.00004410,-0.00000769,0.00000484,-0.000
 00485,0.00002258,0.00002167,-0.00003467,0.00001278,-0.00000581,-0.0000
 1774,0.00003285,-0.00002848,0.00001066,-0.00000618,-0.00000506,-0.0000
 0302,-0.00000712,-0.00001962,-0.00000813,0.00000125,-0.00000380,-0.000
 00235,0.00000352,0.00021256,-0.00018481,-0.00009800,-0.00008382,0.0000
 3006,-0.00001359,-0.00010239,-0.00018075,-0.00014580,-0.00007675,-0.00
 008308,0.00002063,0.00004823,0.00007162,0.00005337,0.00004555,-0.00001
 809,-0.00007174,0.00001063,-0.00000045,0.00001403,0.00000223,0.0000143
 5,0.00005045,0.00000953,-0.00000075,-0.00000701,0.00000005,0.00000598,
 0.00001550,0.00000547,0.00001645,0.00000249,0.00421578,0.00839686,0.00
 987564,0.00480922,0.00446526,-0.00149716,-0.01868184,-0.09101523,-0.09
 752676,0.00027101,-0.00082855,0.00053857,0.00014464,0.00012773,0.00055
 458,-0.00802365,-0.00164774,-0.02141650,0.01495236,0.08334033,0.001910
 95,0.00122046,-0.00018500,-0.00039304,0.00022197,0.00062136,0.00000060
 ,-0.00025752,0.00027317,0.00013837,0.00004382,0.00006422,0.00000287,0.
 00003740,0.00004298,0.00003278,-0.00002810,0.00004015,-0.00000230,-0.0
 0000671,-0.00003536,0.00001407,0.00003087,-0.00001464,-0.00000886,-0.0
 0001400,-0.00002705,-0.00000253,-0.00000263,0.00000161,0.00001114,-0.0
 0000117,-0.00000484,0.00000730,-0.00000359,-0.00000458,0.00000129,-0.0
 0000250,-0.00000428,-0.00025178,0.00016081,0.00046099,0.00022278,-0.00
 008634,-0.00012131,0.00011732,0.00030563,0.00014969,0.00009953,0.00016
 605,0.00005337,-0.00012856,-0.00007302,-0.00007213,-0.00005688,-0.0000
 3389,0.00011998,-0.00002603,-0.00000066,-0.00002927,0.00003530,-0.0000
 0336,-0.00008654,-0.00002156,0.00000041,-0.00000526,-0.00000178,0.0000
 0698,-0.00001321,-0.00001258,-0.00000546,-0.00000450,-0.00003733,-0.00
 789012,-0.00898097,-0.00373846,-0.00107888,0.00215172,-0.07772586,-0.0
 9658717,-0.30839671,0.00046226,0.00063000,0.00065772,-0.00006449,-0.00
 029627,-0.00062040,-0.00913760,-0.00365132,-0.01042901,0.08573232,0.10
 978505,0.32361673,0.00002040,-0.00154223,-0.00092247,-0.00010028,-0.00
 020590,0.00074355,0.00025566,0.00043340,-0.00022373,0.00025344,-0.0000
 3568,0.00024038,-0.00038236,0.00007846,0.00009202,-0.00023295,-0.00017
 490,0.00003153,0.00002042,-0.00002785,0.00001075,0.00032958,-0.0000375
 1,0.00015734,0.00000016,-0.00000050,-0.00006022,-0.00005586,0.00022563
 ,-0.00022213,-0.00002051,0.00000728,-0.00001683,-0.00001917,-0.0000130
 0,0.00002034,-0.00002223,0.00000130,-0.00000056,0.00061480,-0.00046664
 ,0.00014312,0.00016871,-0.00002529,0.00010755,0.00024118,0.00032179,0.
 00010271,-0.00002462,0.00030689,0.00020215,-0.00031919,0.00002395,0.00
 026679,-0.00017518,-0.00015921,0.00013799,0.00000286,-0.00001619,-0.00
 000471,0.00011422,-0.00000314,-0.00023342,0.00002527,0.00004288,-0.000
 00538,-0.00002461,0.00002599,-0.00001507,0.00000206,0.00001615,0.00000
 840,-0.05038444,-0.00409718,-0.05402786,-0.04194227,0.05804521,0.05284
 342,0.07272048,-0.02652817,0.01561911,-0.30347356,0.06114565,-0.121725
 14,0.00094278,0.00496923,0.00089390,-0.15981226,0.02984039,-0.02711356
 ,-0.00060446,0.00612661,0.00109119,0.66277974,-0.00087422,-0.00069494,
 0.00010255,0.00009621,-0.00005708,0.00012055,-0.00008361,-0.00005500,-
 0.00011420,0.00000912,0.00005713,-0.00008672,0.00004993,-0.00007100,0.
 00004029,0.00000506,0.00002365,-0.00001493,-0.00000375,-0.00000732,-0.
 00000462,-0.00004046,-0.00000298,0.00002007,-0.00004347,-0.00003362,0.
 00000416,0.00005094,-0.00000515,0.00004169,0.00001833,-0.00000830,0.00
 000475,0.00003479,0.00000747,-0.00001909,0.00001567,-0.00000346,-0.000
 00049,0.00061718,0.00011006,-0.00019381,-0.00003944,-0.00004559,-0.000
 13923,-0.00006925,-0.00020840,0.00009081,-0.00002680,-0.00000552,0.000
 06015,0.00000011,0.00001073,0.00001887,-0.00001806,0.00001094,-0.00004
 899,0.00001423,0.00002037,0.00001084,-0.00000926,-0.00003751,0.0000008
 9,-0.00000613,-0.00002552,0.00000967,-0.00001048,-0.00002824,-0.000006
 51,-0.00000575,-0.00000451,0.00000687,-0.00449052,-0.00415322,0.000270
 06,0.02853706,-0.00228272,0.00798453,0.00240803,-0.00771436,-0.0300629
 0,0.09981892,-0.13243931,0.01751498,0.00495900,0.00303240,-0.00532279,
 -0.00814072,-0.13740703,-0.10761973,0.00589307,0.00316707,-0.00466411,
 -0.24267553,0.43559717,-0.00053452,-0.00148815,-0.00152795,0.00035431,
 -0.00058413,0.00081768,0.00014367,0.00022654,-0.00051574,0.00040672,0.
 00004086,0.00016780,-0.00032609,0.00008786,0.00018925,-0.00027822,-0.0
 0017297,0.00000902,0.00001271,-0.00001589,-0.00000578,0.00033287,-0.00
 001800,0.00021514,-0.00002409,-0.00003284,-0.00009029,0.00003224,0.000
 25104,-0.00019025,0.00001127,-0.00000709,-0.00000682,0.00001542,-0.000
 00584,0.00000024,-0.00000159,0.00000072,-0.00000661,0.00137410,-0.0001
 7975,0.00014162,0.00021499,-0.00038659,-0.00010313,0.00019621,0.000152
 92,0.00037404,0.00000577,0.00040654,0.00024063,-0.00020613,-0.00007178
 ,0.00005351,-0.00026508,-0.00022211,0.00013334,0.00001183,0.00001477,0
 .00001097,0.00011324,-0.00013590,-0.00032769,0.00001222,-0.00005274,0.
 00004124,-0.00004492,-0.00001679,-0.00002663,-0.00000979,-0.00000435,0
 .00000594,-0.05501011,0.00192190,-0.06476253,-0.00281577,0.03955743,0.
 08039140,0.07191980,-0.06122474,-0.02874966,-0.05189497,-0.02360643,-0
 .18130655,0.00121332,-0.00563743,0.00025206,-0.09720827,-0.06646446,-0
 .31101806,0.00049617,-0.00421202,0.00180612,0.07644005,0.21938625,0.66
 043917,0.00050187,0.00004303,0.00078747,-0.00009430,0.00010576,0.00016
 700,0.00011790,-0.00003795,-0.00002897,0.00002134,-0.00000529,-0.00002
 890,-0.00003511,-0.00000992,-0.00000900,-0.00002462,-0.00001159,-0.000
 01558,0.00000353,0.00000795,0.00000981,0.00001081,-0.00001681,-0.00000
 005,0.00000148,0.00000804,0.00001238,-0.00003221,-0.00000166,-0.000023
 50,-0.00000645,0.00000629,0.00000545,-0.00000941,0.00000049,0.00000818
 ,-0.00000419,0.00000468,0.00000538,-0.00008421,0.00001263,0.00005022,0
 .00001384,-0.00000908,-0.00002727,-0.00000610,0.00003834,0.00000192,0.
 00001073,0.00000489,-0.00000650,0.00000653,0.00001532,-0.00001234,0.00
 000923,0.00000768,0.00000720,-0.00000357,-0.00000209,-0.00000605,-0.00
 000085,0.00000444,0.00000392,-0.00000143,-0.00000439,-0.00000030,0.000
 00208,0.00000352,0.00000288,-0.00000131,0.00000092,-0.00000162,-0.0006
 9571,0.00594081,0.00082095,0.01080936,0.00892483,0.02193407,-0.0011349
 0,0.00035107,0.00051433,-0.09073331,-0.01898595,-0.07890299,0.00005934
 ,-0.00253180,0.00072173,-0.00331656,0.00524318,-0.00345808,-0.00018612
 ,-0.00049763,0.00022065,-0.00191793,-0.01233016,-0.03040353,0.08712025
 ,-0.00044220,-0.00016691,-0.00072156,0.00017352,-0.00023390,-0.0001611
 6,-0.00025251,0.00001137,0.00000847,0.00009217,0.00002859,0.00004312,-
 0.00000339,0.00003476,0.00001118,-0.00002608,-0.00001381,0.00001566,-0
 .00000719,-0.00001731,-0.00001378,0.00002164,-0.00001509,0.00001295,-0
 .00000301,-0.00001488,0.00001911,0.00002623,0.00002824,-0.00000484,0.0
 0001987,-0.00001489,0.00000211,0.00000158,0.00000205,0.00000244,0.0000
 0851,-0.00000036,-0.00000152,0.00011446,0.00013448,-0.00012546,0.00003
 205,-0.00010499,-0.00002462,-0.00005179,-0.00010417,0.00002552,0.00000
 880,0.00000685,0.00000075,-0.00000746,0.00004068,-0.00004136,0.0000043
 0,-0.00000086,-0.00000558,-0.00001169,0.00001045,0.00001761,-0.0000095
 7,-0.00002168,0.00000405,-0.00001482,-0.00002534,0.00000707,-0.0000014
 1,-0.00001184,-0.00000063,-0.00000513,-0.00000591,-0.00000080,0.005898
 48,0.00303679,-0.00396756,-0.00797582,-0.00162303,-0.02148029,0.000299
 58,-0.00080773,0.00059180,-0.01908108,-0.09148431,-0.09834487,-0.00185
 783,-0.00260741,0.00240102,0.00506037,0.00508683,-0.00167351,-0.000511
 39,-0.00075325,0.00037661,0.00474895,0.00880181,0.01083606,0.01617428,
 0.08331558,-0.00066367,0.00021085,-0.00048394,0.00009857,-0.00014387,-
 0.00015672,-0.00016732,-0.00008140,-0.00003004,0.00002632,0.00003764,-
 0.00001753,0.00007835,0.00000535,0.00001287,0.00001755,0.00002626,0.00
 001077,-0.00001321,0.00000190,-0.00001377,-0.00003746,0.00000672,0.000
 01325,-0.00002178,-0.00002425,-0.00000228,0.00005284,-0.00000288,0.000
 04496,0.00002005,-0.00001387,0.00000281,0.00002587,0.00000887,-0.00002
 084,0.00002196,-0.00000592,-0.00000439,0.00020168,0.00003874,-0.000092
 01,-0.00001948,-0.00006025,0.00003671,-0.00002362,-0.00009340,0.000042
 34,0.00001954,0.00001519,-0.00001878,0.00000120,0.00002779,-0.00004610
 ,-0.00001485,-0.00001624,-0.00000729,-0.00000075,0.00001384,0.00000788
 ,0.00000012,-0.00002495,-0.00001309,-0.00001377,-0.00001196,0.00000824
 ,-0.00000360,-0.00001739,-0.00001110,-0.00000426,-0.00001570,-0.000002
 50,0.00113474,-0.00450637,0.00165310,-0.00896209,-0.00339857,-0.010183
 93,0.00063151,0.00055066,0.00071586,-0.07869197,-0.09824824,-0.3115115
 7,0.00161354,0.00186919,0.00010874,-0.00386981,-0.00139344,0.00230343,
 0.00021371,0.00038365,-0.00034723,0.00053117,-0.00726639,-0.00705341,0
 .08720918,0.10996146,0.32560758,-0.00065309,-0.00010985,-0.00072685,-0
 .00000835,0.00000925,0.00006592,0.00006635,0.00020754,0.00023115,-0.00
 010088,-0.00004470,0.00000834,-0.00005851,0.00003499,-0.00004551,0.000
 02595,-0.00001074,-0.00000551,0.00000680,-0.00000506,0.00000172,0.0000
 0134,0.00001317,-0.00002247,0.00001683,0.00000978,-0.00000212,-0.00002
 905,-0.00001527,0.00000542,-0.00001446,0.00000602,-0.00001010,-0.00002
 008,-0.00001501,0.00000170,-0.00001506,-0.00000139,-0.00000209,-0.0001
 2951,-0.00013628,0.00005926,0.00003967,0.00003912,-0.00003260,0.000059
 45,0.00008480,-0.00000984,-0.00001069,-0.00000474,0.00001789,-0.000022
 02,-0.00003001,0.00003269,0.00000834,0.00001124,0.00001730,-0.00001141
 ,-0.00001105,-0.00000737,0.00000985,0.00002405,0.00001153,0.00000269,0
 .00001237,-0.00001370,-0.00000550,0.00002144,0.00000805,0.00000112,0.0
 0001753,0.00000094,0.00119741,0.00527694,0.00118674,0.00049910,-0.0003
 6841,0.00084654,-0.01257841,0.00364298,-0.01292712,0.00297354,0.001823
 39,-0.00279086,-0.00033469,-0.00044304,0.00018256,-0.29240792,0.082442
 84,-0.11098614,-0.00009133,-0.00201638,0.00178500,-0.00257972,0.004976
 20,0.00046671,-0.00037008,0.00012902,-0.00005468,0.30463020,0.00070810
 ,-0.00007542,0.00063821,-0.00003847,0.00006233,0.00003108,0.00006405,-
 0.00035369,-0.00015181,0.00003283,0.00002872,-0.00000911,0.00007024,0.
 00002503,-0.00002143,0.00003399,0.00003799,0.00001356,-0.00000021,-0.0
 0001205,-0.00000791,-0.00005901,0.00000320,-0.00000058,-0.00000701,-0.
 00000252,0.00000557,0.00002977,-0.00003932,0.00003474,0.00001170,-0.00
 000296,0.00000917,0.00000390,0.00000522,-0.00000393,0.00000762,-0.0000
 0088,0.00000044,0.00014466,0.00005568,-0.00005702,-0.00003963,-0.00004
 704,0.00000007,-0.00001625,-0.00006555,0.00001843,-0.00001585,0.000000
 44,-0.00002265,0.00004689,0.00001425,0.00000189,-0.00001624,-0.0000012
 8,-0.00001220,0.00000705,0.00000574,0.00001469,-0.00002104,-0.00003548
 ,-0.00000556,0.00000344,-0.00002172,0.00001940,0.00000226,-0.00001187,
 -0.00000107,0.00000568,-0.00001120,0.00000253,0.00478686,0.00313702,-0
 .00557697,-0.00049456,-0.00085805,-0.00041251,0.02055885,-0.00036955,0
 .01117698,0.00208976,0.00462766,-0.00518225,-0.00038543,-0.00075053,0.
 00050366,0.08239175,-0.08234246,0.02694259,-0.00258730,-0.00263794,0.0
 0187202,-0.01183601,0.00873507,-0.00671124,-0.00056014,0.00011349,-0.0
 0024096,-0.09313522,0.07326905,0.00075743,-0.00008735,0.00042446,-0.00
 003284,0.00005927,-0.00002718,0.00000647,-0.00008874,-0.00014738,0.000
 03882,0.00001198,0.00003485,0.00000503,-0.00000182,0.00003227,-0.00001
 766,-0.00000142,0.00001855,0.00000235,-0.00000985,-0.00000832,0.000022
 57,0.00000850,0.00001572,0.00000179,-0.00000147,-0.00001812,0.00001428
 ,0.00001987,-0.00001110,0.00000348,-0.00000225,-0.00000344,0.00000555,
 0.,-0.00000028,-0.00000049,-0.00000154,-0.00000374,-0.00004559,0.00008
 033,0.00002445,0.00000277,0.00000924,-0.00000576,-0.00002190,-0.000014
 13,-0.00003784,-0.00000156,-0.00002171,0.00001882,-0.00001708,-0.00001
 606,-0.00000686,0.00001071,0.00000838,-0.00001077,0.00000501,-0.000001
 36,-0.00000030,-0.00000278,0.00001006,0.00001418,-0.00000232,0.0000073
 0,-0.00000916,0.00000359,-0.00000056,0.00000224,-0.00000118,0.00000487
 ,0.00000086,0.00082414,-0.00538899,0.00025570,0.00080434,-0.00040703,-
 0.00084253,0.01814736,-0.00715126,0.01215811,-0.00234722,-0.00541046,-
 0.00387583,0.00019754,0.00047508,-0.00017733,-0.11118995,0.02707435,-0
 .11924388,0.00074087,0.00242225,0.00008835,-0.03042098,0.01147681,-0.0
 0623960,-0.00138050,0.00051386,-0.00058924,0.12210536,-0.02523572,0.11
 799289,-0.00012717,-0.00049471,0.00017864,0.00000112,0.00004300,0.0001
 4175,0.00004686,0.00003490,0.00003700,-0.00004727,-0.00001009,0.000046
 23,-0.00000314,0.00003694,-0.00002113,0.00003388,0.00000255,0.00002102
 ,0.00000708,-0.00002302,-0.00000786,0.00000377,0.00001405,-0.00001493,
 0.00001329,0.00000342,-0.00000435,-0.00000447,-0.00001475,0.00000071,-
 0.00000654,0.00000383,-0.00000871,-0.00001326,-0.00000921,0.00000783,-
 0.00001420,-0.00000088,-0.00000142,0.00000671,-0.00006814,-0.00003428,
 0.00002577,0.00001206,-0.00003783,0.00000574,0.00000663,-0.00000946,-0
 .00001486,-0.00000613,0.00002205,-0.00002279,-0.00001782,0.00002037,0.
 00000459,0.00000602,-0.00000381,-0.00000192,-0.00000448,-0.00000042,-0
 .00000087,0.00000905,0.00000582,0.00000497,0.00000182,-0.00000426,-0.0
 0000186,0.00000711,0.00000592,0.00000205,0.00001002,0.00000243,-0.0004
 9273,-0.00070401,-0.00077184,-0.00248970,0.00386885,-0.00514598,0.0020
 1981,0.00186583,-0.00376778,-0.01179898,0.02047247,0.01926664,-0.00078
 643,0.00085649,0.00081791,0.01055646,-0.00766265,-0.00814065,0.0002494
 9,-0.00034117,-0.00027609,-0.17640015,0.12136377,0.08524945,-0.0000299
 4,-0.00255144,0.00066444,-0.00009788,-0.00178702,0.00178258,0.17937255
 ,-0.00034780,-0.00071466,0.00032421,0.00003524,0.00001121,0.00013193,-
 0.00000427,-0.00005154,-0.00001870,0.00001561,0.00002010,-0.00004121,0
 .00001881,-0.00003171,-0.00002728,-0.00001728,0.00000682,-0.00000911,-
 0.00000567,0.00000570,0.00000809,-0.00001416,-0.00002085,0.00000435,-0
 .00000511,-0.00000204,0.00001802,0.00001192,0.00000488,0.00000615,0.00
 000884,-0.00000712,0.00000572,0.00000238,0.00000786,0.00000052,0.00000
 970,0.00000162,0.00000283,0.00012930,-0.00001540,-0.00012474,-0.000021
 65,-0.00004584,0.00000352,-0.00003530,-0.00006594,0.00002752,0.0000134
 4,0.00002376,-0.00002643,0.00003375,0.00004027,-0.00002710,-0.00000910
 ,-0.00001063,-0.00000545,-0.00000146,0.00000654,0.00000803,-0.00000361
 ,-0.00002017,-0.00000961,-0.00000507,-0.00001937,0.00001365,-0.0000005
 0,-0.00001148,-0.00000407,-0.00000043,-0.00001235,-0.00000171,-0.00080
 051,-0.00009423,0.00068710,0.00418931,0.00573902,-0.00148119,0.0016007
 1,0.00538366,-0.00434328,0.00329190,-0.00084887,-0.00754633,0.00014301
 ,-0.00030703,-0.00025475,0.00921371,-0.00192188,-0.00289165,0.00032165
 ,-0.00035268,-0.00017126,0.12148518,-0.17428311,-0.10163166,-0.0018936
 8,-0.00262429,0.00240794,-0.00243555,-0.00248139,0.00165952,-0.1349232
 8,0.17269117,0.00024843,0.00040999,-0.00011810,-0.00006887,-0.00001060
 ,-0.00000636,-0.00005457,-0.00005636,-0.00000463,0.00004540,0.00001412
 ,0.00002512,0.00002978,0.00002477,0.00001401,0.00001209,0.00000283,0.0
 0000394,-0.00000373,0.00000133,-0.00000719,-0.00000735,-0.00000200,0.0
 0000474,-0.00001323,-0.00001235,0.00000124,0.00001029,-0.00000544,0.00
 000309,0.00000510,-0.00000134,0.00000394,0.00000870,0.00000443,-0.0000
 0382,0.00000632,-0.00000038,0.00000139,0.00002316,0.00006646,0.0000568
 3,0.00001065,-0.00002168,0.00001646,0.00000648,0.00000812,0.00001922,0
 .00000967,0.00001421,-0.00000708,-0.00001205,0.00000494,-0.00001842,-0
 .00000589,-0.00000327,0.00001257,-0.00000569,0.00000656,0.00000010,-0.
 00000050,-0.00000668,-0.00001127,-0.00000317,-0.00000247,0.00000547,0.
 00000068,-0.00000550,-0.00000633,-0.00000218,-0.00000890,-0.00000089,-
 0.00076274,0.00058571,-0.00075388,-0.00457587,-0.00174850,0.00099191,-
 0.00431406,-0.00405648,-0.00347878,-0.01171336,0.01063330,0.01217477,-
 0.00042618,0.00047741,0.00033346,0.02282785,-0.02116935,-0.00922418,0.
 00101166,-0.00093361,-0.00076585,0.08530861,-0.10160029,-0.14335846,0.
 00182245,0.00171669,0.00003724,0.00060210,0.00236790,0.00017724,-0.090
 01999,0.11330644,0.14388252||-0.00001797,0.00000259,0.00000080,0.00000
 218,0.00000089,-0.00000384,0.00000405,-0.00000115,0.00000353,0.0000041
 6,0.00000018,0.00000081,-0.00000232,-0.00000529,0.00000062,-0.00000421
 ,-0.00000150,-0.00000131,0.00000218,-0.00000061,-0.00000133,0.00000491
 ,-0.00000091,0.00000552,0.00000094,-0.00000019,-0.00000078,0.00000028,
 0.00000519,-0.00000451,-0.00000062,0.00000067,0.00000035,-0.00000012,0
 .,-0.00000067,0.00000029,0.00000018,-0.00000036,-0.00001031,0.00000384
 ,0.00004288,0.00002381,0.00005265,-0.00003041,-0.00000695,-0.00005388,
 -0.00003064,-0.00000854,-0.00005509,-0.00002749,0.00000008,-0.00000142
 ,0.00000373,0.00002617,0.00004752,-0.00002861,-0.00000113,0.00000240,0
 .00000529,-0.00001902,0.00000806,0.00005962,0.00000132,0.00000451,0.00
 000251,-0.00000341,-0.00000538,0.00000319,0.00000218,-0.00000056,-0.00
 000651,0.00004519,0.00000085,0.00003234,0.00000212,-0.00002761,-0.0000
 3397,-0.00004550,0.00001768,0.00000648,-0.00003706,0.00002710,0.000001
 81,-0.00000704,0.00000289,0.00000309,0.00001249,-0.00002007,-0.0000365
 8,0.00000322,-0.00000204,0.00000025,0.00002826,-0.00000085,0.00003411,
 0.00000300,-0.00000154,-0.00000017,-0.00000095,0.00000132,0.00000255,-
 0.00000166,-0.00000043,-0.00000229|||@


 IF NO USE IS MADE OF THE LABOR OF PAST AGES,
 THE WORLD MUST REMAIN ALWAYS IN THE INFANCY OF KNOWLEDGE.

                          -- CICERO
 Job cpu time:  0 days  0 hours  6 minutes 42.0 seconds.
 File lengths (MBytes):  RWF=    350 Int=      0 D2E=      0 Chk=      7 Scr=      1
 Normal termination of Gaussian 09 at Mon Sep 06 22:51:30 2021.
