 Entering Link 1 = b:\programy\g09w\l1.exe PID=     16676.
  
 Copyright (c) 1988,1990,1992,1993,1995,1998,2003,2009, Gaussian, Inc.
                  All Rights Reserved.
  
 This is part of the Gaussian(R) 09 program.  It is based on
 the Gaussian(R) 03 system (copyright 2003, Gaussian, Inc.),
 the Gaussian(R) 98 system (copyright 1998, Gaussian, Inc.),
 the Gaussian(R) 94 system (copyright 1995, Gaussian, Inc.),
 the Gaussian 92(TM) system (copyright 1992, Gaussian, Inc.),
 the Gaussian 90(TM) system (copyright 1990, Gaussian, Inc.),
 the Gaussian 88(TM) system (copyright 1988, Gaussian, Inc.),
 the Gaussian 86(TM) system (copyright 1986, Carnegie Mellon
 University), and the Gaussian 82(TM) system (copyright 1983,
 Carnegie Mellon University). Gaussian is a federally registered
 trademark of Gaussian, Inc.
  
 This software contains proprietary and confidential information,
 including trade secrets, belonging to Gaussian, Inc.
  
 This software is provided under written license and may be
 used, copied, transmitted, or stored only in accord with that
 written license.
  
 The following legend is applicable only to US Government
 contracts under FAR:
  
                    RESTRICTED RIGHTS LEGEND
  
 Use, reproduction and disclosure by the US Government is
 subject to restrictions as set forth in subparagraphs (a)
 and (c) of the Commercial Computer Software - Restricted
 Rights clause in FAR 52.227-19.
  
 Gaussian, Inc.
 340 Quinnipiac St., Bldg. 40, Wallingford CT 06492
  
  
 ---------------------------------------------------------------
 Warning -- This program may not be used in any manner that
 competes with the business of Gaussian, Inc. or will provide
 assistance to any competitor of Gaussian, Inc.  The licensee
 of this program is prohibited from giving any competitor of
 Gaussian, Inc. access to this program.  By using this program,
 the user acknowledges that Gaussian, Inc. is engaged in the
 business of creating and licensing software in the field of
 computational chemistry and represents and warrants to the
 licensee that it is not a competitor of Gaussian, Inc. and that
 it will not use this program in any manner prohibited above.
 ---------------------------------------------------------------
  

 Cite this work as:
 Gaussian 09, Revision A.02,
 M. J. Frisch, G. W. Trucks, H. B. Schlegel, G. E. Scuseria, 
 M. A. Robb, J. R. Cheeseman, G. Scalmani, V. Barone, B. Mennucci, 
 G. A. Petersson, H. Nakatsuji, M. Caricato, X. Li, H. P. Hratchian, 
 A. F. Izmaylov, J. Bloino, G. Zheng, J. L. Sonnenberg, M. Hada, 
 M. Ehara, K. Toyota, R. Fukuda, J. Hasegawa, M. Ishida, T. Nakajima, 
 Y. Honda, O. Kitao, H. Nakai, T. Vreven, J. A. Montgomery, Jr., 
 J. E. Peralta, F. Ogliaro, M. Bearpark, J. J. Heyd, E. Brothers, 
 K. N. Kudin, V. N. Staroverov, R. Kobayashi, J. Normand, 
 K. Raghavachari, A. Rendell, J. C. Burant, S. S. Iyengar, J. Tomasi, 
 M. Cossi, N. Rega, J. M. Millam, M. Klene, J. E. Knox, J. B. Cross, 
 V. Bakken, C. Adamo, J. Jaramillo, R. Gomperts, R. E. Stratmann, 
 O. Yazyev, A. J. Austin, R. Cammi, C. Pomelli, J. W. Ochterski, 
 R. L. Martin, K. Morokuma, V. G. Zakrzewski, G. A. Voth, 
 P. Salvador, J. J. Dannenberg, S. Dapprich, A. D. Daniels, 
 O. Farkas, J. B. Foresman, J. V. Ortiz, J. Cioslowski, 
 and D. J. Fox, Gaussian, Inc., Wallingford CT, 2009.
 
 ******************************************
 Gaussian 09:  IA32W-G09RevA.02 11-Jun-2009
                06-Sep-2021 
 ******************************************
 %nprocshared=12
 Will use up to   12 processors via shared memory.
 ----------------------------------------------
 # opt freq=noraman hf/6-311g geom=connectivity
 ----------------------------------------------
 1/18=20,19=15,38=1,57=2/1,3;
 2/9=110,12=2,17=6,18=5,40=1/2;
 3/5=4,6=6,11=9,16=1,25=1,30=1,71=1/1,2,3;
 4//1;
 5/5=2,38=5/2;
 6/7=2,8=2,9=2,10=2,28=1/1;
 7//1,2,3,16;
 1/18=20,19=15/3(2);
 2/9=110/2;
 99//99;
 2/9=110/2;
 3/5=4,6=6,11=9,16=1,25=1,30=1,71=1/1,2,3;
 4/5=5,16=3/1;
 5/5=2,38=5/2;
 7//1,2,3,16;
 1/18=20,19=15/3(-5);
 2/9=110/2;
 6/7=2,8=2,9=2,10=2,19=2,28=1/1;
 99/9=1/99;
 -----
 M0001
 -----
 Symbolic Z-matrix:
 Charge =  0 Multiplicity = 1
 C                     0.65485   0.35025  -0.20076 
 H                     1.5969    0.84976  -0.55613 
 C                     0.82719  -1.13182  -0.42748 
 C                     2.06239  -1.61176  -0.86939 
 C                    -0.21918  -2.03389  -0.22774 
 C                     2.24241  -2.96873  -1.11228 
 H                     2.89586  -0.91707  -1.02736 
 C                    -0.03901  -3.38946  -0.47453 
 H                    -1.18245  -1.65716   0.14875 
 C                     1.19205  -3.8593   -0.91922 
 H                     3.21436  -3.33553  -1.45795 
 H                    -0.86821  -4.08678  -0.31725 
 H                     1.33427  -4.92686  -1.11501 
 C                     0.50602   0.71276   1.25591 
 C                    -0.32269   0.00544   2.12857 
 C                     1.22832   1.80501   1.74585 
 C                    -0.4246    0.37865   3.46381 
 H                    -0.89253  -0.85996   1.75339 
 C                     1.12323   2.17848   3.08027 
 H                     1.88283   2.37396   1.07494 
 C                     0.29721   1.46581   3.94276 
 H                    -1.0752   -0.18738   4.13826 
 H                     1.69353   3.03569   3.45247 
 H                     0.2166    1.75941   4.99419 
 C                    -0.46383   0.8848   -1.06247 
 C                    -0.17128   1.2403   -2.38306 
 C                    -1.77023   1.02868  -0.59641 
 C                    -1.16847   1.72805  -3.21825 
 H                     0.85028   1.13044  -2.7653 
 C                    -2.76666   1.51975  -1.43367 
 H                    -2.01379   0.76179   0.43986 
 C                    -2.46917   1.86927  -2.7452 
 H                    -0.92893   2.00177  -4.25092 
 H                    -3.78794   1.63099  -1.05505 
 H                    -3.25411   2.25464  -3.40356 
 

 GradGradGradGradGradGradGradGradGradGradGradGradGradGradGradGradGradGrad
 Berny optimization.
 Initialization pass.
                           ----------------------------
                           !    Initial Parameters    !
                           ! (Angstroms and Degrees)  !
 --------------------------                            --------------------------
 ! Name  Definition              Value          Derivative Info.                !
 --------------------------------------------------------------------------------
 ! R1    R(1,2)                  1.124          estimate D2E/DX2                !
 ! R2    R(1,3)                  1.5092         estimate D2E/DX2                !
 ! R3    R(1,14)                 1.5085         estimate D2E/DX2                !
 ! R4    R(1,25)                 1.5099         estimate D2E/DX2                !
 ! R5    R(3,4)                  1.3969         estimate D2E/DX2                !
 ! R6    R(3,5)                  1.3959         estimate D2E/DX2                !
 ! R7    R(4,6)                  1.3902         estimate D2E/DX2                !
 ! R8    R(4,7)                  1.0965         estimate D2E/DX2                !
 ! R9    R(5,8)                  1.3896         estimate D2E/DX2                !
 ! R10   R(5,9)                  1.1007         estimate D2E/DX2                !
 ! R11   R(6,10)                 1.3906         estimate D2E/DX2                !
 ! R12   R(6,11)                 1.0949         estimate D2E/DX2                !
 ! R13   R(8,10)                 1.3907         estimate D2E/DX2                !
 ! R14   R(8,12)                 1.0948         estimate D2E/DX2                !
 ! R15   R(10,13)                1.0946         estimate D2E/DX2                !
 ! R16   R(14,15)                1.3959         estimate D2E/DX2                !
 ! R17   R(14,16)                1.3981         estimate D2E/DX2                !
 ! R18   R(15,17)                1.3902         estimate D2E/DX2                !
 ! R19   R(15,18)                1.102          estimate D2E/DX2                !
 ! R20   R(16,19)                1.3897         estimate D2E/DX2                !
 ! R21   R(16,20)                1.0964         estimate D2E/DX2                !
 ! R22   R(17,21)                1.3901         estimate D2E/DX2                !
 ! R23   R(17,22)                1.0948         estimate D2E/DX2                !
 ! R24   R(19,21)                1.3907         estimate D2E/DX2                !
 ! R25   R(19,23)                1.0948         estimate D2E/DX2                !
 ! R26   R(21,24)                1.0946         estimate D2E/DX2                !
 ! R27   R(25,26)                1.3985         estimate D2E/DX2                !
 ! R28   R(25,27)                1.3945         estimate D2E/DX2                !
 ! R29   R(26,28)                1.3892         estimate D2E/DX2                !
 ! R30   R(26,29)                1.0962         estimate D2E/DX2                !
 ! R31   R(27,30)                1.3911         estimate D2E/DX2                !
 ! R32   R(27,31)                1.0975         estimate D2E/DX2                !
 ! R33   R(28,32)                1.3912         estimate D2E/DX2                !
 ! R34   R(28,33)                1.0949         estimate D2E/DX2                !
 ! R35   R(30,32)                1.3895         estimate D2E/DX2                !
 ! R36   R(30,34)                1.0949         estimate D2E/DX2                !
 ! R37   R(32,35)                1.0946         estimate D2E/DX2                !
 ! A1    A(2,1,3)              107.0516         estimate D2E/DX2                !
 ! A2    A(2,1,14)             106.3331         estimate D2E/DX2                !
 ! A3    A(2,1,25)             106.4509         estimate D2E/DX2                !
 ! A4    A(3,1,14)             113.1005         estimate D2E/DX2                !
 ! A5    A(3,1,25)             110.2761         estimate D2E/DX2                !
 ! A6    A(14,1,25)            113.1374         estimate D2E/DX2                !
 ! A7    A(1,3,4)              119.071          estimate D2E/DX2                !
 ! A8    A(1,3,5)              121.8383         estimate D2E/DX2                !
 ! A9    A(4,3,5)              119.0832         estimate D2E/DX2                !
 ! A10   A(3,4,6)              120.3386         estimate D2E/DX2                !
 ! A11   A(3,4,7)              120.0037         estimate D2E/DX2                !
 ! A12   A(6,4,7)              119.6577         estimate D2E/DX2                !
 ! A13   A(3,5,8)              120.5175         estimate D2E/DX2                !
 ! A14   A(3,5,9)              118.9319         estimate D2E/DX2                !
 ! A15   A(8,5,9)              120.5379         estimate D2E/DX2                !
 ! A16   A(4,6,10)             120.2022         estimate D2E/DX2                !
 ! A17   A(4,6,11)             119.8089         estimate D2E/DX2                !
 ! A18   A(10,6,11)            119.9889         estimate D2E/DX2                !
 ! A19   A(5,8,10)             120.0761         estimate D2E/DX2                !
 ! A20   A(5,8,12)             119.8437         estimate D2E/DX2                !
 ! A21   A(10,8,12)            120.0801         estimate D2E/DX2                !
 ! A22   A(6,10,8)             119.7802         estimate D2E/DX2                !
 ! A23   A(6,10,13)            120.1077         estimate D2E/DX2                !
 ! A24   A(8,10,13)            120.112          estimate D2E/DX2                !
 ! A25   A(1,14,15)            122.7169         estimate D2E/DX2                !
 ! A26   A(1,14,16)            118.3701         estimate D2E/DX2                !
 ! A27   A(15,14,16)           118.9129         estimate D2E/DX2                !
 ! A28   A(14,15,17)           120.5268         estimate D2E/DX2                !
 ! A29   A(14,15,18)           119.476          estimate D2E/DX2                !
 ! A30   A(17,15,18)           119.9953         estimate D2E/DX2                !
 ! A31   A(14,16,19)           120.4888         estimate D2E/DX2                !
 ! A32   A(14,16,20)           119.9568         estimate D2E/DX2                !
 ! A33   A(19,16,20)           119.5544         estimate D2E/DX2                !
 ! A34   A(15,17,21)           120.1879         estimate D2E/DX2                !
 ! A35   A(15,17,22)           119.7672         estimate D2E/DX2                !
 ! A36   A(21,17,22)           120.0449         estimate D2E/DX2                !
 ! A37   A(16,19,21)           120.1799         estimate D2E/DX2                !
 ! A38   A(16,19,23)           119.8336         estimate D2E/DX2                !
 ! A39   A(21,19,23)           119.9865         estimate D2E/DX2                !
 ! A40   A(17,21,19)           119.7034         estimate D2E/DX2                !
 ! A41   A(17,21,24)           120.1649         estimate D2E/DX2                !
 ! A42   A(19,21,24)           120.1317         estimate D2E/DX2                !
 ! A43   A(1,25,26)            118.2891         estimate D2E/DX2                !
 ! A44   A(1,25,27)            122.676          estimate D2E/DX2                !
 ! A45   A(26,25,27)           119.0338         estimate D2E/DX2                !
 ! A46   A(25,26,28)           120.4506         estimate D2E/DX2                !
 ! A47   A(25,26,29)           119.9139         estimate D2E/DX2                !
 ! A48   A(28,26,29)           119.635          estimate D2E/DX2                !
 ! A49   A(25,27,30)           120.4197         estimate D2E/DX2                !
 ! A50   A(25,27,31)           119.8945         estimate D2E/DX2                !
 ! A51   A(30,27,31)           119.6836         estimate D2E/DX2                !
 ! A52   A(26,28,32)           120.1539         estimate D2E/DX2                !
 ! A53   A(26,28,33)           119.8543         estimate D2E/DX2                !
 ! A54   A(32,28,33)           119.9918         estimate D2E/DX2                !
 ! A55   A(27,30,32)           120.2346         estimate D2E/DX2                !
 ! A56   A(27,30,34)           119.7285         estimate D2E/DX2                !
 ! A57   A(32,30,34)           120.0369         estimate D2E/DX2                !
 ! A58   A(28,32,30)           119.7073         estimate D2E/DX2                !
 ! A59   A(28,32,35)           120.1109         estimate D2E/DX2                !
 ! A60   A(30,32,35)           120.1818         estimate D2E/DX2                !
 ! D1    D(2,1,3,4)              6.0466         estimate D2E/DX2                !
 ! D2    D(2,1,3,5)           -172.9473         estimate D2E/DX2                !
 ! D3    D(14,1,3,4)          -110.7371         estimate D2E/DX2                !
 ! D4    D(14,1,3,5)            70.2691         estimate D2E/DX2                !
 ! D5    D(25,1,3,4)           121.4567         estimate D2E/DX2                !
 ! D6    D(25,1,3,5)           -57.5371         estimate D2E/DX2                !
 ! D7    D(2,1,14,15)         -162.1304         estimate D2E/DX2                !
 ! D8    D(2,1,14,16)           18.0054         estimate D2E/DX2                !
 ! D9    D(3,1,14,15)          -44.9238         estimate D2E/DX2                !
 ! D10   D(3,1,14,16)          135.2119         estimate D2E/DX2                !
 ! D11   D(25,1,14,15)          81.3734         estimate D2E/DX2                !
 ! D12   D(25,1,14,16)         -98.4908         estimate D2E/DX2                !
 ! D13   D(2,1,25,26)           31.3702         estimate D2E/DX2                !
 ! D14   D(2,1,25,27)         -149.0233         estimate D2E/DX2                !
 ! D15   D(3,1,25,26)          -84.4173         estimate D2E/DX2                !
 ! D16   D(3,1,25,27)           95.1892         estimate D2E/DX2                !
 ! D17   D(14,1,25,26)         147.7968         estimate D2E/DX2                !
 ! D18   D(14,1,25,27)         -32.5967         estimate D2E/DX2                !
 ! D19   D(1,3,4,6)           -178.7153         estimate D2E/DX2                !
 ! D20   D(1,3,4,7)              1.225          estimate D2E/DX2                !
 ! D21   D(5,3,4,6)              0.3066         estimate D2E/DX2                !
 ! D22   D(5,3,4,7)           -179.7531         estimate D2E/DX2                !
 ! D23   D(1,3,5,8)            178.503          estimate D2E/DX2                !
 ! D24   D(1,3,5,9)             -2.7858         estimate D2E/DX2                !
 ! D25   D(4,3,5,8)             -0.4908         estimate D2E/DX2                !
 ! D26   D(4,3,5,9)            178.2205         estimate D2E/DX2                !
 ! D27   D(3,4,6,10)             0.1181         estimate D2E/DX2                !
 ! D28   D(3,4,6,11)          -179.9687         estimate D2E/DX2                !
 ! D29   D(7,4,6,10)          -179.8224         estimate D2E/DX2                !
 ! D30   D(7,4,6,11)             0.0908         estimate D2E/DX2                !
 ! D31   D(3,5,8,10)             0.2501         estimate D2E/DX2                !
 ! D32   D(3,5,8,12)          -179.8016         estimate D2E/DX2                !
 ! D33   D(9,5,8,10)          -178.4404         estimate D2E/DX2                !
 ! D34   D(9,5,8,12)             1.508          estimate D2E/DX2                !
 ! D35   D(4,6,10,8)            -0.3631         estimate D2E/DX2                !
 ! D36   D(4,6,10,13)          179.7406         estimate D2E/DX2                !
 ! D37   D(11,6,10,8)          179.7239         estimate D2E/DX2                !
 ! D38   D(11,6,10,13)          -0.1724         estimate D2E/DX2                !
 ! D39   D(5,8,10,6)             0.1798         estimate D2E/DX2                !
 ! D40   D(5,8,10,13)         -179.9239         estimate D2E/DX2                !
 ! D41   D(12,8,10,6)         -179.7684         estimate D2E/DX2                !
 ! D42   D(12,8,10,13)           0.1278         estimate D2E/DX2                !
 ! D43   D(1,14,15,17)         179.9349         estimate D2E/DX2                !
 ! D44   D(1,14,15,18)           0.4273         estimate D2E/DX2                !
 ! D45   D(16,14,15,17)         -0.2015         estimate D2E/DX2                !
 ! D46   D(16,14,15,18)       -179.7091         estimate D2E/DX2                !
 ! D47   D(1,14,16,19)         179.9388         estimate D2E/DX2                !
 ! D48   D(1,14,16,20)          -0.0085         estimate D2E/DX2                !
 ! D49   D(15,14,16,19)          0.0693         estimate D2E/DX2                !
 ! D50   D(15,14,16,20)       -179.878          estimate D2E/DX2                !
 ! D51   D(14,15,17,21)          0.1949         estimate D2E/DX2                !
 ! D52   D(14,15,17,22)       -179.7523         estimate D2E/DX2                !
 ! D53   D(18,15,17,21)        179.7            estimate D2E/DX2                !
 ! D54   D(18,15,17,22)         -0.2473         estimate D2E/DX2                !
 ! D55   D(14,16,19,21)          0.0703         estimate D2E/DX2                !
 ! D56   D(14,16,19,23)       -179.9865         estimate D2E/DX2                !
 ! D57   D(20,16,19,21)       -179.9822         estimate D2E/DX2                !
 ! D58   D(20,16,19,23)         -0.039          estimate D2E/DX2                !
 ! D59   D(15,17,21,19)         -0.0529         estimate D2E/DX2                !
 ! D60   D(15,17,21,24)        179.9934         estimate D2E/DX2                !
 ! D61   D(22,17,21,19)        179.8942         estimate D2E/DX2                !
 ! D62   D(22,17,21,24)         -0.0595         estimate D2E/DX2                !
 ! D63   D(16,19,21,17)         -0.0789         estimate D2E/DX2                !
 ! D64   D(16,19,21,24)        179.8747         estimate D2E/DX2                !
 ! D65   D(23,19,21,17)        179.978          estimate D2E/DX2                !
 ! D66   D(23,19,21,24)         -0.0684         estimate D2E/DX2                !
 ! D67   D(1,25,26,28)         179.5443         estimate D2E/DX2                !
 ! D68   D(1,25,26,29)          -0.2089         estimate D2E/DX2                !
 ! D69   D(27,25,26,28)         -0.0769         estimate D2E/DX2                !
 ! D70   D(27,25,26,29)       -179.8301         estimate D2E/DX2                !
 ! D71   D(1,25,27,30)        -179.6532         estimate D2E/DX2                !
 ! D72   D(1,25,27,31)           0.8977         estimate D2E/DX2                !
 ! D73   D(26,25,27,30)         -0.0495         estimate D2E/DX2                !
 ! D74   D(26,25,27,31)       -179.4986         estimate D2E/DX2                !
 ! D75   D(25,26,28,32)          0.1153         estimate D2E/DX2                !
 ! D76   D(25,26,28,33)       -179.8947         estimate D2E/DX2                !
 ! D77   D(29,26,28,32)        179.8692         estimate D2E/DX2                !
 ! D78   D(29,26,28,33)         -0.1408         estimate D2E/DX2                !
 ! D79   D(25,27,30,32)          0.1381         estimate D2E/DX2                !
 ! D80   D(25,27,30,34)       -179.8126         estimate D2E/DX2                !
 ! D81   D(31,27,30,32)        179.5883         estimate D2E/DX2                !
 ! D82   D(31,27,30,34)         -0.3624         estimate D2E/DX2                !
 ! D83   D(26,28,32,30)         -0.0266         estimate D2E/DX2                !
 ! D84   D(26,28,32,35)        179.9356         estimate D2E/DX2                !
 ! D85   D(33,28,32,30)        179.9834         estimate D2E/DX2                !
 ! D86   D(33,28,32,35)         -0.0544         estimate D2E/DX2                !
 ! D87   D(27,30,32,28)         -0.0995         estimate D2E/DX2                !
 ! D88   D(27,30,32,35)        179.9383         estimate D2E/DX2                !
 ! D89   D(34,30,32,28)        179.851          estimate D2E/DX2                !
 ! D90   D(34,30,32,35)         -0.1111         estimate D2E/DX2                !
 --------------------------------------------------------------------------------
 Trust Radius=3.00D-01 FncErr=1.00D-07 GrdErr=1.00D-07
 Number of steps in this run= 197 maximum allowed number of steps= 210.
 GradGradGradGradGradGradGradGradGradGradGradGradGradGradGradGradGradGrad

                          Input orientation:                          
 ---------------------------------------------------------------------
 Center     Atomic      Atomic             Coordinates (Angstroms)
 Number     Number       Type             X           Y           Z
 ---------------------------------------------------------------------
      1          6           0        0.654849    0.350246   -0.200755
      2          1           0        1.596898    0.849763   -0.556134
      3          6           0        0.827185   -1.131824   -0.427482
      4          6           0        2.062394   -1.611757   -0.869390
      5          6           0       -0.219185   -2.033892   -0.227736
      6          6           0        2.242407   -2.968730   -1.112281
      7          1           0        2.895861   -0.917068   -1.027361
      8          6           0       -0.039009   -3.389457   -0.474529
      9          1           0       -1.182446   -1.657160    0.148746
     10          6           0        1.192047   -3.859298   -0.919222
     11          1           0        3.214357   -3.335529   -1.457953
     12          1           0       -0.868210   -4.086785   -0.317251
     13          1           0        1.334265   -4.926860   -1.115008
     14          6           0        0.506016    0.712763    1.255907
     15          6           0       -0.322695    0.005442    2.128572
     16          6           0        1.228321    1.805009    1.745845
     17          6           0       -0.424604    0.378653    3.463811
     18          1           0       -0.892529   -0.859959    1.753389
     19          6           0        1.123230    2.178476    3.080269
     20          1           0        1.882835    2.373955    1.074943
     21          6           0        0.297206    1.465806    3.942761
     22          1           0       -1.075197   -0.187382    4.138257
     23          1           0        1.693530    3.035692    3.452470
     24          1           0        0.216596    1.759415    4.994190
     25          6           0       -0.463826    0.884803   -1.062472
     26          6           0       -0.171281    1.240300   -2.383065
     27          6           0       -1.770229    1.028677   -0.596415
     28          6           0       -1.168466    1.728046   -3.218254
     29          1           0        0.850281    1.130445   -2.765303
     30          6           0       -2.766661    1.519751   -1.433675
     31          1           0       -2.013791    0.761787    0.439863
     32          6           0       -2.469167    1.869267   -2.745202
     33          1           0       -0.928932    2.001768   -4.250923
     34          1           0       -3.787944    1.630995   -1.055047
     35          1           0       -3.254108    2.254639   -3.403564
 ---------------------------------------------------------------------
                    Distance matrix (angstroms):
                    1          2          3          4          5
     1  C    0.000000
     2  H    1.123952   0.000000
     3  C    1.509185   2.129718   0.000000
     4  C    2.505536   2.524657   1.396910   0.000000
     5  C    2.539444   3.423663   1.395892   2.407388   0.000000
     6  C    3.790360   3.912400   2.417855   1.390244   2.777729
     7  H    2.703978   2.243000   2.164577   1.096456   3.404439
     8  C    3.813367   4.544649   2.418555   2.780652   1.389578
     9  H    2.743626   3.808710   2.155605   3.401125   1.100699
    10  C    4.304073   4.740358   2.795361   2.410691   2.408701
    11  H    4.660104   4.576693   3.408339   2.155184   3.872584
    12  H    4.692603   5.522982   3.408564   3.875443   2.154905
    13  H    5.398640   5.809534   3.890002   3.403000   3.401429
    14  C    1.508454   2.119501   2.517827   3.513202   3.204875
    15  C    2.549558   3.406664   3.024733   4.158335   3.117977
    16  C    2.496890   2.519415   3.675494   4.382855   4.552742
    17  C    3.820349   4.524198   4.357829   5.378058   4.414758
    18  H    2.770858   3.801880   2.790614   4.021907   2.399243
    19  C    3.785092   3.900419   4.832189   5.554070   5.521686
    20  H    2.689006   2.250630   3.957546   4.438308   5.054164
    21  C    4.305938   4.723215   5.111515   5.978635   5.468783
    22  H    4.702034   5.500279   5.035574   6.078638   4.817079
    23  H    4.651508   4.566895   5.759581   6.357147   6.550044
    24  H    5.400489   5.791269   6.174675   7.010944   6.468971
    25  C    1.509881   2.122307   2.477238   3.556948   3.045556
    26  C    2.497431   2.572285   3.232369   3.926161   3.920213
    27  C    2.549081   3.372117   3.382730   4.662124   3.452678
    28  C    3.785249   3.937702   4.466530   5.206717   4.898623
    29  H    2.687715   2.348754   3.253276   3.547305   4.194762
    30  C    3.820283   4.501067   4.578101   5.783124   4.535670
    31  H    2.775139   3.746575   3.522669   4.895216   3.388527
    32  C    4.305938   4.729090   5.024372   6.014253   5.160882
    33  H    4.651854   4.621514   5.246146   5.782764   5.742501
    34  H    4.701971   5.464042   5.415388   6.691514   5.181880
    35  H    5.400429   5.797740   6.081295   7.045300   6.139067
                    6          7          8          9         10
     6  C    0.000000
     7  H    2.154886   0.000000
     8  C    2.405950   3.877086   0.000000
     9  H    3.878147   4.308544   2.167204   0.000000
    10  C    1.390553   3.401675   1.390684   3.410013   0.000000
    11  H    1.094860   2.477055   3.399180   4.972956   2.157384
    12  H    3.399714   4.971880   1.094796   2.493788   2.158421
    13  H    2.158471   4.304032   2.158634   4.315304   1.094644
    14  C    4.709221   3.685244   4.485495   3.113397   5.109361
    15  C    5.092011   4.601091   4.287418   2.724542   5.149729
    16  C    5.655603   4.228601   5.789531   4.511002   6.260054
    17  C    6.265663   5.733672   5.464234   3.963397   6.307517
    18  H    4.742025   4.699759   3.477136   1.815065   4.525964
    19  C    6.732293   5.440334   6.707404   5.349960   7.242609
    20  H    5.784249   4.034444   6.269870   5.148172   6.580831
    21  C    7.000169   6.093702   6.572600   5.131943   7.266110
    22  H    6.805185   6.556321   5.710058   4.252993   6.648418
    23  H    7.562493   6.094161   7.726937   6.419400   8.179491
    24  H    7.984250   7.113445   7.515524   6.091686   8.215223
    25  C    4.709129   3.812541   4.335372   2.906035   5.026822
    26  C    5.015647   3.987421   5.009456   3.978416   5.477901
    27  C    5.687410   5.073858   4.746776   2.848591   5.724647
    28  C    6.174859   5.321221   5.915449   4.774568   6.486601
    29  H    4.633976   3.375966   5.144706   4.516016   5.331262
    30  C    6.733537   6.177971   5.697400   3.886715   6.698522
    31  H    5.868657   5.392215   4.687078   2.574332   5.786099
    32  C    6.947775   6.284756   6.222202   4.739859   7.039542
    33  H    6.679395   5.791372   6.642170   5.727923   7.067593
    34  H    7.584581   7.153086   6.292571   4.364595   7.413641
    35  H    7.921189   7.316296   7.125442   5.675637   7.957416
                   11         12         13         14         15
    11  H    0.000000
    12  H    4.304991   0.000000
    13  H    2.486904   2.488582   0.000000
    14  C    5.575735   5.234404   6.173538   0.000000
    15  C    6.044501   4.798537   6.131389   1.395925   0.000000
    16  C    6.374464   6.585214   7.315310   1.398130   2.406360
    17  C    7.159675   5.867994   7.225487   2.419198   1.390156
    18  H    5.771281   3.834130   5.452155   2.162607   1.101995
    19  C    7.441272   7.400167   8.254131   2.420241   2.778219
    20  H    6.386449   7.158744   7.641905   2.165165   3.403578
    21  C    7.792965   7.094869   8.217219   2.798188   2.410025
    22  H    7.721960   5.924504   7.474286   3.408582   2.154594
    23  H    8.186429   8.455944   9.186575   3.410437   3.873020
    24  H    8.750724   7.972846   9.125664   3.892815   3.402796
    25  C    5.612187   5.043369   6.083693   2.518943   3.312998
    26  C    5.766852   5.755964   6.473677   3.738869   4.680028
    27  C    6.680916   5.201877   6.736114   2.951641   3.250833
    28  C    6.924420   6.505246   7.414518   4.883933   5.680778
    29  H    5.219477   6.013789   6.296718   4.057476   5.156696
    30  C    7.703694   6.023600   7.647087   4.312249   4.577740
    31  H    6.908201   5.039268   6.781431   2.649106   2.506712
    32  C    7.813409   6.628164   7.956819   5.118406   5.642238
    33  H    7.311242   7.248995   7.934853   5.834877   6.711989
    34  H    8.594237   6.462367   8.321423   4.962031   4.978534
    35  H    8.767920   7.445233   8.824091   6.182765   6.652563
                   16         17         18         19         20
    16  C    0.000000
    17  C    2.778139   0.000000
    18  H    3.405895   2.163020   0.000000
    19  C    1.389679   2.404632   3.880204   0.000000
    20  H    1.096447   3.874556   4.315221   2.153263   0.000000
    21  C    2.410077   1.390073   3.408519   1.390721   3.400489
    22  H    3.872912   1.094781   2.484617   3.398485   4.969334
    23  H    2.154894   3.398010   4.975005   1.094804   2.475149
    24  H    3.402560   2.158634   4.312084   2.158864   4.302849
    25  C    3.405406   4.554664   3.340218   4.621108   3.506128
    26  C    4.396099   5.915451   4.694841   5.692447   4.178802
    27  C    3.883320   4.326508   3.139885   4.817898   4.236518
    28  C    5.512966   6.857418   5.611697   6.717600   5.306522
    29  H    4.576944   6.402529   5.236189   5.945047   4.166531
    30  C    5.113766   5.547315   4.396904   5.995069   5.351695
    31  H    3.647629   3.437524   2.369101   4.338163   4.264518
    32  C    5.817650   6.704774   5.492884   6.851061   5.812756
    33  H    6.376024   7.899744   6.651508   7.615049   6.034021
    34  H    5.747886   5.770658   4.740842   6.443617   6.102997
    35  H    6.841838   7.660695   6.470853   7.823489   6.816116
                   21         22         23         24         25
    21  C    0.000000
    22  H    2.157484   0.000000
    23  H    2.157463   4.303993   0.000000
    24  H    1.094627   2.488245   2.487392   0.000000
    25  C    5.095987   5.345179   5.446578   6.157197   0.000000
    26  C    6.347157   6.736689   6.383919   7.405662   1.398544
    27  C    5.006943   4.937508   5.693786   5.977986   1.394488
    28  C    7.314171   7.602356   7.375603   8.328483   2.419705
    29  H    6.739175   7.287199   6.557571   7.810692   2.164914
    30  C    6.188396   6.068095   6.787178   7.090466   2.417436
    31  H    4.255191   3.931921   5.290622   5.168345   2.162067
    32  C    7.248754   7.318125   7.556436   8.192898   2.796809
    33  H    8.302236   8.671338   8.202961   9.318964   3.410301
    34  H    6.457075   6.134810   7.234462   7.255764   3.406848
    35  H    8.197717   8.221325   8.490840   9.100182   3.891379
                   26         27         28         29         30
    26  C    0.000000
    27  C    2.406977   0.000000
    28  C    1.389178   2.779438   0.000000
    29  H    1.096249   3.403161   2.153516   0.000000
    30  C    2.777667   1.391055   2.404649   3.873895   0.000000
    31  H    3.404811   1.097463   3.876861   4.314152   2.156725
    32  C    2.409777   2.410890   1.391239   3.400735   1.389520
    33  H    2.154707   3.874289   1.094854   2.476261   3.398010
    34  H    3.872535   2.155065   3.398610   4.968768   1.094876
    35  H    3.402077   3.403670   2.159060   4.303161   2.158270
                   31         32         33         34         35
    31  H    0.000000
    32  C    3.402721   0.000000
    33  H    4.971714   2.158026   0.000000
    34  H    2.477477   2.156981   4.304073   0.000000
    35  H    4.305685   1.094571   2.487650   2.487860   0.000000
 Stoichiometry    C19H16
 Framework group  C1[X(C19H16)]
 Deg. of freedom    99
 Full point group                 C1      NOp   1
 Largest Abelian subgroup         C1      NOp   1
 Largest concise Abelian subgroup C1      NOp   1
                         Standard orientation:                         
 ---------------------------------------------------------------------
 Center     Atomic      Atomic             Coordinates (Angstroms)
 Number     Number       Type             X           Y           Z
 ---------------------------------------------------------------------
      1          6           0        0.023942   -0.011538   -0.754840
      2          1           0        0.001269   -0.006242   -1.878551
      3          6           0       -0.896282   -1.117384   -0.298847
      4          6           0       -1.464476   -1.964445   -1.253311
      5          6           0       -1.211701   -1.304481    1.048008
      6          6           0       -2.336763   -2.974942   -0.864992
      7          1           0       -1.223999   -1.833603   -2.315039
      8          6           0       -2.086678   -2.312472    1.434396
      9          1           0       -0.739695   -0.654689    1.800683
     10          6           0       -2.652496   -3.148687    0.478051
     11          1           0       -2.776730   -3.634211   -1.620315
     12          1           0       -2.328877   -2.447300    2.493518
     13          1           0       -3.342800   -3.942129    0.781652
     14          6           0        1.462231   -0.238153   -0.360627
     15          6           0        1.836840   -0.663793    0.914953
     16          6           0        2.457015   -0.008064   -1.315736
     17          6           0        3.176867   -0.859653    1.228800
     18          1           0        1.060063   -0.852564    1.673489
     19          6           0        3.796325   -0.201698   -0.999567
     20          1           0        2.182157    0.328523   -2.322393
     21          6           0        4.159570   -0.628739    0.273145
     22          1           0        3.456407   -1.197586    2.231897
     23          1           0        4.566495   -0.018088   -1.755688
     24          1           0        5.214619   -0.782978    0.520712
     25          6           0       -0.508920    1.329355   -0.310087
     26          6           0       -1.468960    1.959048   -1.108671
     27          6           0       -0.088398    1.955114    0.863021
     28          6           0       -1.996686    3.189221   -0.737195
     29          1           0       -1.811955    1.478741   -2.032480
     30          6           0       -0.616252    3.188178    1.231748
     31          1           0        0.670306    1.477507    1.496017
     32          6           0       -1.571151    3.807169    0.434387
     33          1           0       -2.749059    3.672652   -1.368809
     34          1           0       -0.275699    3.670797    2.153624
     35          1           0       -1.986660    4.776950    0.725869
 ---------------------------------------------------------------------
 Rotational constants (GHZ):      0.4004590      0.3720195      0.2368763
 Standard basis: 6-311G (5D, 7F)
 There are   295 symmetry adapted basis functions of A   symmetry.
 Integral buffers will be    262144 words long.
 Raffenetti 1 integral format.
 Two-electron integral symmetry is turned on.
   295 basis functions,   574 primitive gaussians,   295 cartesian basis functions
    65 alpha electrons       65 beta electrons
       nuclear repulsion energy      1288.4783703942 Hartrees.
 NAtoms=   35 NActive=   35 NUniq=   35 SFac= 7.50D-01 NAtFMM=   80 NAOKFM=F Big=F
 One-electron integrals computed using PRISM.
 PrsmSu:  requested number of processors reduced to:  10 ShMem   1 Linda.
 NBasis=   295 RedAO= T  NBF=   295
 NBsUse=   295 1.00D-06 NBFU=   295
 Harris functional with IExCor=  205 diagonalized for initial guess.
 ExpMin= 1.03D-01 ExpMax= 4.56D+03 ExpMxC= 6.82D+02 IAcc=1 IRadAn=         1 AccDes= 0.00D+00
 HarFok:  IExCor=  205 AccDes= 0.00D+00 IRadAn=         1 IDoV= 1
 ScaDFX=  1.000000  1.000000  1.000000  1.000000
 FoFCou: FMM=F IPFlag=           0 FMFlag=      100000 FMFlg1=           0
         NFxFlg=           0 DoJE=T BraDBF=F KetDBF=T FulRan=T
         Omega=  0.000000  0.000000  1.000000  0.000000  0.000000 ICntrl=     500 IOpCl=  0
         NMat0=    1 NMatS0=    1 NMatT0=    0 NMatD0=    1 NMtDS0=    0 NMtDT0=    0
         I1Cent=           4 NGrid=           0.
 Petite list used in FoFCou.
 Initial guess orbital symmetries:
       Occupied  (A) (A) (A) (A) (A) (A) (A) (A) (A) (A) (A) (A)
                 (A) (A) (A) (A) (A) (A) (A) (A) (A) (A) (A) (A)
                 (A) (A) (A) (A) (A) (A) (A) (A) (A) (A) (A) (A)
                 (A) (A) (A) (A) (A) (A) (A) (A) (A) (A) (A) (A)
                 (A) (A) (A) (A) (A) (A) (A) (A) (A) (A) (A) (A)
                 (A) (A) (A) (A) (A)
       Virtual   (A) (A) (A) (A) (A) (A) (A) (A) (A) (A) (A) (A)
                 (A) (A) (A) (A) (A) (A) (A) (A) (A) (A) (A) (A)
                 (A) (A) (A) (A) (A) (A) (A) (A) (A) (A) (A) (A)
                 (A) (A) (A) (A) (A) (A) (A) (A) (A) (A) (A) (A)
                 (A) (A) (A) (A) (A) (A) (A) (A) (A) (A) (A) (A)
                 (A) (A) (A) (A) (A) (A) (A) (A) (A) (A) (A) (A)
                 (A) (A) (A) (A) (A) (A) (A) (A) (A) (A) (A) (A)
                 (A) (A) (A) (A) (A) (A) (A) (A) (A) (A) (A) (A)
                 (A) (A) (A) (A) (A) (A) (A) (A) (A) (A) (A) (A)
                 (A) (A) (A) (A) (A) (A) (A) (A) (A) (A) (A) (A)
                 (A) (A) (A) (A) (A) (A) (A) (A) (A) (A) (A) (A)
                 (A) (A) (A) (A) (A) (A) (A) (A) (A) (A) (A) (A)
                 (A) (A) (A) (A) (A) (A) (A) (A) (A) (A) (A) (A)
                 (A) (A) (A) (A) (A) (A) (A) (A) (A) (A) (A) (A)
                 (A) (A) (A) (A) (A) (A) (A) (A) (A) (A) (A) (A)
                 (A) (A) (A) (A) (A) (A) (A) (A) (A) (A) (A) (A)
                 (A) (A) (A) (A) (A) (A) (A) (A) (A) (A) (A) (A)
                 (A) (A) (A) (A) (A) (A) (A) (A) (A) (A) (A) (A)
                 (A) (A) (A) (A) (A) (A) (A) (A) (A) (A) (A) (A)
                 (A) (A)
 The electronic state of the initial guess is 1-A.
 Requested convergence on RMS density matrix=1.00D-08 within 128 cycles.
 Requested convergence on MAX density matrix=1.00D-06.
 Requested convergence on             energy=1.00D-06.
 No special actions if energy rises.
 Integral accuracy reduced to 1.0D-05 until final iterations.
 Initial convergence to 1.0D-05 achieved.  Increase integral accuracy.
 SCF Done:  E(RHF) =  -728.671761523     A.U. after   14 cycles
             Convg  =    0.6122D-08             -V/T =  2.0001

 **********************************************************************

            Population analysis using the SCF density.

 **********************************************************************

 Orbital symmetries:
       Occupied  (A) (A) (A) (A) (A) (A) (A) (A) (A) (A) (A) (A)
                 (A) (A) (A) (A) (A) (A) (A) (A) (A) (A) (A) (A)
                 (A) (A) (A) (A) (A) (A) (A) (A) (A) (A) (A) (A)
                 (A) (A) (A) (A) (A) (A) (A) (A) (A) (A) (A) (A)
                 (A) (A) (A) (A) (A) (A) (A) (A) (A) (A) (A) (A)
                 (A) (A) (A) (A) (A)
       Virtual   (A) (A) (A) (A) (A) (A) (A) (A) (A) (A) (A) (A)
                 (A) (A) (A) (A) (A) (A) (A) (A) (A) (A) (A) (A)
                 (A) (A) (A) (A) (A) (A) (A) (A) (A) (A) (A) (A)
                 (A) (A) (A) (A) (A) (A) (A) (A) (A) (A) (A) (A)
                 (A) (A) (A) (A) (A) (A) (A) (A) (A) (A) (A) (A)
                 (A) (A) (A) (A) (A) (A) (A) (A) (A) (A) (A) (A)
                 (A) (A) (A) (A) (A) (A) (A) (A) (A) (A) (A) (A)
                 (A) (A) (A) (A) (A) (A) (A) (A) (A) (A) (A) (A)
                 (A) (A) (A) (A) (A) (A) (A) (A) (A) (A) (A) (A)
                 (A) (A) (A) (A) (A) (A) (A) (A) (A) (A) (A) (A)
                 (A) (A) (A) (A) (A) (A) (A) (A) (A) (A) (A) (A)
                 (A) (A) (A) (A) (A) (A) (A) (A) (A) (A) (A) (A)
                 (A) (A) (A) (A) (A) (A) (A) (A) (A) (A) (A) (A)
                 (A) (A) (A) (A) (A) (A) (A) (A) (A) (A) (A) (A)
                 (A) (A) (A) (A) (A) (A) (A) (A) (A) (A) (A) (A)
                 (A) (A) (A) (A) (A) (A) (A) (A) (A) (A) (A) (A)
                 (A) (A) (A) (A) (A) (A) (A) (A) (A) (A) (A) (A)
                 (A) (A) (A) (A) (A) (A) (A) (A) (A) (A) (A) (A)
                 (A) (A) (A) (A) (A) (A) (A) (A) (A) (A) (A) (A)
                 (A) (A)
 The electronic state is 1-A.
 Alpha  occ. eigenvalues --  -11.25828 -11.25270 -11.25258 -11.25125 -11.24446
 Alpha  occ. eigenvalues --  -11.24434 -11.24357 -11.24348 -11.24207 -11.24185
 Alpha  occ. eigenvalues --  -11.24124 -11.24118 -11.24108 -11.24056 -11.24029
 Alpha  occ. eigenvalues --  -11.24017 -11.23907 -11.23830 -11.23729  -1.18594
 Alpha  occ. eigenvalues --   -1.15829  -1.15680  -1.09038  -1.02411  -1.02119
 Alpha  occ. eigenvalues --   -1.01891  -1.01496  -1.01382  -0.92961  -0.84532
 Alpha  occ. eigenvalues --   -0.82952  -0.82541  -0.81706  -0.81556  -0.77730
 Alpha  occ. eigenvalues --   -0.70735  -0.70448  -0.69103  -0.65992  -0.63623
 Alpha  occ. eigenvalues --   -0.63507  -0.62368  -0.62024  -0.61897  -0.59571
 Alpha  occ. eigenvalues --   -0.58773  -0.58519  -0.58429  -0.57608  -0.53934
 Alpha  occ. eigenvalues --   -0.51738  -0.51081  -0.50840  -0.49677  -0.49173
 Alpha  occ. eigenvalues --   -0.48680  -0.47785  -0.47480  -0.46753  -0.34699
 Alpha  occ. eigenvalues --   -0.34243  -0.33702  -0.33580  -0.33277  -0.31180
 Alpha virt. eigenvalues --    0.11646   0.12022   0.13572   0.13752   0.14070
 Alpha virt. eigenvalues --    0.14926   0.15136   0.16273   0.16376   0.16886
 Alpha virt. eigenvalues --    0.18814   0.19130   0.19284   0.21283   0.21421
 Alpha virt. eigenvalues --    0.21510   0.23631   0.24249   0.24984   0.27101
 Alpha virt. eigenvalues --    0.28515   0.29481   0.34025   0.34202   0.35864
 Alpha virt. eigenvalues --    0.37488   0.38503   0.39680   0.40979   0.43676
 Alpha virt. eigenvalues --    0.44103   0.44377   0.45017   0.45388   0.45581
 Alpha virt. eigenvalues --    0.45865   0.46411   0.48401   0.49854   0.50373
 Alpha virt. eigenvalues --    0.50815   0.51040   0.51442   0.54964   0.55777
 Alpha virt. eigenvalues --    0.56806   0.57910   0.58951   0.59044   0.59613
 Alpha virt. eigenvalues --    0.59698   0.60666   0.61087   0.61496   0.61705
 Alpha virt. eigenvalues --    0.61853   0.62387   0.62459   0.63296   0.63474
 Alpha virt. eigenvalues --    0.64159   0.64997   0.65175   0.65410   0.66906
 Alpha virt. eigenvalues --    0.67400   0.68251   0.68438   0.70108   0.71457
 Alpha virt. eigenvalues --    0.72347   0.73790   0.74464   0.75054   0.76249
 Alpha virt. eigenvalues --    0.77313   0.78326   0.78553   0.80469   0.81151
 Alpha virt. eigenvalues --    0.81851   0.82202   0.82339   0.82823   0.82922
 Alpha virt. eigenvalues --    0.83501   0.83949   0.84062   0.84788   0.85605
 Alpha virt. eigenvalues --    0.86030   0.86379   0.86893   0.87445   0.88075
 Alpha virt. eigenvalues --    0.89725   0.90525   0.91284   0.92974   0.94368
 Alpha virt. eigenvalues --    0.96108   0.96845   0.97695   0.98193   0.98977
 Alpha virt. eigenvalues --    0.99321   1.00331   1.02819   1.05734   1.06224
 Alpha virt. eigenvalues --    1.06781   1.07145   1.08038   1.08362   1.10553
 Alpha virt. eigenvalues --    1.11114   1.12218   1.12486   1.13043   1.14260
 Alpha virt. eigenvalues --    1.14631   1.15424   1.18584   1.19434   1.21695
 Alpha virt. eigenvalues --    1.25305   1.26776   1.27727   1.28194   1.28785
 Alpha virt. eigenvalues --    1.30325   1.35086   1.39372   1.45256   1.46681
 Alpha virt. eigenvalues --    1.51718   1.52307   1.56545   2.54614   2.55625
 Alpha virt. eigenvalues --    2.56188   2.59155   2.61982   2.62495   2.64444
 Alpha virt. eigenvalues --    2.66963   2.67758   2.68475   2.72308   2.76738
 Alpha virt. eigenvalues --    2.77754   2.83504   2.87946   2.88572   2.94137
 Alpha virt. eigenvalues --    2.94285   2.94432   2.97088   2.97460   2.98028
 Alpha virt. eigenvalues --    3.00392   3.00802   3.04041   3.05748   3.07178
 Alpha virt. eigenvalues --    3.08140   3.08407   3.08926   3.09982   3.14321
 Alpha virt. eigenvalues --    3.14826   3.16341   3.16846   3.17558   3.18867
 Alpha virt. eigenvalues --    3.22638   3.25635   3.25812   3.28300   3.28841
 Alpha virt. eigenvalues --    3.30929   3.33371   3.34273   3.35183   3.42621
 Alpha virt. eigenvalues --    3.43062   3.44393   3.46882   3.49520   3.52266
 Alpha virt. eigenvalues --    3.53416   3.54463   3.59159   3.60640   3.60701
 Alpha virt. eigenvalues --    3.63095   3.63580   3.63785   3.65961   3.66677
 Alpha virt. eigenvalues --    3.68337   3.70253   3.70506   3.71417   3.73467
 Alpha virt. eigenvalues --    3.74195   3.75538   3.80869   3.85840   3.86684
 Alpha virt. eigenvalues --    3.92983  24.24865  24.30699  24.31566  24.50531
 Alpha virt. eigenvalues --   24.50845  24.51122  24.54013  24.54656  24.56132
 Alpha virt. eigenvalues --   24.77297  24.78576  24.79160  24.79620  24.80653
 Alpha virt. eigenvalues --   24.81843  24.83275  25.05553  25.05833  25.06128
          Condensed to atoms (all electrons):
              1          2          3          4          5          6
     1  C    5.832556   0.464282   0.184982  -0.026128  -0.054357   0.007652
     2  H    0.464282   0.512438  -0.074284   0.001981   0.005563   0.001757
     3  C    0.184982  -0.074284   5.374576   0.503380   0.439200  -0.072636
     4  C   -0.026128   0.001981   0.503380   5.070772  -0.065620   0.459377
     5  C   -0.054357   0.005563   0.439200  -0.065620   5.095330  -0.029587
     6  C    0.007652   0.001757  -0.072636   0.459377  -0.029587   5.055297
     7  H   -0.000467   0.002395  -0.046754   0.395889   0.004621  -0.035079
     8  C    0.001399  -0.000281  -0.061702  -0.033304   0.479382  -0.076816
     9  H    0.003067   0.000067  -0.048261   0.004042   0.388550  -0.000168
    10  C    0.001274  -0.000013  -0.017879  -0.086341  -0.092059   0.496930
    11  H   -0.000367  -0.000037   0.007061  -0.039727  -0.000618   0.396803
    12  H   -0.000319   0.000012   0.006072  -0.000450  -0.039081   0.005999
    13  H   -0.000013  -0.000001  -0.001592   0.007537   0.008013  -0.042758
    14  C    0.170185  -0.074076  -0.112592  -0.000313  -0.006375  -0.000598
    15  C   -0.046142   0.005099  -0.004704   0.001477  -0.017172   0.000127
    16  C   -0.045028   0.002923   0.001849   0.000207   0.000231  -0.000009
    17  C    0.003529  -0.000274   0.001551   0.000043  -0.000019   0.000000
    18  H   -0.000240  -0.000140  -0.003026  -0.000254   0.002928  -0.000139
    19  C    0.008289   0.001517  -0.000681  -0.000004   0.000029   0.000001
    20  H   -0.000772   0.002694   0.000354  -0.000020  -0.000025   0.000001
    21  C    0.001152  -0.000016   0.000022  -0.000011  -0.000004   0.000000
    22  H   -0.000296   0.000014   0.000011   0.000002   0.000031   0.000000
    23  H   -0.000390  -0.000029   0.000014   0.000001   0.000000   0.000000
    24  H   -0.000019  -0.000001  -0.000002   0.000000   0.000001   0.000000
    25  C    0.156052  -0.059826  -0.153767  -0.005622  -0.007880  -0.000462
    26  C   -0.051075  -0.003372   0.000686   0.002059   0.000750  -0.000102
    27  C   -0.039523   0.004879  -0.013965  -0.000328   0.000018   0.000047
    28  C    0.006244   0.001538  -0.000433  -0.000036   0.000196   0.000007
    29  H    0.001817   0.001023   0.000581   0.001465  -0.000049   0.000031
    30  C    0.004956  -0.000248   0.000597   0.000027  -0.000645  -0.000001
    31  H   -0.001834  -0.000073  -0.000964  -0.000079   0.000479   0.000002
    32  C    0.000983   0.000009   0.000077  -0.000003   0.000031   0.000000
    33  H   -0.000351  -0.000026   0.000012  -0.000001   0.000004   0.000000
    34  H   -0.000326   0.000013   0.000005   0.000000   0.000013   0.000000
    35  H   -0.000012  -0.000002  -0.000001   0.000000  -0.000001   0.000000
              7          8          9         10         11         12
     1  C   -0.000467   0.001399   0.003067   0.001274  -0.000367  -0.000319
     2  H    0.002395  -0.000281   0.000067  -0.000013  -0.000037   0.000012
     3  C   -0.046754  -0.061702  -0.048261  -0.017879   0.007061   0.006072
     4  C    0.395889  -0.033304   0.004042  -0.086341  -0.039727  -0.000450
     5  C    0.004621   0.479382   0.388550  -0.092059  -0.000618  -0.039081
     6  C   -0.035079  -0.076816  -0.000168   0.496930   0.396803   0.005999
     7  H    0.510855  -0.000241  -0.000260   0.005166  -0.004179   0.000024
     8  C   -0.000241   5.035453  -0.027244   0.494315   0.006220   0.396694
     9  H   -0.000260  -0.027244   0.494821   0.004551   0.000020  -0.003424
    10  C    0.005166   0.494315   0.004551   5.031108  -0.040763  -0.039557
    11  H   -0.004179   0.006220   0.000020  -0.040763   0.518290  -0.000211
    12  H    0.000024   0.396694  -0.003424  -0.039557  -0.000211   0.515352
    13  H   -0.000186  -0.042925  -0.000169   0.399638  -0.004582  -0.004456
    14  C    0.000561   0.001780  -0.003184  -0.000036   0.000020   0.000009
    15  C    0.000003  -0.001723   0.000278   0.000044  -0.000001   0.000017
    16  C    0.000139   0.000028  -0.000196  -0.000001   0.000000   0.000000
    17  C    0.000003  -0.000089   0.000857   0.000003   0.000000   0.000001
    18  H   -0.000004   0.001156   0.003451   0.000078   0.000000  -0.000105
    19  C    0.000003  -0.000001   0.000016   0.000000   0.000000   0.000000
    20  H   -0.000024   0.000002  -0.000007   0.000000   0.000000   0.000000
    21  C   -0.000001   0.000001  -0.000011   0.000000   0.000000   0.000000
    22  H    0.000000   0.000000  -0.000052  -0.000001   0.000000   0.000001
    23  H    0.000000   0.000000   0.000000   0.000000   0.000000   0.000000
    24  H    0.000000   0.000000   0.000000   0.000000   0.000000   0.000000
    25  C    0.000154   0.000697  -0.001812   0.000098   0.000010   0.000018
    26  C    0.000255  -0.000073  -0.000274  -0.000013   0.000003   0.000006
    27  C   -0.000048  -0.000026   0.004611  -0.000004   0.000000  -0.000002
    28  C   -0.000006   0.000002  -0.000101   0.000000   0.000000   0.000001
    29  H    0.000257  -0.000019  -0.000038  -0.000012  -0.000003   0.000000
    30  C    0.000000  -0.000015   0.000438   0.000000   0.000000  -0.000001
    31  H    0.000000   0.000056   0.000945   0.000002   0.000000  -0.000008
    32  C    0.000000   0.000003  -0.000013   0.000000   0.000000   0.000000
    33  H   -0.000001   0.000000   0.000001   0.000000   0.000000   0.000000
    34  H    0.000000   0.000000   0.000001   0.000000   0.000000   0.000000
    35  H    0.000000   0.000000  -0.000001   0.000000   0.000000   0.000000
             13         14         15         16         17         18
     1  C   -0.000013   0.170185  -0.046142  -0.045028   0.003529  -0.000240
     2  H   -0.000001  -0.074076   0.005099   0.002923  -0.000274  -0.000140
     3  C   -0.001592  -0.112592  -0.004704   0.001849   0.001551  -0.003026
     4  C    0.007537  -0.000313   0.001477   0.000207   0.000043  -0.000254
     5  C    0.008013  -0.006375  -0.017172   0.000231  -0.000019   0.002928
     6  C   -0.042758  -0.000598   0.000127  -0.000009   0.000000  -0.000139
     7  H   -0.000186   0.000561   0.000003   0.000139   0.000003  -0.000004
     8  C   -0.042925   0.001780  -0.001723   0.000028  -0.000089   0.001156
     9  H   -0.000169  -0.003184   0.000278  -0.000196   0.000857   0.003451
    10  C    0.399638  -0.000036   0.000044  -0.000001   0.000003   0.000078
    11  H   -0.004582   0.000020  -0.000001   0.000000   0.000000   0.000000
    12  H   -0.004456   0.000009   0.000017   0.000000   0.000001  -0.000105
    13  H    0.517506  -0.000001   0.000001   0.000000   0.000000   0.000000
    14  C   -0.000001   5.366873   0.450022   0.495600  -0.064567  -0.053044
    15  C    0.000001   0.450022   5.122194  -0.061340   0.473300   0.386667
    16  C    0.000000   0.495600  -0.061340   5.040519  -0.036157   0.004509
    17  C    0.000000  -0.064567   0.473300  -0.036157   5.056565  -0.025336
    18  H    0.000000  -0.053044   0.386667   0.004509  -0.025336   0.498273
    19  C    0.000000  -0.071706  -0.031277   0.471710  -0.075064  -0.000213
    20  H    0.000000  -0.045624   0.004764   0.394428  -0.000404  -0.000243
    21  C    0.000000  -0.017680  -0.094856  -0.086801   0.495687   0.004792
    22  H    0.000000   0.006026  -0.036776  -0.000390   0.395591  -0.003441
    23  H    0.000000   0.007154  -0.000599  -0.039684   0.006229   0.000020
    24  H    0.000000  -0.001597   0.008125   0.007495  -0.042560  -0.000183
    25  C   -0.000002  -0.102809  -0.005525  -0.001515   0.000890  -0.000492
    26  C    0.000000   0.006560  -0.000166   0.000420   0.000023  -0.000026
    27  C    0.000000  -0.014398  -0.007509   0.001916  -0.001490   0.000378
    28  C    0.000000  -0.000762   0.000024  -0.000016   0.000000   0.000006
    29  H    0.000000   0.000702  -0.000038   0.000012   0.000000   0.000007
    30  C    0.000000   0.000497   0.000010  -0.000090  -0.000031   0.000050
    31  H    0.000000  -0.003196   0.000938  -0.000908   0.000979   0.000134
    32  C    0.000000   0.000046  -0.000020  -0.000013   0.000000   0.000001
    33  H    0.000000   0.000011   0.000000   0.000001   0.000000   0.000000
    34  H    0.000000   0.000038   0.000029   0.000007  -0.000001  -0.000017
    35  H    0.000000  -0.000001   0.000001   0.000000   0.000000   0.000000
             19         20         21         22         23         24
     1  C    0.008289  -0.000772   0.001152  -0.000296  -0.000390  -0.000019
     2  H    0.001517   0.002694  -0.000016   0.000014  -0.000029  -0.000001
     3  C   -0.000681   0.000354   0.000022   0.000011   0.000014  -0.000002
     4  C   -0.000004  -0.000020  -0.000011   0.000002   0.000001   0.000000
     5  C    0.000029  -0.000025  -0.000004   0.000031   0.000000   0.000001
     6  C    0.000001   0.000001   0.000000   0.000000   0.000000   0.000000
     7  H    0.000003  -0.000024  -0.000001   0.000000   0.000000   0.000000
     8  C   -0.000001   0.000002   0.000001   0.000000   0.000000   0.000000
     9  H    0.000016  -0.000007  -0.000011  -0.000052   0.000000   0.000000
    10  C    0.000000   0.000000   0.000000  -0.000001   0.000000   0.000000
    11  H    0.000000   0.000000   0.000000   0.000000   0.000000   0.000000
    12  H    0.000000   0.000000   0.000000   0.000001   0.000000   0.000000
    13  H    0.000000   0.000000   0.000000   0.000000   0.000000   0.000000
    14  C   -0.071706  -0.045624  -0.017680   0.006026   0.007154  -0.001597
    15  C   -0.031277   0.004764  -0.094856  -0.036776  -0.000599   0.008125
    16  C    0.471710   0.394428  -0.086801  -0.000390  -0.039684   0.007495
    17  C   -0.075064  -0.000404   0.495687   0.395591   0.006229  -0.042560
    18  H   -0.000213  -0.000243   0.004792  -0.003441   0.000020  -0.000183
    19  C    5.044477  -0.034664   0.494804   0.005895   0.396662  -0.042960
    20  H   -0.034664   0.507606   0.005348   0.000022  -0.004215  -0.000183
    21  C    0.494804   0.005348   5.030375  -0.039655  -0.041059   0.399188
    22  H    0.005895   0.000022  -0.039655   0.515432  -0.000212  -0.004355
    23  H    0.396662  -0.004215  -0.041059  -0.000212   0.517938  -0.004551
    24  H   -0.042960  -0.000183   0.399188  -0.004355  -0.004551   0.517650
    25  C   -0.000718   0.000482   0.000022  -0.000007   0.000022   0.000001
    26  C    0.000003   0.000107  -0.000001  -0.000001   0.000000   0.000000
    27  C    0.000229   0.000190   0.000079   0.000014  -0.000001  -0.000001
    28  C    0.000001  -0.000008   0.000000   0.000000   0.000000   0.000000
    29  H    0.000001   0.000002   0.000000   0.000000   0.000000   0.000000
    30  C   -0.000004   0.000009   0.000004   0.000001   0.000000   0.000000
    31  H   -0.000135  -0.000036   0.000047  -0.000002   0.000001   0.000001
    32  C    0.000000  -0.000004   0.000000   0.000000   0.000000   0.000000
    33  H    0.000000   0.000000   0.000000   0.000000   0.000000   0.000000
    34  H    0.000001   0.000000  -0.000001   0.000000   0.000000   0.000000
    35  H    0.000000   0.000000   0.000000   0.000000   0.000000   0.000000
             25         26         27         28         29         30
     1  C    0.156052  -0.051075  -0.039523   0.006244   0.001817   0.004956
     2  H   -0.059826  -0.003372   0.004879   0.001538   0.001023  -0.000248
     3  C   -0.153767   0.000686  -0.013965  -0.000433   0.000581   0.000597
     4  C   -0.005622   0.002059  -0.000328  -0.000036   0.001465   0.000027
     5  C   -0.007880   0.000750   0.000018   0.000196  -0.000049  -0.000645
     6  C   -0.000462  -0.000102   0.000047   0.000007   0.000031  -0.000001
     7  H    0.000154   0.000255  -0.000048  -0.000006   0.000257   0.000000
     8  C    0.000697  -0.000073  -0.000026   0.000002  -0.000019  -0.000015
     9  H   -0.001812  -0.000274   0.004611  -0.000101  -0.000038   0.000438
    10  C    0.000098  -0.000013  -0.000004   0.000000  -0.000012   0.000000
    11  H    0.000010   0.000003   0.000000   0.000000  -0.000003   0.000000
    12  H    0.000018   0.000006  -0.000002   0.000001   0.000000  -0.000001
    13  H   -0.000002   0.000000   0.000000   0.000000   0.000000   0.000000
    14  C   -0.102809   0.006560  -0.014398  -0.000762   0.000702   0.000497
    15  C   -0.005525  -0.000166  -0.007509   0.000024  -0.000038   0.000010
    16  C   -0.001515   0.000420   0.001916  -0.000016   0.000012  -0.000090
    17  C    0.000890   0.000023  -0.001490   0.000000   0.000000  -0.000031
    18  H   -0.000492  -0.000026   0.000378   0.000006   0.000007   0.000050
    19  C   -0.000718   0.000003   0.000229   0.000001   0.000001  -0.000004
    20  H    0.000482   0.000107   0.000190  -0.000008   0.000002   0.000009
    21  C    0.000022  -0.000001   0.000079   0.000000   0.000000   0.000004
    22  H   -0.000007  -0.000001   0.000014   0.000000   0.000000   0.000001
    23  H    0.000022   0.000000  -0.000001   0.000000   0.000000   0.000000
    24  H    0.000001   0.000000  -0.000001   0.000000   0.000000   0.000000
    25  C    5.365562   0.472549   0.487072  -0.065070  -0.050656  -0.064719
    26  C    0.472549   5.072097  -0.072166   0.466448   0.399620  -0.031598
    27  C    0.487072  -0.072166   5.088004  -0.027903   0.004139   0.471087
    28  C   -0.065070   0.466448  -0.027903   5.050162  -0.035591  -0.076856
    29  H   -0.050656   0.399620   0.004139  -0.035591   0.509729  -0.000338
    30  C   -0.064719  -0.031598   0.471087  -0.076856  -0.000338   5.051121
    31  H   -0.042432   0.004203   0.390261  -0.000184  -0.000248  -0.030077
    32  C   -0.018524  -0.086053  -0.093507   0.488669   0.005341   0.499320
    33  H    0.006698  -0.039646  -0.000522   0.397102  -0.004288   0.006126
    34  H    0.006181  -0.000423  -0.037542   0.005997   0.000024   0.395883
    35  H   -0.001479   0.007371   0.007825  -0.042962  -0.000185  -0.042202
             31         32         33         34         35
     1  C   -0.001834   0.000983  -0.000351  -0.000326  -0.000012
     2  H   -0.000073   0.000009  -0.000026   0.000013  -0.000002
     3  C   -0.000964   0.000077   0.000012   0.000005  -0.000001
     4  C   -0.000079  -0.000003  -0.000001   0.000000   0.000000
     5  C    0.000479   0.000031   0.000004   0.000013  -0.000001
     6  C    0.000002   0.000000   0.000000   0.000000   0.000000
     7  H    0.000000   0.000000  -0.000001   0.000000   0.000000
     8  C    0.000056   0.000003   0.000000   0.000000   0.000000
     9  H    0.000945  -0.000013   0.000001   0.000001  -0.000001
    10  C    0.000002   0.000000   0.000000   0.000000   0.000000
    11  H    0.000000   0.000000   0.000000   0.000000   0.000000
    12  H   -0.000008   0.000000   0.000000   0.000000   0.000000
    13  H    0.000000   0.000000   0.000000   0.000000   0.000000
    14  C   -0.003196   0.000046   0.000011   0.000038  -0.000001
    15  C    0.000938  -0.000020   0.000000   0.000029   0.000001
    16  C   -0.000908  -0.000013   0.000001   0.000007   0.000000
    17  C    0.000979   0.000000   0.000000  -0.000001   0.000000
    18  H    0.000134   0.000001   0.000000  -0.000017   0.000000
    19  C   -0.000135   0.000000   0.000000   0.000001   0.000000
    20  H   -0.000036  -0.000004   0.000000   0.000000   0.000000
    21  C    0.000047   0.000000   0.000000  -0.000001   0.000000
    22  H   -0.000002   0.000000   0.000000   0.000000   0.000000
    23  H    0.000001   0.000000   0.000000   0.000000   0.000000
    24  H    0.000001   0.000000   0.000000   0.000000   0.000000
    25  C   -0.042432  -0.018524   0.006698   0.006181  -0.001479
    26  C    0.004203  -0.086053  -0.039646  -0.000423   0.007371
    27  C    0.390261  -0.093507  -0.000522  -0.037542   0.007825
    28  C   -0.000184   0.488669   0.397102   0.005997  -0.042962
    29  H   -0.000248   0.005341  -0.004288   0.000024  -0.000185
    30  C   -0.030077   0.499320   0.006126   0.395883  -0.042202
    31  H    0.481084   0.004714   0.000020  -0.003327  -0.000182
    32  C    0.004714   5.033561  -0.040737  -0.040271   0.399207
    33  H    0.000020  -0.040737   0.518603  -0.000213  -0.004485
    34  H   -0.003327  -0.040271  -0.000213   0.516800  -0.004447
    35  H   -0.000182   0.399207  -0.004485  -0.004447   0.518541
 Mulliken atomic charges:
              1
     1  C   -0.580759
     2  H    0.204495
     3  C    0.092213
     4  C   -0.190017
     5  C   -0.111875
     6  C   -0.165677
     7  H    0.166924
     8  C   -0.172729
     9  H    0.179498
    10  C   -0.156528
    11  H    0.162060
    12  H    0.163412
    13  H    0.163993
    14  C    0.066475
    15  C   -0.145271
    16  C   -0.149841
    17  C   -0.189258
    18  H    0.184454
    19  C   -0.166211
    20  H    0.170220
    21  C   -0.151423
    22  H    0.162147
    23  H    0.162701
    24  H    0.163952
    25  C    0.086807
    26  C   -0.148172
    27  C   -0.151813
    28  C   -0.166468
    29  H    0.166714
    30  C   -0.183302
    31  H    0.199819
    32  C   -0.152817
    33  H    0.161691
    34  H    0.161575
    35  H    0.163015
 Sum of Mulliken atomic charges =   0.00000
 Mulliken charges with hydrogens summed into heavy atoms:
              1
     1  C   -0.376264
     3  C    0.092213
     4  C   -0.023093
     5  C    0.067623
     6  C   -0.003617
     8  C   -0.009318
    10  C    0.007465
    14  C    0.066475
    15  C    0.039182
    16  C    0.020379
    17  C   -0.027111
    19  C   -0.003511
    21  C    0.012528
    25  C    0.086807
    26  C    0.018542
    27  C    0.048005
    28  C   -0.004777
    30  C   -0.021727
    32  C    0.010198
 Sum of Mulliken charges with hydrogens summed into heavy atoms =   0.00000
 Electronic spatial extent (au):  <R**2>=           4938.8041
 Charge=              0.0000 electrons
 Dipole moment (field-independent basis, Debye):
    X=             -0.0103    Y=             -0.0706    Z=             -0.0421  Tot=              0.0828
 Quadrupole moment (field-independent basis, Debye-Ang):
   XX=           -110.5514   YY=           -114.0695   ZZ=           -102.9125
   XY=              0.8412   XZ=              2.2825   YZ=             -0.0270
 Traceless Quadrupole moment (field-independent basis, Debye-Ang):
   XX=             -1.3736   YY=             -4.8917   ZZ=              6.2653
   XY=              0.8412   XZ=              2.2825   YZ=             -0.0270
 Octapole moment (field-independent basis, Debye-Ang**2):
  XXX=             40.2695  YYY=             16.1059  ZZZ=             -0.1961  XYY=            -45.1937
  XXY=            -12.1393  XXZ=             -6.5100  XZZ=              0.9585  YZZ=             -5.0460
  YYZ=             10.5124  XYZ=              0.0330
 Hexadecapole moment (field-independent basis, Debye-Ang**3):
 XXXX=          -3092.7888 YYYY=          -2906.2522 ZZZZ=           -785.3266 XXXY=             -8.7889
 XXXZ=              3.4237 YYYX=              5.5628 YYYZ=             60.9786 ZZZX=              6.0333
 ZZZY=             -3.7886 XXYY=           -973.1922 XXZZ=           -631.4495 YYZZ=           -601.1629
 XXYZ=            -50.3296 YYXZ=             19.8382 ZZXY=             16.1039
 N-N= 1.288478370394D+03 E-N=-4.272969377695D+03  KE= 7.285933525261D+02
 PrsmSu:  requested number of processors reduced to:  10 ShMem   1 Linda.
 Calling FoFJK, ICntrl=      2127 FMM=F ISym2X=0 I1Cent= 0 IOpClX= 0 NMat=1 NMatS=1 NMatT=0.
 ***** Axes restored to original set *****
 -------------------------------------------------------------------
 Center     Atomic                   Forces (Hartrees/Bohr)
 Number     Number              X              Y              Z
 -------------------------------------------------------------------
      1        6           0.020640003    0.010159984   -0.006446903
      2        1          -0.022650289   -0.012999348    0.008471159
      3        6           0.009693715   -0.009296084   -0.004366728
      4        6           0.004720585    0.003740347   -0.000910663
      5        6          -0.011012100    0.002133789    0.003224009
      6        6           0.010998728   -0.006391087   -0.004149558
      7        1          -0.013791779   -0.010803543    0.002739023
      8        6          -0.010430047   -0.006123983    0.002953943
      9        1           0.017798270   -0.012999850   -0.015832124
     10        6           0.003564837   -0.012840055   -0.002885106
     11        1          -0.014876906    0.005433354    0.005171421
     12        1           0.012744186    0.010579585   -0.002375513
     13        1          -0.002208453    0.016421015    0.002954383
     14        6           0.005652644    0.006300985    0.010251978
     15        6          -0.006742979   -0.011483480   -0.002036976
     16        6           0.003717150    0.003923218   -0.003253456
     17        6          -0.007728430   -0.006156188    0.007060797
     18        1           0.014165307    0.021694984    0.016140895
     19        6           0.006079832    0.010296364    0.005329185
     20        1          -0.010649005   -0.009654672    0.010339023
     21        6          -0.000478665    0.004275220    0.012823592
     22        1           0.009917594    0.008651253   -0.010233158
     23        1          -0.008594331   -0.013143061   -0.005564681
     24        1           0.001335239   -0.004596338   -0.016099658
     25        6          -0.006384514    0.009351954   -0.009149973
     26        6           0.005147812   -0.000009389   -0.003945125
     27        6          -0.003255192   -0.002143774    0.010508321
     28        6           0.003269562    0.002601035   -0.012104723
     29        1          -0.015965425    0.001684306    0.006609013
     30        6          -0.011755244    0.000617582    0.002989331
     31        1           0.003222805    0.007378237   -0.020456842
     32        6          -0.010084661    0.004728143   -0.007819809
     33        1          -0.003664613   -0.003985455    0.015751083
     34        1           0.015585270   -0.001639720   -0.005815080
     35        1           0.012019092   -0.005705327    0.010128920
 -------------------------------------------------------------------
 Cartesian Forces:  Max     0.022650289 RMS     0.009556475

 GradGradGradGradGradGradGradGradGradGradGradGradGradGradGradGradGradGrad
 Berny optimization.
 Internal  Forces:  Max     0.029857245 RMS     0.007834415
 Search for a local minimum.
 Step number   1 out of a maximum of  197
 All quantities printed in internal units (Hartrees-Bohrs-Radians)
 Mixed Optimization -- RFO/linear search
 Second derivative matrix not updated -- first step.
     Eigenvalues ---    0.00635   0.00644   0.00654   0.01531   0.01533
     Eigenvalues ---    0.01536   0.02138   0.02141   0.02146   0.02168
     Eigenvalues ---    0.02171   0.02173   0.02181   0.02184   0.02186
     Eigenvalues ---    0.02202   0.02202   0.02203   0.02213   0.02213
     Eigenvalues ---    0.02215   0.02216   0.02216   0.02217   0.02217
     Eigenvalues ---    0.02218   0.02219   0.02220   0.02220   0.02222
     Eigenvalues ---    0.04522   0.06370   0.06676   0.15996   0.15999
     Eigenvalues ---    0.15999   0.16000   0.16000   0.16000   0.16000
     Eigenvalues ---    0.16000   0.16000   0.16000   0.16000   0.16000
     Eigenvalues ---    0.16000   0.16000   0.16000   0.18933   0.19363
     Eigenvalues ---    0.22000   0.22000   0.22000   0.22000   0.22000
     Eigenvalues ---    0.22000   0.23476   0.23476   0.23477   0.24996
     Eigenvalues ---    0.24999   0.25000   0.31166   0.31362   0.31433
     Eigenvalues ---    0.31506   0.33462   0.33605   0.33964   0.34077
     Eigenvalues ---    0.34078   0.34100   0.34255   0.34257   0.34258
     Eigenvalues ---    0.34263   0.34264   0.34266   0.34281   0.34283
     Eigenvalues ---    0.34290   0.42428   0.42435   0.42488   0.42573
     Eigenvalues ---    0.42584   0.42612   0.46349   0.46368   0.46435
     Eigenvalues ---    0.46762   0.46770   0.46828   0.47222   0.47230
     Eigenvalues ---    0.47265   0.47339   0.47342   0.473721000.00000
     Eigenvalues --- 1000.000001000.000001000.000001000.000001000.00000
     Eigenvalues --- 1000.000001000.000001000.000001000.000001000.00000
     Eigenvalues --- 1000.000001000.000001000.000001000.000001000.00000
     Eigenvalues --- 1000.000001000.000001000.000001000.000001000.00000
     Eigenvalues --- 1000.000001000.000001000.000001000.000001000.00000
     Eigenvalues --- 1000.000001000.000001000.000001000.000001000.00000
     Eigenvalues --- 1000.000001000.000001000.000001000.000001000.00000
     Eigenvalues --- 1000.000001000.000001000.000001000.000001000.00000
     Eigenvalues --- 1000.000001000.000001000.000001000.000001000.00000
     Eigenvalues --- 1000.000001000.000001000.000001000.000001000.00000
     Eigenvalues --- 1000.000001000.000001000.000001000.000001000.00000
     Eigenvalues --- 1000.000001000.000001000.000001000.000001000.00000
     Eigenvalues --- 1000.000001000.000001000.000001000.000001000.00000
     Eigenvalues --- 1000.000001000.000001000.000001000.000001000.00000
     Eigenvalues --- 1000.000001000.000001000.000001000.000001000.00000
     Eigenvalues --- 1000.000001000.000001000.000001000.000001000.00000
     Eigenvalues --- 1000.000001000.000001000.000001000.000001000.00000
     Eigenvalues --- 1000.000001000.00000
 RFO step:  Lambda=-4.28838987D-02 EMin= 6.35242510D-03
 Linear search not attempted -- first point.
 Maximum step size (   0.300) exceeded in Quadratic search.
    -- Step size scaled by   0.575
 Iteration  1 RMS(Cart)=  0.12586870 RMS(Int)=  0.00284187
 Iteration  2 RMS(Cart)=  0.00584692 RMS(Int)=  0.00028901
 Iteration  3 RMS(Cart)=  0.00000907 RMS(Int)=  0.00028896
 Iteration  4 RMS(Cart)=  0.00000000 RMS(Int)=  0.00028896
 Variable       Old X    -DE/DX   Delta X   Delta X   Delta X     New X
                                 (Linear)    (Quad)   (Total)
    R1        2.12396  -0.02744   0.00000  -0.04451  -0.04451   2.07946
    R2        2.85195   0.02263   0.00000   0.03643   0.03643   2.88838
    R3        2.85057   0.02568   0.00000   0.04125   0.04125   2.89182
    R4        2.85326   0.02094   0.00000   0.03378   0.03378   2.88704
    R5        2.63978  -0.00418   0.00000  -0.00469  -0.00468   2.63510
    R6        2.63785   0.00066   0.00000   0.00089   0.00091   2.63876
    R7        2.62718  -0.00269   0.00000  -0.00307  -0.00308   2.62410
    R8        2.07200  -0.01772   0.00000  -0.02656  -0.02656   2.04544
    R9        2.62592  -0.00454   0.00000  -0.00498  -0.00498   2.62095
   R10        2.08002  -0.02544   0.00000  -0.03861  -0.03861   2.04141
   R11        2.62776  -0.00839   0.00000  -0.00951  -0.00953   2.61823
   R12        2.06899  -0.01666   0.00000  -0.02485  -0.02485   2.04413
   R13        2.62801  -0.00548   0.00000  -0.00619  -0.00620   2.62181
   R14        2.06886  -0.01673   0.00000  -0.02496  -0.02496   2.04391
   R15        2.06858  -0.01683   0.00000  -0.02509  -0.02509   2.04348
   R16        2.63792   0.00073   0.00000   0.00102   0.00103   2.63894
   R17        2.64208  -0.00347   0.00000  -0.00391  -0.00389   2.63819
   R18        2.62701  -0.00316   0.00000  -0.00340  -0.00341   2.62361
   R19        2.08247  -0.02986   0.00000  -0.04548  -0.04548   2.03699
   R20        2.62611  -0.00349   0.00000  -0.00400  -0.00399   2.62212
   R21        2.07199  -0.01769   0.00000  -0.02652  -0.02652   2.04547
   R22        2.62686  -0.00669   0.00000  -0.00752  -0.00754   2.61932
   R23        2.06884  -0.01667   0.00000  -0.02486  -0.02486   2.04397
   R24        2.62808  -0.00845   0.00000  -0.00962  -0.00963   2.61845
   R25        2.06888  -0.01666   0.00000  -0.02485  -0.02485   2.04403
   R26        2.06855  -0.01680   0.00000  -0.02504  -0.02504   2.04351
   R27        2.64287  -0.00408   0.00000  -0.00470  -0.00469   2.63817
   R28        2.63520  -0.00254   0.00000  -0.00281  -0.00281   2.63239
   R29        2.62517  -0.00421   0.00000  -0.00476  -0.00476   2.62041
   R30        2.07161  -0.01735   0.00000  -0.02599  -0.02599   2.04562
   R31        2.62871  -0.00271   0.00000  -0.00296  -0.00296   2.62575
   R32        2.07390  -0.02183   0.00000  -0.03281  -0.03281   2.04109
   R33        2.62906  -0.00600   0.00000  -0.00677  -0.00678   2.62228
   R34        2.06897  -0.01665   0.00000  -0.02485  -0.02485   2.04413
   R35        2.62581  -0.00618   0.00000  -0.00686  -0.00687   2.61894
   R36        2.06902  -0.01672   0.00000  -0.02494  -0.02494   2.04408
   R37        2.06844  -0.01672   0.00000  -0.02492  -0.02492   2.04352
    A1        1.86840  -0.00597   0.00000  -0.03562  -0.03487   1.83354
    A2        1.85586  -0.00924   0.00000  -0.04557  -0.04462   1.81124
    A3        1.85792  -0.00022   0.00000  -0.01874  -0.01857   1.83935
    A4        1.97398   0.01475   0.00000   0.05379   0.05261   2.02659
    A5        1.92468  -0.00404   0.00000   0.00963   0.00730   1.93198
    A6        1.97462   0.00299   0.00000   0.02539   0.02348   1.99810
    A7        2.07818  -0.00625   0.00000  -0.01237  -0.01244   2.06574
    A8        2.12648   0.01646   0.00000   0.03222   0.03214   2.15861
    A9        2.07839  -0.01024   0.00000  -0.02013  -0.02014   2.05825
   A10        2.10030   0.00696   0.00000   0.01488   0.01488   2.11519
   A11        2.09446  -0.00406   0.00000  -0.00909  -0.00910   2.08536
   A12        2.08842  -0.00290   0.00000  -0.00579  -0.00580   2.08262
   A13        2.10343   0.00381   0.00000   0.00847   0.00840   2.11183
   A14        2.07575   0.00411   0.00000   0.01298   0.01286   2.08861
   A15        2.10378  -0.00786   0.00000  -0.02092  -0.02104   2.08274
   A16        2.09792  -0.00011   0.00000  -0.00101  -0.00103   2.09689
   A17        2.09106   0.00023   0.00000   0.00101   0.00102   2.09208
   A18        2.09420  -0.00012   0.00000   0.00000   0.00001   2.09421
   A19        2.09572   0.00215   0.00000   0.00431   0.00430   2.10003
   A20        2.09167  -0.00098   0.00000  -0.00188  -0.00189   2.08978
   A21        2.09579  -0.00117   0.00000  -0.00242  -0.00243   2.09336
   A22        2.09056  -0.00256   0.00000  -0.00639  -0.00643   2.08413
   A23        2.09628   0.00128   0.00000   0.00322   0.00322   2.09950
   A24        2.09635   0.00127   0.00000   0.00319   0.00319   2.09954
   A25        2.14181   0.02505   0.00000   0.04917   0.04915   2.19097
   A26        2.06595  -0.01289   0.00000  -0.02533  -0.02535   2.04060
   A27        2.07542  -0.01216   0.00000  -0.02383  -0.02380   2.05162
   A28        2.10359   0.00443   0.00000   0.00982   0.00983   2.11342
   A29        2.08525   0.00422   0.00000   0.01333   0.01332   2.09857
   A30        2.09431  -0.00865   0.00000  -0.02318  -0.02318   2.07113
   A31        2.10293   0.00832   0.00000   0.01764   0.01766   2.12059
   A32        2.09364  -0.00486   0.00000  -0.01081  -0.01082   2.08282
   A33        2.08662  -0.00346   0.00000  -0.00683  -0.00685   2.07977
   A34        2.09767   0.00246   0.00000   0.00503   0.00500   2.10268
   A35        2.09033  -0.00118   0.00000  -0.00237  -0.00236   2.08798
   A36        2.09518  -0.00128   0.00000  -0.00266  -0.00265   2.09253
   A37        2.09754   0.00003   0.00000  -0.00099  -0.00099   2.09654
   A38        2.09149   0.00006   0.00000   0.00070   0.00071   2.09220
   A39        2.09416  -0.00009   0.00000   0.00028   0.00029   2.09444
   A40        2.08922  -0.00307   0.00000  -0.00767  -0.00770   2.08151
   A41        2.09727   0.00153   0.00000   0.00380   0.00382   2.10109
   A42        2.09669   0.00155   0.00000   0.00386   0.00388   2.10057
   A43        2.06453  -0.00204   0.00000  -0.00392  -0.00392   2.06061
   A44        2.14110   0.00960   0.00000   0.01893   0.01892   2.16002
   A45        2.07753  -0.00756   0.00000  -0.01502  -0.01501   2.06253
   A46        2.10226   0.00532   0.00000   0.01117   0.01117   2.11343
   A47        2.09289  -0.00326   0.00000  -0.00727  -0.00728   2.08561
   A48        2.08803  -0.00206   0.00000  -0.00390  -0.00390   2.08412
   A49        2.10172   0.00311   0.00000   0.00678   0.00678   2.10850
   A50        2.09255   0.00058   0.00000   0.00266   0.00266   2.09521
   A51        2.08887  -0.00369   0.00000  -0.00947  -0.00947   2.07941
   A52        2.09708   0.00008   0.00000  -0.00039  -0.00039   2.09669
   A53        2.09185   0.00002   0.00000   0.00037   0.00037   2.09222
   A54        2.09425  -0.00010   0.00000   0.00002   0.00002   2.09427
   A55        2.09849   0.00134   0.00000   0.00284   0.00283   2.10132
   A56        2.08966  -0.00062   0.00000  -0.00126  -0.00126   2.08840
   A57        2.09504  -0.00073   0.00000  -0.00158  -0.00157   2.09347
[...]
 0022693,-0.00020112,-0.00029016,0.00017551,-0.00038321,0.00012875,0.00
 029558,0.00019666,-0.00001631,-0.00001377,-0.00004111,0.00042393,-0.00
 039356,0.00004561,0.00023722,0.00008556,0.00032621,-0.00039131,-0.0000
 1242,-0.00006745,-0.00001738,0.00001141,0.00004454,0.00001579,0.000016
 72,-0.00003836,0.00001609,-0.00000503,0.00000544,-0.00103727,-0.000425
 98,-0.00061759,-0.00028152,-0.00012085,-0.00047375,0.00023928,0.000426
 59,0.00061265,-0.00001869,0.00039203,0.00058248,0.00008296,-0.00005223
 ,-0.00002447,0.00021011,0.00004897,-0.00057831,-0.00009384,-0.00004384
 ,0.00005565,-0.00020275,-0.00049269,0.00017062,0.00000583,0.00000645,-
 0.00000141,-0.00000072,-0.00000795,-0.00001167,-0.00000148,-0.00001349
 ,-0.00000621,-0.05288212,-0.00347805,0.09401357,-0.03167554,0.02834337
 ,-0.08786545,-0.03362601,0.04442216,-0.22350898,0.10790407,-0.03154425
 ,-0.01355329,-0.00074489,0.00022771,-0.00081176,-0.07956244,-0.1016319
 2,0.73712811,0.00047224,-0.00162056,0.00008737,0.00015881,-0.00003242,
 -0.00012329,0.00023142,0.00007420,0.00002520,-0.00002039,-0.00006640,-
 0.00001440,0.00009250,-0.00003392,-0.00000457,-0.00001837,-0.00001504,
 -0.00001423,-0.00002602,-0.00000513,0.00002100,-0.00002585,0.00004700,
 -0.00002904,-0.00002382,-0.00001398,0.00004456,0.00002323,-0.00001340,
 0.00000908,0.00000301,-0.00000721,0.00000103,-0.00000691,-0.00002210,-
 0.00000193,-0.00000395,-0.00000672,0.00000432,-0.00155081,0.00059444,-
 0.00029154,-0.00005672,0.00028040,-0.00050160,-0.00015208,-0.00051706,
 -0.00022182,0.00000817,-0.00005415,-0.00040067,-0.00004555,0.00003434,
 0.00001341,-0.00007499,-0.00013730,0.00011676,0.00002025,0.00006683,0.
 00002270,0.00003847,0.00026315,-0.00000014,0.00000649,-0.00004529,0.00
 006354,0.00000953,0.00004534,0.00002365,0.00002105,0.00001657,0.000057
 33,0.00091920,-0.00562554,0.03276810,-0.00478959,0.00402222,0.00253148
 ,-0.07867988,-0.00101125,0.05153762,-0.00126019,0.00017456,-0.00036900
 ,-0.00023761,-0.00034042,0.00159840,0.00941389,0.00499000,-0.02843518,
 0.07744267,-0.00175732,-0.00380196,-0.00065129,-0.00053306,0.00036347,
 -0.00020720,0.00080128,-0.00006871,0.00031074,-0.00003038,-0.00025002,
 -0.00000984,0.00029399,-0.00002186,0.00017441,0.00003513,0.00004582,-0
 .00001877,-0.00002565,-0.00000632,0.00000780,-0.00010599,-0.00003890,-
 0.00001053,-0.00011418,0.00000257,-0.00028831,-0.00002503,-0.00000316,
 -0.00000997,-0.00000958,-0.00000953,-0.00000990,0.00000793,-0.00001125
 ,-0.00000686,-0.00001666,0.00001656,-0.00000064,0.00057825,0.00011991,
 0.00041693,0.00038963,0.00012726,-0.00004151,0.00021471,-0.00006891,0.
 00019546,-0.00004743,0.00020428,0.00027059,0.00016261,-0.00029188,0.00
 008450,0.00009710,-0.00021714,-0.00041134,-0.00016369,-0.00002439,0.00
 005127,-0.00009166,-0.00023759,0.00003569,0.00000242,-0.00000444,0.000
 02178,-0.00004311,-0.00001250,-0.00002402,-0.00002665,-0.00001752,-0.0
 0001277,0.00132115,0.00691804,-0.00853216,0.00394002,0.00693056,0.0011
 3450,-0.00100344,-0.05986549,0.04877716,-0.00000336,-0.00091834,-0.000
 37977,0.00009052,0.00000050,-0.00043752,-0.00303471,0.00319695,0.01456
 757,-0.00339254,0.04662738,-0.00090898,-0.00084774,-0.00080397,-0.0000
 6020,-0.00002726,-0.00004585,0.00031479,0.00009023,0.00021717,-0.00001
 883,-0.00014254,0.00000461,0.00023217,-0.00009137,0.00020305,0.0000129
 4,0.00002104,-0.00000126,-0.00000962,0.00000665,-0.00001301,-0.0000824
 7,-0.00002256,0.00001253,-0.00005883,-0.00002443,-0.00025914,-0.000012
 11,0.00000146,-0.00001271,-0.00000291,-0.00000733,-0.00000706,0.000005
 74,-0.00001356,-0.00000941,-0.00000876,0.00000906,-0.00000702,-0.00223
 094,0.00026329,-0.00008687,-0.00116309,0.00025689,-0.00035385,-0.00031
 492,0.00067239,0.00022172,-0.00005770,0.00022269,0.00013856,0.00014338
 ,-0.00015386,0.00005744,0.00006296,0.00000725,-0.00007782,0.00009023,-
 0.00003019,0.00000073,0.00003425,-0.00028897,-0.00005593,0.00001068,0.
 00000146,-0.00000097,0.00000438,-0.00000131,-0.00001167,0.00000421,-0.
 00000573,-0.00000445,-0.00078687,0.00334675,-0.00902255,0.00245491,0.0
 0056560,0.00118047,0.05334670,0.04976652,-0.35856310,-0.00032277,-0.00
 028992,0.00087804,0.00000795,0.00016813,-0.00051298,0.00784534,0.00150
 568,-0.01292396,-0.05509887,-0.05656549,0.37952495,-0.00136838,0.00115
 607,0.00075784,0.00045395,0.00055843,-0.00060054,-0.00019913,-0.000202
 19,-0.00131076,0.00032894,0.00000073,-0.00019662,-0.00025711,0.0002996
 7,-0.00018634,0.00008914,0.00023629,0.00016684,0.00001538,-0.00002117,
 -0.00001302,0.00026979,-0.00028147,0.00000328,0.00001584,0.00009728,0.
 00011995,-0.00030483,0.00006583,-0.00004358,-0.00002153,0.00003003,0.0
 0004020,0.00002557,0.00006828,-0.00002531,0.00000565,0.00001112,0.0000
 0803,-0.00044284,-0.00022149,0.00005847,0.00004164,-0.00010860,-0.0003
 4305,0.00022026,0.00002684,0.00019113,0.00001243,0.00016807,0.00019279
 ,-0.00001219,0.00000808,-0.00000720,0.00012478,-0.00000702,-0.00028115
 ,-0.00007359,0.00003039,0.00004188,-0.00009202,-0.00022448,0.00001083,
 -0.00000794,0.00000536,-0.00001901,-0.00001262,-0.00000527,-0.00002351
 ,-0.00000726,-0.00000209,-0.00000448,-0.04107721,-0.00208050,0.0544598
 9,-0.05814273,0.03509939,-0.05432101,0.06972455,-0.01528542,-0.0221195
 4,-0.31277729,0.05112453,0.11735254,-0.00086699,0.00400404,-0.00264856
 ,-0.16015484,0.02809541,-0.00493633,-0.00269546,0.00480527,-0.00266748
 ,0.73506175,-0.00016220,-0.00086885,-0.00055308,-0.00011367,-0.0000104
 4,0.00003179,0.00025279,0.00017080,0.00040129,-0.00001210,-0.00017474,
 -0.00001609,0.00007636,0.00002909,-0.00006554,0.00003655,0.00002493,-0
 .00001713,-0.00000789,0.00001418,0.00001112,-0.00005486,-0.00003298,-0
 .00001551,-0.00007148,0.00001026,-0.00001671,-0.00001118,-0.00001510,-
 0.00000120,0.00000715,-0.00001866,-0.00000457,0.00000018,-0.00000665,-
 0.00000172,-0.00000748,-0.00000224,-0.00000154,0.00004962,-0.00000568,
 -0.00006526,0.00005085,0.00004770,-0.00003446,-0.00000126,-0.00006385,
 0.00004471,0.00000659,0.00002145,0.00000276,0.00000298,-0.00000954,-0.
 00000039,-0.00001597,-0.00001580,-0.00002746,-0.00000899,-0.00003459,-
 0.00002981,-0.00002137,-0.00000363,0.00003789,0.00000098,-0.00000311,0
 .00001231,0.00001738,0.00001346,0.00002160,0.00000213,-0.00000098,0.00
 001106,-0.00073964,-0.00610550,-0.00327244,0.02070009,0.00298934,-0.00
 049086,-0.00051039,0.00558071,0.01911252,0.07088482,-0.10463319,-0.015
 04254,0.00429054,0.00682651,0.00339867,0.00847753,-0.10207183,0.065444
 04,0.00455231,0.00664413,0.00264046,-0.19500163,0.27452006,0.00157722,
 -0.00140324,0.00003448,-0.00077621,-0.00047450,0.00021680,0.00006850,-
 0.00036077,0.00089523,-0.00019060,0.00039047,0.00025246,-0.00003510,-0
 .00007355,0.00024798,-0.00015966,-0.00027353,-0.00014484,0.00000767,-0
 .00001360,0.00000465,-0.00031726,0.00032471,-0.00002649,-0.00032125,-0
 .00011541,-0.00028072,0.00031646,0.00005594,0.00006903,0.00000692,0.00
 002179,-0.00003929,-0.00000459,0.00003752,0.00002204,-0.00001120,0.000
 01333,0.00000009,0.00024747,0.00057482,0.00013313,-0.00020116,-0.00001
 691,0.00038920,-0.00022606,-0.00001178,-0.00042070,-0.00003994,-0.0002
 6756,-0.00023414,0.00000143,-0.00002506,0.00002905,-0.00010506,0.00000
 717,0.00043285,0.00007625,0.00001246,-0.00001561,0.00018073,0.00030046
 ,-0.00015568,0.00001246,0.00000574,-0.00002459,-0.00002222,-0.00002279
 ,-0.00001229,-0.00000308,-0.00000271,-0.00002406,0.05310948,-0.0028083
 2,-0.07211302,0.01146737,-0.02151605,0.09140863,-0.08748062,0.04090157
 ,-0.03914080,0.03460718,0.01344509,-0.19060121,-0.00335592,0.00357434,
 -0.00158497,0.07767510,0.03624131,-0.35522486,-0.00229771,0.00266274,0
 .00027243,0.00717901,-0.13738830,0.74923689,0.00044946,-0.00000286,-0.
 00113010,-0.00000768,-0.00006411,0.00005506,0.00002276,-0.00011277,0.0
 0000657,-0.00003206,0.00004384,0.00003396,0.00000110,0.00001138,0.0000
 1143,-0.00001523,-0.00000943,-0.00000036,0.00000302,-0.00000289,-0.000
 00879,0.00000544,0.00002141,-0.00000247,-0.00001283,0.00000452,0.00000
 346,0.00001086,0.00000632,0.00000607,-0.00000211,0.00000594,-0.0000060
 1,-0.00000151,0.00000017,0.00000230,0.00000093,0.00000128,-0.00000036,
 -0.00025449,0.00015272,0.00000848,0.00002255,-0.00003259,-0.00006324,0
 .00002670,0.00000259,-0.00003819,0.00002550,-0.00000181,0.00001025,-0.
 00001226,0.00000869,-0.00000046,0.00001814,-0.00000435,-0.00001123,-0.
 00001532,0.00000136,0.00000577,-0.00000563,-0.00001862,-0.00002164,-0.
 00000188,0.00000213,-0.00000905,-0.00000236,-0.00000609,-0.00000857,-0
 .00000402,-0.00000004,-0.00000340,-0.00266572,0.00468498,-0.00216897,0
 .00961935,0.00539024,-0.02824406,-0.00122893,0.00018313,-0.00039250,-0
 .07921352,-0.00176766,0.05089231,0.00059841,-0.00203048,0.00015513,-0.
 00471631,0.00400325,0.00249387,-0.00003694,-0.00040742,-0.00007915,0.0
 0124168,-0.00654588,0.03367304,0.07575825,-0.00027787,-0.00006349,0.00
 049315,-0.00006359,0.00003352,-0.00002884,0.00006533,0.00004398,0.0001
 0404,-0.00001202,-0.00004556,0.00001252,0.00000819,-0.00004269,-0.0000
 2430,0.00000313,-0.00000255,-0.00001658,-0.00001226,0.00000179,0.00000
 568,0.00001672,0.00000374,-0.00002186,-0.00000352,0.00001724,0.0000425
 0,0.00000891,-0.00003246,-0.00001327,0.00000142,-0.00000663,0.00000155
 ,-0.00001164,-0.00002127,0.00001123,0.00000053,-0.00000703,0.00000753,
 0.00014501,-0.00024264,0.00010045,0.00000998,0.00001895,-0.00000188,0.
 00003746,0.00004805,0.00003946,-0.00000817,0.00004013,0.00003593,0.000
 00803,-0.00000921,0.00000118,-0.00000453,-0.00000686,-0.00006073,-0.00
 000853,-0.00000240,-0.00000162,-0.00002137,-0.00004544,0.00003470,-0.0
 0000538,-0.00000095,0.00000922,0.00000255,0.00000223,-0.00000238,0.000
 00034,-0.00000005,0.00000447,0.00469808,0.00679001,0.00253945,-0.00343
 286,0.00338536,0.01439960,0.00015263,-0.00088742,-0.00038379,-0.001685
 54,-0.06121363,0.05490672,-0.00179761,-0.00419568,-0.00151360,0.003914
 97,0.00709291,0.00090563,-0.00041965,-0.00106276,-0.00018764,0.0021960
 7,0.00669546,-0.00844577,-0.00161414,0.04764029,0.00059497,-0.00009613
 ,-0.00069005,-0.00005442,0.00000022,0.00000096,-0.00007102,-0.00016262
 ,-0.00011613,0.00001059,0.00010050,0.00003370,0.00002920,0.00006062,0.
 00002846,-0.00001593,0.00001212,0.00001406,0.00000968,-0.00001190,-0.0
 0001077,-0.00002339,-0.00001537,-0.00000062,-0.00002668,-0.00004545,-0
 .00001904,-0.00001912,0.00002962,0.00001013,-0.00001391,0.00001902,-0.
 00000639,0.00001408,0.00002002,-0.00000541,-0.00000505,0.00001884,-0.0
 0000313,-0.00024665,0.00019974,0.00006247,-0.00002400,-0.00006546,-0.0
 0007884,0.00001282,0.00002058,-0.00007593,0.00000980,-0.00001234,0.000
 01687,0.00000143,-0.00000367,0.00000788,0.00001703,0.00002004,0.000008
 93,0.00000790,0.00001402,0.00001392,-0.00000188,-0.00000924,-0.0000283
 9,0.00000738,0.00000467,-0.00001803,-0.00000220,-0.00001890,-0.0000150
 0,0.00000019,-0.00000417,-0.00001560,-0.00264540,0.00296415,0.00047120
 ,0.00847182,0.00167796,-0.01379014,-0.00045665,-0.00027106,0.00091497,
 0.05066040,0.05493774,-0.35356460,-0.00106607,-0.00109575,0.00095290,0
 .00301570,0.00070645,0.00134275,-0.00004830,-0.00024487,-0.00016280,-0
 .00281596,0.00418815,-0.00802604,-0.05554124,-0.06162774,0.37249193,-0
 .00054820,-0.00012307,0.00099192,-0.00028178,0.00013090,-0.00012966,-0
 .00014908,-0.00013269,-0.00018646,0.00002357,0.00013010,0.00000211,0.0
 0001838,0.00008549,-0.00000700,-0.00001016,0.00001784,0.00001376,0.000
 01605,-0.00001251,0.00000231,-0.00001602,-0.00002144,-0.00001177,-0.00
 004126,-0.00004049,0.00001836,-0.00001802,0.00002651,-0.00000023,-0.00
 001445,0.00001794,0.00000330,0.00000853,0.00002067,0.00001082,-0.00000
 490,0.00001648,0.00000262,0.00000855,0.00011038,0.00022257,0.00000008,
 -0.00005050,-0.00003264,0.00000398,-0.00002758,-0.00007892,0.00001843,
 -0.00002344,-0.00001482,-0.00001529,0.00000309,0.00001779,0.00002242,0
 .00000362,0.00002929,-0.00000238,0.00003135,0.00001648,0.00003360,-0.0
 0000790,-0.00006972,-0.00000649,0.00001239,-0.00002717,-0.00002307,-0.
 00001783,-0.00001970,-0.00001117,0.00000051,-0.00002259,-0.00099294,0.
 00415035,-0.00331208,0.00058865,-0.00032009,-0.00096371,-0.01665960,0.
 00418864,0.01518577,0.00247653,0.00199214,0.00114625,-0.00023618,-0.00
 036046,-0.00000900,-0.30514930,0.06347780,0.11078205,0.00064443,-0.001
 75422,-0.00091963,0.00028622,0.00245863,-0.00257009,-0.00021625,0.0000
 5295,-0.00001624,0.31972842,0.00043061,-0.00014277,-0.00026283,0.00015
 170,-0.00012705,0.00013246,0.00007239,0.00014855,0.00001276,-0.0000085
 2,-0.00008506,-0.00002891,0.00006168,-0.00007419,0.00004250,0.00000326
 ,0.00000580,0.00000721,-0.00001743,0.00000181,-0.00000931,-0.00000245,
 0.00000556,0.00000667,0.00002308,0.00004072,-0.00001940,-0.00000512,-0
 .00001801,-0.00000495,-0.00000032,-0.00000763,0.00000140,-0.00000214,-
 0.00002561,-0.00000667,0.00000038,-0.00000331,-0.00000397,-0.00004636,
 -0.00002241,-0.00018208,-0.00002509,0.00002966,0.00009024,-0.00001761,
 0.00002302,-0.00002722,-0.00001116,-0.00002826,-0.00002648,0.00001107,
 -0.00001397,-0.00000310,0.00000023,-0.00001418,0.00003401,-0.00001833,
 -0.00001153,0.00000745,0.00001251,0.00003135,0.00000027,0.00000244,-0.
 00000769,0.00001585,-0.00000855,-0.00000205,-0.00000325,-0.00000018,0.
 00000222,0.00000301,0.00367308,0.00657032,0.00343441,-0.00035309,-0.00
 088603,0.00019450,0.01280877,0.00268275,-0.00702926,0.00215456,0.00748
 049,0.00309492,-0.00035792,-0.00106381,-0.00029706,0.06358149,-0.06581
 673,-0.02170090,-0.00197091,-0.00410144,-0.00090101,-0.00613275,0.0068
 2769,0.00398357,-0.00030455,-0.00000921,0.00012183,-0.07203643,0.05273
 090,-0.00068250,0.00005378,0.00054195,-0.00018666,0.00005571,-0.000076
 19,-0.00005570,-0.00002065,-0.00004122,-0.00001467,0.00002958,-0.00000
 637,0.00001532,-0.00000176,0.00000133,-0.00000588,0.00000359,0.0000054
 3,0.00000641,0.00000033,-0.00000310,0.00001105,0.00001138,0.00000926,0
 .00001311,0.00001825,0.00000167,-0.00000051,0.00000221,0.00000041,-0.0
 0000041,0.00000156,0.00000122,-0.00000017,-0.00000322,-0.00000144,0.00
 000202,-0.00000153,-0.00000151,0.00006859,-0.00002404,0.00011311,0.000
 03941,0.00000823,0.00000261,0.00000742,-0.00001520,-0.00001448,0.00001
 222,-0.00000332,-0.00001779,-0.00001031,0.00000918,0.00000170,0.000001
 64,-0.00001222,0.00000071,-0.00000955,0.00000238,-0.00000175,0.0000084
 0,-0.00000916,-0.00002398,-0.00000739,0.00000312,-0.00000435,-0.000003
 81,0.00000082,-0.00000308,-0.00000505,0.00000220,0.,-0.00290855,0.0034
 4330,-0.00158869,-0.00085130,0.00026264,-0.00092933,-0.02130433,0.0056
 6858,0.01297526,0.00065961,0.00323073,-0.00587757,-0.00001948,-0.00028
 411,0.00001341,0.11094603,-0.02154413,-0.12276192,0.00016948,-0.001447
 49,0.00102115,0.03399588,-0.00888149,-0.00727894,0.00153889,-0.0003844
 5,-0.00062040,-0.12029742,0.02081426,0.12358202,-0.00003343,-0.0003649
 9,-0.00010805,0.00000436,0.00002635,0.00005427,0.00003869,-0.00007413,
 -0.00004323,0.00002384,0.00001307,-0.00000460,0.00001513,0.00003605,-0
 .00001122,0.00001116,0.00001019,0.00000452,0.00000477,-0.00000677,0.00
 000615,-0.00001438,-0.00002535,-0.00000742,-0.00002252,-0.00002134,0.0
 0000871,-0.00001596,0.00000973,0.00000218,-0.00000990,0.00000713,-0.00
 000052,0.00000806,0.00000941,0.00000172,-0.00000404,0.00001282,0.00000
 072,-0.00001913,0.00007890,0.00005132,0.00000011,-0.00002929,-0.000051
 77,0.00000679,-0.00001416,-0.00003287,-0.00000150,-0.00000428,-0.00000
 030,-0.00000082,-0.00000596,0.00000782,0.00000791,0.00001253,0.0000071
 0,0.00000589,0.00001684,0.00001221,0.00000122,-0.00000064,-0.00001396,
 0.00000408,0.00000301,-0.00000981,-0.00000518,-0.00001062,-0.00000851,
 0.00000015,-0.00000196,-0.00001088,-0.00010766,-0.00055666,0.00098800,
 -0.00334145,0.00310964,0.00430423,0.00181867,0.00197816,0.00234037,-0.
 01596078,0.01260504,-0.02240444,-0.00107476,0.00053973,-0.00094008,0.0
 0904254,-0.00308875,0.00753379,0.00019976,-0.00015394,0.00023349,-0.22
 940361,0.09141854,-0.12208856,0.00064090,-0.00194364,0.00023114,0.0005
 1873,-0.00166837,-0.00113178,0.23766237,-0.00023844,-0.00098070,-0.000
 16829,-0.00014628,0.00000150,0.00007659,0.00016320,0.00001056,0.000092
 68,-0.00001242,-0.00007190,-0.00001767,0.00001210,-0.00003849,-0.00001
 243,0.00000858,-0.00000796,-0.00000700,-0.00000836,0.00000247,0.000000
 32,0.00001610,0.00002355,0.00000035,0.00001577,0.00004241,0.00001919,0
 .00000871,-0.00001535,-0.00000212,0.00000320,-0.00000818,0.00000009,-0
 .00000746,-0.00001986,0.00000224,0.00000284,-0.00000764,0.00000149,0.0
 0001923,-0.00002599,0.00001782,0.00002953,0.00001989,-0.00001303,0.000
 04002,-0.00001790,0.00000859,0.00000130,0.00000486,-0.00001366,-0.0000
 0791,-0.00000153,-0.00000160,0.00000134,-0.00001858,-0.00000831,-0.000
 01572,-0.00000197,0.00000368,-0.00000426,0.00000332,0.00000914,-0.0000
 0042,-0.00000488,0.00000760,-0.00000413,0.00000376,-0.00000209,-0.0000
 0142,0.00000207,0.00000533,-0.00067420,-0.00059450,-0.00050359,0.00323
 833,0.00740236,0.00065382,0.00188557,0.00775195,0.00252727,0.00380321,
 0.00233912,0.00588151,0.00016263,-0.00017835,0.00018853,0.00554655,0.0
 0296860,0.00131840,0.00018961,-0.00016333,0.00005537,0.09148691,-0.096
 33843,0.07066680,-0.00159829,-0.00391574,-0.00143159,-0.00199913,-0.00
 411990,-0.00098905,-0.10191629,0.08595473,-0.00003159,-0.00027749,0.00
 005396,-0.00012070,0.00001090,0.00000020,0.00000904,-0.00004816,-0.000
 00113,0.00000705,0.00002238,0.00000708,0.00003441,0.00002593,0.0000197
 5,-0.00000068,0.00000745,0.00000330,0.00000192,-0.00000403,-0.00000252
 ,-0.00002407,-0.00001357,-0.00000733,-0.00001960,-0.00003141,-0.000020
 81,-0.00000681,0.00000915,-0.00000100,-0.00000666,0.00000596,-0.000001
 60,0.00000481,0.00000608,0.00000286,-0.00000415,0.00000914,0.00000048,
 -0.00003618,0.00002813,0.00003595,-0.00005911,-0.00002751,-0.00002202,
 0.00000212,0.00004683,-0.00000974,-0.00001494,0.00000552,0.00004129,0.
 00001633,-0.00001853,0.00000794,0.00001053,0.00001922,-0.00000167,0.00
 000832,0.00000425,0.00000856,0.00000250,-0.00001642,-0.00000108,0.0000
 0582,0.00000455,-0.00000893,-0.00000636,-0.00001227,-0.00000780,-0.000
 00086,-0.00000369,-0.00001341,0.00099913,-0.00042822,-0.00063858,0.003
 67180,0.00083957,-0.00014187,0.00300196,0.00229685,-0.00532369,0.01419
 144,-0.00681290,0.01302757,0.00057500,-0.00030249,0.00038409,-0.029109
 49,0.01428579,-0.01247958,-0.00124276,0.00059911,-0.00079646,-0.122015
 11,0.07056777,-0.16829666,-0.00116683,-0.00094057,0.00087616,0.0002434
 6,-0.00149093,0.00098088,0.13108027,-0.07836638,0.17232585||-0.0000055
 9,0.00001330,0.00001471,-0.00000075,-0.00000385,-0.00000585,-0.0000007
 9,-0.00000666,0.00000551,0.00000097,-0.00000057,-0.00000390,0.00000795
 ,0.00001888,0.00000069,-0.00000142,0.00000372,0.00000466,0.00000058,0.
 00000127,0.00000097,0.00001012,-0.00001197,-0.00000368,-0.00000418,-0.
 00000108,-0.00000051,-0.00001018,-0.00000452,0.00000171,0.00000126,0.0
 0000021,-0.00000182,-0.00000302,0.00000044,0.00000222,0.00000162,-0.00
 000087,-0.00000101,-0.00002322,-0.00004042,-0.00000341,0.00001414,0.00
 001686,-0.00005691,0.00000847,0.00002891,0.00003062,0.00001060,0.00003
 589,0.00003987,-0.00000082,-0.00000834,0.00000037,0.00001214,0.0000047
 0,-0.00004126,-0.00000061,-0.00000232,-0.00000481,-0.00002347,-0.00004
 045,0.00001423,-0.00000177,-0.00000369,-0.00000241,-0.00000095,-0.0000
 0009,0.00000292,0.00000169,0.00000331,0.00000086,-0.00002363,-0.000008
 01,0.00002275,-0.00000607,0.00001487,-0.00002805,0.00004508,-0.0000175
 1,0.00000463,0.00003766,-0.00000605,0.00000662,0.00000208,-0.00000138,
 0.00000364,-0.00001384,0.00002048,-0.00003764,-0.00000088,0.00000256,0
 .00000600,-0.00002986,-0.00000810,0.00003082,-0.00000471,0.00000139,-0
 .00000090,0.00000010,-0.00000151,0.00000311,0.00000133,0.00000060,-0.0
 0000476|||@


 WORK FAITHFULLY FOR EIGHT HOURS A DAY AND DON'T WORRY.
 IN TIME YOU MAY BECOME BOSS AND WORK TWELVE HOURS A DAY
 AND HAVE ALL THE WORRY.
 Job cpu time:  0 days  0 hours  6 minutes 32.0 seconds.
 File lengths (MBytes):  RWF=    350 Int=      0 D2E=      0 Chk=      7 Scr=      1
 Normal termination of Gaussian 09 at Mon Sep 06 19:43:16 2021.
