 Entering Link 1 = b:\programy\g09w\l1.exe PID=     11128.
  
 Copyright (c) 1988,1990,1992,1993,1995,1998,2003,2009, Gaussian, Inc.
                  All Rights Reserved.
  
 This is part of the Gaussian(R) 09 program.  It is based on
 the Gaussian(R) 03 system (copyright 2003, Gaussian, Inc.),
 the Gaussian(R) 98 system (copyright 1998, Gaussian, Inc.),
 the Gaussian(R) 94 system (copyright 1995, Gaussian, Inc.),
 the Gaussian 92(TM) system (copyright 1992, Gaussian, Inc.),
 the Gaussian 90(TM) system (copyright 1990, Gaussian, Inc.),
 the Gaussian 88(TM) system (copyright 1988, Gaussian, Inc.),
 the Gaussian 86(TM) system (copyright 1986, Carnegie Mellon
 University), and the Gaussian 82(TM) system (copyright 1983,
 Carnegie Mellon University). Gaussian is a federally registered
 trademark of Gaussian, Inc.
  
 This software contains proprietary and confidential information,
 including trade secrets, belonging to Gaussian, Inc.
  
 This software is provided under written license and may be
 used, copied, transmitted, or stored only in accord with that
 written license.
  
 The following legend is applicable only to US Government
 contracts under FAR:
  
                    RESTRICTED RIGHTS LEGEND
  
 Use, reproduction and disclosure by the US Government is
 subject to restrictions as set forth in subparagraphs (a)
 and (c) of the Commercial Computer Software - Restricted
 Rights clause in FAR 52.227-19.
  
 Gaussian, Inc.
 340 Quinnipiac St., Bldg. 40, Wallingford CT 06492
  
  
 ---------------------------------------------------------------
 Warning -- This program may not be used in any manner that
 competes with the business of Gaussian, Inc. or will provide
 assistance to any competitor of Gaussian, Inc.  The licensee
 of this program is prohibited from giving any competitor of
 Gaussian, Inc. access to this program.  By using this program,
 the user acknowledges that Gaussian, Inc. is engaged in the
 business of creating and licensing software in the field of
 computational chemistry and represents and warrants to the
 licensee that it is not a competitor of Gaussian, Inc. and that
 it will not use this program in any manner prohibited above.
 ---------------------------------------------------------------
  

 Cite this work as:
 Gaussian 09, Revision A.02,
 M. J. Frisch, G. W. Trucks, H. B. Schlegel, G. E. Scuseria, 
 M. A. Robb, J. R. Cheeseman, G. Scalmani, V. Barone, B. Mennucci, 
 G. A. Petersson, H. Nakatsuji, M. Caricato, X. Li, H. P. Hratchian, 
 A. F. Izmaylov, J. Bloino, G. Zheng, J. L. Sonnenberg, M. Hada, 
 M. Ehara, K. Toyota, R. Fukuda, J. Hasegawa, M. Ishida, T. Nakajima, 
 Y. Honda, O. Kitao, H. Nakai, T. Vreven, J. A. Montgomery, Jr., 
 J. E. Peralta, F. Ogliaro, M. Bearpark, J. J. Heyd, E. Brothers, 
 K. N. Kudin, V. N. Staroverov, R. Kobayashi, J. Normand, 
 K. Raghavachari, A. Rendell, J. C. Burant, S. S. Iyengar, J. Tomasi, 
 M. Cossi, N. Rega, J. M. Millam, M. Klene, J. E. Knox, J. B. Cross, 
 V. Bakken, C. Adamo, J. Jaramillo, R. Gomperts, R. E. Stratmann, 
 O. Yazyev, A. J. Austin, R. Cammi, C. Pomelli, J. W. Ochterski, 
 R. L. Martin, K. Morokuma, V. G. Zakrzewski, G. A. Voth, 
 P. Salvador, J. J. Dannenberg, S. Dapprich, A. D. Daniels, 
 O. Farkas, J. B. Foresman, J. V. Ortiz, J. Cioslowski, 
 and D. J. Fox, Gaussian, Inc., Wallingford CT, 2009.
 
 ******************************************
 Gaussian 09:  IA32W-G09RevA.02 11-Jun-2009
                06-Sep-2021 
 ******************************************
 %nprocshared=12
 Will use up to   12 processors via shared memory.
 ----------------------------------------------
 # opt freq=noraman hf/6-311g geom=connectivity
 ----------------------------------------------
 1/18=20,19=15,38=1,57=2/1,3;
 2/9=110,12=2,17=6,18=5,40=1/2;
 3/5=4,6=6,11=9,16=1,25=1,30=1,71=1/1,2,3;
 4//1;
 5/5=2,38=5/2;
 6/7=2,8=2,9=2,10=2,28=1/1;
 7//1,2,3,16;
 1/18=20,19=15/3(2);
 2/9=110/2;
 99//99;
 2/9=110/2;
 3/5=4,6=6,11=9,16=1,25=1,30=1,71=1/1,2,3;
 4/5=5,16=3/1;
 5/5=2,38=5/2;
 7//1,2,3,16;
 1/18=20,19=15/3(-5);
 2/9=110/2;
 6/7=2,8=2,9=2,10=2,19=2,28=1/1;
 99/9=1/99;
 -----
 M0001
 -----
 Symbolic Z-matrix:
 Charge =  0 Multiplicity = 1
 C                     0.        0.       -0.77443 
 H                     0.        0.       -1.89907 
 C                    -0.68186   1.27435  -0.34065 
 C                    -0.85621   1.60501   1.00403 
 C                    -1.15344   2.15253  -1.31991 
 C                    -1.48771   2.78858   1.3655 
 H                    -0.48346   0.90903   1.77652 
 C                    -1.78521   3.33675  -0.95761 
 H                    -1.0262    1.90882  -2.38148 
 C                    -1.9536    3.65751   0.38487 
 H                    -1.61745   3.03549   2.42408 
 H                    -2.1506    4.01801  -1.73286 
 H                    -2.45097   4.59038   0.6687 
 C                    -0.76269  -1.22769  -0.34065 
 C                    -0.96187  -1.54401   1.00403 
 C                    -1.28743  -2.07518  -1.31991 
 C                    -1.67112  -2.68269   1.3655 
 H                    -0.54551  -0.8732    1.77652 
 C                    -1.99711  -3.21441  -0.95761 
 H                    -1.13998  -1.84313  -2.38148 
 C                    -2.1907   -3.52062   0.38487 
 H                    -1.82008  -2.9185    2.42408 
 H                    -2.4044   -3.87148  -1.73286 
 H                    -2.7499   -4.41779   0.6687 
 C                     1.44455  -0.04666  -0.34065 
 C                     2.44087  -0.07735  -1.31991 
 C                     1.81808  -0.061     1.00403 
 C                     3.78232  -0.12234  -0.95761 
 H                     2.16619  -0.06569  -2.38148 
 C                     3.15884  -0.10589   1.3655 
 H                     1.02897  -0.03583   1.77652 
 C                     4.1443   -0.13689   0.38487 
 H                     4.555    -0.14653  -1.73286 
 H                     3.43754  -0.11699   2.42408 
 H                     5.20087  -0.17259   0.6687 
 

 GradGradGradGradGradGradGradGradGradGradGradGradGradGradGradGradGradGrad
 Berny optimization.
 Initialization pass.
                           ----------------------------
                           !    Initial Parameters    !
                           ! (Angstroms and Degrees)  !
 --------------------------                            --------------------------
 ! Name  Definition              Value          Derivative Info.                !
 --------------------------------------------------------------------------------
 ! R1    R(1,2)                  1.1246         estimate D2E/DX2                !
 ! R2    R(1,3)                  1.509          estimate D2E/DX2                !
 ! R3    R(1,14)                 1.509          estimate D2E/DX2                !
 ! R4    R(1,25)                 1.509          estimate D2E/DX2                !
 ! R5    R(3,4)                  1.3957         estimate D2E/DX2                !
 ! R6    R(3,5)                  1.3973         estimate D2E/DX2                !
 ! R7    R(4,6)                  1.3893         estimate D2E/DX2                !
 ! R8    R(4,7)                  1.1046         estimate D2E/DX2                !
 ! R9    R(5,8)                  1.3902         estimate D2E/DX2                !
 ! R10   R(5,9)                  1.0966         estimate D2E/DX2                !
 ! R11   R(6,10)                 1.3906         estimate D2E/DX2                !
 ! R12   R(6,11)                 1.0947         estimate D2E/DX2                !
 ! R13   R(8,10)                 1.3905         estimate D2E/DX2                !
 ! R14   R(8,12)                 1.0948         estimate D2E/DX2                !
 ! R15   R(10,13)                1.0946         estimate D2E/DX2                !
 ! R16   R(14,15)                1.3957         estimate D2E/DX2                !
 ! R17   R(14,16)                1.3973         estimate D2E/DX2                !
 ! R18   R(15,17)                1.3893         estimate D2E/DX2                !
 ! R19   R(15,18)                1.1046         estimate D2E/DX2                !
 ! R20   R(16,19)                1.3902         estimate D2E/DX2                !
 ! R21   R(16,20)                1.0966         estimate D2E/DX2                !
 ! R22   R(17,21)                1.3906         estimate D2E/DX2                !
 ! R23   R(17,22)                1.0947         estimate D2E/DX2                !
 ! R24   R(19,21)                1.3905         estimate D2E/DX2                !
 ! R25   R(19,23)                1.0948         estimate D2E/DX2                !
 ! R26   R(21,24)                1.0946         estimate D2E/DX2                !
 ! R27   R(25,26)                1.3973         estimate D2E/DX2                !
 ! R28   R(25,27)                1.3957         estimate D2E/DX2                !
 ! R29   R(26,28)                1.3902         estimate D2E/DX2                !
 ! R30   R(26,29)                1.0966         estimate D2E/DX2                !
 ! R31   R(27,30)                1.3893         estimate D2E/DX2                !
 ! R32   R(27,31)                1.1046         estimate D2E/DX2                !
 ! R33   R(28,32)                1.3905         estimate D2E/DX2                !
 ! R34   R(28,33)                1.0948         estimate D2E/DX2                !
 ! R35   R(30,32)                1.3906         estimate D2E/DX2                !
 ! R36   R(30,34)                1.0947         estimate D2E/DX2                !
 ! R37   R(32,35)                1.0946         estimate D2E/DX2                !
 ! A1    A(2,1,3)              106.7061         estimate D2E/DX2                !
 ! A2    A(2,1,14)             106.7061         estimate D2E/DX2                !
 ! A3    A(2,1,25)             106.7061         estimate D2E/DX2                !
 ! A4    A(3,1,14)             112.0891         estimate D2E/DX2                !
 ! A5    A(3,1,25)             112.0891         estimate D2E/DX2                !
 ! A6    A(14,1,25)            112.0891         estimate D2E/DX2                !
 ! A7    A(1,3,4)              122.2411         estimate D2E/DX2                !
 ! A8    A(1,3,5)              118.8022         estimate D2E/DX2                !
 ! A9    A(4,3,5)              118.9567         estimate D2E/DX2                !
 ! A10   A(3,4,6)              120.6153         estimate D2E/DX2                !
 ! A11   A(3,4,7)              118.8403         estimate D2E/DX2                !
 ! A12   A(6,4,7)              120.5444         estimate D2E/DX2                !
 ! A13   A(3,5,8)              120.4023         estimate D2E/DX2                !
 ! A14   A(3,5,9)              119.9726         estimate D2E/DX2                !
 ! A15   A(8,5,9)              119.625          estimate D2E/DX2                !
 ! A16   A(4,6,10)             120.0747         estimate D2E/DX2                !
 ! A17   A(4,6,11)             119.841          estimate D2E/DX2                !
 ! A18   A(10,6,11)            120.0843         estimate D2E/DX2                !
 ! A19   A(5,8,10)             120.2073         estimate D2E/DX2                !
 ! A20   A(5,8,12)             119.813          estimate D2E/DX2                !
 ! A21   A(10,8,12)            119.9797         estimate D2E/DX2                !
 ! A22   A(6,10,8)             119.7436         estimate D2E/DX2                !
 ! A23   A(6,10,13)            120.1265         estimate D2E/DX2                !
 ! A24   A(8,10,13)            120.1299         estimate D2E/DX2                !
 ! A25   A(1,14,15)            122.2411         estimate D2E/DX2                !
 ! A26   A(1,14,16)            118.8022         estimate D2E/DX2                !
 ! A27   A(15,14,16)           118.9567         estimate D2E/DX2                !
 ! A28   A(14,15,17)           120.6153         estimate D2E/DX2                !
 ! A29   A(14,15,18)           118.8402         estimate D2E/DX2                !
 ! A30   A(17,15,18)           120.5444         estimate D2E/DX2                !
 ! A31   A(14,16,19)           120.4023         estimate D2E/DX2                !
 ! A32   A(14,16,20)           119.9726         estimate D2E/DX2                !
 ! A33   A(19,16,20)           119.625          estimate D2E/DX2                !
 ! A34   A(15,17,21)           120.0747         estimate D2E/DX2                !
 ! A35   A(15,17,22)           119.841          estimate D2E/DX2                !
 ! A36   A(21,17,22)           120.0843         estimate D2E/DX2                !
 ! A37   A(16,19,21)           120.2073         estimate D2E/DX2                !
 ! A38   A(16,19,23)           119.813          estimate D2E/DX2                !
 ! A39   A(21,19,23)           119.9797         estimate D2E/DX2                !
 ! A40   A(17,21,19)           119.7436         estimate D2E/DX2                !
 ! A41   A(17,21,24)           120.1265         estimate D2E/DX2                !
 ! A42   A(19,21,24)           120.1299         estimate D2E/DX2                !
 ! A43   A(1,25,26)            118.8022         estimate D2E/DX2                !
 ! A44   A(1,25,27)            122.2411         estimate D2E/DX2                !
 ! A45   A(26,25,27)           118.9567         estimate D2E/DX2                !
 ! A46   A(25,26,28)           120.4023         estimate D2E/DX2                !
 ! A47   A(25,26,29)           119.9726         estimate D2E/DX2                !
 ! A48   A(28,26,29)           119.625          estimate D2E/DX2                !
 ! A49   A(25,27,30)           120.6153         estimate D2E/DX2                !
 ! A50   A(25,27,31)           118.8403         estimate D2E/DX2                !
 ! A51   A(30,27,31)           120.5444         estimate D2E/DX2                !
 ! A52   A(26,28,32)           120.2073         estimate D2E/DX2                !
 ! A53   A(26,28,33)           119.813          estimate D2E/DX2                !
 ! A54   A(32,28,33)           119.9797         estimate D2E/DX2                !
 ! A55   A(27,30,32)           120.0747         estimate D2E/DX2                !
 ! A56   A(27,30,34)           119.841          estimate D2E/DX2                !
 ! A57   A(32,30,34)           120.0843         estimate D2E/DX2                !
 ! A58   A(28,32,30)           119.7436         estimate D2E/DX2                !
 ! A59   A(28,32,35)           120.1299         estimate D2E/DX2                !
 ! A60   A(30,32,35)           120.1265         estimate D2E/DX2                !
 ! D1    D(2,1,3,4)           -179.8899         estimate D2E/DX2                !
 ! D2    D(2,1,3,5)              0.07           estimate D2E/DX2                !
 ! D3    D(14,1,3,4)            63.6415         estimate D2E/DX2                !
 ! D4    D(14,1,3,5)          -116.3987         estimate D2E/DX2                !
 ! D5    D(25,1,3,4)           -63.4212         estimate D2E/DX2                !
 ! D6    D(25,1,3,5)           116.5386         estimate D2E/DX2                !
 ! D7    D(2,1,14,15)         -179.8899         estimate D2E/DX2                !
 ! D8    D(2,1,14,16)            0.07           estimate D2E/DX2                !
 ! D9    D(3,1,14,15)          -63.4212         estimate D2E/DX2                !
 ! D10   D(3,1,14,16)          116.5386         estimate D2E/DX2                !
 ! D11   D(25,1,14,15)          63.6415         estimate D2E/DX2                !
 ! D12   D(25,1,14,16)        -116.3987         estimate D2E/DX2                !
 ! D13   D(2,1,25,26)            0.07           estimate D2E/DX2                !
 ! D14   D(2,1,25,27)         -179.8899         estimate D2E/DX2                !
 ! D15   D(3,1,25,26)         -116.3987         estimate D2E/DX2                !
 ! D16   D(3,1,25,27)           63.6415         estimate D2E/DX2                !
 ! D17   D(14,1,25,26)         116.5386         estimate D2E/DX2                !
 ! D18   D(14,1,25,27)         -63.4212         estimate D2E/DX2                !
 ! D19   D(1,3,4,6)            179.9209         estimate D2E/DX2                !
 ! D20   D(1,3,4,7)             -0.0912         estimate D2E/DX2                !
 ! D21   D(5,3,4,6)             -0.0389         estimate D2E/DX2                !
 ! D22   D(5,3,4,7)            179.949          estimate D2E/DX2                !
 ! D23   D(1,3,5,8)           -179.919          estimate D2E/DX2                !
 ! D24   D(1,3,5,9)              0.0992         estimate D2E/DX2                !
 ! D25   D(4,3,5,8)              0.0422         estimate D2E/DX2                !
 ! D26   D(4,3,5,9)           -179.9396         estimate D2E/DX2                !
 ! D27   D(3,4,6,10)             0.0074         estimate D2E/DX2                !
 ! D28   D(3,4,6,11)          -179.9807         estimate D2E/DX2                !
 ! D29   D(7,4,6,10)          -179.9802         estimate D2E/DX2                !
 ! D30   D(7,4,6,11)             0.0316         estimate D2E/DX2                !
 ! D31   D(3,5,8,10)            -0.0141         estimate D2E/DX2                !
 ! D32   D(3,5,8,12)           179.9741         estimate D2E/DX2                !
 ! D33   D(9,5,8,10)           179.9677         estimate D2E/DX2                !
 ! D34   D(9,5,8,12)            -0.044          estimate D2E/DX2                !
 ! D35   D(4,6,10,8)             0.0212         estimate D2E/DX2                !
 ! D36   D(4,6,10,13)         -179.9804         estimate D2E/DX2                !
 ! D37   D(11,6,10,8)         -179.9906         estimate D2E/DX2                !
 ! D38   D(11,6,10,13)           0.0077         estimate D2E/DX2                !
 ! D39   D(5,8,10,6)            -0.0179         estimate D2E/DX2                !
 ! D40   D(5,8,10,13)          179.9837         estimate D2E/DX2                !
 ! D41   D(12,8,10,6)          179.9939         estimate D2E/DX2                !
 ! D42   D(12,8,10,13)          -0.0045         estimate D2E/DX2                !
 ! D43   D(1,14,15,17)         179.9209         estimate D2E/DX2                !
 ! D44   D(1,14,15,18)          -0.0912         estimate D2E/DX2                !
 ! D45   D(16,14,15,17)         -0.0389         estimate D2E/DX2                !
 ! D46   D(16,14,15,18)        179.949          estimate D2E/DX2                !
 ! D47   D(1,14,16,19)        -179.919          estimate D2E/DX2                !
 ! D48   D(1,14,16,20)           0.0992         estimate D2E/DX2                !
 ! D49   D(15,14,16,19)          0.0422         estimate D2E/DX2                !
 ! D50   D(15,14,16,20)       -179.9396         estimate D2E/DX2                !
 ! D51   D(14,15,17,21)          0.0074         estimate D2E/DX2                !
 ! D52   D(14,15,17,22)       -179.9807         estimate D2E/DX2                !
 ! D53   D(18,15,17,21)       -179.9802         estimate D2E/DX2                !
 ! D54   D(18,15,17,22)          0.0316         estimate D2E/DX2                !
 ! D55   D(14,16,19,21)         -0.0141         estimate D2E/DX2                !
 ! D56   D(14,16,19,23)        179.9741         estimate D2E/DX2                !
 ! D57   D(20,16,19,21)        179.9677         estimate D2E/DX2                !
 ! D58   D(20,16,19,23)         -0.044          estimate D2E/DX2                !
 ! D59   D(15,17,21,19)          0.0212         estimate D2E/DX2                !
 ! D60   D(15,17,21,24)       -179.9804         estimate D2E/DX2                !
 ! D61   D(22,17,21,19)       -179.9906         estimate D2E/DX2                !
 ! D62   D(22,17,21,24)          0.0077         estimate D2E/DX2                !
 ! D63   D(16,19,21,17)         -0.0179         estimate D2E/DX2                !
 ! D64   D(16,19,21,24)        179.9837         estimate D2E/DX2                !
 ! D65   D(23,19,21,17)        179.9939         estimate D2E/DX2                !
 ! D66   D(23,19,21,24)         -0.0045         estimate D2E/DX2                !
 ! D67   D(1,25,26,28)        -179.919          estimate D2E/DX2                !
 ! D68   D(1,25,26,29)           0.0992         estimate D2E/DX2                !
 ! D69   D(27,25,26,28)          0.0422         estimate D2E/DX2                !
 ! D70   D(27,25,26,29)       -179.9396         estimate D2E/DX2                !
 ! D71   D(1,25,27,30)         179.9209         estimate D2E/DX2                !
 ! D72   D(1,25,27,31)          -0.0912         estimate D2E/DX2                !
 ! D73   D(26,25,27,30)         -0.0389         estimate D2E/DX2                !
 ! D74   D(26,25,27,31)        179.949          estimate D2E/DX2                !
 ! D75   D(25,26,28,32)         -0.0141         estimate D2E/DX2                !
 ! D76   D(25,26,28,33)        179.9741         estimate D2E/DX2                !
 ! D77   D(29,26,28,32)        179.9677         estimate D2E/DX2                !
 ! D78   D(29,26,28,33)         -0.044          estimate D2E/DX2                !
 ! D79   D(25,27,30,32)          0.0074         estimate D2E/DX2                !
 ! D80   D(25,27,30,34)       -179.9807         estimate D2E/DX2                !
 ! D81   D(31,27,30,32)       -179.9802         estimate D2E/DX2                !
 ! D82   D(31,27,30,34)          0.0316         estimate D2E/DX2                !
 ! D83   D(26,28,32,30)         -0.0179         estimate D2E/DX2                !
 ! D84   D(26,28,32,35)        179.9837         estimate D2E/DX2                !
 ! D85   D(33,28,32,30)        179.9939         estimate D2E/DX2                !
 ! D86   D(33,28,32,35)         -0.0045         estimate D2E/DX2                !
 ! D87   D(27,30,32,28)          0.0212         estimate D2E/DX2                !
 ! D88   D(27,30,32,35)       -179.9804         estimate D2E/DX2                !
 ! D89   D(34,30,32,28)       -179.9906         estimate D2E/DX2                !
 ! D90   D(34,30,32,35)          0.0077         estimate D2E/DX2                !
 --------------------------------------------------------------------------------
 Trust Radius=3.00D-01 FncErr=1.00D-07 GrdErr=1.00D-07
 Number of steps in this run= 197 maximum allowed number of steps= 210.
 GradGradGradGradGradGradGradGradGradGradGradGradGradGradGradGradGradGrad

                          Input orientation:                          
 ---------------------------------------------------------------------
 Center     Atomic      Atomic             Coordinates (Angstroms)
 Number     Number       Type             X           Y           Z
 ---------------------------------------------------------------------
      1          6           0        0.000000    0.000000   -0.774433
      2          1           0        0.000000    0.000000   -1.899067
      3          6           0       -0.681863    1.274351   -0.340654
      4          6           0       -0.856213    1.605008    1.004029
      5          6           0       -1.153445    2.152533   -1.319912
      6          6           0       -1.487715    2.788578    1.365497
      7          1           0       -0.483456    0.909026    1.776517
      8          6           0       -1.785212    3.336751   -0.957612
      9          1           0       -1.026205    1.908816   -2.381480
     10          6           0       -1.953597    3.657515    0.384866
     11          1           0       -1.617454    3.035488    2.424076
     12          1           0       -2.150597    4.018008   -1.732858
     13          1           0       -2.450969    4.590381    0.668697
     14          6           0       -0.762689   -1.227686   -0.340654
     15          6           0       -0.961871   -1.544006    1.004029
     16          6           0       -1.287426   -2.075179   -1.319912
     17          6           0       -1.671122   -2.682688    1.365497
     18          1           0       -0.545511   -0.873198    1.776517
     19          6           0       -1.997106   -3.214414   -0.957612
     20          1           0       -1.139981   -1.843128   -2.381480
     21          6           0       -2.190702   -3.520622    0.384866
     22          1           0       -1.820083   -2.918500    2.424076
     23          1           0       -2.404399   -3.871476   -1.732858
     24          1           0       -2.749902   -4.417792    0.668697
     25          6           0        1.444552   -0.046665   -0.340654
     26          6           0        2.440870   -0.077354   -1.319912
     27          6           0        1.818084   -0.061002    1.004029
     28          6           0        3.782317   -0.122337   -0.957612
     29          1           0        2.166186   -0.065689   -2.381480
     30          6           0        3.158836   -0.105890    1.365497
     31          1           0        1.028967   -0.035827    1.776517
     32          6           0        4.144299   -0.136892    0.384866
     33          1           0        4.554996   -0.146533   -1.732858
     34          1           0        3.437536   -0.116988    2.424076
     35          1           0        5.200871   -0.172589    0.668697
 ---------------------------------------------------------------------
                    Distance matrix (angstroms):
                    1          2          3          4          5
     1  C    0.000000
     2  H    1.124635   0.000000
     3  C    1.508997   2.125456   0.000000
     4  C    2.544028   3.425948   1.395673   0.000000
     5  C    2.502275   2.509831   1.397333   2.405999   0.000000
     6  C    3.816904   4.543879   2.419344   1.389349   2.779876
     7  H    2.750891   3.817064   2.157600   1.104570   3.403390
     8  C    3.788726   3.899645   2.418989   2.776690   1.390239
     9  H    2.698013   2.220225   2.164737   3.403361   1.096592
    10  C    4.305570   4.733953   2.796990   2.408402   2.410702
    11  H    4.696892   5.524483   3.408909   2.154598   3.874578
    12  H    4.657042   4.560382   3.409262   3.871506   2.155188
    13  H    5.400136   5.802780   3.891603   3.401198   3.403122
    14  C    1.508997   2.125456   2.503343   3.137049   3.540836
    15  C    2.544028   3.425948   3.135238   3.150786   4.370561
    16  C    2.502275   2.509831   3.541893   4.373833   4.229834
    17  C    3.816904   4.543879   4.421283   4.379391   5.555067
    18  H    2.750891   3.817064   3.018770   2.614341   4.371784
    19  C    3.788726   3.899645   4.717999   5.326960   5.444919
    20  H    2.698013   2.220225   3.754134   4.840644   4.134297
    21  C    4.305570   4.733953   5.078853   5.332570   6.013889
    22  H    4.696892   5.524483   5.149687   4.838150   6.338550
    23  H    4.657042   4.560382   5.602223   6.315006   6.166368
    24  H    5.400136   5.802780   6.139712   6.322390   7.047865
    25  C    1.508997   2.125456   2.503343   3.135238   3.541893
    26  C    2.502275   2.509831   3.540836   4.370561   4.229834
    27  C    2.544028   3.425948   3.137049   3.150786   4.373833
    28  C    3.788726   3.899645   4.718080   5.324258   5.446838
    29  H    2.698013   2.220225   3.751275   4.836093   4.131268
    30  C    3.816904   4.543879   4.423459   4.379321   5.559466
    31  H    2.750891   3.817064   3.020914   2.615909   4.374895
    32  C    4.305570   4.733953   5.080338   5.331295   6.017793
    33  H    4.657042   4.560382   5.601949   6.311864   6.167862
    34  H    4.696892   5.524483   5.152573   4.839224   6.343916
    35  H    5.400136   5.802780   6.141578   6.321437   7.052523
                    6          7          8          9         10
     6  C    0.000000
     7  H    2.170297   0.000000
     8  C    2.405376   3.881221   0.000000
     9  H    3.876442   4.310811   2.154644   0.000000
    10  C    1.390588   3.413532   1.390500   3.401569   0.000000
    11  H    1.094708   2.495421   3.399222   4.971150   2.158306
    12  H    3.398635   4.976027   1.094817   2.476623   2.157202
    13  H    2.158677   4.318651   2.158634   4.303989   1.094613
    14  C    4.423459   3.020914   4.718080   3.751275   5.080338
    15  C    4.379321   2.615909   5.324258   4.836093   5.331295
    16  C    5.559466   4.374895   5.446838   4.131268   6.017793
    17  C    5.474338   3.805245   6.453177   5.961347   6.421806
    18  H    3.803326   1.783304   5.170686   5.025893   4.944366
    19  C    6.456951   5.173910   6.554592   5.405325   7.001967
    20  H    5.967700   5.029344   5.410626   3.753669   6.210613
    21  C    6.423537   4.947035   6.999303   6.203832   7.182052
    22  H    5.813931   4.105588   7.110921   6.857593   6.886230
    23  H    7.402461   6.233693   7.276190   5.977617   7.834136
    24  H    7.349177   5.893982   7.981757   7.231921   8.119436
    25  C    4.421283   3.018770   4.717999   3.754134   5.078853
    26  C    5.555067   4.371784   5.444919   4.134297   6.013889
    27  C    4.379391   2.614341   5.326960   4.840644   5.332570
    28  C    6.453177   5.170686   6.554592   5.410626   6.999303
    29  H    5.961347   5.025893   5.405325   3.753669   6.203832
    30  C    5.474338   3.803326   6.456951   5.967700   6.423537
    31  H    3.805245   1.783304   5.173910   5.029344   4.947035
    32  C    6.421806   4.944366   7.001967   6.210612   7.182052
    33  H    7.397907   6.230242   7.275473   5.982890   7.830538
    34  H    5.815583   4.104415   7.116265   6.864564   6.889816
    35  H    7.347872   5.891412   7.985343   7.239634   8.120140
                   11         12         13         14         15
    11  H    0.000000
    12  H    4.304613   0.000000
    13  H    2.488734   2.487027   0.000000
    14  C    5.152573   5.601949   6.141578   0.000000
    15  C    4.839224   6.311864   6.321437   1.395673   0.000000
    16  C    6.343916   6.167862   7.052523   1.397333   2.405999
    17  C    5.815583   7.397907   7.347872   2.419344   1.389349
    18  H    4.104415   6.230242   5.891412   2.157600   1.104570
    19  C    7.116265   7.275473   7.985343   2.418989   2.776690
    20  H    6.864564   5.982890   7.239634   2.164737   3.403361
    21  C    6.889816   7.830538   8.120140   2.796990   2.408402
    22  H    5.957435   8.093484   7.737097   3.408909   2.154598
    23  H    8.099724   7.893566   8.796173   3.409262   3.871506
    24  H    7.740489   8.791437   9.013132   3.891603   3.401198
    25  C    5.149687   5.602223   6.139712   2.503343   3.137049
    26  C    6.338550   6.166368   7.047865   3.541893   4.373833
    27  C    4.838150   6.315006   6.322390   3.135238   3.150786
    28  C    7.110921   7.276190   7.981757   4.717999   5.326960
    29  H    6.857593   5.977617   7.231921   3.754134   4.840644
    30  C    5.813931   7.402461   7.349177   4.421283   4.379391
    31  H    4.105588   6.233693   5.893982   3.018770   2.614341
    32  C    6.886230   7.834136   8.119436   5.078853   5.332570
    33  H    8.093484   7.893566   8.791437   5.602223   6.315006
    34  H    5.957435   8.099724   7.740489   5.149687   4.838150
    35  H    7.737097   8.796173   9.013132   6.139712   6.322390
                   16         17         18         19         20
    16  C    0.000000
    17  C    2.779876   0.000000
    18  H    3.403390   2.170297   0.000000
    19  C    1.390239   2.405376   3.881221   0.000000
    20  H    1.096592   3.876442   4.310811   2.154644   0.000000
    21  C    2.410702   1.390588   3.413532   1.390500   3.401569
    22  H    3.874578   1.094708   2.495421   3.399222   4.971150
    23  H    2.155188   3.398635   4.976027   1.094817   2.476623
    24  H    3.403122   2.158677   4.318651   2.158634   4.303989
    25  C    3.540836   4.423459   3.020913   4.718080   3.751275
    26  C    4.229834   5.559466   4.374895   5.446838   4.131268
    27  C    4.370561   4.379321   2.615909   5.324258   4.836093
    28  C    5.444919   6.456951   5.173910   6.554592   5.405325
    29  H    4.134297   5.967700   5.029344   5.410626   3.753669
    30  C    5.555067   5.474338   3.805245   6.453177   5.961347
    31  H    4.371784   3.803326   1.783304   5.170686   5.025893
    32  C    6.013889   6.423537   4.947035   6.999303   6.203832
    33  H    6.166368   7.402461   6.233693   7.276190   5.977617
    34  H    6.338550   5.813931   4.105588   7.110921   6.857593
    35  H    7.047865   7.349177   5.893982   7.981757   7.231921
                   21         22         23         24         25
    21  C    0.000000
    22  H    2.158306   0.000000
    23  H    2.157202   4.304613   0.000000
    24  H    1.094613   2.488734   2.487027   0.000000
    25  C    5.080338   5.152573   5.601949   6.141578   0.000000
    26  C    6.017793   6.343916   6.167862   7.052523   1.397333
    27  C    5.331295   4.839224   6.311864   6.321437   1.395673
    28  C    7.001967   7.116265   7.275473   7.985343   2.418989
    29  H    6.210613   6.864564   5.982890   7.239634   2.164737
    30  C    6.421806   5.815583   7.397907   7.347872   2.419344
    31  H    4.944366   4.104415   6.230242   5.891412   2.157600
    32  C    7.182052   6.889816   7.830537   8.120140   2.796990
    33  H    7.834136   8.099724   7.893566   8.796173   3.409262
    34  H    6.886230   5.957435   8.093484   7.737097   3.408909
    35  H    8.119436   7.740489   8.791437   9.013132   3.891603
                   26         27         28         29         30
    26  C    0.000000
    27  C    2.405999   0.000000
    28  C    1.390239   2.776690   0.000000
    29  H    1.096592   3.403361   2.154644   0.000000
    30  C    2.779876   1.389349   2.405376   3.876442   0.000000
    31  H    3.403390   1.104570   3.881221   4.310811   2.170297
    32  C    2.410702   2.408402   1.390500   3.401569   1.390588
    33  H    2.155188   3.871506   1.094817   2.476623   3.398635
    34  H    3.874578   2.154598   3.399222   4.971150   1.094708
    35  H    3.403122   3.401198   2.158634   4.303989   2.158677
                   31         32         33         34         35
    31  H    0.000000
    32  C    3.413532   0.000000
    33  H    4.976027   2.157202   0.000000
    34  H    2.495421   2.158306   4.304613   0.000000
    35  H    4.318651   1.094613   2.487027   2.488734   0.000000
 Stoichiometry    C19H16
 Framework group  C3[C3(CH),X(C18H15)]
 Deg. of freedom    33
 Full point group                 C3      NOp   3
 Largest Abelian subgroup         C1      NOp   1
 Largest concise Abelian subgroup C1      NOp   1
                         Standard orientation:                         
 ---------------------------------------------------------------------
 Center     Atomic      Atomic             Coordinates (Angstroms)
 Number     Number       Type             X           Y           Z
 ---------------------------------------------------------------------
      1          6           0        0.000000    0.000000    0.760364
      2          1           0        0.000000    0.000000    1.884999
      3          6           0        0.000000    1.445306    0.326585
      4          6           0       -0.002269    1.819106   -1.018098
      5          6           0        0.001495    2.442095    1.305843
      6          6           0       -0.003844    3.160608   -1.379566
      7          1           0       -0.002586    1.029588   -1.790585
      8          6           0       -0.000153    3.784295    0.943543
      9          1           0        0.004286    2.167177    2.367411
     10          6           0       -0.003013    4.146559   -0.398935
     11          1           0       -0.005938    3.439521   -2.438145
     12          1           0        0.000612    4.557352    1.718790
     13          1           0       -0.004577    5.203732   -0.682766
     14          6           0        1.251672   -0.722653    0.326585
     15          6           0        1.576526   -0.907588   -1.018098
     16          6           0        2.114169   -1.222343    1.305843
     17          6           0        2.739089   -1.576975   -1.379566
     18          1           0        0.892942   -0.512554   -1.790585
     19          6           0        3.277372   -1.892015    0.943543
     20          1           0        1.874688   -1.087300    2.367411
     21          6           0        3.592532   -2.070670   -0.398935
     22          1           0        2.981682   -1.714618   -2.438145
     23          1           0        3.946477   -2.279206    1.718790
     24          1           0        4.508853   -2.597902   -0.682766
     25          6           0       -1.251672   -0.722653    0.326585
     26          6           0       -2.115664   -1.219753    1.305843
     27          6           0       -1.574257   -0.911518   -1.018098
     28          6           0       -3.277219   -1.892280    0.943543
     29          1           0       -1.878973   -1.079877    2.367411
     30          6           0       -2.735245   -1.583634   -1.379566
     31          1           0       -0.890356   -0.517033   -1.790585
     32          6           0       -3.589518   -2.075889   -0.398935
     33          1           0       -3.947089   -2.278146    1.718790
     34          1           0       -2.975744   -1.724904   -2.438145
     35          1           0       -4.504275   -2.605830   -0.682766
 ---------------------------------------------------------------------
 Rotational constants (GHZ):      0.3814696      0.3814696      0.2405392
 Standard basis: 6-311G (5D, 7F)
 There are   295 symmetry adapted basis functions of A   symmetry.
 Integral buffers will be    262144 words long.
 Raffenetti 1 integral format.
 Two-electron integral symmetry is turned on.
   295 basis functions,   574 primitive gaussians,   295 cartesian basis functions
    65 alpha electrons       65 beta electrons
       nuclear repulsion energy      1288.3005024142 Hartrees.
 NAtoms=   35 NActive=   35 NUniq=   13 SFac= 3.00D+00 NAtFMM=   80 NAOKFM=F Big=F
 One-electron integrals computed using PRISM.
 PrsmSu:  requested number of processors reduced to:  10 ShMem   1 Linda.
 NBasis=   295 RedAO= T  NBF=   295
 NBsUse=   295 1.00D-06 NBFU=   295
 Harris functional with IExCor=  205 diagonalized for initial guess.
 ExpMin= 1.03D-01 ExpMax= 4.56D+03 ExpMxC= 6.82D+02 IAcc=1 IRadAn=         1 AccDes= 0.00D+00
 HarFok:  IExCor=  205 AccDes= 0.00D+00 IRadAn=         1 IDoV= 1
 ScaDFX=  1.000000  1.000000  1.000000  1.000000
 FoFCou: FMM=F IPFlag=           0 FMFlag=      100000 FMFlg1=           0
         NFxFlg=           0 DoJE=T BraDBF=F KetDBF=T FulRan=T
         Omega=  0.000000  0.000000  1.000000  0.000000  0.000000 ICntrl=     500 IOpCl=  0
         NMat0=    1 NMatS0=    1 NMatT0=    0 NMatD0=    1 NMtDS0=    0 NMtDT0=    0
         I1Cent=           4 NGrid=           0.
 Petite list used in FoFCou.
 Initial guess orbital symmetries:
       Occupied  (E) (E) (A) (A) (E) (E) (E) (E) (A) (A) (E) (E)
                 (E) (E) (A) (E) (E) (A) (A) (A) (E) (E) (A) (A)
                 (E) (E) (E) (E) (A) (A) (E) (E) (E) (E) (A) (E)
                 (E) (A) (A) (E) (E) (A) (E) (E) (A) (E) (E) (E)
                 (E) (A) (A) (E) (E) (A) (E) (E) (E) (E) (A) (E)
                 (E) (A) (E) (E) (A)
       Virtual   (E) (E) (E) (E) (A) (A) (A) (A) (E) (E) (E) (E)
                 (A) (A) (E) (E) (A) (A) (E) (E) (E) (E) (A) (A)
                 (E) (E) (E) (E) (A) (A) (E) (E) (A) (E) (E) (E)
                 (E) (E) (E) (A) (A) (E) (E) (A) (E) (E) (A) (A)
                 (E) (E) (A) (E) (E) (A) (E) (E) (A) (E) (E) (E)
                 (E) (E) (E) (A) (E) (E) (A) (E) (E) (A) (E) (E)
                 (A) (A) (E) (E) (E) (E) (A) (A) (E) (E) (A) (E)
                 (E) (E) (E) (A) (A) (E) (E) (A) (E) (E) (A) (A)
                 (E) (E) (E) (E) (A) (A) (E) (E) (A) (A) (E) (E)
                 (A) (E) (E) (A) (E) (E) (E) (E) (A) (E) (E) (E)
                 (E) (A) (A) (E) (E) (A) (E) (E) (E) (E) (A) (E)
                 (E) (A) (A) (E) (E) (A) (A) (E) (E) (A) (E) (E)
                 (A) (E) (E) (A) (E) (E) (A) (E) (E) (A) (E) (E)
                 (E) (E) (A) (A) (A) (E) (E) (A) (A) (E) (E) (E)
                 (E) (E) (E) (A) (E) (E) (A) (A) (E) (E) (A) (E)
                 (E) (E) (E) (A) (E) (E) (A) (E) (E) (A) (E) (E)
                 (A) (E) (E) (E) (E) (A) (E) (E) (A) (A) (E) (E)
                 (A) (E) (E) (A) (E) (E) (A) (A) (E) (E) (A) (E)
                 (E) (A) (E) (E) (A) (E) (E) (A) (E) (E) (A) (A)
                 (E) (E)
 The electronic state of the initial guess is 1-A.
 Requested convergence on RMS density matrix=1.00D-08 within 128 cycles.
 Requested convergence on MAX density matrix=1.00D-06.
 Requested convergence on             energy=1.00D-06.
 No special actions if energy rises.
 Integral accuracy reduced to 1.0D-05 until final iterations.
 Initial convergence to 1.0D-05 achieved.  Increase integral accuracy.
 DSYEVD returned Info=       44103 IAlg= 4 N=   295 NDim=   295 NE2=      112833 trying DSYEV.
 SCF Done:  E(RHF) =  -728.661807993     A.U. after   14 cycles
             Convg  =    0.5680D-08             -V/T =  2.0001

 **********************************************************************

            Population analysis using the SCF density.

 **********************************************************************

 Orbital symmetries:
       Occupied  (A) (E) (E) (A) (E) (E) (A) (E) (E) (A) (E) (E)
                 (A) (E) (E) (A) (E) (E) (A) (A) (E) (E) (A) (A)
                 (E) (E) (E) (E) (A) (A) (E) (E) (E) (E) (A) (E)
                 (E) (A) (A) (E) (E) (A) (E) (E) (A) (E) (E) (E)
                 (E) (A) (A) (E) (E) (A) (E) (E) (A) (E) (E) (E)
                 (E) (E) (E) (A) (A)
       Virtual   (E) (E) (E) (E) (A) (A) (A) (E) (E) (A) (A) (E)
                 (E) (A) (E) (E) (A) (E) (E) (A) (E) (E) (A) (E)
                 (E) (A) (E) (E) (A) (A) (E) (E) (A) (E) (E) (E)
                 (E) (A) (E) (E) (A) (E) (E) (A) (E) (E) (A) (A)
                 (E) (E) (A) (E) (E) (E) (E) (A) (A) (E) (E) (E)
                 (E) (E) (E) (A) (A) (E) (E) (E) (E) (A) (A) (E)
                 (E) (E) (E) (A) (E) (E) (A) (E) (E) (A) (A) (E)
                 (E) (E) (E) (A) (A) (E) (E) (E) (E) (A) (A) (A)
                 (E) (E) (A) (E) (E) (A) (A) (E) (E) (E) (E) (A)
                 (A) (E) (E) (E) (E) (A) (A) (E) (E) (E) (E) (A)
                 (E) (E) (A) (E) (E) (A) (E) (E) (E) (E) (A) (E)
                 (E) (A) (A) (E) (E) (A) (A) (E) (E) (A) (E) (E)
                 (A) (A) (E) (E) (E) (E) (A) (A) (E) (E) (A) (E)
                 (E) (E) (E) (A) (E) (E) (A) (A) (E) (E) (A) (E)
                 (E) (E) (E) (A) (E) (E) (A) (A) (E) (E) (A) (E)
                 (E) (E) (E) (A) (A) (E) (E) (E) (E) (A) (E) (E)
                 (A) (E) (E) (E) (E) (A) (E) (E) (A) (A) (E) (E)
                 (E) (E) (A) (A) (E) (E) (A) (A) (E) (E) (A) (E)
                 (E) (A) (E) (E) (A) (A) (E) (E) (E) (E) (A) (A)
                 (E) (E)
 The electronic state is 1-A.
 Alpha  occ. eigenvalues --  -11.25893 -11.25309 -11.25309 -11.25302 -11.24432
 Alpha  occ. eigenvalues --  -11.24432 -11.24432 -11.24316 -11.24316 -11.24316
 Alpha  occ. eigenvalues --  -11.24166 -11.24166 -11.24165 -11.24085 -11.24085
 Alpha  occ. eigenvalues --  -11.24084 -11.23985 -11.23985 -11.23985  -1.18667
 Alpha  occ. eigenvalues --   -1.15800  -1.15800  -1.09084  -1.02579  -1.01967
 Alpha  occ. eigenvalues --   -1.01967  -1.01543  -1.01543  -0.93067  -0.85067
 Alpha  occ. eigenvalues --   -0.82364  -0.82364  -0.81934  -0.81934  -0.78034
 Alpha  occ. eigenvalues --   -0.70468  -0.70468  -0.69876  -0.66406  -0.63082
 Alpha  occ. eigenvalues --   -0.63082  -0.62919  -0.62306  -0.62306  -0.59923
 Alpha  occ. eigenvalues --   -0.58653  -0.58653  -0.57966  -0.57966  -0.53385
 Alpha  occ. eigenvalues --   -0.52149  -0.51251  -0.51251  -0.49542  -0.48623
 Alpha  occ. eigenvalues --   -0.48623  -0.48112  -0.47201  -0.47201  -0.34399
 Alpha  occ. eigenvalues --   -0.34399  -0.33775  -0.33775  -0.33413  -0.31072
 Alpha virt. eigenvalues --    0.12122   0.12122   0.12786   0.12786   0.14082
 Alpha virt. eigenvalues --    0.15510   0.15694   0.16376   0.16376   0.16685
 Alpha virt. eigenvalues --    0.18462   0.19286   0.19286   0.21245   0.21594
 Alpha virt. eigenvalues --    0.21594   0.23781   0.24507   0.24507   0.28411
 Alpha virt. eigenvalues --    0.30984   0.30984   0.33859   0.33994   0.33994
 Alpha virt. eigenvalues --    0.38190   0.39438   0.39438   0.40128   0.43672
 Alpha virt. eigenvalues --    0.44510   0.44510   0.44811   0.45918   0.45918
 Alpha virt. eigenvalues --    0.46990   0.46990   0.48790   0.50138   0.50138
 Alpha virt. eigenvalues --    0.50772   0.52414   0.52414   0.55401   0.57112
 Alpha virt. eigenvalues --    0.57112   0.57371   0.58297   0.58684   0.58684
 Alpha virt. eigenvalues --    0.58968   0.60511   0.60511   0.61964   0.61964
 Alpha virt. eigenvalues --    0.62014   0.62154   0.63137   0.63137   0.63902
 Alpha virt. eigenvalues --    0.63902   0.65392   0.65392   0.65733   0.65992
 Alpha virt. eigenvalues --    0.66940   0.66940   0.68953   0.68953   0.70501
 Alpha virt. eigenvalues --    0.71464   0.74297   0.74297   0.75597   0.75597
 Alpha virt. eigenvalues --    0.76051   0.78749   0.78749   0.79607   0.81310
 Alpha virt. eigenvalues --    0.81310   0.81936   0.82769   0.82799   0.82799
 Alpha virt. eigenvalues --    0.83481   0.83481   0.84100   0.84271   0.86392
 Alpha virt. eigenvalues --    0.86392   0.86745   0.86745   0.86986   0.88629
 Alpha virt. eigenvalues --    0.89533   0.90402   0.90402   0.95752   0.96691
 Alpha virt. eigenvalues --    0.96691   0.96866   0.97607   0.98003   0.98003
 Alpha virt. eigenvalues --    1.00699   1.00699   1.02874   1.06062   1.06222
 Alpha virt. eigenvalues --    1.06222   1.07658   1.07658   1.08078   1.11064
 Alpha virt. eigenvalues --    1.11909   1.11909   1.12630   1.12630   1.13005
 Alpha virt. eigenvalues --    1.14538   1.14538   1.15119   1.22655   1.22655
 Alpha virt. eigenvalues --    1.25077   1.25917   1.25917   1.27821   1.27821
 Alpha virt. eigenvalues --    1.31112   1.38590   1.38590   1.38910   1.43636
 Alpha virt. eigenvalues --    1.52659   1.52659   1.55455   2.45110   2.55202
 Alpha virt. eigenvalues --    2.55202   2.56988   2.62126   2.62126   2.63064
 Alpha virt. eigenvalues --    2.66400   2.67291   2.67291   2.77821   2.77821
 Alpha virt. eigenvalues --    2.78251   2.83355   2.89178   2.89178   2.93999
 Alpha virt. eigenvalues --    2.94074   2.94074   2.96564   2.96564   2.98231
 Alpha virt. eigenvalues --    3.00843   3.00843   3.04218   3.04752   3.08413
 Alpha virt. eigenvalues --    3.08413   3.09154   3.09761   3.09761   3.13043
 Alpha virt. eigenvalues --    3.13043   3.15939   3.16638   3.16638   3.19344
 Alpha virt. eigenvalues --    3.22845   3.24352   3.24352   3.29232   3.30402
 Alpha virt. eigenvalues --    3.30402   3.33700   3.33700   3.34695   3.43646
 Alpha virt. eigenvalues --    3.44346   3.44346   3.48461   3.48461   3.51043
 Alpha virt. eigenvalues --    3.52867   3.52867   3.59386   3.59773   3.59773
 Alpha virt. eigenvalues --    3.62707   3.62707   3.63261   3.65545   3.65545
 Alpha virt. eigenvalues --    3.66498   3.68450   3.71031   3.71031   3.74574
 Alpha virt. eigenvalues --    3.74574   3.76313   3.80858   3.84787   3.84787
 Alpha virt. eigenvalues --    3.98450  24.23886  24.30688  24.30688  24.50332
 Alpha virt. eigenvalues --   24.50783  24.50783  24.53779  24.54629  24.54629
 Alpha virt. eigenvalues --   24.76560  24.78627  24.78793  24.78793  24.81063
 Alpha virt. eigenvalues --   24.81063  24.82963  25.04358  25.06496  25.06496
          Condensed to atoms (all electrons):
              1          2          3          4          5          6
     1  C    5.770520   0.437618   0.198454  -0.052328  -0.022222   0.001672
     2  H    0.437618   0.507725  -0.063982   0.005147   0.003073  -0.000298
     3  C    0.198454  -0.063982   5.405849   0.425741   0.505824  -0.055355
     4  C   -0.052328   0.005147   0.425741   5.081414  -0.063304   0.483148
     5  C   -0.022222   0.003073   0.505824  -0.063304   5.045471  -0.035101
     6  C    0.001672  -0.000298  -0.055355   0.483148  -0.035101   5.036988
     7  H    0.002884   0.000004  -0.059291   0.385260   0.004153  -0.021612
     8  C    0.007782   0.001720  -0.075499  -0.028289   0.470120  -0.078037
     9  H   -0.000723   0.003404  -0.046008   0.004563   0.393512  -0.000175
    10  C    0.001294   0.000000  -0.021406  -0.093045  -0.085326   0.494761
    11  H   -0.000298   0.000012   0.005988  -0.038163  -0.000514   0.396525
    12  H   -0.000378  -0.000043   0.007516  -0.000733  -0.040178   0.006425
    13  H   -0.000011  -0.000002  -0.001591   0.008355   0.007562  -0.043055
    14  C    0.198454  -0.063982  -0.155264  -0.004050  -0.002657   0.001910
    15  C   -0.052328   0.005147  -0.004001  -0.009871   0.000220  -0.000318
    16  C   -0.022222   0.003073  -0.002725   0.000211   0.000719   0.000034
    17  C    0.001672  -0.000298   0.001917  -0.000308   0.000034  -0.000067
    18  H    0.002884   0.000004  -0.002005  -0.000413  -0.000328   0.000939
    19  C    0.007782   0.001720  -0.000560   0.000095  -0.000027  -0.000001
    20  H   -0.000723   0.003404   0.000305  -0.000041   0.000140   0.000000
    21  C    0.001294   0.000000  -0.000056  -0.000017  -0.000008   0.000001
    22  H   -0.000298   0.000012   0.000018   0.000030   0.000001  -0.000001
    23  H   -0.000378  -0.000043   0.000018   0.000000   0.000001   0.000000
    24  H   -0.000011  -0.000002  -0.000002   0.000001   0.000000   0.000000
    25  C    0.198454  -0.063982  -0.155264  -0.004001  -0.002725   0.001917
    26  C   -0.022222   0.003073  -0.002657   0.000220   0.000719   0.000034
    27  C   -0.052328   0.005147  -0.004050  -0.009871   0.000211  -0.000308
    28  C    0.007782   0.001720  -0.000560   0.000095  -0.000027  -0.000001
    29  H   -0.000723   0.003404   0.000303  -0.000040   0.000143   0.000000
    30  C    0.001672  -0.000298   0.001910  -0.000318   0.000034  -0.000067
    31  H    0.002884   0.000004  -0.001985  -0.000474  -0.000326   0.000934
    32  C    0.001294   0.000000  -0.000057  -0.000018  -0.000008   0.000001
    33  H   -0.000378  -0.000043   0.000018   0.000000   0.000001   0.000000
    34  H   -0.000298   0.000012   0.000018   0.000030   0.000001  -0.000001
    35  H   -0.000011  -0.000002  -0.000002   0.000001   0.000000   0.000000
              7          8          9         10         11         12
     1  C    0.002884   0.007782  -0.000723   0.001294  -0.000298  -0.000378
     2  H    0.000004   0.001720   0.003404   0.000000   0.000012  -0.000043
     3  C   -0.059291  -0.075499  -0.046008  -0.021406   0.005988   0.007516
     4  C    0.385260  -0.028289   0.004563  -0.093045  -0.038163  -0.000733
     5  C    0.004153   0.470120   0.393512  -0.085326  -0.000514  -0.040178
     6  C   -0.021612  -0.078037  -0.000175   0.494761   0.396525   0.006425
     7  H    0.530482   0.000083  -0.000304   0.004617  -0.003438   0.000022
     8  C    0.000083   5.043845  -0.033448   0.499756   0.005947   0.397002
     9  H   -0.000304  -0.033448   0.511784   0.005133   0.000027  -0.004160
    10  C    0.004617   0.499756   0.005133   5.031862  -0.039230  -0.041415
    11  H   -0.003438   0.005947   0.000027  -0.039230   0.515333  -0.000208
    12  H    0.000022   0.397002  -0.004160  -0.041415  -0.000208   0.518836
    13  H   -0.000208  -0.042992  -0.000190   0.399277  -0.004426  -0.004665
    14  C   -0.001985  -0.000560   0.000303  -0.000057   0.000018   0.000018
    15  C   -0.000474   0.000095  -0.000040  -0.000018   0.000030   0.000000
    16  C   -0.000326  -0.000027   0.000143  -0.000008   0.000001   0.000001
    17  C    0.000934  -0.000001   0.000000   0.000001  -0.000001   0.000000
    18  H   -0.002518  -0.000017   0.000001  -0.000010  -0.000027   0.000000
    19  C   -0.000016   0.000003   0.000001   0.000000   0.000000   0.000000
    20  H    0.000001   0.000001   0.000027   0.000000   0.000000   0.000000
    21  C   -0.000010   0.000000   0.000000   0.000000   0.000000   0.000000
    22  H   -0.000027   0.000000   0.000000   0.000000   0.000000   0.000000
    23  H    0.000000   0.000000   0.000000   0.000000   0.000000   0.000000
    24  H    0.000000   0.000000   0.000000   0.000000   0.000000   0.000000
    25  C   -0.002005  -0.000560   0.000305  -0.000056   0.000018   0.000018
    26  C   -0.000328  -0.000027   0.000140  -0.000008   0.000001   0.000001
    27  C   -0.000413   0.000095  -0.000041  -0.000017   0.000030   0.000000
    28  C   -0.000017   0.000003   0.000001   0.000000   0.000000   0.000000
    29  H    0.000001   0.000001   0.000027   0.000000   0.000000   0.000000
    30  C    0.000939  -0.000001   0.000000   0.000001  -0.000001   0.000000
    31  H   -0.002518  -0.000016   0.000001  -0.000010  -0.000027   0.000000
    32  C   -0.000010   0.000000   0.000000   0.000000   0.000000   0.000000
    33  H    0.000000   0.000000   0.000000   0.000000   0.000000   0.000000
    34  H   -0.000027   0.000000   0.000000   0.000000   0.000000   0.000000
    35  H    0.000000   0.000000   0.000000   0.000000   0.000000   0.000000
             13         14         15         16         17         18
     1  C   -0.000011   0.198454  -0.052328  -0.022222   0.001672   0.002884
     2  H   -0.000002  -0.063982   0.005147   0.003073  -0.000298   0.000004
     3  C   -0.001591  -0.155264  -0.004001  -0.002725   0.001917  -0.002005
     4  C    0.008355  -0.004050  -0.009871   0.000211  -0.000308  -0.000413
     5  C    0.007562  -0.002657   0.000220   0.000719   0.000034  -0.000328
     6  C   -0.043055   0.001910  -0.000318   0.000034  -0.000067   0.000939
     7  H   -0.000208  -0.001985  -0.000474  -0.000326   0.000934  -0.002518
     8  C   -0.042992  -0.000560   0.000095  -0.000027  -0.000001  -0.000017
     9  H   -0.000190   0.000303  -0.000040   0.000143   0.000000   0.000001
    10  C    0.399277  -0.000057  -0.000018  -0.000008   0.000001  -0.000010
    11  H   -0.004426   0.000018   0.000030   0.000001  -0.000001  -0.000027
    12  H   -0.004665   0.000018   0.000000   0.000001   0.000000   0.000000
    13  H    0.518095  -0.000002   0.000001   0.000000   0.000000   0.000000
    14  C   -0.000002   5.405849   0.425741   0.505824  -0.055355  -0.059291
    15  C    0.000001   0.425741   5.081414  -0.063304   0.483148   0.385260
    16  C    0.000000   0.505824  -0.063304   5.045471  -0.035101   0.004153
    17  C    0.000000  -0.055355   0.483148  -0.035101   5.036988  -0.021612
    18  H    0.000000  -0.059291   0.385260   0.004153  -0.021612   0.530482
    19  C    0.000000  -0.075499  -0.028289   0.470120  -0.078037   0.000083
    20  H    0.000000  -0.046008   0.004563   0.393512  -0.000175  -0.000304
    21  C    0.000000  -0.021406  -0.093045  -0.085326   0.494761   0.004617
    22  H    0.000000   0.005988  -0.038163  -0.000514   0.396525  -0.003438
    23  H    0.000000   0.007516  -0.000733  -0.040178   0.006425   0.000022
    24  H    0.000000  -0.001591   0.008355   0.007562  -0.043055  -0.000208
    25  C   -0.000002  -0.155264  -0.004050  -0.002657   0.001910  -0.001985
    26  C    0.000000  -0.002725   0.000211   0.000719   0.000034  -0.000326
    27  C    0.000001  -0.004001  -0.009871   0.000220  -0.000318  -0.000474
    28  C    0.000000  -0.000560   0.000095  -0.000027  -0.000001  -0.000016
    29  H    0.000000   0.000305  -0.000041   0.000140   0.000000   0.000001
    30  C    0.000000   0.001917  -0.000308   0.000034  -0.000067   0.000934
    31  H    0.000000  -0.002005  -0.000413  -0.000328   0.000939  -0.002518
    32  C    0.000000  -0.000056  -0.000017  -0.000008   0.000001  -0.000010
    33  H    0.000000   0.000018   0.000000   0.000001   0.000000   0.000000
    34  H    0.000000   0.000018   0.000030   0.000001  -0.000001  -0.000027
    35  H    0.000000  -0.000002   0.000001   0.000000   0.000000   0.000000
             19         20         21         22         23         24
     1  C    0.007782  -0.000723   0.001294  -0.000298  -0.000378  -0.000011
     2  H    0.001720   0.003404   0.000000   0.000012  -0.000043  -0.000002
     3  C   -0.000560   0.000305  -0.000056   0.000018   0.000018  -0.000002
     4  C    0.000095  -0.000041  -0.000017   0.000030   0.000000   0.000001
     5  C   -0.000027   0.000140  -0.000008   0.000001   0.000001   0.000000
     6  C   -0.000001   0.000000   0.000001  -0.000001   0.000000   0.000000
     7  H   -0.000016   0.000001  -0.000010  -0.000027   0.000000   0.000000
     8  C    0.000003   0.000001   0.000000   0.000000   0.000000   0.000000
     9  H    0.000001   0.000027   0.000000   0.000000   0.000000   0.000000
    10  C    0.000000   0.000000   0.000000   0.000000   0.000000   0.000000
    11  H    0.000000   0.000000   0.000000   0.000000   0.000000   0.000000
    12  H    0.000000   0.000000   0.000000   0.000000   0.000000   0.000000
    13  H    0.000000   0.000000   0.000000   0.000000   0.000000   0.000000
    14  C   -0.075499  -0.046008  -0.021406   0.005988   0.007516  -0.001591
    15  C   -0.028289   0.004563  -0.093045  -0.038163  -0.000733   0.008355
    16  C    0.470120   0.393512  -0.085326  -0.000514  -0.040178   0.007562
    17  C   -0.078037  -0.000175   0.494761   0.396525   0.006425  -0.043055
    18  H    0.000083  -0.000304   0.004617  -0.003438   0.000022  -0.000208
    19  C    5.043845  -0.033448   0.499756   0.005947   0.397002  -0.042992
    20  H   -0.033448   0.511784   0.005133   0.000027  -0.004160  -0.000190
    21  C    0.499756   0.005133   5.031862  -0.039230  -0.041415   0.399277
    22  H    0.005947   0.000027  -0.039230   0.515333  -0.000208  -0.004426
    23  H    0.397002  -0.004160  -0.041415  -0.000208   0.518836  -0.004665
    24  H   -0.042992  -0.000190   0.399277  -0.004426  -0.004665   0.518095
    25  C   -0.000560   0.000303  -0.000057   0.000018   0.000018  -0.000002
    26  C   -0.000027   0.000143  -0.000008   0.000001   0.000001   0.000000
    27  C    0.000095  -0.000040  -0.000018   0.000030   0.000000   0.000001
    28  C    0.000003   0.000001   0.000000   0.000000   0.000000   0.000000
    29  H    0.000001   0.000027   0.000000   0.000000   0.000000   0.000000
    30  C   -0.000001   0.000000   0.000001  -0.000001   0.000000   0.000000
    31  H   -0.000017   0.000001  -0.000010  -0.000027   0.000000   0.000000
    32  C    0.000000   0.000000   0.000000   0.000000   0.000000   0.000000
    33  H    0.000000   0.000000   0.000000   0.000000   0.000000   0.000000
    34  H    0.000000   0.000000   0.000000   0.000000   0.000000   0.000000
    35  H    0.000000   0.000000   0.000000   0.000000   0.000000   0.000000
             25         26         27         28         29         30
     1  C    0.198454  -0.022222  -0.052328   0.007782  -0.000723   0.001672
     2  H   -0.063982   0.003073   0.005147   0.001720   0.003404  -0.000298
     3  C   -0.155264  -0.002657  -0.004050  -0.000560   0.000303   0.001910
     4  C   -0.004001   0.000220  -0.009871   0.000095  -0.000040  -0.000318
     5  C   -0.002725   0.000719   0.000211  -0.000027   0.000143   0.000034
     6  C    0.001917   0.000034  -0.000308  -0.000001   0.000000  -0.000067
     7  H   -0.002005  -0.000328  -0.000413  -0.000017   0.000001   0.000939
     8  C   -0.000560  -0.000027   0.000095   0.000003   0.000001  -0.000001
     9  H    0.000305   0.000140  -0.000041   0.000001   0.000027   0.000000
    10  C   -0.000056  -0.000008  -0.000017   0.000000   0.000000   0.000001
    11  H    0.000018   0.000001   0.000030   0.000000   0.000000  -0.000001
    12  H    0.000018   0.000001   0.000000   0.000000   0.000000   0.000000
    13  H   -0.000002   0.000000   0.000001   0.000000   0.000000   0.000000
    14  C   -0.155264  -0.002725  -0.004001  -0.000560   0.000305   0.001917
    15  C   -0.004050   0.000211  -0.009871   0.000095  -0.000041  -0.000308
    16  C   -0.002657   0.000719   0.000220  -0.000027   0.000140   0.000034
    17  C    0.001910   0.000034  -0.000318  -0.000001   0.000000  -0.000067
    18  H   -0.001985  -0.000326  -0.000474  -0.000016   0.000001   0.000934
    19  C   -0.000560  -0.000027   0.000095   0.000003   0.000001  -0.000001
    20  H    0.000303   0.000143  -0.000040   0.000001   0.000027   0.000000
    21  C   -0.000057  -0.000008  -0.000018   0.000000   0.000000   0.000001
    22  H    0.000018   0.000001   0.000030   0.000000   0.000000  -0.000001
    23  H    0.000018   0.000001   0.000000   0.000000   0.000000   0.000000
    24  H   -0.000002   0.000000   0.000001   0.000000   0.000000   0.000000
    25  C    5.405849   0.505824   0.425741  -0.075499  -0.046008  -0.055355
    26  C    0.505824   5.045471  -0.063304   0.470120   0.393512  -0.035101
    27  C    0.425741  -0.063304   5.081414  -0.028289   0.004563   0.483148
    28  C   -0.075499   0.470120  -0.028289   5.043845  -0.033448  -0.078037
    29  H   -0.046008   0.393512   0.004563  -0.033448   0.511784  -0.000175
    30  C   -0.055355  -0.035101   0.483148  -0.078037  -0.000175   5.036988
    31  H   -0.059291   0.004153   0.385260   0.000083  -0.000304  -0.021612
    32  C   -0.021406  -0.085326  -0.093045   0.499756   0.005133   0.494761
    33  H    0.007516  -0.040178  -0.000733   0.397002  -0.004160   0.006425
    34  H    0.005988  -0.000514  -0.038163   0.005947   0.000027   0.396525
    35  H   -0.001591   0.007562   0.008355  -0.042992  -0.000190  -0.043055
             31         32         33         34         35
     1  C    0.002884   0.001294  -0.000378  -0.000298  -0.000011
     2  H    0.000004   0.000000  -0.000043   0.000012  -0.000002
     3  C   -0.001985  -0.000057   0.000018   0.000018  -0.000002
     4  C   -0.000474  -0.000018   0.000000   0.000030   0.000001
     5  C   -0.000326  -0.000008   0.000001   0.000001   0.000000
     6  C    0.000934   0.000001   0.000000  -0.000001   0.000000
     7  H   -0.002518  -0.000010   0.000000  -0.000027   0.000000
     8  C   -0.000016   0.000000   0.000000   0.000000   0.000000
     9  H    0.000001   0.000000   0.000000   0.000000   0.000000
    10  C   -0.000010   0.000000   0.000000   0.000000   0.000000
    11  H   -0.000027   0.000000   0.000000   0.000000   0.000000
    12  H    0.000000   0.000000   0.000000   0.000000   0.000000
    13  H    0.000000   0.000000   0.000000   0.000000   0.000000
    14  C   -0.002005  -0.000056   0.000018   0.000018  -0.000002
    15  C   -0.000413  -0.000017   0.000000   0.000030   0.000001
    16  C   -0.000328  -0.000008   0.000001   0.000001   0.000000
    17  C    0.000939   0.000001   0.000000  -0.000001   0.000000
    18  H   -0.002518  -0.000010   0.000000  -0.000027   0.000000
    19  C   -0.000017   0.000000   0.000000   0.000000   0.000000
    20  H    0.000001   0.000000   0.000000   0.000000   0.000000
    21  C   -0.000010   0.000000   0.000000   0.000000   0.000000
    22  H   -0.000027   0.000000   0.000000   0.000000   0.000000
    23  H    0.000000   0.000000   0.000000   0.000000   0.000000
    24  H    0.000000   0.000000   0.000000   0.000000   0.000000
    25  C   -0.059291  -0.021406   0.007516   0.005988  -0.001591
    26  C    0.004153  -0.085326  -0.040178  -0.000514   0.007562
    27  C    0.385260  -0.093045  -0.000733  -0.038163   0.008355
    28  C    0.000083   0.499756   0.397002   0.005947  -0.042992
    29  H   -0.000304   0.005133  -0.004160   0.000027  -0.000190
    30  C   -0.021612   0.494761   0.006425   0.396525  -0.043055
    31  H    0.530482   0.004617   0.000022  -0.003438  -0.000208
    32  C    0.004617   5.031862  -0.041415  -0.039230   0.399277
    33  H    0.000022  -0.041415   0.518836  -0.000208  -0.004665
    34  H   -0.003438  -0.039230  -0.000208   0.515333  -0.004426
    35  H   -0.000208   0.399277  -0.004665  -0.004426   0.518095
 Mulliken atomic charges:
              1
     1  C   -0.616516
     2  H    0.207550
     3  C    0.098443
     4  C   -0.089024
     5  C   -0.179186
     6  C   -0.190894
     7  H    0.166144
     8  C   -0.166978
     9  H    0.165718
    10  C   -0.156094
    11  H    0.162401
    12  H    0.161941
    13  H    0.163853
    14  C    0.098443
    15  C   -0.089024
    16  C   -0.179186
    17  C   -0.190894
    18  H    0.166144
    19  C   -0.166978
    20  H    0.165718
    21  C   -0.156094
    22  H    0.162401
    23  H    0.161941
    24  H    0.163853
    25  C    0.098443
    26  C   -0.179186
    27  C   -0.089024
    28  C   -0.166978
    29  H    0.165718
    30  C   -0.190894
    31  H    0.166144
    32  C   -0.156094
    33  H    0.161941
    34  H    0.162401
    35  H    0.163853
 Sum of Mulliken atomic charges =   0.00000
 Mulliken charges with hydrogens summed into heavy atoms:
              1
     1  C   -0.408966
     3  C    0.098443
     4  C    0.077120
     5  C   -0.013468
     6  C   -0.028493
     8  C   -0.005038
    10  C    0.007759
    14  C    0.098443
    15  C    0.077120
    16  C   -0.013468
    17  C   -0.028493
    19  C   -0.005038
    21  C    0.007759
    25  C    0.098443
    26  C   -0.013468
    27  C    0.077120
    28  C   -0.005038
    30  C   -0.028493
    32  C    0.007759
 Sum of Mulliken charges with hydrogens summed into heavy atoms =   0.00000
 Electronic spatial extent (au):  <R**2>=           4935.3246
 Charge=              0.0000 electrons
 Dipole moment (field-independent basis, Debye):
    X=              0.0000    Y=              0.0000    Z=              0.0939  Tot=              0.0939
 Quadrupole moment (field-independent basis, Debye-Ang):
   XX=           -113.6374   YY=           -113.6374   ZZ=           -100.1397
   XY=              0.0000   XZ=              0.0000   YZ=              0.0000
 Traceless Quadrupole moment (field-independent basis, Debye-Ang):
   XX=             -4.4992   YY=             -4.4992   ZZ=              8.9984
   XY=              0.0000   XZ=              0.0000   YZ=              0.0000
 Octapole moment (field-independent basis, Debye-Ang**2):
  XXX=              0.1169  YYY=             54.0078  ZZZ=             -0.1188  XYY=             -0.1169
  XXY=            -54.0078  XXZ=              0.4718  XZZ=              0.0000  YZZ=              0.0000
  YYZ=              0.4718  XYZ=              0.0000
 Hexadecapole moment (field-independent basis, Debye-Ang**3):
 XXXX=          -2946.9585 YYYY=          -2946.9585 ZZZZ=           -846.7679 XXXY=              0.0000
 XXXZ=             -0.4079 YYYX=              0.0000 YYYZ=             -1.5528 ZZZX=              0.0000
 ZZZY=              0.0000 XXYY=           -982.3195 XXZZ=           -617.0373 YYZZ=           -617.0373
 XXYZ=              1.5528 YYXZ=              0.4079 ZZXY=              0.0000
 N-N= 1.288300502414D+03 E-N=-4.272507166206D+03  KE= 7.285969090008D+02
 PrsmSu:  requested number of processors reduced to:  10 ShMem   1 Linda.
 Calling FoFJK, ICntrl=      2127 FMM=F ISym2X=1 I1Cent= 0 IOpClX= 0 NMat=1 NMatS=1 NMatT=0.
 ***** Axes restored to original set *****
 -------------------------------------------------------------------
 Center     Atomic                   Forces (Hartrees/Bohr)
 Number     Number              X              Y              Z
 -------------------------------------------------------------------
      1        6           0.000000000    0.000000000   -0.024357448
      2        1           0.000000000    0.000000000    0.028870065
      3        6          -0.006422547    0.012070503   -0.005074256
      4        6           0.003980388   -0.007457489    0.011891149
      5        6           0.000644394   -0.001287778   -0.006052457
      6        6          -0.000538830    0.001050910    0.012165182
      7        1          -0.015106669    0.028364630   -0.017174957
      8        6          -0.004998199    0.009321160   -0.007886608
      9        1          -0.001825328    0.003602205    0.017437834
     10        6          -0.006304020    0.011824489    0.001842638
     11        1           0.001929304   -0.003693926   -0.016164913
     12        1           0.005505989   -0.010294283    0.011874504
     13        1           0.007642843   -0.014345371   -0.004362320
     14        6          -0.007242089   -0.011597340   -0.005074256
     15        6           0.004468181    0.007175862    0.011891149
     16        6           0.000793052    0.001201951   -0.006052457
     17        6          -0.000640700   -0.000992096    0.012165182
     18        1          -0.017011155   -0.027265074   -0.017174957
     19        6          -0.005573262   -0.008989148   -0.007886608
     20        1          -0.002206937   -0.003381883    0.017437834
     21        6          -0.007088297   -0.011371686    0.001842638
     22        1           0.002234382    0.003517789   -0.016164913
     23        1           0.006162115    0.009915468    0.011874504
     24        1           0.008602034    0.013791582   -0.004362320
     25        6           0.013664636   -0.000473163   -0.005074256
     26        6          -0.001437446    0.000085828   -0.006052457
     27        6          -0.008448569    0.000281627    0.011891149
     28        6           0.010571461   -0.000332013   -0.007886608
     29        1           0.004032265   -0.000220322    0.017437834
     30        6           0.001179530   -0.000058814    0.012165182
     31        1           0.032117825   -0.001099556   -0.017174957
     32        6           0.013392318   -0.000452803    0.001842638
     33        1          -0.011668105    0.000378815    0.011874504
     34        1          -0.004163686    0.000176137   -0.016164913
     35        1          -0.016244877    0.000553789   -0.004362320
 -------------------------------------------------------------------
 Cartesian Forces:  Max     0.032117825 RMS     0.010601316

 GradGradGradGradGradGradGradGradGradGradGradGradGradGradGradGradGradGrad
 Berny optimization.
 Internal  Forces:  Max     0.035554212 RMS     0.010642259
 Search for a local minimum.
 Step number   1 out of a maximum of  197
 All quantities printed in internal units (Hartrees-Bohrs-Radians)
 Mixed Optimization -- RFO/linear search
 Second derivative matrix not updated -- first step.
     Eigenvalues ---    0.00647   0.00647   0.00647   0.01535   0.01535
     Eigenvalues ---    0.01535   0.02144   0.02144   0.02144   0.02170
     Eigenvalues ---    0.02170   0.02170   0.02188   0.02188   0.02188
     Eigenvalues ---    0.02204   0.02204   0.02204   0.02214   0.02214
     Eigenvalues ---    0.02214   0.02216   0.02216   0.02216   0.02217
     Eigenvalues ---    0.02217   0.02217   0.02222   0.02222   0.02222
     Eigenvalues ---    0.04562   0.06515   0.06515   0.16000   0.16000
     Eigenvalues ---    0.16000   0.16000   0.16000   0.16000   0.16000
     Eigenvalues ---    0.16000   0.16000   0.16000   0.16000   0.16000
     Eigenvalues ---    0.16000   0.16000   0.16000   0.19114   0.19114
     Eigenvalues ---    0.22000   0.22000   0.22000   0.22000   0.22000
     Eigenvalues ---    0.22000   0.23477   0.23477   0.23477   0.25000
     Eigenvalues ---    0.25000   0.25000   0.31098   0.31451   0.31451
     Eigenvalues ---    0.31451   0.33182   0.33182   0.33182   0.34062
     Eigenvalues ---    0.34062   0.34062   0.34262   0.34262   0.34262
     Eigenvalues ---    0.34274   0.34274   0.34274   0.34285   0.34285
     Eigenvalues ---    0.34285   0.42477   0.42477   0.42477   0.42596
     Eigenvalues ---    0.42596   0.42596   0.46418   0.46418   0.46418
     Eigenvalues ---    0.46781   0.46781   0.46781   0.47240   0.47240
     Eigenvalues ---    0.47240   0.47368   0.47368   0.473681000.00000
     Eigenvalues --- 1000.000001000.000001000.000001000.000001000.00000
     Eigenvalues --- 1000.000001000.000001000.000001000.000001000.00000
     Eigenvalues --- 1000.000001000.000001000.000001000.000001000.00000
     Eigenvalues --- 1000.000001000.000001000.000001000.000001000.00000
     Eigenvalues --- 1000.000001000.000001000.000001000.000001000.00000
     Eigenvalues --- 1000.000001000.000001000.000001000.000001000.00000
     Eigenvalues --- 1000.000001000.000001000.000001000.000001000.00000
     Eigenvalues --- 1000.000001000.000001000.000001000.000001000.00000
     Eigenvalues --- 1000.000001000.000001000.000001000.000001000.00000
     Eigenvalues --- 1000.000001000.000001000.000001000.000001000.00000
     Eigenvalues --- 1000.000001000.000001000.000001000.000001000.00000
     Eigenvalues --- 1000.000001000.000001000.000001000.000001000.00000
     Eigenvalues --- 1000.000001000.000001000.000001000.000001000.00000
     Eigenvalues --- 1000.000001000.000001000.000001000.000001000.00000
     Eigenvalues --- 1000.000001000.000001000.000001000.000001000.00000
     Eigenvalues --- 1000.000001000.000001000.000001000.000001000.00000
     Eigenvalues --- 1000.000001000.000001000.000001000.000001000.00000
     Eigenvalues --- 1000.000001000.00000
 RFO step:  Lambda=-7.29071152D-02 EMin= 6.46929822D-03
 Linear search not attempted -- first point.
 Maximum step size (   0.300) exceeded in Quadratic search.
    -- Step size scaled by   0.524
 Iteration  1 RMS(Cart)=  0.16605126 RMS(Int)=  0.00452553
 Iteration  2 RMS(Cart)=  0.00948430 RMS(Int)=  0.00043909
 Iteration  3 RMS(Cart)=  0.00000965 RMS(Int)=  0.00043907
 Iteration  4 RMS(Cart)=  0.00000000 RMS(Int)=  0.00043907
 ClnCor:  largest displacement from symmetrization is 3.63D-09 for atom    24.
 Variable       Old X    -DE/DX   Delta X   Delta X   Delta X     New X
                                 (Linear)    (Quad)   (Total)
    R1        2.12525  -0.02887   0.00000  -0.03942  -0.03942   2.08583
    R2        2.85159   0.03119   0.00000   0.04220   0.04220   2.89380
    R3        2.85159   0.03119   0.00000   0.04220   0.04220   2.89380
    R4        2.85159   0.03119   0.00000   0.04220   0.04220   2.89380
    R5        2.63744   0.00357   0.00000   0.00374   0.00376   2.64120
    R6        2.64058  -0.00288   0.00000  -0.00270  -0.00268   2.63790
    R7        2.62549  -0.00403   0.00000  -0.00374  -0.00375   2.62174
    R8        2.08734  -0.03498   0.00000  -0.04531  -0.04531   2.04202
    R9        2.62717  -0.00333   0.00000  -0.00332  -0.00331   2.62386
   R10        2.07226  -0.01789   0.00000  -0.02268  -0.02268   2.04958
   R11        2.62783  -0.00712   0.00000  -0.00697  -0.00700   2.62083
   R12        2.06870  -0.01669   0.00000  -0.02105  -0.02105   2.04764
   R13        2.62766  -0.01018   0.00000  -0.01004  -0.01005   2.61761
   R14        2.06890  -0.01665   0.00000  -0.02101  -0.02101   2.04790
   R15        2.06852  -0.01683   0.00000  -0.02122  -0.02122   2.04730
   R16        2.63744   0.00357   0.00000   0.00374   0.00376   2.64120
   R17        2.64058  -0.00288   0.00000  -0.00270  -0.00268   2.63790
   R18        2.62549  -0.00403   0.00000  -0.00374  -0.00375   2.62174
   R19        2.08734  -0.03498   0.00000  -0.04531  -0.04531   2.04202
   R20        2.62717  -0.00333   0.00000  -0.00332  -0.00331   2.62386
   R21        2.07226  -0.01789   0.00000  -0.02268  -0.02268   2.04958
   R22        2.62783  -0.00712   0.00000  -0.00697  -0.00700   2.62083
   R23        2.06870  -0.01669   0.00000  -0.02105  -0.02105   2.04764
   R24        2.62766  -0.01018   0.00000  -0.01004  -0.01005   2.61761
   R25        2.06890  -0.01665   0.00000  -0.02101  -0.02101   2.04790
   R26        2.06852  -0.01683   0.00000  -0.02122  -0.02122   2.04730
   R27        2.64058  -0.00288   0.00000  -0.00270  -0.00268   2.63790
   R28        2.63744   0.00357   0.00000   0.00374   0.00376   2.64120
   R29        2.62717  -0.00333   0.00000  -0.00332  -0.00331   2.62386
   R30        2.07226  -0.01789   0.00000  -0.02268  -0.02268   2.04958
   R31        2.62549  -0.00403   0.00000  -0.00374  -0.00375   2.62174
   R32        2.08734  -0.03498   0.00000  -0.04531  -0.04531   2.04202
   R33        2.62766  -0.01018   0.00000  -0.01004  -0.01005   2.61761
   R34        2.06890  -0.01665   0.00000  -0.02101  -0.02101   2.04790
   R35        2.62783  -0.00712   0.00000  -0.00697  -0.00700   2.62083
   R36        2.06870  -0.01669   0.00000  -0.02105  -0.02105   2.04764
   R37        2.06852  -0.01683   0.00000  -0.02122  -0.02122   2.04730
    A1        1.86237  -0.00981   0.00000  -0.04339  -0.04240   1.81998
    A2        1.86237  -0.00981   0.00000  -0.04339  -0.04240   1.81998
    A3        1.86237  -0.00981   0.00000  -0.04339  -0.04240   1.81998
    A4        1.95632   0.00874   0.00000   0.03868   0.03558   1.99191
    A5        1.95632   0.00874   0.00000   0.03868   0.03558   1.99191
    A6        1.95632   0.00874   0.00000   0.03868   0.03558   1.99191
    A7        2.13351   0.03555   0.00000   0.05759   0.05757   2.19108
    A8        2.07349  -0.02023   0.00000  -0.03297  -0.03299   2.04050
    A9        2.07619  -0.01533   0.00000  -0.02462  -0.02458   2.05160
   A10        2.10513   0.00514   0.00000   0.00946   0.00946   2.11460
   A11        2.07415   0.00807   0.00000   0.01923   0.01923   2.09338
   A12        2.10390  -0.01321   0.00000  -0.02869  -0.02869   2.07521
   A13        2.10142   0.01030   0.00000   0.01803   0.01806   2.11948
   A14        2.09392  -0.00563   0.00000  -0.01009  -0.01011   2.08381
   A15        2.08785  -0.00467   0.00000  -0.00793  -0.00795   2.07990
   A16        2.09570   0.00340   0.00000   0.00564   0.00561   2.10131
   A17        2.09162  -0.00161   0.00000  -0.00262  -0.00260   2.08902
   A18        2.09587  -0.00179   0.00000  -0.00303  -0.00301   2.09285
   A19        2.09801   0.00004   0.00000  -0.00103  -0.00104   2.09698
   A20        2.09113   0.00010   0.00000   0.00079   0.00079   2.09192
   A21        2.09404  -0.00014   0.00000   0.00024   0.00024   2.09428
   A22        2.08992  -0.00355   0.00000  -0.00748  -0.00752   2.08241
   A23        2.09660   0.00177   0.00000   0.00374   0.00375   2.10036
   A24        2.09666   0.00178   0.00000   0.00374   0.00376   2.10042
   A25        2.13351   0.03555   0.00000   0.05759   0.05757   2.19108
   A26        2.07349  -0.02023   0.00000  -0.03297  -0.03299   2.04050
   A27        2.07619  -0.01533   0.00000  -0.02462  -0.02458   2.05160
   A28        2.10513   0.00514   0.00000   0.00946   0.00946   2.11460
   A29        2.07415   0.00807   0.00000   0.01923   0.01923   2.09338
   A30        2.10390  -0.01321   0.00000  -0.02869  -0.02869   2.07521
   A31        2.10142   0.01030   0.00000   0.01803   0.01806   2.11948
   A32        2.09392  -0.00563   0.00000  -0.01009  -0.01011   2.08381
   A33        2.08785  -0.00467   0.00000  -0.00793  -0.00795   2.07990
   A34        2.09570   0.00340   0.00000   0.00564   0.00561   2.10131
   A35        2.09162  -0.00161   0.00000  -0.00262  -0.00260   2.08902
   A36        2.09587  -0.00179   0.00000  -0.00303  -0.00301   2.09285
   A37        2.09801   0.00004   0.00000  -0.00103  -0.00104   2.09698
   A38        2.09113   0.00010   0.00000   0.00079   0.00079   2.09192
   A39        2.09404  -0.00014   0.00000   0.00024   0.00024   2.09428
   A40        2.08992  -0.00355   0.00000  -0.00748  -0.00752   2.08241
   A41        2.09660   0.00177   0.00000   0.00374   0.00375   2.10036
   A42        2.09666   0.00178   0.00000   0.00374   0.00376   2.10042
   A43        2.07349  -0.02023   0.00000  -0.03297  -0.03299   2.04050
   A44        2.13351   0.03555   0.00000   0.05759   0.05757   2.19108
   A45        2.07619  -0.01533   0.00000  -0.02462  -0.02458   2.05160
   A46        2.10142   0.01030   0.00000   0.01803   0.01806   2.11948
   A47        2.09392  -0.00563   0.00000  -0.01009  -0.01011   2.08381
   A48        2.08785  -0.00467   0.00000  -0.00793  -0.00795   2.07990
   A49        2.10513   0.00514   0.00000   0.00946   0.00946   2.11460
   A50        2.07415   0.00807   0.00000   0.01923   0.01923   2.09338
   A51        2.10390  -0.01321   0.00000  -0.02869  -0.02869   2.07521
   A52        2.09801   0.00004   0.00000  -0.00103  -0.00104   2.09698
   A53        2.09113   0.00010   0.00000   0.00079   0.00079   2.09192
   A54        2.09404  -0.00014   0.00000   0.00024   0.00024   2.09428
[...]
 0,-0.00001520,0.00000949,0.00100023,0.00032565,0.00043390,0.00014194,0
 .00005510,0.00023267,-0.00005497,-0.00030766,-0.00007517,-0.00009104,-
 0.00024129,0.00009001,-0.00011045,0.00007049,-0.00000670,0.00006309,0.
 00007958,-0.00014621,-0.00003804,-0.00000587,0.00000475,-0.00011167,0.
 00006655,0.00010778,0.00000707,-0.00000271,-0.00001996,0.00001080,0.00
 001853,0.00003089,0.00002438,0.00002986,0.00000112,-0.03918719,-0.0035
 7527,0.00680791,0.01815483,0.00332503,-0.00731959,-0.08864837,0.033432
 39,-0.14795894,0.00662277,0.03229440,-0.03407280,0.00042398,-0.0008333
 3,0.00029790,0.05561626,-0.30826267,0.61513865,-0.00007244,0.00007559,
 0.00058885,0.00025526,-0.00019930,0.00015851,-0.00006911,0.00012102,0.
 00002123,0.00011330,-0.00002946,0.00001084,0.00000319,-0.00001192,-0.0
 0001543,-0.00002564,0.00002309,-0.00000582,-0.00000310,-0.00003351,-0.
 00000317,-0.00000185,-0.00000902,-0.00002088,-0.00000800,0.00000389,-0
 .00000443,0.00001096,-0.00000523,0.00001097,0.00000266,-0.00001462,-0.
 00000802,0.00000449,-0.00000383,0.00000144,0.00000056,-0.00000530,-0.0
 0000162,-0.00191702,0.00043452,-0.00189723,-0.00102462,0.00003532,-0.0
 0057555,-0.00036116,0.00019684,-0.00022119,-0.00019316,-0.00012499,0.0
 0008685,-0.00001797,0.00004210,0.00001728,0.00010303,0.00015722,-0.000
 09065,0.00006017,-0.00000696,0.00014168,-0.00001602,-0.00000815,0.0001
 1377,0.00003118,-0.00000337,-0.00000860,0.00001247,0.00002856,0.000030
 62,0.00003152,0.00002734,0.00001619,0.01211212,0.00643860,-0.00752209,
 0.00007240,0.00079257,-0.00313480,-0.20559366,-0.10434637,0.10980810,-
 0.00020807,0.00073883,-0.00082297,0.00043239,0.00040451,-0.00040742,-0
 .01652294,-0.01912759,0.02181527,0.21769707,-0.00022677,-0.00288962,-0
 .00267716,-0.00049875,0.00016218,-0.00022021,0.00068176,0.00012297,0.0
 0052370,0.00040736,0.00006161,0.00018032,0.00010981,-0.00020892,-0.000
 14116,-0.00004292,-0.00001980,-0.00013090,-0.00033269,-0.00023436,0.00
 002955,-0.00001334,0.00002579,0.00005736,-0.00001521,-0.00000011,-0.00
 001714,-0.00002774,-0.00000633,-0.00001903,0.00000472,-0.00001914,0.00
 000669,-0.00000846,-0.00001478,-0.00000840,-0.00002239,0.00001391,-0.0
 0000489,-0.00025848,0.00042361,-0.00064553,-0.00045475,0.00010969,-0.0
 0018580,0.00001485,0.00053113,0.00006270,0.00006150,0.00045942,-0.0000
 5552,0.00034127,-0.00021949,0.00001255,-0.00013346,-0.00036548,0.00017
 596,0.00000895,-0.00000323,-0.00009386,0.00015382,-0.00030453,-0.00021
 076,0.00000808,0.00000658,0.00000502,-0.00002951,-0.00002642,-0.000023
 47,-0.00001605,-0.00002468,-0.00001842,-0.01519914,-0.00394198,0.00954
 657,0.00120649,0.00413359,0.00608378,-0.10441144,-0.13591880,0.0960650
 7,0.00062045,-0.00051655,-0.00052165,-0.00062123,-0.00043452,0.0004538
 6,0.00427292,0.00628432,-0.00019738,0.11389391,0.13034037,0.00130051,-
 0.00200472,-0.00117000,-0.00022403,0.00000599,0.00005907,0.00027630,-0
 .00000649,0.00032619,0.00006530,-0.00002086,0.00009849,0.00002760,-0.0
 0009389,-0.00005987,-0.00005769,0.00000818,-0.00000670,-0.00001951,0.0
 0000869,-0.00004286,-0.00001600,-0.00001181,0.00000225,0.00000672,0.00
 001236,-0.00003723,0.00001865,-0.00000697,0.00000272,0.00000553,-0.000
 01447,-0.00001108,0.00000269,-0.00000624,-0.00000327,0.00000109,0.0000
 0313,-0.00000887,-0.00038707,0.00036447,-0.00002307,-0.00003483,-0.000
 10859,0.00063129,0.00024150,-0.00066156,-0.00016870,-0.00016810,-0.000
 19732,0.00008474,0.00002718,-0.00001203,-0.00004286,0.00004173,-0.0001
 8549,-0.00010810,-0.00004272,0.00007935,-0.00006028,-0.00009029,0.0001
 9516,0.00006603,0.00006448,0.00000734,-0.00003665,-0.00001222,0.000035
 68,-0.00000066,0.00002959,0.00003328,-0.00000777,0.02120558,0.01421953
 ,-0.00935486,-0.00305216,0.00647974,-0.00088624,0.10828805,0.09468118,
 -0.15562631,-0.00098136,-0.00046595,-0.00057607,0.00101162,0.00058179,
 -0.00074787,-0.00953752,-0.00477538,0.00992499,-0.11579288,-0.10813623
 ,0.15558553,0.00070752,0.00039945,0.00015762,-0.00024608,-0.00010456,-
 0.00015839,-0.00006698,-0.00047892,-0.00024372,-0.00007484,0.00016406,
 -0.00016289,-0.00008769,0.00032014,0.00016144,-0.00007948,0.00007379,-
 0.00000180,-0.00016932,-0.00008036,-0.00012387,-0.00001000,-0.00005288
 ,-0.00009984,0.00001594,-0.00002909,0.00000603,0.00001442,0.00007056,0
 .00007995,-0.00002367,0.00005135,0.00003532,-0.00002712,0.00002984,0.0
 0000994,-0.00000488,0.00001595,0.00000400,-0.00007239,0.00033064,-0.00
 000427,0.00004263,0.00001363,-0.00019597,-0.00018981,-0.00009975,0.000
 05622,-0.00000607,-0.00011995,-0.00004416,0.00001227,0.00000447,-0.000
 01536,0.00011347,0.00011045,-0.00005472,0.00000828,0.00004524,0.000024
 04,-0.00008253,-0.00001459,0.00015543,-0.00002512,-0.00001463,0.000018
 54,-0.00002636,-0.00003493,-0.00002516,-0.00001975,-0.00001625,0.00000
 162,-0.00564297,-0.01468184,0.02018693,0.00656577,0.02794271,-0.038867
 97,-0.05523917,-0.01290093,0.00429676,-0.17934274,0.04967116,-0.088164
 82,-0.00614713,-0.00083683,-0.00201678,-0.25915119,-0.10228104,0.10741
 360,-0.00511291,0.00013457,-0.00294448,0.83375700,0.00099400,-0.001756
 33,0.00032689,0.00001018,-0.00006137,-0.00076665,0.00089891,0.00055729
 ,-0.00016921,0.00015663,0.00002115,-0.00001144,-0.00002196,0.00020997,
 -0.00015697,-0.00026657,0.00018230,-0.00012998,-0.00024233,-0.00015122
 ,-0.00017577,-0.00004579,-0.00020681,-0.00010146,0.00000496,0.00001270
 ,-0.00000519,0.00014744,0.00001101,0.00017964,0.00000341,0.00001758,-0
 .00000665,-0.00001426,-0.00002590,0.00002011,-0.00001109,0.00000434,-0
 .00000838,-0.00002997,0.00027711,0.00036024,0.00011452,0.00020389,-0.0
 0014945,-0.00023802,-0.00017982,-0.00007949,-0.00004842,-0.00023369,-0
 .00003106,0.00002699,-0.00000764,-0.00001267,0.00015251,0.00018260,-0.
 00018047,0.00001061,-0.00004794,0.00004538,-0.00009147,0.00010797,0.00
 020337,0.00000257,-0.00000289,0.00000928,0.00001067,0.00000502,-0.0000
 0442,-0.00000267,-0.00000533,0.00000167,-0.01517215,-0.04337274,0.0479
 4750,0.06820033,0.02320590,-0.00305991,-0.05349020,0.02870876,-0.03765
 537,-0.00209607,-0.16656161,0.11536258,-0.00118189,0.00645730,0.003372
 83,-0.04992331,-0.16107314,0.09696853,0.00018410,0.00604071,0.00375055
 ,0.04973512,0.37107522,-0.00118267,0.00131539,-0.00115432,-0.00037379,
 0.00005798,0.00096781,-0.00093026,-0.00073557,0.00037619,-0.00041749,0
 .00007857,0.00007337,0.00009599,-0.00036717,0.00028448,0.00034247,-0.0
 0031855,0.00010778,0.00012564,0.00020391,0.00006603,0.00006241,0.00032
 985,0.00018603,0.00000147,-0.00001113,0.00000554,-0.00025384,0.0000329
 2,-0.00027656,-0.00002803,0.00001054,0.00004702,0.00001809,0.00003788,
 -0.00002642,0.00000540,0.00000588,0.00000405,-0.00006601,-0.00025965,-
 0.00051957,-0.00020928,-0.00033793,0.00023173,0.00036870,0.00016717,0.
 00010563,0.00007097,0.00033600,0.00003964,-0.00002196,0.00000001,0.000
 00272,-0.00020097,-0.00027585,0.00024537,-0.00003247,0.00003434,-0.000
 08398,0.00011560,-0.00015906,-0.00027656,-0.00000766,0.00000096,-0.000
 00761,-0.00000636,0.00000266,0.00000988,0.00000495,0.00000537,-0.00000
 720,0.02200380,0.04739608,-0.07027978,-0.09596989,-0.01288228,0.006483
 90,0.06119863,-0.02870155,0.06269476,-0.01559169,0.12547558,-0.2622144
 1,-0.00131495,0.00341159,0.00406202,0.03512483,0.08719475,-0.19714130,
 -0.00339010,0.00374331,0.00329585,0.06133126,-0.26337434,0.55401258,-0
 .00048868,-0.00095035,0.00110496,0.00004767,-0.00000995,-0.00004646,-0
 .00003364,-0.00022088,-0.00009493,0.00000298,0.00007428,0.00003023,-0.
 00003155,0.00011206,0.00003275,-0.00000480,0.00000721,-0.00002144,-0.0
 0001711,-0.00004564,-0.00002479,-0.00000094,0.00001721,-0.00002154,0.0
 0000214,-0.00001941,0.00001260,-0.00001333,0.00004245,0.00000088,-0.00
 000924,0.00001195,0.00002516,-0.00002136,0.00001150,0.00000154,-0.0000
 1410,0.00001008,0.00000658,-0.00035908,0.00030988,-0.00017439,-0.00003
 279,-0.00010926,-0.00000762,-0.00005869,-0.00006329,0.00003403,0.00002
 667,-0.00002514,0.00000817,-0.00000465,0.00000910,-0.00000675,0.000025
 95,0.00002650,0.00001604,0.00000479,0.00001731,0.00000135,-0.00003295,
 -0.00002647,0.00002376,-0.00001406,-0.00001064,0.00001532,-0.00000364,
 -0.00002173,-0.00000586,-0.00001022,-0.00001120,0.00000217,-0.00499073
 ,0.00051451,-0.00331853,-0.01654349,-0.01929956,0.02268124,-0.00027923
 ,0.00077081,-0.00095361,-0.20818360,-0.10095227,0.10976356,0.00119025,
 0.00095964,-0.00010537,0.00044546,0.00086849,-0.00282857,-0.00002437,0
 .00002749,0.00019298,0.01192875,0.00752322,-0.00922830,0.21608043,0.00
 017286,-0.00003365,-0.00000128,-0.00008019,0.00001941,-0.00004396,0.00
 003191,-0.00003607,-0.00002162,0.00000961,-0.00000241,0.00002254,0.000
 00903,0.00003254,0.00000102,-0.00000868,-0.00001752,0.00000009,0.00001
 243,0.00000316,-0.00002843,-0.00000896,0.00000343,-0.00000031,-0.00000
 021,-0.00000455,-0.00000520,-0.00000315,-0.00000801,-0.00000684,0.0000
 0542,-0.00000001,-0.00000355,-0.00000803,0.00000427,-0.00000290,-0.000
 00162,0.00000751,-0.00000120,0.00011660,0.00000755,-0.00008201,-0.0000
 2466,-0.00004152,-0.00000284,-0.00001379,0.00002683,0.00005293,0.00001
 285,0.00004163,-0.00000596,0.00001373,-0.00000565,0.00000079,-0.000029
 21,-0.00001945,0.00002115,0.00000166,0.00000921,0.00000071,0.00001763,
 -0.00002007,-0.00003461,-0.00000254,-0.00000041,0.00000235,-0.00000221
 ,-0.00001345,0.00000040,-0.00000233,-0.00000572,0.00000168,-0.00003649
 ,0.00628456,0.00379943,0.00371801,0.00600069,0.00017391,0.00063933,-0.
 00048004,-0.00048648,-0.10104492,-0.12901510,0.09246857,0.00017751,-0.
 00292765,-0.00311335,0.00122468,0.00421481,0.00646718,0.00008394,-0.00
 081354,-0.00059808,-0.01535753,-0.00314759,0.00902540,0.11005343,0.123
 11130,-0.00032373,-0.00031071,0.00021815,0.00003478,-0.00000799,-0.000
 04029,0.00011013,0.00003179,0.00002031,0.00000348,-0.00002878,-0.00001
 368,0.00000481,0.00000453,-0.00004490,-0.00000902,0.00000982,0.0000308
 9,0.00000501,0.00003825,-0.00000066,-0.00000544,-0.00001702,-0.0000061
 9,-0.00000523,0.00000198,-0.00000358,0.00001641,-0.00001958,0.00000988
 ,0.00000759,-0.00000552,-0.00001894,0.00000259,-0.00000528,0.00000195,
 0.00000828,-0.00000447,-0.00000264,0.00000541,-0.00000874,-0.00008316,
 -0.00000328,-0.00001745,0.00003699,0.00001860,0.00001431,0.00003060,0.
 00001087,0.00002438,0.00001417,-0.00000800,0.00000295,-0.00000327,-0.0
 0001645,-0.00003504,0.00001374,-0.00000846,-0.00000165,-0.00001780,0.0
 0001245,-0.00001866,-0.00002642,-0.00000146,0.00000227,-0.00000640,-0.
 00000328,0.00000012,0.00000195,0.00000075,0.00000431,-0.00000373,-0.00
 299703,0.00379152,0.00329984,-0.00954441,-0.00423287,0.00975504,-0.000
 93673,-0.00049470,-0.00044209,0.10999085,0.09250555,-0.15679227,0.0009
 2943,-0.00292158,-0.00090561,-0.00326075,0.00638828,-0.00093848,0.0001
 6899,-0.00057385,-0.00042468,0.02278113,0.01342605,-0.00886785,-0.1177
 9568,-0.10524360,0.15669762,0.00018811,0.00079758,-0.00116016,-0.00039
 747,0.00006182,-0.00015924,-0.00010202,-0.00018355,-0.00014618,-0.0000
 5819,0.00004833,0.00003415,-0.00005102,0.00010639,0.00005642,0.0000010
 3,-0.00000654,-0.00000119,0.00001477,-0.00000610,-0.00003859,-0.000004
 84,0.00001341,-0.00000808,0.00001718,-0.00000626,0.00001355,-0.0000136
 7,0.00002125,0.00000299,-0.00000143,0.00002032,0.00001056,-0.00000953,
 0.00001326,-0.00000124,-0.00000356,0.00000871,0.00000198,0.00021432,0.
 00020682,-0.00001484,-0.00000318,-0.00006843,0.00003868,-0.00000216,-0
 .00005447,0.00001160,0.00000774,-0.00000908,0.00002194,-0.00000940,0.0
 0002159,-0.00001530,0.00000689,-0.00000163,0.00001087,-0.00000807,0.00
 002082,0.00000920,-0.00001645,-0.00005552,0.00002314,-0.00002865,-0.00
 000461,0.00000580,-0.00000984,-0.00001161,-0.00000857,-0.00001480,-0.0
 0000651,-0.00000284,-0.00617157,-0.00105475,-0.00138966,-0.00115103,-0
 .00042863,0.00052406,-0.00382453,0.02042956,-0.03010605,-0.00299508,-0
 .00334973,0.00229330,0.00006493,0.00017268,0.00002140,-0.09640016,0.04
 286981,-0.06887069,0.00120578,0.00021683,0.00093340,0.01231052,-0.0150
 0444,0.02202373,0.00035020,-0.00063967,0.00100418,0.09577151,0.0000214
 7,-0.00004286,-0.00004217,0.00010941,-0.00002279,-0.00002717,-0.000028
 70,0.00009248,0.00008149,0.00008638,-0.00003957,0.00000450,0.00000184,
 -0.00006391,-0.00003351,0.00000578,0.00001773,0.00000748,-0.00001756,0
 .00002299,0.00005217,0.00000306,0.00000781,-0.00000049,-0.00001432,-0.
 00000183,-0.00000505,0.00000405,-0.00001434,-0.00000711,0.00000482,-0.
 00002320,-0.00001010,0.00000516,-0.00000494,-0.00000239,0.00000078,-0.
 00000735,0.00000097,-0.00004511,-0.00009863,0.00001990,0.00003946,0.00
 007307,-0.00000772,-0.00002459,-0.00000171,0.00000398,-0.00001275,-0.0
 0003403,-0.00000132,0.00000225,-0.00000708,0.00000244,0.00002418,-0.00
 000027,-0.00001749,-0.00000330,-0.00000478,-0.00002230,-0.00000758,0.0
 0001035,0.00001900,0.00001089,0.00000401,-0.00000851,-0.00000507,0.000
 00059,-0.00000382,0.00000131,0.00000584,-0.00000209,-0.00105971,0.0063
 2038,0.00305587,-0.00044817,-0.00044360,-0.00083233,-0.00254682,0.0044
 3885,0.00096428,-0.00361260,0.00473367,0.00512742,0.00015840,-0.000839
 94,-0.00054009,0.04284670,-0.14317935,0.13895442,0.00105659,-0.0027449
 3,-0.00289689,0.00815068,-0.00322007,0.01378545,0.00031392,-0.00047107
 ,0.00061890,-0.04519435,0.13836765,0.00043759,0.00019239,-0.00029393,-
 0.00009217,0.00002602,-0.00006465,-0.00011596,-0.00010658,-0.00003221,
 0.00000789,0.00003413,0.00004328,-0.00002409,0.00004067,0.00004703,-0.
 00000769,-0.00001914,-0.00001996,-0.00000005,-0.00000996,-0.00003665,-
 0.00000142,0.00002096,-0.00000189,0.00000605,-0.00000867,-0.00000059,-
 0.00001730,0.00001142,-0.00000761,0.00000447,0.00000927,0.00000611,-0.
 00000969,0.00001209,-0.00000640,-0.00000785,0.00001127,0.00000119,-0.0
 0001342,0.00011875,-0.00001650,0.00000938,-0.00001604,-0.00003749,-0.0
 0005061,-0.00005026,0.00001640,0.00000561,-0.00003505,-0.00000133,0.00
 000980,0.00000360,-0.00001108,0.00003618,0.00002255,0.00000235,-0.0000
 0078,0.00002758,-0.00000283,-0.00002342,-0.00002726,0.00004702,-0.0000
 1403,-0.00000409,0.00000611,-0.00001566,-0.00002002,-0.00001894,-0.000
 01674,-0.00000947,0.00000002,-0.00199878,0.00319343,0.00384184,0.00040
 920,-0.00089782,0.00036788,0.00182156,0.00541814,-0.00161528,0.0027518
 4,0.00517217,0.00233836,0.00002951,-0.00054371,-0.00051150,-0.06895291
 ,0.13872247,-0.25414995,0.00002736,-0.00296945,-0.00089805,-0.00992443
 ,0.00936271,-0.00925747,-0.00035488,0.00040399,-0.00072495,0.07510851,
 -0.15522525,0.26190514,0.00004550,0.00008565,0.00007148,-0.00002203,0.
 00001347,0.00000027,-0.00003722,-0.00009594,-0.00005132,-0.00000255,0.
 00004809,0.00004074,-0.00000668,0.00004756,0.00003971,-0.00000745,-0.0
 0002798,-0.00003805,-0.00000574,-0.00004885,-0.00004362,-0.00000042,0.
 00001594,0.00000443,0.00000872,-0.00000606,0.00000289,-0.00001713,0.00
 001776,-0.00000713,-0.00000157,0.00001415,0.00001657,-0.00001271,0.000
 00977,-0.00000410,-0.00001137,0.00001389,0.00000173,-0.00002777,0.0000
 9044,-0.00002166,-0.00003443,-0.00004991,-0.00005212,-0.00004329,0.000
 01040,0.00001264,0.00001879,0.00002291,-0.00002261,0.00002256,-0.00000
 740,0.00000217,-0.00000327,0.00002500,0.00001911,0.00001021,0.00001449
 ,0.00001536,-0.00000007,-0.00001873,0.00000239,-0.00001051,-0.00000469
 ,0.00001368,-0.00000155,-0.00001732,-0.00000801,-0.00001019,-0.0000145
 7,0.00000439,0.00088323,-0.00017428,0.00056276,0.00152764,0.00028740,-
 0.00179921,-0.00095630,-0.00334617,0.00269748,-0.00445356,-0.00276912,
 0.00201577,-0.00042985,-0.00004310,-0.00002603,-0.01679727,0.00444813,
 -0.01045168,-0.00097649,0.00014753,-0.00037966,-0.35362835,0.00970445,
 -0.07366823,0.00106695,0.00096355,-0.00019678,0.00112369,0.00017350,0.
 00097692,0.37279049,0.00025359,-0.00070880,-0.00051014,-0.00006570,0.0
 0006044,-0.00017425,0.00012694,0.00002166,0.00007426,0.00002684,-0.000
 01544,0.00001487,0.00001001,-0.00003794,-0.00002222,-0.00000884,0.0000
 0817,0.00000618,-0.00000547,0.00001258,0.00000898,0.00000110,-0.000005
 29,0.00000416,-0.00000476,-0.00000032,-0.00000407,0.00000418,-0.000007
 96,0.00000160,0.00000633,-0.00000739,-0.00000976,0.00000089,-0.0000032
 4,-0.00000151,0.00000194,-0.00000066,-0.00000116,0.00002408,0.00000885
 ,-0.00002000,-0.00002029,-0.00000702,-0.00000470,0.00001208,0.00001206
 ,0.00003171,0.00000263,0.00001635,-0.00000876,0.00000969,-0.00000810,-
 0.00000251,-0.00000047,-0.00000921,0.00000666,0.00000099,0.00000423,-0
 .00000925,0.00000831,-0.00000047,-0.00000762,0.00000324,-0.00000040,0.
 00000117,-0.00000562,-0.00000503,-0.00000493,-0.00000262,-0.00000184,-
 0.00000059,-0.00027404,-0.00108691,0.00013878,-0.00008965,0.00375506,0
 .00687713,-0.00290785,0.00412081,0.00617313,0.02018627,0.00469934,0.00
 441370,0.00087406,-0.00007335,0.00017676,-0.01881066,0.00611462,-0.004
 93131,-0.00080892,-0.00000867,-0.00026348,0.00984023,-0.05722672,0.014
 77147,0.00008476,-0.00270342,-0.00291750,0.00105670,-0.00282917,-0.002
 86085,-0.00952995,0.04591314,0.00010500,-0.00057718,-0.00029674,0.0000
 3717,0.00006476,-0.00003242,0.00007358,-0.00004228,0.00006369,-0.00001
 442,-0.00001029,0.00001435,0.00000970,-0.00003115,0.00000366,0.0000023
 2,-0.00000765,0.00000112,0.00000786,0.00002323,-0.00000777,0.00000557,
 0.00000008,0.00001223,0.00000574,0.00000136,-0.00000368,-0.00000226,0.
 00000057,-0.00000720,0.00000324,-0.00000141,0.00000002,-0.00000254,0.0
 0000104,-0.00000373,-0.00000168,0.00000410,0.00000083,0.00000772,0.000
 05788,0.00000972,-0.00000810,-0.00003479,0.00003940,0.00001409,-0.0000
 4328,0.00001034,-0.00001032,-0.00001600,0.00000949,-0.00000342,0.00000
 385,-0.00000887,0.00000594,-0.00000170,0.00000013,-0.00000185,0.000015
 14,-0.00000196,-0.00000925,0.00000073,0.00000405,-0.00000015,-0.000002
 19,0.00000119,-0.00000433,-0.00000509,-0.00000264,-0.00000186,-0.00000
 092,0.00000083,0.00047110,0.00017521,-0.00113714,-0.00125454,0.0069870
 4,-0.00136124,0.00215751,0.00604881,0.00108036,-0.03010567,0.00003586,
 -0.00083716,-0.00136809,-0.00001416,-0.00036590,0.02157000,-0.00055910
 ,0.01021239,0.00090489,-0.00009564,0.00022490,-0.07367122,0.01474153,-
 0.08318933,0.00103541,-0.00275991,-0.00076354,-0.00022682,-0.00301247,
 -0.00091348,0.08026974,-0.02094597,0.07724409||0.,0.,-0.00000006,0.,0.
 ,-0.00000448,-0.00000102,0.00000389,0.00000213,-0.00000025,-0.00000673
 ,-0.00000266,0.00000879,0.00000379,0.00000153,0.00000100,0.00000762,-0
 .00000462,-0.00000810,0.00000461,-0.00000171,-0.00000408,-0.00000370,0
 .00000477,0.00000110,-0.00000013,0.00000025,0.00000275,0.00000013,0.00
 000082,-0.00000155,-0.00000108,0.00000109,-0.00000080,0.00000217,0.000
 00049,-0.00000049,-0.00000032,-0.00000058,-0.00000286,-0.00000283,0.00
 000213,0.00000595,0.00000315,-0.00000266,-0.00000767,0.00000572,0.0000
 0153,-0.00000710,-0.00000294,-0.00000462,0.00000006,-0.00000931,-0.000
 00171,0.00000525,-0.00000168,0.00000477,-0.00000044,0.00000102,0.00000
 025,-0.00000148,0.00000231,0.00000082,0.00000171,-0.00000080,0.0000010
 9,-0.00000148,-0.00000178,0.00000049,0.00000052,-0.00000026,-0.0000005
 8,0.00000388,-0.00000106,0.00000213,-0.00000112,-0.00000951,0.00000153
 ,-0.00000570,0.00000358,-0.00000266,-0.00000117,0.00000538,0.00000477,
 -0.00000066,-0.00000089,0.00000025,0.00000610,-0.00000468,-0.00000462,
 0.00000804,0.00000471,-0.00000171,-0.00000126,-0.00000244,0.00000082,0
 .00000228,-0.00000039,0.00000049,-0.00000016,0.00000188,0.00000109,-0.
 00000003,0.00000058,-0.00000058|||@


 WE HAVE SEEN THAT MAN ON THE AVERAGE DOES NOT LIVE ABOVE
 TWO-AND-TWENTY YEARS.  DURING THESE TWO AND TWENTY
 YEARS HE IS LIABLE TO TWO AND TWENTY THOUSAND EVILS,
 MANY OF WHICH ARE INCURABLE.  YET EVEN IN THIS DREADFUL STATE
 MEN STILL STRUT AND POSE ON THE STAGE OF LIFE.
 THEY MAKE LOVE AT THE RISK OF DESTRUCTION,
 INTRIGUE, CARRY ON WAR, AND FORM PROJECTS, JUST AS IF THEY
 WERE TO LIVE IN LUXURY AND HAPPINESS FOR A THOUSAND
 AGES.

                                              -- VOLTAIRE
 Job cpu time:  0 days  0 hours  3 minutes 22.0 seconds.
 File lengths (MBytes):  RWF=    178 Int=      0 D2E=      0 Chk=      7 Scr=      1
 Normal termination of Gaussian 09 at Mon Sep 06 18:01:09 2021.
