 Entering Link 1 = b:\programy\g09w\l1.exe PID=      8952.
  
 Copyright (c) 1988,1990,1992,1993,1995,1998,2003,2009, Gaussian, Inc.
                  All Rights Reserved.
  
 This is part of the Gaussian(R) 09 program.  It is based on
 the Gaussian(R) 03 system (copyright 2003, Gaussian, Inc.),
 the Gaussian(R) 98 system (copyright 1998, Gaussian, Inc.),
 the Gaussian(R) 94 system (copyright 1995, Gaussian, Inc.),
 the Gaussian 92(TM) system (copyright 1992, Gaussian, Inc.),
 the Gaussian 90(TM) system (copyright 1990, Gaussian, Inc.),
 the Gaussian 88(TM) system (copyright 1988, Gaussian, Inc.),
 the Gaussian 86(TM) system (copyright 1986, Carnegie Mellon
 University), and the Gaussian 82(TM) system (copyright 1983,
 Carnegie Mellon University). Gaussian is a federally registered
 trademark of Gaussian, Inc.
  
 This software contains proprietary and confidential information,
 including trade secrets, belonging to Gaussian, Inc.
  
 This software is provided under written license and may be
 used, copied, transmitted, or stored only in accord with that
 written license.
  
 The following legend is applicable only to US Government
 contracts under FAR:
  
                    RESTRICTED RIGHTS LEGEND
  
 Use, reproduction and disclosure by the US Government is
 subject to restrictions as set forth in subparagraphs (a)
 and (c) of the Commercial Computer Software - Restricted
 Rights clause in FAR 52.227-19.
  
 Gaussian, Inc.
 340 Quinnipiac St., Bldg. 40, Wallingford CT 06492
  
  
 ---------------------------------------------------------------
 Warning -- This program may not be used in any manner that
 competes with the business of Gaussian, Inc. or will provide
 assistance to any competitor of Gaussian, Inc.  The licensee
 of this program is prohibited from giving any competitor of
 Gaussian, Inc. access to this program.  By using this program,
 the user acknowledges that Gaussian, Inc. is engaged in the
 business of creating and licensing software in the field of
 computational chemistry and represents and warrants to the
 licensee that it is not a competitor of Gaussian, Inc. and that
 it will not use this program in any manner prohibited above.
 ---------------------------------------------------------------
  

 Cite this work as:
 Gaussian 09, Revision A.02,
 M. J. Frisch, G. W. Trucks, H. B. Schlegel, G. E. Scuseria, 
 M. A. Robb, J. R. Cheeseman, G. Scalmani, V. Barone, B. Mennucci, 
 G. A. Petersson, H. Nakatsuji, M. Caricato, X. Li, H. P. Hratchian, 
 A. F. Izmaylov, J. Bloino, G. Zheng, J. L. Sonnenberg, M. Hada, 
 M. Ehara, K. Toyota, R. Fukuda, J. Hasegawa, M. Ishida, T. Nakajima, 
 Y. Honda, O. Kitao, H. Nakai, T. Vreven, J. A. Montgomery, Jr., 
 J. E. Peralta, F. Ogliaro, M. Bearpark, J. J. Heyd, E. Brothers, 
 K. N. Kudin, V. N. Staroverov, R. Kobayashi, J. Normand, 
 K. Raghavachari, A. Rendell, J. C. Burant, S. S. Iyengar, J. Tomasi, 
 M. Cossi, N. Rega, J. M. Millam, M. Klene, J. E. Knox, J. B. Cross, 
 V. Bakken, C. Adamo, J. Jaramillo, R. Gomperts, R. E. Stratmann, 
 O. Yazyev, A. J. Austin, R. Cammi, C. Pomelli, J. W. Ochterski, 
 R. L. Martin, K. Morokuma, V. G. Zakrzewski, G. A. Voth, 
 P. Salvador, J. J. Dannenberg, S. Dapprich, A. D. Daniels, 
 O. Farkas, J. B. Foresman, J. V. Ortiz, J. Cioslowski, 
 and D. J. Fox, Gaussian, Inc., Wallingford CT, 2009.
 
 ******************************************
 Gaussian 09:  IA32W-G09RevA.02 11-Jun-2009
                06-Sep-2021 
 ******************************************
 %nprocshared=12
 Will use up to   12 processors via shared memory.
 ----------------------------------------------
 # opt freq=noraman hf/6-311g geom=connectivity
 ----------------------------------------------
 1/18=20,19=15,38=1,57=2/1,3;
 2/9=110,12=2,17=6,18=5,40=1/2;
 3/5=4,6=6,11=9,16=1,25=1,30=1,71=1/1,2,3;
 4//1;
 5/5=2,38=5/2;
 6/7=2,8=2,9=2,10=2,28=1/1;
 7//1,2,3,16;
 1/18=20,19=15/3(2);
 2/9=110/2;
 99//99;
 2/9=110/2;
 3/5=4,6=6,11=9,16=1,25=1,30=1,71=1/1,2,3;
 4/5=5,16=3/1;
 5/5=2,38=5/2;
 7//1,2,3,16;
 1/18=20,19=15/3(-5);
 2/9=110/2;
 6/7=2,8=2,9=2,10=2,19=2,28=1/1;
 99/9=1/99;
 -----
 M0001
 -----
 Symbolic Z-matrix:
 Charge =  0 Multiplicity = 1
 C                    -0.19978  -0.73274   0.11622 
 H                    -0.45051  -1.80618   0.33567 
 C                    -0.16895  -0.0196    1.44681 
 C                     0.21644  -0.7444    2.57922 
 C                    -0.501     1.32756   1.58615 
 C                     0.26879  -0.13028   3.82416 
 H                     0.48331  -1.80362   2.4858 
 C                    -0.45057   1.93985   2.83411 
 H                    -0.8131    1.90756   0.70832 
 C                    -0.06522   1.21389   3.95477 
 H                     0.57342  -0.70647   4.70393 
 H                    -0.7167    2.99738   2.93119 
 H                    -0.02536   1.69677   4.9363 
 C                     1.17009  -0.71985  -0.51682 
 C                     1.84595   0.47113  -0.78729 
 C                     1.78807  -1.93511  -0.82148 
 C                     3.11974   0.44955  -1.3424 
 H                     1.34548   1.4279   -0.57384 
 C                     3.06095  -1.95526  -1.38039 
 H                     1.26951  -2.87976  -0.61905 
 C                     3.73061  -0.76419  -1.63841 
 H                     3.64087   1.39039  -1.54677 
 H                     3.5368   -2.91268  -1.61624 
 H                     4.73445  -0.78186  -2.07453 
 C                    -1.283    -0.22367  -0.80195 
 C                    -1.13512   0.92631  -1.57921 
 C                    -2.48448  -0.93566  -0.87026 
 C                    -2.16399   1.35391  -2.41063 
 H                    -0.1906    1.49237  -1.5364 
 C                    -3.51316  -0.50518  -1.69958 
 H                    -2.62009  -1.84028  -0.26559 
 C                    -3.35523   0.64014  -2.47253 
 H                    -2.03286   2.25536  -3.01796 
 H                    -4.44963  -1.07068  -1.74422 
 H                    -4.16514   0.97741  -3.12711 
 

 GradGradGradGradGradGradGradGradGradGradGradGradGradGradGradGradGradGrad
 Berny optimization.
 Initialization pass.
                           ----------------------------
                           !    Initial Parameters    !
                           ! (Angstroms and Degrees)  !
 --------------------------                            --------------------------
 ! Name  Definition              Value          Derivative Info.                !
 --------------------------------------------------------------------------------
 ! R1    R(1,2)                  1.124          estimate D2E/DX2                !
 ! R2    R(1,3)                  1.51           estimate D2E/DX2                !
 ! R3    R(1,14)                 1.5091         estimate D2E/DX2                !
 ! R4    R(1,25)                 1.5085         estimate D2E/DX2                !
 ! R5    R(3,4)                  1.3986         estimate D2E/DX2                !
 ! R6    R(3,5)                  1.3945         estimate D2E/DX2                !
 ! R7    R(4,6)                  1.3892         estimate D2E/DX2                !
 ! R8    R(4,7)                  1.0963         estimate D2E/DX2                !
 ! R9    R(5,8)                  1.391          estimate D2E/DX2                !
 ! R10   R(5,9)                  1.0974         estimate D2E/DX2                !
 ! R11   R(6,10)                 1.3912         estimate D2E/DX2                !
 ! R12   R(6,11)                 1.0949         estimate D2E/DX2                !
 ! R13   R(8,10)                 1.3897         estimate D2E/DX2                !
 ! R14   R(8,12)                 1.0948         estimate D2E/DX2                !
 ! R15   R(10,13)                1.0946         estimate D2E/DX2                !
 ! R16   R(14,15)                1.3958         estimate D2E/DX2                !
 ! R17   R(14,16)                1.397          estimate D2E/DX2                !
 ! R18   R(15,17)                1.3897         estimate D2E/DX2                !
 ! R19   R(15,18)                1.1007         estimate D2E/DX2                !
 ! R20   R(16,19)                1.3903         estimate D2E/DX2                !
 ! R21   R(16,20)                1.0965         estimate D2E/DX2                !
 ! R22   R(17,21)                1.3907         estimate D2E/DX2                !
 ! R23   R(17,22)                1.0948         estimate D2E/DX2                !
 ! R24   R(19,21)                1.3906         estimate D2E/DX2                !
 ! R25   R(19,23)                1.0949         estimate D2E/DX2                !
 ! R26   R(21,24)                1.0946         estimate D2E/DX2                !
 ! R27   R(25,26)                1.3959         estimate D2E/DX2                !
 ! R28   R(25,27)                1.3983         estimate D2E/DX2                !
 ! R29   R(26,28)                1.3902         estimate D2E/DX2                !
 ! R30   R(26,29)                1.102          estimate D2E/DX2                !
 ! R31   R(27,30)                1.3897         estimate D2E/DX2                !
 ! R32   R(27,31)                1.0965         estimate D2E/DX2                !
 ! R33   R(28,32)                1.3901         estimate D2E/DX2                !
 ! R34   R(28,33)                1.0948         estimate D2E/DX2                !
 ! R35   R(30,32)                1.3907         estimate D2E/DX2                !
 ! R36   R(30,34)                1.0949         estimate D2E/DX2                !
 ! R37   R(32,35)                1.0946         estimate D2E/DX2                !
 ! A1    A(2,1,3)              106.4731         estimate D2E/DX2                !
 ! A2    A(2,1,14)             107.0111         estimate D2E/DX2                !
 ! A3    A(2,1,25)             106.3165         estimate D2E/DX2                !
 ! A4    A(3,1,14)             110.3088         estimate D2E/DX2                !
 ! A5    A(3,1,25)             113.0565         estimate D2E/DX2                !
 ! A6    A(14,1,25)            113.1797         estimate D2E/DX2                !
 ! A7    A(1,3,4)              118.3165         estimate D2E/DX2                !
 ! A8    A(1,3,5)              122.6471         estimate D2E/DX2                !
 ! A9    A(4,3,5)              119.0354         estimate D2E/DX2                !
 ! A10   A(3,4,6)              120.4562         estimate D2E/DX2                !
 ! A11   A(3,4,7)              119.9185         estimate D2E/DX2                !
 ! A12   A(6,4,7)              119.6249         estimate D2E/DX2                !
 ! A13   A(3,5,8)              120.4159         estimate D2E/DX2                !
 ! A14   A(3,5,9)              119.8917         estimate D2E/DX2                !
 ! A15   A(8,5,9)              119.6901         estimate D2E/DX2                !
 ! A16   A(4,6,10)             120.1473         estimate D2E/DX2                !
 ! A17   A(4,6,11)             119.8634         estimate D2E/DX2                !
 ! A18   A(10,6,11)            119.9893         estimate D2E/DX2                !
 ! A19   A(5,8,10)             120.2364         estimate D2E/DX2                !
 ! A20   A(5,8,12)             119.7312         estimate D2E/DX2                !
 ! A21   A(10,8,12)            120.0323         estimate D2E/DX2                !
 ! A22   A(6,10,8)             119.7087         estimate D2E/DX2                !
 ! A23   A(6,10,13)            120.1108         estimate D2E/DX2                !
 ! A24   A(8,10,13)            120.1805         estimate D2E/DX2                !
 ! A25   A(1,14,15)            121.8763         estimate D2E/DX2                !
 ! A26   A(1,14,16)            119.0513         estimate D2E/DX2                !
 ! A27   A(15,14,16)           119.0646         estimate D2E/DX2                !
 ! A28   A(14,15,17)           120.5293         estimate D2E/DX2                !
 ! A29   A(14,15,18)           118.9442         estimate D2E/DX2                !
 ! A30   A(17,15,18)           120.5138         estimate D2E/DX2                !
 ! A31   A(14,16,19)           120.3494         estimate D2E/DX2                !
 ! A32   A(14,16,20)           119.9996         estimate D2E/DX2                !
 ! A33   A(19,16,20)           119.6511         estimate D2E/DX2                !
 ! A34   A(15,17,21)           120.0802         estimate D2E/DX2                !
 ! A35   A(15,17,22)           119.8386         estimate D2E/DX2                !
 ! A36   A(21,17,22)           120.0811         estimate D2E/DX2                !
 ! A37   A(16,19,21)           120.2032         estimate D2E/DX2                !
 ! A38   A(16,19,23)           119.8134         estimate D2E/DX2                !
 ! A39   A(21,19,23)           119.9833         estimate D2E/DX2                !
 ! A40   A(17,21,19)           119.7712         estimate D2E/DX2                !
 ! A41   A(17,21,24)           120.1143         estimate D2E/DX2                !
 ! A42   A(19,21,24)           120.1144         estimate D2E/DX2                !
 ! A43   A(1,25,26)            122.7426         estimate D2E/DX2                !
 ! A44   A(1,25,27)            118.3547         estimate D2E/DX2                !
 ! A45   A(26,25,27)           118.9024         estimate D2E/DX2                !
 ! A46   A(25,26,28)           120.5309         estimate D2E/DX2                !
 ! A47   A(25,26,29)           119.4958         estimate D2E/DX2                !
 ! A48   A(28,26,29)           119.9716         estimate D2E/DX2                !
 ! A49   A(25,27,30)           120.4956         estimate D2E/DX2                !
 ! A50   A(25,27,31)           119.9604         estimate D2E/DX2                !
 ! A51   A(30,27,31)           119.544          estimate D2E/DX2                !
 ! A52   A(26,28,32)           120.1931         estimate D2E/DX2                !
 ! A53   A(26,28,33)           119.7594         estimate D2E/DX2                !
 ! A54   A(32,28,33)           120.0474         estimate D2E/DX2                !
 ! A55   A(27,30,32)           120.1795         estimate D2E/DX2                !
 ! A56   A(27,30,34)           119.832          estimate D2E/DX2                !
 ! A57   A(32,30,34)           119.9885         estimate D2E/DX2                !
 ! A58   A(28,32,30)           119.6981         estimate D2E/DX2                !
 ! A59   A(28,32,35)           120.1643         estimate D2E/DX2                !
 ! A60   A(30,32,35)           120.1375         estimate D2E/DX2                !
 ! D1    D(2,1,3,4)             30.6807         estimate D2E/DX2                !
 ! D2    D(2,1,3,5)           -149.6863         estimate D2E/DX2                !
 ! D3    D(14,1,3,4)           -85.0878         estimate D2E/DX2                !
 ! D4    D(14,1,3,5)            94.5451         estimate D2E/DX2                !
 ! D5    D(25,1,3,4)           147.057          estimate D2E/DX2                !
 ! D6    D(25,1,3,5)           -33.31           estimate D2E/DX2                !
 ! D7    D(2,1,14,15)         -173.1441         estimate D2E/DX2                !
 ! D8    D(2,1,14,16)            5.8308         estimate D2E/DX2                !
 ! D9    D(3,1,14,15)          -57.7134         estimate D2E/DX2                !
 ! D10   D(3,1,14,16)          121.2615         estimate D2E/DX2                !
 ! D11   D(25,1,14,15)          70.074          estimate D2E/DX2                !
 ! D12   D(25,1,14,16)        -110.9511         estimate D2E/DX2                !
 ! D13   D(2,1,25,26)         -161.8814         estimate D2E/DX2                !
 ! D14   D(2,1,25,27)           18.2981         estimate D2E/DX2                !
 ! D15   D(3,1,25,26)           81.6495         estimate D2E/DX2                !
 ! D16   D(3,1,25,27)          -98.1709         estimate D2E/DX2                !
 ! D17   D(14,1,25,26)         -44.6912         estimate D2E/DX2                !
 ! D18   D(14,1,25,27)         135.4883         estimate D2E/DX2                !
 ! D19   D(1,3,4,6)            179.5816         estimate D2E/DX2                !
 ! D20   D(1,3,4,7)             -0.1799         estimate D2E/DX2                !
 ! D21   D(5,3,4,6)             -0.0649         estimate D2E/DX2                !
 ! D22   D(5,3,4,7)           -179.8264         estimate D2E/DX2                !
 ! D23   D(1,3,5,8)           -179.6987         estimate D2E/DX2                !
 ! D24   D(1,3,5,9)              0.8611         estimate D2E/DX2                !
 ! D25   D(4,3,5,8)             -0.0683         estimate D2E/DX2                !
 ! D26   D(4,3,5,9)           -179.5085         estimate D2E/DX2                !
 ! D27   D(3,4,6,10)             0.1224         estimate D2E/DX2                !
 ! D28   D(3,4,6,11)          -179.8976         estimate D2E/DX2                !
 ! D29   D(7,4,6,10)           179.8845         estimate D2E/DX2                !
 ! D30   D(7,4,6,11)            -0.1355         estimate D2E/DX2                !
 ! D31   D(3,5,8,10)             0.1449         estimate D2E/DX2                !
 ! D32   D(3,5,8,12)          -179.8064         estimate D2E/DX2                !
 ! D33   D(9,5,8,10)           179.5862         estimate D2E/DX2                !
 ! D34   D(9,5,8,12)            -0.3651         estimate D2E/DX2                !
 ! D35   D(4,6,10,8)            -0.0459         estimate D2E/DX2                !
 ! D36   D(4,6,10,13)          179.8988         estimate D2E/DX2                !
 ! D37   D(11,6,10,8)          179.9741         estimate D2E/DX2                !
 ! D38   D(11,6,10,13)          -0.0812         estimate D2E/DX2                !
 ! D39   D(5,8,10,6)            -0.0871         estimate D2E/DX2                !
 ! D40   D(5,8,10,13)          179.9681         estimate D2E/DX2                !
 ! D41   D(12,8,10,6)          179.864          estimate D2E/DX2                !
 ! D42   D(12,8,10,13)          -0.0807         estimate D2E/DX2                !
 ! D43   D(1,14,15,17)         178.4921         estimate D2E/DX2                !
 ! D44   D(1,14,15,18)          -2.7973         estimate D2E/DX2                !
 ! D45   D(16,14,15,17)         -0.4827         estimate D2E/DX2                !
 ! D46   D(16,14,15,18)        178.228          estimate D2E/DX2                !
 ! D47   D(1,14,16,19)        -178.7075         estimate D2E/DX2                !
 ! D48   D(1,14,16,20)           1.2342         estimate D2E/DX2                !
 ! D49   D(15,14,16,19)          0.2966         estimate D2E/DX2                !
 ! D50   D(15,14,16,20)       -179.7618         estimate D2E/DX2                !
 ! D51   D(14,15,17,21)          0.2491         estimate D2E/DX2                !
 ! D52   D(14,15,17,22)       -179.7942         estimate D2E/DX2                !
 ! D53   D(18,15,17,21)       -178.4413         estimate D2E/DX2                !
 ! D54   D(18,15,17,22)          1.5155         estimate D2E/DX2                !
 ! D55   D(14,16,19,21)          0.1232         estimate D2E/DX2                !
 ! D56   D(14,16,19,23)       -179.9629         estimate D2E/DX2                !
 ! D57   D(20,16,19,21)       -179.8187         estimate D2E/DX2                !
 ! D58   D(20,16,19,23)          0.0952         estimate D2E/DX2                !
 ! D59   D(15,17,21,19)          0.1757         estimate D2E/DX2                !
 ! D60   D(15,17,21,24)       -179.9244         estimate D2E/DX2                !
 ! D61   D(22,17,21,19)       -179.7809         estimate D2E/DX2                !
 ! D62   D(22,17,21,24)          0.1189         estimate D2E/DX2                !
 ! D63   D(16,19,21,17)         -0.361          estimate D2E/DX2                !
 ! D64   D(16,19,21,24)        179.7391         estimate D2E/DX2                !
 ! D65   D(23,19,21,17)        179.7252         estimate D2E/DX2                !
 ! D66   D(23,19,21,24)         -0.1747         estimate D2E/DX2                !
 ! D67   D(1,25,26,28)         179.9745         estimate D2E/DX2                !
 ! D68   D(1,25,26,29)           0.457          estimate D2E/DX2                !
 ! D69   D(27,25,26,28)         -0.2059         estimate D2E/DX2                !
 ! D70   D(27,25,26,29)       -179.7235         estimate D2E/DX2                !
 ! D71   D(1,25,27,30)         179.886          estimate D2E/DX2                !
 ! D72   D(1,25,27,31)          -0.0472         estimate D2E/DX2                !
 ! D73   D(26,25,27,30)          0.0585         estimate D2E/DX2                !
 ! D74   D(26,25,27,31)       -179.8747         estimate D2E/DX2                !
 ! D75   D(25,26,28,32)          0.209          estimate D2E/DX2                !
 ! D76   D(25,26,28,33)       -179.746          estimate D2E/DX2                !
 ! D77   D(29,26,28,32)        179.7243         estimate D2E/DX2                !
 ! D78   D(29,26,28,33)         -0.2307         estimate D2E/DX2                !
 ! D79   D(25,27,30,32)          0.0867         estimate D2E/DX2                !
 ! D80   D(25,27,30,34)       -179.9647         estimate D2E/DX2                !
 ! D81   D(31,27,30,32)       -179.9798         estimate D2E/DX2                !
 ! D82   D(31,27,30,34)         -0.0313         estimate D2E/DX2                !
 ! D83   D(26,28,32,30)         -0.0614         estimate D2E/DX2                !
 ! D84   D(26,28,32,35)        179.982          estimate D2E/DX2                !
 ! D85   D(33,28,32,30)        179.8935         estimate D2E/DX2                !
 ! D86   D(33,28,32,35)         -0.0632         estimate D2E/DX2                !
 ! D87   D(27,30,32,28)         -0.0856         estimate D2E/DX2                !
 ! D88   D(27,30,32,35)        179.871          estimate D2E/DX2                !
 ! D89   D(34,30,32,28)        179.9659         estimate D2E/DX2                !
 ! D90   D(34,30,32,35)         -0.0774         estimate D2E/DX2                !
 --------------------------------------------------------------------------------
 Trust Radius=3.00D-01 FncErr=1.00D-07 GrdErr=1.00D-07
 Number of steps in this run= 197 maximum allowed number of steps= 210.
 GradGradGradGradGradGradGradGradGradGradGradGradGradGradGradGradGradGrad

                          Input orientation:                          
 ---------------------------------------------------------------------
 Center     Atomic      Atomic             Coordinates (Angstroms)
 Number     Number       Type             X           Y           Z
 ---------------------------------------------------------------------
      1          6           0       -0.199776   -0.732740    0.116222
      2          1           0       -0.450514   -1.806184    0.335668
      3          6           0       -0.168945   -0.019600    1.446811
      4          6           0        0.216444   -0.744402    2.579218
      5          6           0       -0.500998    1.327562    1.586153
      6          6           0        0.268791   -0.130278    3.824165
      7          1           0        0.483306   -1.803618    2.485799
      8          6           0       -0.450574    1.939854    2.834113
      9          1           0       -0.813096    1.907558    0.708324
     10          6           0       -0.065220    1.213886    3.954768
     11          1           0        0.573425   -0.706472    4.703927
     12          1           0       -0.716697    2.997385    2.931185
     13          1           0       -0.025359    1.696769    4.936298
     14          6           0        1.170093   -0.719847   -0.516824
     15          6           0        1.845950    0.471126   -0.787286
     16          6           0        1.788070   -1.935109   -0.821476
     17          6           0        3.119742    0.449551   -1.342397
     18          1           0        1.345483    1.427899   -0.573843
     19          6           0        3.060953   -1.955260   -1.380387
     20          1           0        1.269505   -2.879761   -0.619048
     21          6           0        3.730607   -0.764191   -1.638406
     22          1           0        3.640874    1.390385   -1.546769
     23          1           0        3.536798   -2.912679   -1.616241
     24          1           0        4.734448   -0.781865   -2.074527
     25          6           0       -1.283000   -0.223672   -0.801945
     26          6           0       -1.135115    0.926305   -1.579213
     27          6           0       -2.484485   -0.935655   -0.870263
     28          6           0       -2.163994    1.353905   -2.410632
     29          1           0       -0.190596    1.492369   -1.536402
     30          6           0       -3.513162   -0.505179   -1.699585
     31          1           0       -2.620093   -1.840279   -0.265592
     32          6           0       -3.355229    0.640142   -2.472526
     33          1           0       -2.032859    2.255357   -3.017960
     34          1           0       -4.449631   -1.070678   -1.744223
     35          1           0       -4.165145    0.977414   -3.127106
 ---------------------------------------------------------------------
                    Distance matrix (angstroms):
                    1          2          3          4          5
     1  C    0.000000
     2  H    1.123970   0.000000
     3  C    1.509963   2.122688   0.000000
     4  C    2.497944   2.570161   1.398645   0.000000
     5  C    2.548779   3.374407   1.394460   2.407059   0.000000
     6  C    3.785678   3.936454   2.419850   1.389166   2.779671
     7  H    2.688546   2.344161   2.165098   1.096303   3.403308
     8  C    3.820024   4.502779   2.417308   2.777609   1.390988
     9  H    2.774512   3.749962   2.161997   3.404862   1.097444
    10  C    4.306030   4.729392   2.796800   2.409640   2.411050
    11  H    4.652479   4.619469   3.410529   2.154823   3.874557
    12  H    4.701601   5.466428   3.406698   3.872415   2.154982
    13  H    5.400561   5.798036   3.891408   3.402001   3.403824
    14  C    1.509124   2.129140   2.477747   3.239680   3.377416
    15  C    2.539806   3.423582   3.048247   3.932702   3.445992
    16  C    2.505294   2.523264   3.555870   3.930968   4.656343
    17  C    3.813736   4.544334   4.337655   5.023318   4.738888
    18  H    2.744517   3.809476   2.910634   3.991918   2.843439
    19  C    3.790349   3.911198   4.708723   5.023533   5.680209
    20  H    2.703537   2.241097   3.810175   3.987180   5.069434
    21  C    4.304372   4.739672   5.027871   5.489816   5.716615
    22  H    4.692951   5.522779   5.046217   5.771291   5.193674
    23  H    4.659994   4.575253   5.611126   5.773045   6.673737
    24  H    5.398922   5.808795   6.084746   6.486224   6.727566
    25  C    1.508495   2.119326   2.517870   3.735205   2.953111
    26  C    2.549860   3.406163   3.314369   4.680867   3.253099
    27  C    2.496842   2.519747   3.401428   4.385261   3.884630
    28  C    3.820632   4.523753   4.554844   5.913373   4.329034
    29  H    2.771706   3.801665   3.344559   4.701824   3.142270
    30  C    3.785164   3.900601   4.617292   5.681140   4.819559
    31  H    2.688933   2.251610   3.500760   4.164112   4.237303
    32  C    4.306194   4.723117   5.094003   6.339868   5.009197
    33  H    4.702341   5.499705   5.346381   6.736937   4.940168
    34  H    4.651529   4.567258   5.441666   6.369525   5.695144
    35  H    5.400736   5.791175   6.155028   7.397642   5.980250
                    6          7          8          9         10
     6  C    0.000000
     7  H    2.153440   0.000000
     8  C    2.404814   3.873891   0.000000
     9  H    3.877076   4.314267   2.156720   0.000000
    10  C    1.391185   3.400599   1.389746   3.402924   0.000000
    11  H    1.094889   2.476275   3.398208   4.971965   2.157981
    12  H    3.398657   4.968702   1.094814   2.477524   2.157084
    13  H    2.159042   4.303067   2.158490   4.305894   1.094608
    14  C    4.472597   3.265269   4.574860   3.512447   5.025978
    15  C    4.910662   4.212404   4.532738   3.372050   5.166367
    16  C    5.210336   3.557776   5.778424   4.885943   6.013598
    17  C    5.929375   5.165525   5.693100   4.668882   6.228013
    18  H    4.788492   4.532931   3.886140   2.556070   4.748074
    19  C    6.181755   4.649157   6.727908   5.855966   6.948405
    20  H    5.320078   3.378798   6.173466   5.386796   6.281658
    21  C    6.498130   5.351116   6.693098   5.769803   7.043059
    22  H    6.521525   6.036017   6.019467   5.019040   6.635751
    23  H    6.929621   5.232644   7.697523   6.896367   7.812760
    24  H    7.427060   6.317655   7.641135   6.764060   7.960668
    25  C    4.880335   4.052818   4.312156   2.654028   5.116237
    26  C    5.681884   5.157140   4.579663   2.509856   5.643786
    27  C    5.501528   4.563364   5.111531   3.656411   5.809844
    28  C    6.855212   6.399467   5.548557   3.443740   6.703937
    29  H    5.619581   5.243641   4.401049   2.366154   5.499656
    30  C    6.704889   5.930864   5.992666   4.348527   6.842163
    31  H    5.291112   4.147600   5.348306   4.273176   5.802304
    32  C    7.305845   6.729881   6.187623   4.264574   7.243165
    33  H    7.602863   7.286819   6.070414   3.936240   7.319508
    34  H    7.358994   6.539431   6.783577   5.301817   7.544586
    35  H    8.319070   7.800445   7.089461   5.178023   8.186467
                   11         12         13         14         15
    11  H    0.000000
    12  H    4.304135   0.000000
    13  H    2.487590   2.487976   0.000000
    14  C    5.254753   5.409857   6.083229   0.000000
    15  C    5.758427   5.174570   6.145194   1.395832   0.000000
    16  C    5.789213   6.684745   7.044929   1.396986   2.407173
    17  C    6.661693   6.282772   7.132266   2.418717   1.389661
    18  H    5.745126   4.359025   5.684466   2.155649   1.100655
    19  C    6.690751   7.575552   7.922320   2.418127   2.777651
    20  H    5.791526   7.147727   7.313219   2.164616   3.404267
    21  C    7.084936   7.403319   7.961805   2.795737   2.408805
    22  H    7.271675   6.451585   7.454213   3.408610   2.154902
    23  H    7.320755   8.584880   8.767653   3.408596   3.872501
    24  H    7.954070   8.309926   8.828989   3.890361   3.401528
    25  C    5.830441   4.963081   6.180387   2.518958   3.205198
    26  C    6.712891   4.980777   6.654100   3.025305   3.117866
    27  C    6.361991   5.748468   6.833235   3.677966   4.553964
    28  C    7.896553   5.773275   7.659549   4.359253   4.415224
    29  H    6.660355   4.743542   6.478034   2.790145   2.398257
    30  C    7.599058   6.444548   7.813340   4.835068   5.523183
    31  H    6.014997   6.102892   6.804631   3.960302   5.055719
    32  C    8.291511   6.458989   8.191164   5.113988   5.469997
    33  H    8.671372   6.138015   8.222670   5.036509   4.817111
    34  H    8.181831   7.234872   8.477163   5.762888   6.551887
    35  H    9.306696   7.257752   9.092512   6.177299   6.470267
                   16         17         18         19         20
    16  C    0.000000
    17  C    2.780524   0.000000
    18  H    3.401033   2.166987   0.000000
    19  C    1.390331   2.405829   3.878029   0.000000
    20  H    1.096473   3.876974   4.308567   2.154907   0.000000
    21  C    2.410783   1.390664   3.409893   1.390559   3.401727
    22  H    3.875286   1.094768   2.493353   3.399608   4.971741
    23  H    2.155306   3.399047   4.972834   1.094855   2.477114
    24  H    3.403124   2.158628   4.315112   2.158534   4.304116
    25  C    3.515803   4.486587   3.112658   4.711998   3.688299
    26  C    4.160152   4.288029   2.723184   5.094108   4.603287
    27  C    4.388167   5.792156   4.510312   5.661422   4.234985
    28  C    5.381620   5.465972   3.961779   6.269932   5.737823
    29  H    4.021671   3.476126   1.813895   4.741630   4.699889
    30  C    5.560471   6.710776   5.348880   6.739705   5.447946
    31  H    4.444086   6.272841   5.147990   5.790533   4.041587
    32  C    5.984263   6.575620   5.130522   7.006873   6.100267
    33  H    6.081451   5.711195   4.251070   6.808661   6.559712
    34  H    6.364559   7.730975   6.418413   7.571243   6.103058
    35  H    7.017085   7.518870   6.090083   7.991751   7.120644
                   21         22         23         24         25
    21  C    0.000000
    22  H    2.158390   0.000000
    23  H    2.157326   4.304884   0.000000
    24  H    1.094628   2.488595   2.486918   0.000000
    25  C    5.111564   5.234929   5.578915   6.175818   0.000000
    26  C    5.151363   4.798594   6.046978   6.133103   1.395873
    27  C    6.264728   6.586968   6.381297   7.320307   1.398268
    28  C    6.311021   5.868908   7.164762   7.229314   2.419250
    29  H    4.525296   3.832841   5.770987   5.451402   2.162769
    30  C    7.248657   7.402483   7.450164   8.260764   2.420460
    31  H    6.585892   7.160888   6.393872   7.647337   2.165389
    32  C    7.271656   7.096855   7.801013   8.223344   2.798418
    33  H    6.651194   5.924849   7.726221   7.477381   3.408606
    34  H    8.186661   8.458847   8.197096   9.194553   3.410697
    35  H    8.221455   7.975083   8.759878   9.132674   3.893037
                   26         27         28         29         30
    26  C    0.000000
    27  C    2.406305   0.000000
    28  C    1.390212   2.778046   0.000000
    29  H    1.101988   3.406019   2.162810   0.000000
    30  C    2.778263   1.389699   2.404586   3.880241   0.000000
    31  H    3.403637   1.096522   3.874536   4.315548   2.153231
    32  C    2.410146   2.410099   1.390083   3.408449   1.390733
    33  H    2.154604   3.872871   1.094833   2.484170   3.398524
    34  H    3.873136   2.154956   3.398064   4.975115   1.094877
    35  H    3.402891   3.402616   2.158631   4.311909   2.158930
                   31         32         33         34         35
    31  H    0.000000
    32  C    3.400510   0.000000
    33  H    4.969367   2.157564   0.000000
    34  H    2.475044   2.157555   4.304149   0.000000
    35  H    4.302887   1.094619   2.488311   2.487565   0.000000
 Stoichiometry    C19H16
 Framework group  C1[X(C19H16)]
 Deg. of freedom    99
 Full point group                 C1      NOp   1
 Largest Abelian subgroup         C1      NOp   1
 Largest concise Abelian subgroup C1      NOp   1
                         Standard orientation:                         
 ---------------------------------------------------------------------
 Center     Atomic      Atomic             Coordinates (Angstroms)
 Number     Number       Type             X           Y           Z
 ---------------------------------------------------------------------
      1          6           0        0.022695   -0.013005   -0.753953
      2          1           0       -0.000006   -0.006614   -1.877676
      3          6           0       -0.486507    1.336654   -0.307724
      4          6           0       -1.424713    1.991023   -1.112571
      5          6           0       -0.064458    1.947183    0.872805
      6          6           0       -1.929431    3.230507   -0.740119
      7          1           0       -1.768742    1.522947   -2.042319
      8          6           0       -0.569039    3.189587    1.242503
      9          1           0        0.677220    1.449966    1.510828
     10          6           0       -1.502242    3.833307    0.438668
     11          1           0       -2.664790    3.733359   -1.376649
     12          1           0       -0.227498    3.660146    2.170157
     13          1           0       -1.899096    4.810736    0.730737
     14          6           0       -0.916346   -1.103511   -0.299583
     15          6           0       -1.232767   -1.290031    1.047055
     16          6           0       -1.501887   -1.936570   -1.255996
     17          6           0       -2.125278   -2.283420    1.431455
     18          1           0       -0.747852   -0.651979    1.801501
     19          6           0       -2.391731   -2.932574   -0.869765
     20          1           0       -1.261186   -1.806137   -2.317742
     21          6           0       -2.708062   -3.105677    0.473226
     22          1           0       -2.367943   -2.417584    2.490525
     23          1           0       -2.845065   -3.580905   -1.626642
     24          1           0       -3.412106   -3.887532    0.775275
     25          6           0        1.457386   -0.262773   -0.360463
     26          6           0        1.825831   -0.700052    0.912917
     27          6           0        2.455690   -0.041787   -1.314249
     28          6           0        3.162973   -0.916299    1.225931
     29          1           0        1.046683   -0.881687    1.670752
     30          6           0        3.792138   -0.255501   -0.998823
     31          1           0        2.185938    0.303782   -2.319324
     32          6           0        4.149114   -0.694137    0.271730
     33          1           0        3.437419   -1.263301    2.227395
     34          1           0        4.565008   -0.078477   -1.753866
     35          1           0        5.201828   -0.864274    0.518790
 ---------------------------------------------------------------------
 Rotational constants (GHZ):      0.4001215      0.3719912      0.2368871
 Standard basis: 6-311G (5D, 7F)
 There are   295 symmetry adapted basis functions of A   symmetry.
 Integral buffers will be    262144 words long.
 Raffenetti 1 integral format.
 Two-electron integral symmetry is turned on.
   295 basis functions,   574 primitive gaussians,   295 cartesian basis functions
    65 alpha electrons       65 beta electrons
       nuclear repulsion energy      1288.3713991105 Hartrees.
 NAtoms=   35 NActive=   35 NUniq=   35 SFac= 7.50D-01 NAtFMM=   80 NAOKFM=F Big=F
 One-electron integrals computed using PRISM.
 PrsmSu:  requested number of processors reduced to:  10 ShMem   1 Linda.
 NBasis=   295 RedAO= T  NBF=   295
 NBsUse=   295 1.00D-06 NBFU=   295
 Harris functional with IExCor=  205 diagonalized for initial guess.
 ExpMin= 1.03D-01 ExpMax= 4.56D+03 ExpMxC= 6.82D+02 IAcc=1 IRadAn=         1 AccDes= 0.00D+00
 HarFok:  IExCor=  205 AccDes= 0.00D+00 IRadAn=         1 IDoV= 1
 ScaDFX=  1.000000  1.000000  1.000000  1.000000
 FoFCou: FMM=F IPFlag=           0 FMFlag=      100000 FMFlg1=           0
         NFxFlg=           0 DoJE=T BraDBF=F KetDBF=T FulRan=T
         Omega=  0.000000  0.000000  1.000000  0.000000  0.000000 ICntrl=     500 IOpCl=  0
         NMat0=    1 NMatS0=    1 NMatT0=    0 NMatD0=    1 NMtDS0=    0 NMtDT0=    0
         I1Cent=           4 NGrid=           0.
 Petite list used in FoFCou.
 Initial guess orbital symmetries:
       Occupied  (A) (A) (A) (A) (A) (A) (A) (A) (A) (A) (A) (A)
                 (A) (A) (A) (A) (A) (A) (A) (A) (A) (A) (A) (A)
                 (A) (A) (A) (A) (A) (A) (A) (A) (A) (A) (A) (A)
                 (A) (A) (A) (A) (A) (A) (A) (A) (A) (A) (A) (A)
                 (A) (A) (A) (A) (A) (A) (A) (A) (A) (A) (A) (A)
                 (A) (A) (A) (A) (A)
       Virtual   (A) (A) (A) (A) (A) (A) (A) (A) (A) (A) (A) (A)
                 (A) (A) (A) (A) (A) (A) (A) (A) (A) (A) (A) (A)
                 (A) (A) (A) (A) (A) (A) (A) (A) (A) (A) (A) (A)
                 (A) (A) (A) (A) (A) (A) (A) (A) (A) (A) (A) (A)
                 (A) (A) (A) (A) (A) (A) (A) (A) (A) (A) (A) (A)
                 (A) (A) (A) (A) (A) (A) (A) (A) (A) (A) (A) (A)
                 (A) (A) (A) (A) (A) (A) (A) (A) (A) (A) (A) (A)
                 (A) (A) (A) (A) (A) (A) (A) (A) (A) (A) (A) (A)
                 (A) (A) (A) (A) (A) (A) (A) (A) (A) (A) (A) (A)
                 (A) (A) (A) (A) (A) (A) (A) (A) (A) (A) (A) (A)
                 (A) (A) (A) (A) (A) (A) (A) (A) (A) (A) (A) (A)
                 (A) (A) (A) (A) (A) (A) (A) (A) (A) (A) (A) (A)
                 (A) (A) (A) (A) (A) (A) (A) (A) (A) (A) (A) (A)
                 (A) (A) (A) (A) (A) (A) (A) (A) (A) (A) (A) (A)
                 (A) (A) (A) (A) (A) (A) (A) (A) (A) (A) (A) (A)
                 (A) (A) (A) (A) (A) (A) (A) (A) (A) (A) (A) (A)
                 (A) (A) (A) (A) (A) (A) (A) (A) (A) (A) (A) (A)
                 (A) (A) (A) (A) (A) (A) (A) (A) (A) (A) (A) (A)
                 (A) (A) (A) (A) (A) (A) (A) (A) (A) (A) (A) (A)
                 (A) (A)
 The electronic state of the initial guess is 1-A.
 Requested convergence on RMS density matrix=1.00D-08 within 128 cycles.
 Requested convergence on MAX density matrix=1.00D-06.
 Requested convergence on             energy=1.00D-06.
 No special actions if energy rises.
 Integral accuracy reduced to 1.0D-05 until final iterations.
 Initial convergence to 1.0D-05 achieved.  Increase integral accuracy.
 SCF Done:  E(RHF) =  -728.671709965     A.U. after   14 cycles
             Convg  =    0.6164D-08             -V/T =  2.0001

 **********************************************************************

            Population analysis using the SCF density.

 **********************************************************************

 Orbital symmetries:
       Occupied  (A) (A) (A) (A) (A) (A) (A) (A) (A) (A) (A) (A)
                 (A) (A) (A) (A) (A) (A) (A) (A) (A) (A) (A) (A)
                 (A) (A) (A) (A) (A) (A) (A) (A) (A) (A) (A) (A)
                 (A) (A) (A) (A) (A) (A) (A) (A) (A) (A) (A) (A)
                 (A) (A) (A) (A) (A) (A) (A) (A) (A) (A) (A) (A)
                 (A) (A) (A) (A) (A)
       Virtual   (A) (A) (A) (A) (A) (A) (A) (A) (A) (A) (A) (A)
                 (A) (A) (A) (A) (A) (A) (A) (A) (A) (A) (A) (A)
                 (A) (A) (A) (A) (A) (A) (A) (A) (A) (A) (A) (A)
                 (A) (A) (A) (A) (A) (A) (A) (A) (A) (A) (A) (A)
                 (A) (A) (A) (A) (A) (A) (A) (A) (A) (A) (A) (A)
                 (A) (A) (A) (A) (A) (A) (A) (A) (A) (A) (A) (A)
                 (A) (A) (A) (A) (A) (A) (A) (A) (A) (A) (A) (A)
                 (A) (A) (A) (A) (A) (A) (A) (A) (A) (A) (A) (A)
                 (A) (A) (A) (A) (A) (A) (A) (A) (A) (A) (A) (A)
                 (A) (A) (A) (A) (A) (A) (A) (A) (A) (A) (A) (A)
                 (A) (A) (A) (A) (A) (A) (A) (A) (A) (A) (A) (A)
                 (A) (A) (A) (A) (A) (A) (A) (A) (A) (A) (A) (A)
                 (A) (A) (A) (A) (A) (A) (A) (A) (A) (A) (A) (A)
                 (A) (A) (A) (A) (A) (A) (A) (A) (A) (A) (A) (A)
                 (A) (A) (A) (A) (A) (A) (A) (A) (A) (A) (A) (A)
                 (A) (A) (A) (A) (A) (A) (A) (A) (A) (A) (A) (A)
                 (A) (A) (A) (A) (A) (A) (A) (A) (A) (A) (A) (A)
                 (A) (A) (A) (A) (A) (A) (A) (A) (A) (A) (A) (A)
                 (A) (A) (A) (A) (A) (A) (A) (A) (A) (A) (A) (A)
                 (A) (A)
 The electronic state is 1-A.
 Alpha  occ. eigenvalues --  -11.25831 -11.25273 -11.25262 -11.25130 -11.24448
 Alpha  occ. eigenvalues --  -11.24432 -11.24356 -11.24350 -11.24210 -11.24190
 Alpha  occ. eigenvalues --  -11.24128 -11.24117 -11.24111 -11.24054 -11.24027
 Alpha  occ. eigenvalues --  -11.24019 -11.23913 -11.23834 -11.23737  -1.18591
 Alpha  occ. eigenvalues --   -1.15827  -1.15681  -1.09037  -1.02411  -1.02116
 Alpha  occ. eigenvalues --   -1.01888  -1.01497  -1.01389  -0.92962  -0.84537
 Alpha  occ. eigenvalues --   -0.82941  -0.82541  -0.81709  -0.81563  -0.77734
 Alpha  occ. eigenvalues --   -0.70731  -0.70448  -0.69108  -0.65999  -0.63617
 Alpha  occ. eigenvalues --   -0.63501  -0.62370  -0.62034  -0.61901  -0.59570
 Alpha  occ. eigenvalues --   -0.58773  -0.58517  -0.58431  -0.57615  -0.53916
 Alpha  occ. eigenvalues --   -0.51741  -0.51081  -0.50854  -0.49675  -0.49166
 Alpha  occ. eigenvalues --   -0.48682  -0.47792  -0.47472  -0.46763  -0.34693
 Alpha  occ. eigenvalues --   -0.34244  -0.33699  -0.33588  -0.33278  -0.31180
 Alpha virt. eigenvalues --    0.11652   0.12014   0.13584   0.13743   0.14052
 Alpha virt. eigenvalues --    0.14932   0.15136   0.16274   0.16375   0.16881
 Alpha virt. eigenvalues --    0.18807   0.19133   0.19284   0.21285   0.21419
 Alpha virt. eigenvalues --    0.21511   0.23640   0.24242   0.24984   0.27162
 Alpha virt. eigenvalues --    0.28522   0.29487   0.34028   0.34193   0.35874
 Alpha virt. eigenvalues --    0.37458   0.38511   0.39681   0.40953   0.43680
 Alpha virt. eigenvalues --    0.44099   0.44378   0.45029   0.45397   0.45577
 Alpha virt. eigenvalues --    0.45871   0.46407   0.48413   0.49900   0.50381
 Alpha virt. eigenvalues --    0.50798   0.51016   0.51448   0.54977   0.55779
 Alpha virt. eigenvalues --    0.56807   0.57907   0.58955   0.59053   0.59610
 Alpha virt. eigenvalues --    0.59685   0.60665   0.61069   0.61499   0.61698
 Alpha virt. eigenvalues --    0.61852   0.62381   0.62468   0.63287   0.63463
 Alpha virt. eigenvalues --    0.64132   0.64996   0.65161   0.65419   0.66899
 Alpha virt. eigenvalues --    0.67407   0.68222   0.68439   0.70109   0.71395
 Alpha virt. eigenvalues --    0.72345   0.73799   0.74454   0.75070   0.76219
 Alpha virt. eigenvalues --    0.77289   0.78316   0.78622   0.80471   0.81183
 Alpha virt. eigenvalues --    0.81859   0.82195   0.82343   0.82823   0.82911
 Alpha virt. eigenvalues --    0.83518   0.83921   0.84055   0.84782   0.85604
 Alpha virt. eigenvalues --    0.86040   0.86385   0.86902   0.87458   0.88065
 Alpha virt. eigenvalues --    0.89667   0.90553   0.91266   0.92977   0.94413
 Alpha virt. eigenvalues --    0.96094   0.96853   0.97679   0.98135   0.98943
 Alpha virt. eigenvalues --    0.99328   1.00299   1.02793   1.05756   1.06230
 Alpha virt. eigenvalues --    1.06804   1.07135   1.08017   1.08377   1.10507
 Alpha virt. eigenvalues --    1.11091   1.12218   1.12487   1.12986   1.14257
 Alpha virt. eigenvalues --    1.14641   1.15381   1.18581   1.19509   1.21719
 Alpha virt. eigenvalues --    1.25334   1.26743   1.27690   1.28213   1.28841
 Alpha virt. eigenvalues --    1.30334   1.35126   1.39520   1.45230   1.46612
 Alpha virt. eigenvalues --    1.51667   1.52272   1.56502   2.54615   2.55622
 Alpha virt. eigenvalues --    2.56172   2.59185   2.61966   2.62496   2.64461
 Alpha virt. eigenvalues --    2.66996   2.67720   2.68452   2.72311   2.76762
 Alpha virt. eigenvalues --    2.77770   2.83497   2.87934   2.88621   2.94129
 Alpha virt. eigenvalues --    2.94273   2.94423   2.97078   2.97455   2.98029
 Alpha virt. eigenvalues --    3.00373   3.00770   3.04044   3.05736   3.07133
 Alpha virt. eigenvalues --    3.08140   3.08432   3.08977   3.09975   3.14332
 Alpha virt. eigenvalues --    3.14776   3.16345   3.16828   3.17570   3.18827
 Alpha virt. eigenvalues --    3.22645   3.25645   3.25822   3.28291   3.28894
 Alpha virt. eigenvalues --    3.30924   3.33379   3.34270   3.35152   3.42629
 Alpha virt. eigenvalues --    3.43064   3.44418   3.46944   3.49490   3.52243
 Alpha virt. eigenvalues --    3.53441   3.54453   3.59233   3.60652   3.60666
 Alpha virt. eigenvalues --    3.63129   3.63500   3.63781   3.65967   3.66664
 Alpha virt. eigenvalues --    3.68370   3.70280   3.70462   3.71426   3.73482
 Alpha virt. eigenvalues --    3.74192   3.75555   3.80867   3.85855   3.86657
 Alpha virt. eigenvalues --    3.93025  24.24834  24.30689  24.31557  24.50537
 Alpha virt. eigenvalues --   24.50836  24.51118  24.53992  24.54668  24.56105
 Alpha virt. eigenvalues --   24.77291  24.78597  24.79143  24.79613  24.80639
 Alpha virt. eigenvalues --   24.81843  24.83243  25.05544  25.05812  25.06128
          Condensed to atoms (all electrons):
              1          2          3          4          5          6
     1  C    5.829848   0.463812   0.157751  -0.050040  -0.040101   0.006259
     2  H    0.463812   0.512415  -0.059880  -0.003275   0.004912   0.001549
     3  C    0.157751  -0.059880   5.366413   0.473148   0.485855  -0.065320
     4  C   -0.050040  -0.003275   0.473148   5.071683  -0.071962   0.466288
     5  C   -0.040101   0.004912   0.485855  -0.071962   5.087535  -0.027889
     6  C    0.006259   0.001549  -0.065320   0.466288  -0.027889   5.050258
     7  H    0.001778   0.001063  -0.050638   0.399570   0.004143  -0.035575
     8  C    0.004824  -0.000248  -0.064564  -0.031579   0.471568  -0.076912
     9  H   -0.001645  -0.000067  -0.042672   0.004190   0.390190  -0.000181
    10  C    0.000990   0.000009  -0.018526  -0.086107  -0.093466   0.488926
    11  H   -0.000351  -0.000026   0.006704  -0.039640  -0.000523   0.397082
    12  H   -0.000325   0.000013   0.006182  -0.000424  -0.037583   0.005998
    13  H   -0.000012  -0.000002  -0.001479   0.007375   0.007823  -0.042952
    14  C    0.185266  -0.074305  -0.154346   0.000696  -0.014060  -0.000423
    15  C   -0.054386   0.005549  -0.007685   0.000795  -0.000048   0.000193
    16  C   -0.026163   0.002075  -0.005724   0.002049  -0.000318  -0.000036
    17  C    0.001398  -0.000282   0.000741  -0.000066  -0.000031   0.000002
    18  H    0.003105   0.000067  -0.001877  -0.000267   0.004753  -0.000098
    19  C    0.007680   0.001759  -0.000463  -0.000099   0.000048   0.000007
    20  H   -0.000483   0.002418   0.000150   0.000252  -0.000048  -0.000006
    21  C    0.001273  -0.000013   0.000097  -0.000014  -0.000004   0.000000
    22  H   -0.000319   0.000012   0.000018   0.000006  -0.000002   0.000001
    23  H   -0.000368  -0.000037   0.000011   0.000003   0.000000   0.000000
    24  H   -0.000013  -0.000001  -0.000002   0.000000   0.000000   0.000000
    25  C    0.170911  -0.073786  -0.103955   0.006371  -0.014399  -0.000758
    26  C   -0.045883   0.005106  -0.005833  -0.000175  -0.007379   0.000025
    27  C   -0.045267   0.002822  -0.001456   0.000451   0.001911  -0.000017
    28  C    0.003572  -0.000276   0.000881   0.000023  -0.001490   0.000000
    29  H   -0.000306  -0.000140  -0.000494  -0.000028   0.000337   0.000006
    30  C    0.008272   0.001517  -0.000716   0.000003   0.000225   0.000001
    31  H   -0.000724   0.002689   0.000479   0.000118   0.000186  -0.000008
    32  C    0.001138  -0.000016   0.000024  -0.000001   0.000081   0.000000
    33  H   -0.000295   0.000014  -0.000007  -0.000001   0.000013   0.000000
    34  H   -0.000389  -0.000029   0.000022   0.000000  -0.000001   0.000000
    35  H   -0.000019  -0.000001   0.000001   0.000000   0.000000   0.000000
              7          8          9         10         11         12
     1  C    0.001778   0.004824  -0.001645   0.000990  -0.000351  -0.000325
     2  H    0.001063  -0.000248  -0.000067   0.000009  -0.000026   0.000013
     3  C   -0.050638  -0.064564  -0.042672  -0.018526   0.006704   0.006182
     4  C    0.399570  -0.031579   0.004190  -0.086107  -0.039640  -0.000424
     5  C    0.004143   0.471568   0.390190  -0.093466  -0.000523  -0.037583
     6  C   -0.035575  -0.076912  -0.000181   0.488926   0.397082   0.005998
     7  H    0.509962  -0.000334  -0.000249   0.005343  -0.004288   0.000024
     8  C   -0.000334   5.050353  -0.029931   0.499280   0.006123   0.395910
     9  H   -0.000249  -0.029931   0.481561   0.004711   0.000020  -0.003334
    10  C    0.005343   0.499280   0.004711   5.033467  -0.040721  -0.040257
    11  H   -0.004288   0.006123   0.000020  -0.040721   0.518572  -0.000213
    12  H    0.000024   0.395910  -0.003334  -0.040257  -0.000213   0.516808
    13  H   -0.000185  -0.042200  -0.000182   0.399186  -0.004486  -0.004442
    14  C    0.000555   0.000632  -0.001030   0.000075   0.000012   0.000005
    15  C   -0.000051  -0.000657   0.000494   0.000029   0.000003   0.000014
    16  C    0.001438   0.000027  -0.000082  -0.000003  -0.000001   0.000000
    17  C   -0.000018  -0.000016   0.000062   0.000003   0.000000   0.000000
    18  H   -0.000037   0.000445   0.001026  -0.000011   0.000001  -0.000001
    19  C    0.000030  -0.000001   0.000002   0.000000   0.000000   0.000000
    20  H    0.000256   0.000000   0.000000   0.000000  -0.000001   0.000000
    21  C   -0.000012   0.000000   0.000002   0.000000   0.000000   0.000000
    22  H    0.000000  -0.000001  -0.000009   0.000000   0.000000   0.000000
    23  H   -0.000003   0.000000   0.000000   0.000000   0.000000   0.000000
    24  H    0.000000   0.000000   0.000000   0.000000   0.000000   0.000000
    25  C    0.000694   0.000520  -0.003181   0.000045   0.000011   0.000037
    26  C   -0.000038   0.000016   0.001084  -0.000019   0.000000   0.000028
    27  C    0.000013  -0.000089  -0.000886  -0.000013   0.000001   0.000007
    28  C    0.000000  -0.000031   0.000959   0.000000   0.000000  -0.000001
    29  H    0.000007   0.000052   0.000145   0.000001   0.000000  -0.000017
    30  C    0.000001  -0.000003  -0.000135   0.000000   0.000000   0.000001
    31  H    0.000003   0.000009  -0.000037  -0.000004   0.000000   0.000000
    32  C    0.000000   0.000004   0.000048   0.000000   0.000000  -0.000001
    33  H    0.000000   0.000001  -0.000003   0.000000   0.000000   0.000000
    34  H    0.000000   0.000000   0.000001   0.000000   0.000000   0.000000
    35  H    0.000000   0.000000   0.000000   0.000000   0.000000   0.000000
             13         14         15         16         17         18
     1  C   -0.000012   0.185266  -0.054386  -0.026163   0.001398   0.003105
     2  H   -0.000002  -0.074305   0.005549   0.002075  -0.000282   0.000067
     3  C   -0.001479  -0.154346  -0.007685  -0.005724   0.000741  -0.001877
     4  C    0.007375   0.000696   0.000795   0.002049  -0.000066  -0.000267
     5  C    0.007823  -0.014060  -0.000048  -0.000318  -0.000031   0.004753
     6  C   -0.042952  -0.000423   0.000193  -0.000036   0.000002  -0.000098
     7  H   -0.000185   0.000555  -0.000051   0.001438  -0.000018  -0.000037
     8  C   -0.042200   0.000632  -0.000657   0.000027  -0.000016   0.000445
     9  H   -0.000182  -0.001030   0.000494  -0.000082   0.000062   0.001026
    10  C    0.399186   0.000075   0.000029  -0.000003   0.000003  -0.000011
    11  H   -0.004486   0.000012   0.000003  -0.000001   0.000000   0.000001
    12  H   -0.004442   0.000005   0.000014   0.000000   0.000000  -0.000001
    13  H    0.518527  -0.000001  -0.000001   0.000000   0.000000  -0.000001
    14  C   -0.000001   5.374604   0.438936   0.503622  -0.061696  -0.048473
    15  C   -0.000001   0.438936   5.095284  -0.065436   0.479277   0.388570
    16  C    0.000000   0.503622  -0.065436   5.070165  -0.033447   0.004048
    17  C    0.000000  -0.061696   0.479277  -0.033447   5.035948  -0.027232
    18  H   -0.000001  -0.048473   0.388570   0.004048  -0.027232   0.495290
    19  C    0.000000  -0.072785  -0.029615   0.459757  -0.076831  -0.000169
    20  H    0.000000  -0.046654   0.004631   0.395740  -0.000238  -0.000260
    21  C    0.000000  -0.017864  -0.092108  -0.086328   0.494341   0.004558
    22  H    0.000000   0.006069  -0.039054  -0.000449   0.396672  -0.003433
    23  H    0.000000   0.007062  -0.000618  -0.039707   0.006223   0.000021
    24  H    0.000000  -0.001593   0.008017   0.007534  -0.042917  -0.000169
    25  C   -0.000001  -0.112312  -0.006281  -0.000345   0.001777  -0.003184
    26  C    0.000001  -0.004604  -0.017214   0.001488  -0.001733   0.000299
    27  C    0.000000   0.001955   0.000223   0.000195   0.000028  -0.000196
    28  C    0.000000   0.001541  -0.000014   0.000042  -0.000089   0.000862
    29  H    0.000000  -0.003007   0.002872  -0.000258   0.001159   0.003447
    30  C    0.000000  -0.000680   0.000029  -0.000004  -0.000001   0.000016
    31  H    0.000000   0.000363  -0.000026  -0.000022   0.000002  -0.000007
    32  C    0.000000   0.000021  -0.000004  -0.000011   0.000001  -0.000011
    33  H    0.000000   0.000011   0.000031   0.000002   0.000000  -0.000053
    34  H    0.000000   0.000014   0.000000   0.000001   0.000000   0.000000
    35  H    0.000000  -0.000002   0.000001   0.000000   0.000000   0.000000
             19         20         21         22         23         24
     1  C    0.007680  -0.000483   0.001273  -0.000319  -0.000368  -0.000013
     2  H    0.001759   0.002418  -0.000013   0.000012  -0.000037  -0.000001
     3  C   -0.000463   0.000150   0.000097   0.000018   0.000011  -0.000002
     4  C   -0.000099   0.000252  -0.000014   0.000006   0.000003   0.000000
     5  C    0.000048  -0.000048  -0.000004  -0.000002   0.000000   0.000000
     6  C    0.000007  -0.000006   0.000000   0.000001   0.000000   0.000000
     7  H    0.000030   0.000256  -0.000012   0.000000  -0.000003   0.000000
     8  C   -0.000001   0.000000   0.000000  -0.000001   0.000000   0.000000
     9  H    0.000002   0.000000   0.000002  -0.000009   0.000000   0.000000
    10  C    0.000000   0.000000   0.000000   0.000000   0.000000   0.000000
    11  H    0.000000  -0.000001   0.000000   0.000000   0.000000   0.000000
    12  H    0.000000   0.000000   0.000000   0.000000   0.000000   0.000000
    13  H    0.000000   0.000000   0.000000   0.000000   0.000000   0.000000
    14  C   -0.072785  -0.046654  -0.017864   0.006069   0.007062  -0.001593
    15  C   -0.029615   0.004631  -0.092108  -0.039054  -0.000618   0.008017
    16  C    0.459757   0.395740  -0.086328  -0.000449  -0.039707   0.007534
    17  C   -0.076831  -0.000238   0.494341   0.396672   0.006223  -0.042917
    18  H   -0.000169  -0.000260   0.004558  -0.003433   0.000021  -0.000169
    19  C    5.054949  -0.035037   0.496978   0.005999   0.396778  -0.042750
    20  H   -0.035037   0.510856   0.005162   0.000024  -0.004174  -0.000186
    21  C    0.496978   0.005162   5.031017  -0.039548  -0.040777   0.399620
    22  H    0.005999   0.000024  -0.039548   0.515365  -0.000211  -0.004454
    23  H    0.396778  -0.004174  -0.040777  -0.000211   0.518284  -0.004581
    24  H   -0.042750  -0.000186   0.399620  -0.004454  -0.004581   0.517474
    25  C   -0.000602   0.000558  -0.000035   0.000008   0.000020  -0.000001
    26  C    0.000125   0.000002   0.000045   0.000016  -0.000001   0.000001
    27  C   -0.000009   0.000135  -0.000001   0.000000   0.000000   0.000000
    28  C    0.000000   0.000003   0.000003   0.000001   0.000000   0.000000
    29  H   -0.000139  -0.000004   0.000079  -0.000105   0.000000   0.000000
    30  C    0.000001   0.000003   0.000000   0.000000   0.000000   0.000000
    31  H    0.000001  -0.000025   0.000000   0.000000   0.000000   0.000000
    32  C    0.000000  -0.000001   0.000000   0.000000   0.000000   0.000000
    33  H    0.000000   0.000000  -0.000001   0.000001   0.000000   0.000000
    34  H    0.000000   0.000000   0.000000   0.000000   0.000000   0.000000
    35  H    0.000000   0.000000   0.000000   0.000000   0.000000   0.000000
             25         26         27         28         29         30
     1  C    0.170911  -0.045883  -0.045267   0.003572  -0.000306   0.008272
     2  H   -0.073786   0.005106   0.002822  -0.000276  -0.000140   0.001517
     3  C   -0.103955  -0.005833  -0.001456   0.000881  -0.000494  -0.000716
     4  C    0.006371  -0.000175   0.000451   0.000023  -0.000028   0.000003
     5  C   -0.014399  -0.007379   0.001911  -0.001490   0.000337   0.000225
     6  C   -0.000758   0.000025  -0.000017   0.000000   0.000006   0.000001
     7  H    0.000694  -0.000038   0.000013   0.000000   0.000007   0.000001
     8  C    0.000520   0.000016  -0.000089  -0.000031   0.000052  -0.000003
     9  H   -0.003181   0.001084  -0.000886   0.000959   0.000145  -0.000135
    10  C    0.000045  -0.000019  -0.000013   0.000000   0.000001   0.000000
    11  H    0.000011   0.000000   0.000001   0.000000   0.000000   0.000000
    12  H    0.000037   0.000028   0.000007  -0.000001  -0.000017   0.000001
    13  H   -0.000001   0.000001   0.000000   0.000000   0.000000   0.000000
    14  C   -0.112312  -0.004604   0.001955   0.001541  -0.003007  -0.000680
    15  C   -0.006281  -0.017214   0.000223  -0.000014   0.002872   0.000029
    16  C   -0.000345   0.001488   0.000195   0.000042  -0.000258  -0.000004
    17  C    0.001777  -0.001733   0.000028  -0.000089   0.001159  -0.000001
    18  H   -0.003184   0.000299  -0.000196   0.000862   0.003447   0.000016
    19  C   -0.000602   0.000125  -0.000009   0.000000  -0.000139   0.000001
    20  H    0.000558   0.000002   0.000135   0.000003  -0.000004   0.000003
    21  C   -0.000035   0.000045  -0.000001   0.000003   0.000079   0.000000
    22  H    0.000008   0.000016   0.000000   0.000001  -0.000105   0.000000
    23  H    0.000020  -0.000001   0.000000   0.000000   0.000000   0.000000
    24  H   -0.000001   0.000001   0.000000   0.000000   0.000000   0.000000
    25  C    5.366572   0.450190   0.495182  -0.064428  -0.053056  -0.071577
    26  C    0.450190   5.121879  -0.061473   0.473350   0.386596  -0.031241
    27  C    0.495182  -0.061473   5.040890  -0.036127   0.004505   0.471716
    28  C   -0.064428   0.473350  -0.036127   5.056509  -0.025337  -0.075100
    29  H   -0.053056   0.386596   0.004505  -0.025337   0.498428  -0.000212
    30  C   -0.071577  -0.031241   0.471716  -0.075100  -0.000212   5.044533
    31  H   -0.045661   0.004755   0.394455  -0.000401  -0.000243  -0.034678
    32  C   -0.017760  -0.094848  -0.086743   0.495845   0.004795   0.494644
    33  H    0.006029  -0.036761  -0.000392   0.395576  -0.003439   0.005896
    34  H    0.007150  -0.000599  -0.039670   0.006227   0.000020   0.396657
    35  H   -0.001594   0.008123   0.007490  -0.042543  -0.000183  -0.042959
             31         32         33         34         35
     1  C   -0.000724   0.001138  -0.000295  -0.000389  -0.000019
     2  H    0.002689  -0.000016   0.000014  -0.000029  -0.000001
     3  C    0.000479   0.000024  -0.000007   0.000022   0.000001
     4  C    0.000118  -0.000001  -0.000001   0.000000   0.000000
     5  C    0.000186   0.000081   0.000013  -0.000001   0.000000
     6  C   -0.000008   0.000000   0.000000   0.000000   0.000000
     7  H    0.000003   0.000000   0.000000   0.000000   0.000000
     8  C    0.000009   0.000004   0.000001   0.000000   0.000000
     9  H   -0.000037   0.000048  -0.000003   0.000001   0.000000
    10  C   -0.000004   0.000000   0.000000   0.000000   0.000000
    11  H    0.000000   0.000000   0.000000   0.000000   0.000000
    12  H    0.000000  -0.000001   0.000000   0.000000   0.000000
    13  H    0.000000   0.000000   0.000000   0.000000   0.000000
    14  C    0.000363   0.000021   0.000011   0.000014  -0.000002
    15  C   -0.000026  -0.000004   0.000031   0.000000   0.000001
    16  C   -0.000022  -0.000011   0.000002   0.000001   0.000000
    17  C    0.000002   0.000001   0.000000   0.000000   0.000000
    18  H   -0.000007  -0.000011  -0.000053   0.000000   0.000000
    19  C    0.000001   0.000000   0.000000   0.000000   0.000000
    20  H   -0.000025  -0.000001   0.000000   0.000000   0.000000
    21  C    0.000000   0.000000  -0.000001   0.000000   0.000000
    22  H    0.000000   0.000000   0.000001   0.000000   0.000000
    23  H    0.000000   0.000000   0.000000   0.000000   0.000000
    24  H    0.000000   0.000000   0.000000   0.000000   0.000000
    25  C   -0.045661  -0.017760   0.006029   0.007150  -0.001594
    26  C    0.004755  -0.094848  -0.036761  -0.000599   0.008123
    27  C    0.394455  -0.086743  -0.000392  -0.039670   0.007490
    28  C   -0.000401   0.495845   0.395576   0.006227  -0.042543
    29  H   -0.000243   0.004795  -0.003439   0.000020  -0.000183
    30  C   -0.034678   0.494644   0.005896   0.396657  -0.042959
    31  H    0.507676   0.005350   0.000022  -0.004217  -0.000183
    32  C    0.005350   5.030337  -0.039649  -0.041060   0.399171
    33  H    0.000022  -0.039649   0.515465  -0.000212  -0.004354
    34  H   -0.004217  -0.041060  -0.000212   0.517935  -0.004549
    35  H   -0.000183   0.399171  -0.004354  -0.004549   0.517650
 Mulliken atomic charges:
              1
     1  C   -0.580788
     2  H    0.204585
     3  C    0.087162
     4  C   -0.149344
     5  C   -0.150276
     6  C   -0.166420
     7  H    0.166546
     8  C   -0.183198
     9  H    0.199128
    10  C   -0.152937
    11  H    0.161721
    12  H    0.161572
    13  H    0.163032
    14  C    0.092395
    15  C   -0.111750
    16  C   -0.189849
    17  C   -0.173039
    18  H    0.178975
    19  C   -0.165615
    20  H    0.166924
    21  C   -0.156470
    22  H    0.163394
    23  H    0.162075
    24  H    0.164022
    25  C    0.066837
    26  C   -0.145329
    27  C   -0.149638
    28  C   -0.189558
    29  H    0.184521
    30  C   -0.166207
    31  H    0.170129
    32  C   -0.151354
    33  H    0.162103
    34  H    0.162699
    35  H    0.163952
 Sum of Mulliken atomic charges =   0.00000
 Mulliken charges with hydrogens summed into heavy atoms:
              1
     1  C   -0.376203
     3  C    0.087162
     4  C    0.017202
     5  C    0.048852
     6  C   -0.004699
     8  C   -0.021625
    10  C    0.010095
    14  C    0.092395
    15  C    0.067224
    16  C   -0.022925
    17  C   -0.009645
    19  C   -0.003541
    21  C    0.007552
    25  C    0.066837
    26  C    0.039192
    27  C    0.020491
    28  C   -0.027455
    30  C   -0.003508
    32  C    0.012598
 Sum of Mulliken charges with hydrogens summed into heavy atoms =   0.00000
 Electronic spatial extent (au):  <R**2>=           4939.8416
 Charge=              0.0000 electrons
 Dipole moment (field-independent basis, Debye):
    X=             -0.0130    Y=             -0.0664    Z=             -0.0427  Tot=              0.0800
 Quadrupole moment (field-independent basis, Debye-Ang):
   XX=           -110.6008   YY=           -114.0716   ZZ=           -102.8543
   XY=              0.7957   XZ=              2.2810   YZ=             -0.1607
 Traceless Quadrupole moment (field-independent basis, Debye-Ang):
   XX=             -1.4252   YY=             -4.8960   ZZ=              6.3213
   XY=              0.7957   XZ=              2.2810   YZ=             -0.1607
 Octapole moment (field-independent basis, Debye-Ang**2):
  XXX=             39.8575  YYY=             18.5179  ZZZ=             -0.1834  XYY=            -44.5813
  XXY=            -14.4524  XXZ=             -6.5144  XZZ=              0.7193  YZZ=             -4.8358
  YYZ=             10.3983  XYZ=              0.1358
 Hexadecapole moment (field-independent basis, Debye-Ang**3):
 XXXX=          -3092.2776 YYYY=          -2907.4777 ZZZZ=           -786.7855 XXXY=             -6.1076
 XXXZ=              0.8181 YYYX=              2.6211 YYYZ=             58.4780 ZZZX=              6.2846
 ZZZY=             -4.0628 XXYY=           -972.9279 XXZZ=           -631.3613 YYZZ=           -601.3668
 XXYZ=            -49.8163 YYXZ=             22.5838 ZZXY=             15.6451
 N-N= 1.288371399111D+03 E-N=-4.272751862120D+03  KE= 7.285913408149D+02
 PrsmSu:  requested number of processors reduced to:  10 ShMem   1 Linda.
 Calling FoFJK, ICntrl=      2127 FMM=F ISym2X=0 I1Cent= 0 IOpClX= 0 NMat=1 NMatS=1 NMatT=0.
 ***** Axes restored to original set *****
 -------------------------------------------------------------------
 Center     Atomic                   Forces (Hartrees/Bohr)
 Number     Number              X              Y              Z
 -------------------------------------------------------------------
      1        6          -0.005557097   -0.023036862    0.003401075
      2        1           0.006880602    0.026007011   -0.005660346
      3        6          -0.002821492    0.001532427    0.014242843
      4        6           0.001949921   -0.006048488    0.001206966
      5        6          -0.003593772    0.006571312   -0.008263805
      6        6           0.004052416   -0.006989897    0.009928306
      7        1          -0.004497196    0.016780898    0.000920025
      8        6          -0.001732738    0.011785822    0.001937446
      9        1           0.004387456   -0.010254871    0.018917252
     10        6           0.000322343    0.006474230    0.011908914
     11        1          -0.004816081    0.008770230   -0.013347169
     12        1           0.004017081   -0.016123320   -0.001416198
     13        1          -0.000783228   -0.007406392   -0.015000719
     14        6           0.010037180   -0.008919758   -0.004566400
     15        6          -0.003242108    0.011062309    0.002161747
     16        6          -0.002707706   -0.005348163    0.001022035
     17        6           0.003759799    0.011663291   -0.001956506
     18        1           0.019105833   -0.019295175    0.000010618
     19        6           0.007329022   -0.010530790   -0.003585389
     20        1           0.007940239    0.015565049   -0.003103949
     21        6           0.012271624   -0.002093197   -0.005414936
     22        1          -0.007911425   -0.014409405    0.003026791
     23        1          -0.007081708    0.014638125    0.003620989
     24        1          -0.015404375    0.000269418    0.006755777
     25        6          -0.010986649   -0.003334271   -0.006869910
     26        6           0.010933818    0.007642257   -0.002049087
     27        6          -0.001660482   -0.005093816    0.003355757
     28        6           0.001541918    0.010337951   -0.006178377
     29        1          -0.027277711   -0.012161946   -0.006387642
     30        6          -0.011666644   -0.005863999   -0.000912838
     31        1           0.002874270    0.014650051   -0.009602234
     32        6          -0.010407302    0.003576582   -0.007802956
     33        1          -0.002056764   -0.013757759    0.009247977
     34        1           0.014323020    0.008588693    0.000516714
     35        1           0.012477937   -0.005247548    0.009937224
 -------------------------------------------------------------------
 Cartesian Forces:  Max     0.027277711 RMS     0.009560369

 GradGradGradGradGradGradGradGradGradGradGradGradGradGradGradGradGradGrad
 Berny optimization.
 Internal  Forces:  Max     0.029875298 RMS     0.007839951
 Search for a local minimum.
 Step number   1 out of a maximum of  197
 All quantities printed in internal units (Hartrees-Bohrs-Radians)
 Mixed Optimization -- RFO/linear search
 Second derivative matrix not updated -- first step.
     Eigenvalues ---    0.00634   0.00645   0.00654   0.01530   0.01533
     Eigenvalues ---    0.01536   0.02137   0.02140   0.02146   0.02168
     Eigenvalues ---    0.02171   0.02172   0.02181   0.02185   0.02186
     Eigenvalues ---    0.02202   0.02202   0.02202   0.02212   0.02213
     Eigenvalues ---    0.02215   0.02215   0.02215   0.02216   0.02217
     Eigenvalues ---    0.02217   0.02219   0.02219   0.02220   0.02222
     Eigenvalues ---    0.04518   0.06373   0.06675   0.15996   0.15999
     Eigenvalues ---    0.15999   0.16000   0.16000   0.16000   0.16000
     Eigenvalues ---    0.16000   0.16000   0.16000   0.16000   0.16000
     Eigenvalues ---    0.16000   0.16000   0.16000   0.18940   0.19366
     Eigenvalues ---    0.22000   0.22000   0.22000   0.22000   0.22000
     Eigenvalues ---    0.22000   0.23476   0.23476   0.23477   0.24996
     Eigenvalues ---    0.24999   0.25000   0.31165   0.31354   0.31439
     Eigenvalues ---    0.31502   0.33463   0.33610   0.33966   0.34070
     Eigenvalues ---    0.34075   0.34094   0.34254   0.34255   0.34258
     Eigenvalues ---    0.34260   0.34262   0.34267   0.34283   0.34284
     Eigenvalues ---    0.34286   0.42415   0.42426   0.42486   0.42572
     Eigenvalues ---    0.42579   0.42618   0.46340   0.46357   0.46430
     Eigenvalues ---    0.46762   0.46772   0.46830   0.47215   0.47227
     Eigenvalues ---    0.47261   0.47328   0.47333   0.473671000.00000
     Eigenvalues --- 1000.000001000.000001000.000001000.000001000.00000
     Eigenvalues --- 1000.000001000.000001000.000001000.000001000.00000
     Eigenvalues --- 1000.000001000.000001000.000001000.000001000.00000
     Eigenvalues --- 1000.000001000.000001000.000001000.000001000.00000
     Eigenvalues --- 1000.000001000.000001000.000001000.000001000.00000
     Eigenvalues --- 1000.000001000.000001000.000001000.000001000.00000
     Eigenvalues --- 1000.000001000.000001000.000001000.000001000.00000
     Eigenvalues --- 1000.000001000.000001000.000001000.000001000.00000
     Eigenvalues --- 1000.000001000.000001000.000001000.000001000.00000
     Eigenvalues --- 1000.000001000.000001000.000001000.000001000.00000
     Eigenvalues --- 1000.000001000.000001000.000001000.000001000.00000
     Eigenvalues --- 1000.000001000.000001000.000001000.000001000.00000
     Eigenvalues --- 1000.000001000.000001000.000001000.000001000.00000
     Eigenvalues --- 1000.000001000.000001000.000001000.000001000.00000
     Eigenvalues --- 1000.000001000.000001000.000001000.000001000.00000
     Eigenvalues --- 1000.000001000.000001000.000001000.000001000.00000
     Eigenvalues --- 1000.000001000.000001000.000001000.000001000.00000
     Eigenvalues --- 1000.000001000.00000
 RFO step:  Lambda=-4.29265268D-02 EMin= 6.34161547D-03
 Linear search not attempted -- first point.
 Maximum step size (   0.300) exceeded in Quadratic search.
    -- Step size scaled by   0.575
 Iteration  1 RMS(Cart)=  0.12595497 RMS(Int)=  0.00284435
 Iteration  2 RMS(Cart)=  0.00585095 RMS(Int)=  0.00028905
 Iteration  3 RMS(Cart)=  0.00000907 RMS(Int)=  0.00028900
 Iteration  4 RMS(Cart)=  0.00000000 RMS(Int)=  0.00028900
 Variable       Old X    -DE/DX   Delta X   Delta X   Delta X     New X
                                 (Linear)    (Quad)   (Total)
    R1        2.12400  -0.02748   0.00000  -0.04455  -0.04455   2.07944
    R2        2.85342   0.02087   0.00000   0.03366   0.03366   2.88707
    R3        2.85183   0.02266   0.00000   0.03646   0.03646   2.88829
    R4        2.85064   0.02570   0.00000   0.04127   0.04127   2.89191
    R5        2.64306  -0.00427   0.00000  -0.00491  -0.00490   2.63815
    R6        2.63515  -0.00246   0.00000  -0.00271  -0.00271   2.63244
    R7        2.62514  -0.00412   0.00000  -0.00465  -0.00465   2.62050
    R8        2.07171  -0.01739   0.00000  -0.02604  -0.02604   2.04567
    R9        2.62859  -0.00275   0.00000  -0.00300  -0.00301   2.62558
   R10        2.07387  -0.02180   0.00000  -0.03276  -0.03276   2.04111
   R11        2.62896  -0.00602   0.00000  -0.00679  -0.00680   2.62216
   R12        2.06904  -0.01668   0.00000  -0.02488  -0.02488   2.04416
   R13        2.62624  -0.00633   0.00000  -0.00703  -0.00704   2.61920
   R14        2.06890  -0.01668   0.00000  -0.02487  -0.02487   2.04403
   R15        2.06851  -0.01675   0.00000  -0.02496  -0.02496   2.04355
   R16        2.63774   0.00072   0.00000   0.00096   0.00098   2.63872
   R17        2.63992  -0.00420   0.00000  -0.00471  -0.00470   2.63522
   R18        2.62608  -0.00461   0.00000  -0.00506  -0.00505   2.62103
   R19        2.07994  -0.02546   0.00000  -0.03861  -0.03861   2.04132
   R20        2.62734  -0.00281   0.00000  -0.00321  -0.00322   2.62413
   R21        2.07203  -0.01774   0.00000  -0.02658  -0.02658   2.04546
   R22        2.62797  -0.00549   0.00000  -0.00621  -0.00622   2.62176
   R23        2.06881  -0.01671   0.00000  -0.02492  -0.02492   2.04389
   R24        2.62778  -0.00839   0.00000  -0.00951  -0.00953   2.61824
   R25        2.06898  -0.01666   0.00000  -0.02484  -0.02484   2.04413
   R26        2.06855  -0.01682   0.00000  -0.02507  -0.02507   2.04348
   R27        2.63782   0.00073   0.00000   0.00101   0.00103   2.63884
   R28        2.64234  -0.00356   0.00000  -0.00401  -0.00399   2.63835
   R29        2.62712  -0.00316   0.00000  -0.00341  -0.00341   2.62371
   R30        2.08246  -0.02988   0.00000  -0.04549  -0.04549   2.03697
   R31        2.62615  -0.00356   0.00000  -0.00408  -0.00408   2.62207
   R32        2.07213  -0.01774   0.00000  -0.02658  -0.02658   2.04555
   R33        2.62688  -0.00675   0.00000  -0.00759  -0.00761   2.61927
   R34        2.06893  -0.01670   0.00000  -0.02491  -0.02491   2.04403
   R35        2.62810  -0.00842   0.00000  -0.00959  -0.00960   2.61850
   R36        2.06902  -0.01671   0.00000  -0.02492  -0.02492   2.04410
   R37        2.06853  -0.01679   0.00000  -0.02502  -0.02502   2.04351
    A1        1.85831  -0.00028   0.00000  -0.01898  -0.01882   1.83949
    A2        1.86770  -0.00592   0.00000  -0.03539  -0.03464   1.83305
    A3        1.85557  -0.00924   0.00000  -0.04551  -0.04457   1.81101
    A4        1.92525  -0.00408   0.00000   0.00949   0.00715   1.93240
    A5        1.97321   0.00302   0.00000   0.02544   0.02353   1.99674
    A6        1.97536   0.01476   0.00000   0.05380   0.05263   2.02799
    A7        2.06501  -0.00203   0.00000  -0.00391  -0.00391   2.06110
    A8        2.14060   0.00961   0.00000   0.01894   0.01893   2.15953
    A9        2.07756  -0.00757   0.00000  -0.01503  -0.01502   2.06254
   A10        2.10236   0.00528   0.00000   0.01109   0.01109   2.11345
   A11        2.09297  -0.00326   0.00000  -0.00730  -0.00730   2.08567
   A12        2.08785  -0.00202   0.00000  -0.00379  -0.00380   2.08405
   A13        2.10165   0.00315   0.00000   0.00686   0.00686   2.10851
   A14        2.09250   0.00059   0.00000   0.00268   0.00268   2.09518
   A15        2.08899  -0.00374   0.00000  -0.00957  -0.00957   2.07942
   A16        2.09697   0.00011   0.00000  -0.00031  -0.00032   2.09665
   A17        2.09201  -0.00001   0.00000   0.00029   0.00029   2.09230
   A18        2.09421  -0.00010   0.00000   0.00002   0.00002   2.09423
   A19        2.09852   0.00133   0.00000   0.00279   0.00278   2.10130
   A20        2.08970  -0.00061   0.00000  -0.00123  -0.00123   2.08848
   A21        2.09496  -0.00072   0.00000  -0.00156  -0.00155   2.09340
   A22        2.08931  -0.00229   0.00000  -0.00538  -0.00539   2.08392
   A23        2.09633   0.00117   0.00000   0.00278   0.00278   2.09911
   A24        2.09755   0.00111   0.00000   0.00260   0.00261   2.10016
   A25        2.12714   0.01648   0.00000   0.03225   0.03217   2.15931
   A26        2.07784  -0.00630   0.00000  -0.01247  -0.01254   2.06530
   A27        2.07807  -0.01022   0.00000  -0.02007  -0.02008   2.05799
   A28        2.10363   0.00378   0.00000   0.00841   0.00834   2.11197
   A29        2.07597   0.00413   0.00000   0.01302   0.01290   2.08887
   A30        2.10336  -0.00785   0.00000  -0.02091  -0.02103   2.08234
   A31        2.10049   0.00695   0.00000   0.01485   0.01485   2.11535
   A32        2.09439  -0.00405   0.00000  -0.00906  -0.00907   2.08532
   A33        2.08830  -0.00290   0.00000  -0.00579  -0.00580   2.08250
   A34        2.09580   0.00213   0.00000   0.00428   0.00428   2.10007
   A35        2.09158  -0.00097   0.00000  -0.00187  -0.00188   2.08970
   A36        2.09581  -0.00116   0.00000  -0.00240  -0.00241   2.09340
   A37        2.09794  -0.00011   0.00000  -0.00102  -0.00104   2.09690
   A38        2.09114   0.00021   0.00000   0.00095   0.00096   2.09210
   A39        2.09410  -0.00010   0.00000   0.00007   0.00008   2.09418
   A40        2.09040  -0.00253   0.00000  -0.00633  -0.00637   2.08403
   A41        2.09639   0.00127   0.00000   0.00317   0.00318   2.09957
   A42        2.09639   0.00126   0.00000   0.00317   0.00318   2.09957
   A43        2.14226   0.02508   0.00000   0.04921   0.04919   2.19145
   A44        2.06568  -0.01295   0.00000  -0.02544  -0.02545   2.04022
   A45        2.07524  -0.01213   0.00000  -0.02376  -0.02373   2.05151
   A46        2.10366   0.00441   0.00000   0.00980   0.00980   2.11346
   A47        2.08560   0.00421   0.00000   0.01326   0.01325   2.09885
   A48        2.09390  -0.00862   0.00000  -0.02308  -0.02309   2.07081
   A49        2.10304   0.00830   0.00000   0.01759   0.01762   2.12066
   A50        2.09370  -0.00487   0.00000  -0.01084  -0.01085   2.08285
   A51        2.08644  -0.00343   0.00000  -0.00676  -0.00677   2.07967
   A52        2.09777   0.00244   0.00000   0.00500   0.00497   2.10274
   A53        2.09020  -0.00116   0.00000  -0.00233  -0.00232   2.08788
   A54        2.09522  -0.00128   0.00000  -0.00268  -0.00266   2.09256
   A55        2.09753   0.00004   0.00000  -0.00097  -0.00097   2.09655
   A56        2.09146   0.00005   0.00000   0.00069   0.00069   2.09216
   A57        2.09419  -0.00009   0.00000   0.00028   0.00028   2.09447
[...]
 22831,0.00018447,0.00019536,0.00016650,-0.00017488,0.00021146,0.000259
 59,0.00003933,0.00000910,-0.00001528,-0.00011292,0.00002687,-0.0004350
 3,-0.00017529,0.00011278,0.00010419,0.00014264,-0.00025978,0.00019152,
 -0.00003765,-0.00000881,0.00002533,0.00003350,0.00003059,-0.00000197,-
 0.00000121,0.00000454,-0.00000708,0.00008031,-0.00070968,-0.00026465,0
 .00037072,0.00025118,-0.00021250,-0.00045949,0.00012214,-0.00002784,-0
 .00027476,0.00015442,0.00025673,0.00002822,0.00001553,0.00001584,0.000
 44517,0.00018658,-0.00017940,-0.00000667,-0.00008198,0.00007458,-0.000
 11098,-0.00038105,-0.00015027,-0.00000604,-0.00001368,0.00001413,-0.00
 000563,0.00002035,-0.00000041,-0.00001507,-0.00000140,0.00000476,-0.06
 065051,-0.05072891,0.05415906,-0.02827717,0.04215004,-0.06932366,-0.06
 745953,0.07943900,-0.21098126,0.09370332,0.01731867,0.01883758,-0.0003
 7902,0.00011575,-0.00105839,0.05445014,-0.26691009,0.54015441,0.001102
 44,-0.00070720,0.00162435,-0.00054254,0.00095835,-0.00032051,0.0000892
 6,-0.00010808,-0.00024958,-0.00003253,0.00000515,-0.00003482,0.0000511
 7,-0.00012220,0.00012541,-0.00000319,0.00001777,-0.00007968,-0.0000498
 8,0.00001881,-0.00002522,-0.00002441,0.00000129,0.00000518,-0.00000813
 ,0.00007239,0.00000306,-0.00003531,0.00003534,0.00004170,0.00000787,-0
 .00000254,0.00001830,-0.00000399,0.00003195,0.00001563,0.00000488,0.00
 001722,0.00001363,0.00004762,0.00036540,0.00007711,0.00014110,0.000018
 88,-0.00013252,0.00001198,-0.00003549,-0.00005310,0.00004717,0.0000243
 1,0.00001079,-0.00000176,-0.00000273,0.00001980,0.00000357,0.00001406,
 -0.00000464,-0.00001129,0.00000812,0.00004871,0.00002742,-0.00000003,-
 0.00001188,0.00002501,0.00000473,-0.00000015,0.00000996,-0.00000952,-0
 .00000558,0.00001228,0.00000101,-0.00000149,-0.00069977,-0.02190047,0.
 02629284,-0.00578674,-0.00328694,-0.00041774,-0.08090982,-0.03631022,0
 .03697040,-0.00112317,0.00025555,-0.00038350,-0.00011214,-0.00103252,0
 .00129439,0.00977305,0.01885209,-0.02339040,0.08030014,0.00125422,-0.0
 0182935,-0.00235657,-0.00039267,0.00007380,0.00001822,-0.00038331,0.00
 037785,-0.00028123,0.00004965,0.00000794,-0.00043154,0.00024641,-0.000
 06991,0.00004441,-0.00005991,0.00014332,-0.00001348,-0.00002001,-0.000
 02801,0.00002590,0.00006905,-0.00006289,-0.00021099,-0.00010324,-0.000
 02966,0.00015937,0.00003577,-0.00009620,0.00003923,-0.00000405,-0.0000
 1793,0.00000319,-0.00002239,-0.00000297,0.00000377,-0.00001039,0.00000
 003,0.00001459,0.00014400,0.00022173,0.00018503,0.00010568,-0.00000050
 ,-0.00006680,0.00005242,0.00008987,-0.00004172,0.00002465,0.00002932,-
 0.00002305,-0.00000345,-0.00003529,0.00002007,-0.00001110,-0.00003804,
 -0.00002916,-0.00000269,-0.00003410,0.00001528,0.00000854,0.00000533,0
 .00000332,0.00000792,-0.00000357,-0.00000296,0.00001326,-0.00000526,-0
 .00000155,0.00000120,-0.00000500,0.00000290,0.00121324,-0.00313599,0.0
 1161888,-0.00354624,0.00492895,0.00293566,-0.03693276,-0.17451037,0.15
 114496,0.00017223,-0.00017550,-0.00098412,-0.00002049,-0.00041988,0.00
 047917,-0.00500296,-0.00059961,0.00655137,0.04117349,0.17314537,-0.000
 73184,-0.00156979,-0.00142449,0.00015920,-0.00098434,0.00084878,-0.000
 14013,-0.00010148,0.00005077,0.00004200,0.00004103,-0.00006299,-0.0000
 3437,0.00009050,-0.00006631,-0.00002508,-0.00000291,-0.00000817,0.0000
 1455,-0.00000576,0.00000586,0.00003130,-0.00004472,0.00000655,0.000023
 00,-0.00002259,0.00003438,-0.00000415,-0.00000996,0.00000765,0.0000010
 0,-0.00000357,0.00000625,0.00000159,-0.00000087,-0.00000871,0.00000289
 ,0.00000050,0.00000758,0.00011265,-0.00033317,0.00015202,-0.00005310,-
 0.00004414,0.00008865,0.00012284,0.00012934,0.00003088,-0.00003891,-0.
 00003686,-0.00004151,-0.00000517,-0.00000690,-0.00000833,-0.00003184,-
 0.00001285,-0.00000573,0.00000496,-0.00002989,-0.00002660,0.00002187,0
 .00000429,0.00000141,-0.00000768,0.00000524,-0.00000669,0.00000916,-0.
 00000273,-0.00001066,-0.00000140,-0.00000334,-0.00000257,-0.00237176,0
 .00351667,0.00010711,-0.00009627,0.00325463,0.00382106,0.03725540,0.15
 191827,-0.23376291,-0.00029586,-0.00092366,0.00014373,-0.00007949,0.00
 006586,-0.00021800,0.00789080,0.01406440,-0.01036101,-0.03781459,-0.17
 007867,0.24089319,0.00062118,-0.00033148,0.00146024,-0.00004652,0.0007
 1385,-0.00011334,0.00055388,0.00031585,0.00021736,0.00013575,-0.000123
 10,-0.00041797,0.00017635,0.00010919,-0.00009308,-0.00011030,0.0002238
 5,0.00011314,0.00000486,0.00000235,0.00002189,-0.00010008,0.00003623,-
 0.00033492,-0.00029645,0.00026072,-0.00004830,0.00010344,-0.00022377,0
 .00006769,-0.00003005,-0.00002235,-0.00001707,0.00001094,-0.00003035,-
 0.00004432,-0.00000144,-0.00000205,-0.00001794,0.00013023,-0.00039042,
 -0.00035727,0.00025391,0.00021699,-0.00013400,-0.00039549,0.00008521,-
 0.00002039,-0.00016633,0.00013808,0.00019466,0.00002733,0.00001767,0.0
 0001088,0.00033009,0.00009982,-0.00012022,0.00000846,-0.00005964,0.000
 01592,-0.00013287,-0.00028708,-0.00007165,-0.00002669,-0.00001611,0.00
 000617,-0.00002235,0.00003266,0.00000874,-0.00002541,0.00000229,0.0000
 0490,-0.04568951,-0.03927729,0.03792895,-0.06219546,0.02735794,-0.0583
 6358,0.07430202,0.02093286,-0.00753472,-0.33669011,-0.10628531,0.05392
 900,-0.00157413,0.00065180,-0.00417962,-0.16506887,-0.00606263,-0.0196
 2542,-0.00357687,0.00046239,-0.00467422,0.77964618,0.00011111,-0.00078
 608,0.00130247,0.00042600,0.00067087,0.00007367,0.00088832,0.00010072,
 -0.00018734,0.00011528,0.00015306,-0.00032234,0.00027091,0.00006576,0.
 00025292,-0.00014102,0.00021340,0.00015414,0.00000204,0.00000176,-0.00
 000969,-0.00007241,0.00000583,-0.00035387,-0.00011161,0.00005179,0.000
 09692,0.00011175,-0.00020186,0.00018378,-0.00002918,-0.00000944,0.0000
 2256,0.00002247,0.00004667,0.00001916,-0.00000509,0.00000385,0.0000048
 8,0.00006828,-0.00042896,-0.00000326,0.00030685,0.00008257,-0.00016525
 ,-0.00027313,0.00012087,-0.00007952,-0.00016737,0.00009866,0.00017113,
 0.00001162,-0.00000272,0.00000578,0.00026120,0.00011051,-0.00013195,0.
 00000015,-0.00005956,0.00004670,-0.00004440,-0.00022373,-0.00010184,0.
 00000615,-0.00000422,0.00000453,0.00000381,0.00000724,0.00000274,-0.00
 000526,-0.00000517,0.00000210,-0.04036742,-0.04104850,0.02914514,-0.01
 537897,0.04409622,-0.04905115,0.06436673,-0.00123113,0.03431804,-0.053
 01603,-0.14083991,0.05700180,0.00101038,0.00521631,0.00529276,-0.05987
 194,-0.19411204,0.12243236,-0.00006033,0.00586996,0.00411659,0.0658957
 8,0.40615714,0.00046941,-0.00009408,-0.00203875,-0.00032212,-0.0007096
 6,0.00003600,-0.00127055,0.00020215,0.00021091,-0.00009829,-0.00024141
 ,0.00011852,-0.00016148,0.00004668,-0.00022172,0.00013148,-0.00012749,
 -0.00013392,-0.00001178,-0.00000062,0.00002751,0.00009642,-0.00008508,
 0.00030520,0.00015874,-0.00012864,-0.00001048,-0.00009252,0.00015434,-
 0.00015301,0.00002673,0.00000346,-0.00003996,-0.00001679,-0.00003616,-
 0.00001663,0.00000773,-0.00001151,0.00000105,-0.00000117,0.00042147,-0
 .00001540,-0.00022587,0.00000544,0.00014166,0.00018807,-0.00015672,0.0
 0001055,0.00014136,-0.00006733,-0.00013269,-0.00001323,-0.00000407,-0.
 00001735,-0.00019672,-0.00011728,0.00010093,0.00003393,0.00002147,-0.0
 0007272,0.00000781,0.00016988,0.00010584,-0.00001723,0.00000160,-0.000
 00473,-0.00003010,0.00001470,0.00000363,-0.00000738,0.00000318,-0.0000
 0176,0.03893296,0.03043159,-0.03255435,-0.00397593,-0.03561013,0.05426
 185,-0.06161933,0.02145223,-0.03681527,-0.01600269,0.03872196,-0.13997
 591,-0.00435036,0.00508519,0.00057760,0.04980003,0.14067539,-0.2487818
 7,-0.00414961,0.00437171,0.00208277,0.11680850,-0.27731816,0.57301956,
 0.00056013,0.00073112,-0.00065792,-0.00017883,0.00013257,-0.00019876,-
 0.00009701,0.00010176,0.00001405,-0.00001069,-0.00003334,-0.00005648,-
 0.00000304,-0.00002579,-0.00001091,0.00000503,0.00000338,-0.00001193,0
 .00000121,-0.00000766,0.00000897,0.00000670,-0.00000839,-0.00000153,0.
 00000712,-0.00000294,-0.00000470,-0.00000105,-0.00000246,-0.00001032,0
 .00000037,-0.00000062,-0.00000745,0.00000170,-0.00000366,-0.00000231,-
 0.00000055,-0.00000223,-0.00000147,0.00018737,-0.00003658,0.00000177,-
 0.00000275,-0.00003004,0.00003055,-0.00002442,0.00000226,0.00003000,-0
 .00001332,-0.00001227,0.00001825,0.00000154,0.00000574,-0.00001807,0.0
 0000659,0.00000113,0.00001068,-0.00000144,0.00000040,-0.00001327,-0.00
 003341,-0.00000869,0.00002714,-0.00001404,0.00000156,-0.00000780,-0.00
 000855,0.00000737,-0.00000071,-0.00000711,0.00000394,-0.00000474,-0.00
 361886,0.00012062,-0.00432363,0.00978519,0.01869926,-0.02292658,-0.001
 27636,0.00021769,-0.00034783,-0.08169185,-0.03737405,0.03794347,0.0010
 7448,0.00058577,0.00124239,-0.00557323,-0.00328834,-0.00057001,0.00005
 059,0.00019391,0.00017823,0.00065025,-0.02242149,0.02763100,0.07943962
 ,-0.00053688,-0.00025495,0.00001334,0.00003924,-0.00007133,0.00007476,
 0.00014466,-0.00004373,-0.00000004,0.00001512,0.00004295,0.00002655,-0
 .00002820,0.00005056,-0.00000522,-0.00001135,0.00000415,0.00001965,0.0
 0000213,-0.00000371,-0.00000857,0.00000851,-0.00002051,-0.00000458,0.0
 0000114,-0.00002263,0.00000419,0.00000791,-0.00000733,0.00001706,0.000
 00027,-0.00000395,0.00001476,-0.00000573,0.00000459,-0.00000097,0.0000
 0199,0.00000364,0.00001117,-0.00003733,0.00001550,0.00008917,-0.000024
 55,-0.00003340,-0.00000145,0.00007595,-0.00000016,-0.00001594,0.000019
 98,-0.00001264,-0.00003672,-0.00001133,-0.00000909,-0.00000085,-0.0000
 4654,0.00000584,-0.00000425,-0.00001299,-0.00000100,0.00002425,0.00004
 398,0.00004108,-0.00001846,0.00001213,0.00000222,0.00000300,0.00002045
 ,-0.00002507,-0.00000286,0.00001759,-0.00000357,0.00000254,0.00054633,
 0.00550482,0.00429428,-0.00493481,-0.00046914,0.00615029,0.00035212,-0
 .00013122,-0.00096733,-0.03717704,-0.17590367,0.15334133,0.00118771,-0
 .00254608,-0.00280453,-0.00363231,0.00540564,0.00341514,0.00019233,-0.
 00081931,-0.00051646,0.00117328,-0.00209827,0.01046265,0.04204722,0.17
 438593,0.00052134,0.00047260,-0.00045427,-0.00022822,0.00007232,-0.000
 23447,-0.00011736,0.00020274,0.00009880,0.00001800,-0.00009602,-0.0001
 0014,-0.00005600,-0.00003639,-0.00010192,-0.00000111,0.00000296,-0.000
 00807,0.00001476,-0.00001078,0.00001724,-0.00001396,0.00001698,0.00001
 260,0.00001990,0.00007390,0.00001658,-0.00000031,-0.00001202,-0.000027
 26,-0.00000271,-0.00000323,-0.00001729,0.00000997,-0.00002327,-0.00002
 481,0.00000292,-0.00000394,-0.00001283,0.00023922,-0.00004045,-0.00010
 363,-0.00008076,0.00001100,0.00006855,-0.00001341,0.00000408,0.0000371
 3,0.00001884,-0.00001710,-0.00000171,0.00000739,0.00000720,-0.00002000
 ,-0.00000894,-0.00002057,-0.00000349,0.00000479,-0.00002737,-0.0000132
 7,-0.00002970,0.00000609,0.00003340,-0.00002840,-0.00000780,-0.0000067
 1,-0.00000822,0.00000851,0.00000542,-0.00001578,0.00000325,0.00000175,
 -0.00449535,0.00387070,0.00210084,0.00781005,0.01413481,-0.01031934,-0
 .00035764,-0.00097351,0.00018072,0.03795528,0.15349267,-0.23613013,0.0
 0018747,-0.00304145,-0.00096327,-0.00019259,0.00355960,0.00424850,0.00
 019438,-0.00051211,-0.00051784,-0.00328618,0.00247366,0.00128376,-0.03
 933525,-0.17094822,0.24221460,-0.00077296,-0.00063051,0.00067057,0.000
 00587,0.00005114,-0.00001727,-0.00011582,0.00015105,0.00013478,0.00002
 912,-0.00006462,-0.00009460,0.00003195,-0.00005678,-0.00004280,0.00000
 938,0.00001125,-0.00002184,-0.00000893,-0.00000316,0.00001886,-0.00000
 352,0.00002446,-0.00000492,-0.00002333,0.00004638,0.00002377,0.0000052
 6,-0.00000478,-0.00003850,-0.00001248,-0.00000203,-0.00002266,-0.00000
 420,-0.00002487,-0.00000769,-0.00000646,-0.00000821,-0.00001720,-0.000
 04092,0.00010296,-0.00038638,-0.00008579,0.00004658,0.00006572,-0.0000
 8123,-0.00003295,0.00001335,0.00002008,-0.00000112,0.00001862,0.000006
 80,0.00000309,-0.00000212,0.00001428,-0.00002655,-0.00000560,0.0000143
 7,-0.00001037,-0.00001153,-0.00003392,0.00000176,0.00001394,-0.0000185
 6,-0.00001142,0.00000423,-0.00001467,0.00001206,0.00001758,-0.00001562
 ,0.00000088,0.00000616,-0.00136874,0.00081317,-0.00464075,0.00065259,0
 .00077523,-0.00047688,-0.01823637,-0.01274126,0.00840695,0.00198935,-0
 .00152987,-0.00028130,-0.00013731,0.00013384,0.00021007,-0.32411551,-0
 .10342235,0.04074339,0.00099663,0.00141295,0.00027069,-0.00017022,0.00
 099262,-0.00320514,-0.00023113,-0.00000301,-0.00003427,0.34082523,0.00
 046573,0.00013829,-0.00019050,-0.00001964,-0.00005105,0.00000203,-0.00
 009885,0.00001674,-0.00005412,-0.00002186,-0.00003417,0.00002097,0.000
 00620,-0.00001184,-0.00002253,0.00001257,-0.00001118,-0.00000630,0.000
 00355,-0.00000443,0.00000334,0.00001245,0.00002833,0.00000397,-0.00002
 594,0.00000090,0.00002709,-0.00000103,0.00000266,-0.00002483,0.0000025
 2,0.00000013,-0.00000257,-0.00000804,-0.00001820,-0.00000454,-0.000005
 38,-0.00000262,-0.00000452,-0.00004254,-0.00010320,0.00001875,0.000032
 99,0.00002317,-0.00002841,-0.00001025,0.00004944,-0.00000070,-0.000027
 65,0.00002195,0.00001698,0.00000198,-0.00000282,0.00000421,0.00004195,
 0.00000749,-0.00002302,0.00000225,-0.00001598,0.00000899,-0.00000685,-
 0.00003876,-0.00002130,0.00000065,-0.00000427,0.00000378,0.00000597,0.
 00000017,-0.00000207,-0.00000123,-0.00000235,0.00000251,0.00067135,0.0
 0527272,0.00523154,0.00079421,-0.00077265,0.00005073,0.01110223,0.0087
 0457,-0.00015882,-0.00120895,0.00265844,0.00732233,0.00012851,-0.00074
 997,-0.00061357,-0.10360826,-0.09809349,0.02856090,0.00062958,-0.00262
 322,-0.00308864,-0.02270099,-0.00187206,0.00179175,-0.00102787,-0.0004
 0455,0.00008968,0.11349938,0.09026890,-0.00079116,-0.00043733,0.000330
 79,0.00007114,-0.00000069,0.00007193,-0.00005305,0.00005114,0.00004973
 ,-0.00000376,-0.00001525,-0.00003881,0.00001414,-0.00000465,-0.0000331
 8,0.00000854,0.00001099,-0.00000191,-0.00000487,-0.00000809,0.00000736
 ,0.00001335,-0.00000100,-0.00001623,-0.00002673,-0.00000339,0.00000778
 ,0.00001018,-0.00001476,-0.00001937,-0.00000353,-0.00000369,-0.0000027
 7,-0.00000623,-0.00001292,-0.00000581,-0.00000535,-0.00000309,-0.00000
 014,-0.00015432,0.00001111,-0.00029100,-0.00001355,0.00000194,0.000025
 34,-0.00003665,0.00003329,0.00003063,-0.00001852,-0.00000025,0.0000404
 8,-0.00000701,0.00000264,-0.00001755,0.00004145,-0.00000226,-0.0000014
 7,0.00000086,0.00000315,-0.00000220,-0.00003226,-0.00003220,-0.0000068
 7,-0.00000820,-0.00000309,0.00000197,-0.00000043,0.00000312,-0.0000006
 3,-0.00000287,0.00000123,-0.00000171,-0.00402215,0.00529749,0.00069299
 ,-0.00034581,0.00004187,-0.00108118,-0.02245720,-0.00832631,0.00874541
 ,-0.00073900,0.00723800,-0.00093011,0.00014796,-0.00063558,-0.00037514
 ,0.04089723,0.02862817,-0.07178212,0.00130079,-0.00287726,-0.00101862,
 0.02746407,0.00987975,0.00195372,0.00124945,0.00041268,-0.00021005,-0.
 04259436,-0.03624932,0.06479625,0.00006126,0.00017704,0.00019214,-0.00
 001940,0.00007239,-0.00007277,-0.00001228,0.00003366,0.00005705,0.0000
 0743,-0.00002820,-0.00001873,0.00002198,-0.00004792,-0.00001267,0.0000
 0406,-0.00000636,-0.00000853,0.00000031,0.00000032,0.00000684,-0.00001
 306,0.00003359,0.00000265,-0.00002159,0.00004096,0.00002075,-0.0000038
 8,0.00000123,-0.00001612,-0.00000439,0.00000204,-0.00001124,0.00000363
 ,-0.00001114,-0.00000436,-0.00000180,-0.00000327,-0.00001299,0.0000299
 8,0.00001012,-0.00007050,-0.00004149,0.00006422,0.00000054,-0.00002104
 ,-0.00002851,-0.00003128,0.00003619,0.00001486,-0.00002012,0.00001475,
 -0.00000022,0.00002258,0.00000139,-0.00002316,-0.00001186,0.00001217,-
 0.00001200,-0.00000255,-0.00000272,0.00000667,0.00001582,-0.00001021,-
 0.00001005,0.00000173,-0.00000932,0.00001305,0.00000963,-0.00001525,0.
 00000095,0.00000626,-0.00006718,-0.00054791,0.00103218,-0.00416861,-0.
 00431595,0.00121498,0.00125259,-0.00239855,0.00058084,-0.01740223,0.01
 201879,-0.02324614,-0.00101980,0.00050114,-0.00096540,0.00938175,-0.00
 446978,0.00726219,0.00021940,-0.00012530,0.00026369,-0.24063574,0.0570
 9420,-0.13866587,0.00100975,0.00055203,0.00130183,0.00089681,0.0014012
 3,0.00010782,0.25051656,0.00014977,-0.00060679,-0.00061424,-0.00006853
 ,-0.00005354,0.00007345,-0.00005353,0.00007027,-0.00010441,0.00000916,
 -0.00001094,-0.00003747,0.00001519,0.00001536,-0.00001053,-0.00000199,
 0.00001266,-0.00000633,-0.00000519,-0.00000387,-0.00000072,0.00000388,
 -0.00000081,-0.00000513,-0.00001800,0.00000014,0.00001767,0.00000068,-
 0.00000685,0.00000171,0.00000128,-0.00000399,0.00000282,-0.00000302,-0
 .00000240,-0.00000442,-0.00000075,0.00000168,0.00000433,-0.00004162,0.
 00002037,0.00004332,0.00003801,0.00002154,-0.00002999,0.00000987,0.000
 00883,-0.00004282,0.00001287,0.00000231,-0.00000464,-0.00000265,-0.000
 00841,0.00000255,-0.00000240,0.00000219,-0.00000603,-0.00000805,0.0000
 0090,0.00001475,0.00000601,0.00000132,0.00000283,0.00000137,0.00000134
 ,-0.00000258,0.00000765,-0.00000634,-0.00000181,0.00000371,0.00000009,
 -0.00000027,-0.00047211,-0.00100488,-0.00012174,-0.00390051,0.00471951
 ,0.00430308,-0.00282282,0.00261633,0.00685803,-0.01158806,0.00867673,-
 0.00838815,-0.00043693,0.00012300,-0.00041670,0.01928685,-0.00024840,0
 .01340729,0.00088047,-0.00035094,0.00061600,0.05708378,-0.08014953,0.0
 6067149,0.00143072,-0.00258161,-0.00272852,0.00049504,-0.00237711,-0.0
 0298544,-0.06001018,0.07112183,0.00004360,-0.00050976,-0.00041446,0.00
 000249,-0.00012467,0.00007885,-0.00011642,0.00009838,-0.00000985,0.000
 00937,-0.00005196,-0.00003743,-0.00000648,-0.00002095,-0.00004098,0.00
 000621,-0.00000508,-0.00001016,0.00000614,-0.00000363,0.00000829,-0.00
 000384,0.00003043,0.00001571,-0.00000718,0.00003962,0.00002054,-0.0000
 0167,0.00000249,-0.00002157,-0.00000241,-0.00000020,-0.00001129,-0.000
 00096,-0.00001962,-0.00001017,-0.00000271,-0.00000405,-0.00001107,-0.0
 0000233,-0.00001998,-0.00005985,-0.00001422,0.00002302,0.00001798,-0.0
 0002902,0.00002149,-0.00000854,0.00000302,0.00000379,0.00000619,0.0000
 0437,-0.00000240,-0.00000077,0.00000940,-0.00001025,-0.00001586,0.0000
 0448,-0.00001702,-0.00000060,-0.00001376,-0.00000505,0.00000479,-0.000
 00957,-0.00000522,-0.00000087,-0.00000056,0.00000237,0.00000644,-0.000
 00693,-0.00000091,0.00000396,0.00110053,-0.00021749,-0.00026864,0.0006
 4929,0.00421956,0.00369786,0.00108939,0.00696842,0.00004838,0.00779329
 ,-0.00033971,0.00825746,0.00030241,-0.00009185,0.00013681,-0.02351106,
 0.00525678,-0.00972694,-0.00098143,0.00027418,-0.00073751,-0.13879790,
 0.06072080,-0.17325453,0.00012573,-0.00304036,-0.00104938,0.00128715,-
 0.00266378,-0.00091753,0.15107159,-0.07050739,0.17430475||-0.00001906,
 0.00000690,-0.00000320,0.00000699,-0.00000040,0.00000277,-0.00000524,0
 .00003100,-0.00001450,0.00000251,-0.00000521,0.00003262,0.00001230,-0.
 00003933,-0.00002861,0.00000090,-0.00003343,-0.00002137,-0.00000101,-0
 .00000068,-0.00000435,0.00000292,-0.00000136,0.00004607,-0.00000580,0.
 00000216,-0.00000348,-0.00000924,0.00003955,-0.00001888,-0.00000066,0.
 00000407,0.00000296,-0.00000032,0.00000101,-0.00000344,0.00000212,-0.0
 0000287,0.00000360,0.00000257,0.00000472,-0.00000666,-0.00001760,-0.00
 001098,0.00000675,0.00000326,-0.00000259,0.00000205,0.00001283,-0.0000
 0923,-0.00000693,0.00000142,0.00000399,0.00000115,-0.00000621,0.000001
 58,-0.00000102,-0.00000164,-0.00000031,-0.00000030,0.00000329,0.000011
 91,-0.00000033,-0.00000167,0.00000347,-0.00000057,0.00000077,-0.000001
 67,0.00000119,0.00000116,-0.00000173,-0.00000013,0.00003838,0.00002904
 ,-0.00001150,0.00001685,-0.00003418,0.00005131,-0.00004376,-0.00000329
 ,-0.00001234,-0.00005484,-0.00000422,-0.00001784,0.00000659,0.00000226
 ,-0.00000434,0.00001874,-0.00002569,0.00003321,0.00000483,-0.00000039,
 0.00000286,0.00002886,0.00003434,-0.00002585,0.00000455,0.00000156,0.0
 0000074,-0.00000140,0.00000187,-0.00000226,-0.00000337,-0.00000187,0.0
 0000063|||@


 IT CANNOT BE MY BEAUTY, FOR I HAVE NONE; AND IT CANNOT BE MY WIT,
 FOR HE HAS NOT ENOUGH TO KNOW THAT I HAVE ANY.
 -- CATHARINE SEDLEY, PUZZLED ABOUT WHY SHE WAS MISTRESS TO JAMES II
 Job cpu time:  0 days  0 hours  6 minutes 36.0 seconds.
 File lengths (MBytes):  RWF=    350 Int=      0 D2E=      0 Chk=      7 Scr=      1
 Normal termination of Gaussian 09 at Mon Sep 06 14:54:37 2021.
