 Entering Link 1 = b:\programy\g09w\l1.exe PID=     14920.
  
 Copyright (c) 1988,1990,1992,1993,1995,1998,2003,2009, Gaussian, Inc.
                  All Rights Reserved.
  
 This is part of the Gaussian(R) 09 program.  It is based on
 the Gaussian(R) 03 system (copyright 2003, Gaussian, Inc.),
 the Gaussian(R) 98 system (copyright 1998, Gaussian, Inc.),
 the Gaussian(R) 94 system (copyright 1995, Gaussian, Inc.),
 the Gaussian 92(TM) system (copyright 1992, Gaussian, Inc.),
 the Gaussian 90(TM) system (copyright 1990, Gaussian, Inc.),
 the Gaussian 88(TM) system (copyright 1988, Gaussian, Inc.),
 the Gaussian 86(TM) system (copyright 1986, Carnegie Mellon
 University), and the Gaussian 82(TM) system (copyright 1983,
 Carnegie Mellon University). Gaussian is a federally registered
 trademark of Gaussian, Inc.
  
 This software contains proprietary and confidential information,
 including trade secrets, belonging to Gaussian, Inc.
  
 This software is provided under written license and may be
 used, copied, transmitted, or stored only in accord with that
 written license.
  
 The following legend is applicable only to US Government
 contracts under FAR:
  
                    RESTRICTED RIGHTS LEGEND
  
 Use, reproduction and disclosure by the US Government is
 subject to restrictions as set forth in subparagraphs (a)
 and (c) of the Commercial Computer Software - Restricted
 Rights clause in FAR 52.227-19.
  
 Gaussian, Inc.
 340 Quinnipiac St., Bldg. 40, Wallingford CT 06492
  
  
 ---------------------------------------------------------------
 Warning -- This program may not be used in any manner that
 competes with the business of Gaussian, Inc. or will provide
 assistance to any competitor of Gaussian, Inc.  The licensee
 of this program is prohibited from giving any competitor of
 Gaussian, Inc. access to this program.  By using this program,
 the user acknowledges that Gaussian, Inc. is engaged in the
 business of creating and licensing software in the field of
 computational chemistry and represents and warrants to the
 licensee that it is not a competitor of Gaussian, Inc. and that
 it will not use this program in any manner prohibited above.
 ---------------------------------------------------------------
  

 Cite this work as:
 Gaussian 09, Revision A.02,
 M. J. Frisch, G. W. Trucks, H. B. Schlegel, G. E. Scuseria, 
 M. A. Robb, J. R. Cheeseman, G. Scalmani, V. Barone, B. Mennucci, 
 G. A. Petersson, H. Nakatsuji, M. Caricato, X. Li, H. P. Hratchian, 
 A. F. Izmaylov, J. Bloino, G. Zheng, J. L. Sonnenberg, M. Hada, 
 M. Ehara, K. Toyota, R. Fukuda, J. Hasegawa, M. Ishida, T. Nakajima, 
 Y. Honda, O. Kitao, H. Nakai, T. Vreven, J. A. Montgomery, Jr., 
 J. E. Peralta, F. Ogliaro, M. Bearpark, J. J. Heyd, E. Brothers, 
 K. N. Kudin, V. N. Staroverov, R. Kobayashi, J. Normand, 
 K. Raghavachari, A. Rendell, J. C. Burant, S. S. Iyengar, J. Tomasi, 
 M. Cossi, N. Rega, J. M. Millam, M. Klene, J. E. Knox, J. B. Cross, 
 V. Bakken, C. Adamo, J. Jaramillo, R. Gomperts, R. E. Stratmann, 
 O. Yazyev, A. J. Austin, R. Cammi, C. Pomelli, J. W. Ochterski, 
 R. L. Martin, K. Morokuma, V. G. Zakrzewski, G. A. Voth, 
 P. Salvador, J. J. Dannenberg, S. Dapprich, A. D. Daniels, 
 O. Farkas, J. B. Foresman, J. V. Ortiz, J. Cioslowski, 
 and D. J. Fox, Gaussian, Inc., Wallingford CT, 2009.
 
 ******************************************
 Gaussian 09:  IA32W-G09RevA.02 11-Jun-2009
                06-Sep-2021 
 ******************************************
 %nprocshared=12
 Will use up to   12 processors via shared memory.
 ----------------------------------------------
 # opt freq=noraman hf/6-311g geom=connectivity
 ----------------------------------------------
 1/18=20,19=15,38=1,57=2/1,3;
 2/9=110,12=2,17=6,18=5,40=1/2;
 3/5=4,6=6,11=9,16=1,25=1,30=1,71=1/1,2,3;
 4//1;
 5/5=2,38=5/2;
 6/7=2,8=2,9=2,10=2,28=1/1;
 7//1,2,3,16;
 1/18=20,19=15/3(2);
 2/9=110/2;
 99//99;
 2/9=110/2;
 3/5=4,6=6,11=9,16=1,25=1,30=1,71=1/1,2,3;
 4/5=5,16=3/1;
 5/5=2,38=5/2;
 7//1,2,3,16;
 1/18=20,19=15/3(-5);
 2/9=110/2;
 6/7=2,8=2,9=2,10=2,19=2,28=1/1;
 99/9=1/99;
 -----
 M0001
 -----
 Symbolic Z-matrix:
 Charge =  0 Multiplicity = 1
 C                     0.        0.        0.77449 
 H                     0.        0.        1.89917 
 C                    -0.24352   1.42492   0.34054 
 C                    -0.41141   2.40733   1.31986 
 C                    -0.30649   1.79342  -1.00417 
 C                    -0.63752   3.73037   0.95773 
 H                    -0.36219   2.13656   2.3813 
 C                    -0.53511   3.11531  -1.36548 
 H                    -0.1735    1.01521  -1.77686 
 C                    -0.70054   4.08724  -0.3847 
 H                    -0.76772   4.49227   1.73305 
 H                    -0.58361   3.39013  -2.42404 
 H                    -0.87966   5.12916  -0.66846 
 C                     1.35578  -0.50157   0.34054 
 C                     1.7064   -0.63128  -1.00417 
 C                     2.29051  -0.84737   1.31986 
 C                     2.96549  -1.09424  -1.36548 
 H                     0.96594  -0.35735  -1.77686 
 C                     3.54935  -1.31308   0.95773 
 H                     2.03141  -0.75462   2.3813 
 C                     3.88992  -1.43693  -0.3847 
 H                     3.22774  -1.18965  -2.42404 
 H                     4.27428  -1.58127   1.73305 
 H                     4.88181  -1.80277  -0.66846 
 C                    -1.11226  -0.92335   0.34054 
 C                    -1.3999   -1.16214  -1.00417 
 C                    -1.8791   -1.55995   1.31986 
 C                    -2.43038  -2.02108  -1.36548 
 H                    -0.79245  -0.65786  -1.77686 
 C                    -2.91184  -2.41729   0.95773 
 H                    -1.66922  -1.38194   2.3813 
 C                    -3.18938  -2.65031  -0.3847 
 H                    -2.64414  -2.20048  -2.42404 
 H                    -3.50656  -2.911     1.73305 
 H                    -4.00215  -3.32639  -0.66846 
 

 GradGradGradGradGradGradGradGradGradGradGradGradGradGradGradGradGradGrad
 Berny optimization.
 Initialization pass.
                           ----------------------------
                           !    Initial Parameters    !
                           ! (Angstroms and Degrees)  !
 --------------------------                            --------------------------
 ! Name  Definition              Value          Derivative Info.                !
 --------------------------------------------------------------------------------
 ! R1    R(1,2)                  1.1247         estimate D2E/DX2                !
 ! R2    R(1,3)                  1.5093         estimate D2E/DX2                !
 ! R3    R(1,14)                 1.5093         estimate D2E/DX2                !
 ! R4    R(1,25)                 1.5093         estimate D2E/DX2                !
 ! R5    R(3,4)                  1.3973         estimate D2E/DX2                !
 ! R6    R(3,5)                  1.3957         estimate D2E/DX2                !
 ! R7    R(4,6)                  1.3902         estimate D2E/DX2                !
 ! R8    R(4,7)                  1.0965         estimate D2E/DX2                !
 ! R9    R(5,8)                  1.3893         estimate D2E/DX2                !
 ! R10   R(5,9)                  1.1047         estimate D2E/DX2                !
 ! R11   R(6,10)                 1.3905         estimate D2E/DX2                !
 ! R12   R(6,11)                 1.0948         estimate D2E/DX2                !
 ! R13   R(8,10)                 1.3907         estimate D2E/DX2                !
 ! R14   R(8,12)                 1.0947         estimate D2E/DX2                !
 ! R15   R(10,13)                1.0946         estimate D2E/DX2                !
 ! R16   R(14,15)                1.3957         estimate D2E/DX2                !
 ! R17   R(14,16)                1.3973         estimate D2E/DX2                !
 ! R18   R(15,17)                1.3893         estimate D2E/DX2                !
 ! R19   R(15,18)                1.1047         estimate D2E/DX2                !
 ! R20   R(16,19)                1.3902         estimate D2E/DX2                !
 ! R21   R(16,20)                1.0965         estimate D2E/DX2                !
 ! R22   R(17,21)                1.3907         estimate D2E/DX2                !
 ! R23   R(17,22)                1.0947         estimate D2E/DX2                !
 ! R24   R(19,21)                1.3905         estimate D2E/DX2                !
 ! R25   R(19,23)                1.0948         estimate D2E/DX2                !
 ! R26   R(21,24)                1.0946         estimate D2E/DX2                !
 ! R27   R(25,26)                1.3957         estimate D2E/DX2                !
 ! R28   R(25,27)                1.3973         estimate D2E/DX2                !
 ! R29   R(26,28)                1.3893         estimate D2E/DX2                !
 ! R30   R(26,29)                1.1047         estimate D2E/DX2                !
 ! R31   R(27,30)                1.3902         estimate D2E/DX2                !
 ! R32   R(27,31)                1.0965         estimate D2E/DX2                !
 ! R33   R(28,32)                1.3907         estimate D2E/DX2                !
 ! R34   R(28,33)                1.0947         estimate D2E/DX2                !
 ! R35   R(30,32)                1.3905         estimate D2E/DX2                !
 ! R36   R(30,34)                1.0948         estimate D2E/DX2                !
 ! R37   R(32,35)                1.0946         estimate D2E/DX2                !
 ! A1    A(2,1,3)              106.7092         estimate D2E/DX2                !
 ! A2    A(2,1,14)             106.7092         estimate D2E/DX2                !
 ! A3    A(2,1,25)             106.7092         estimate D2E/DX2                !
 ! A4    A(3,1,14)             112.0864         estimate D2E/DX2                !
 ! A5    A(3,1,25)             112.0864         estimate D2E/DX2                !
 ! A6    A(14,1,25)            112.0864         estimate D2E/DX2                !
 ! A7    A(1,3,4)              118.7933         estimate D2E/DX2                !
 ! A8    A(1,3,5)              122.2457         estimate D2E/DX2                !
 ! A9    A(4,3,5)              118.961          estimate D2E/DX2                !
 ! A10   A(3,4,6)              120.4037         estimate D2E/DX2                !
 ! A11   A(3,4,7)              119.9628         estimate D2E/DX2                !
 ! A12   A(6,4,7)              119.6332         estimate D2E/DX2                !
 ! A13   A(3,5,8)              120.6102         estimate D2E/DX2                !
 ! A14   A(3,5,9)              118.847          estimate D2E/DX2                !
 ! A15   A(8,5,9)              120.5426         estimate D2E/DX2                !
 ! A16   A(4,6,10)             120.2054         estimate D2E/DX2                !
 ! A17   A(4,6,11)             119.8134         estimate D2E/DX2                !
 ! A18   A(10,6,11)            119.9812         estimate D2E/DX2                !
 ! A19   A(5,8,10)             120.0756         estimate D2E/DX2                !
 ! A20   A(5,8,12)             119.8423         estimate D2E/DX2                !
 ! A21   A(10,8,12)            120.0821         estimate D2E/DX2                !
 ! A22   A(6,10,8)             119.7438         estimate D2E/DX2                !
 ! A23   A(6,10,13)            120.1308         estimate D2E/DX2                !
 ! A24   A(8,10,13)            120.1254         estimate D2E/DX2                !
 ! A25   A(1,14,15)            122.2457         estimate D2E/DX2                !
 ! A26   A(1,14,16)            118.7933         estimate D2E/DX2                !
 ! A27   A(15,14,16)           118.961          estimate D2E/DX2                !
 ! A28   A(14,15,17)           120.6102         estimate D2E/DX2                !
 ! A29   A(14,15,18)           118.847          estimate D2E/DX2                !
 ! A30   A(17,15,18)           120.5426         estimate D2E/DX2                !
 ! A31   A(14,16,19)           120.4037         estimate D2E/DX2                !
 ! A32   A(14,16,20)           119.9628         estimate D2E/DX2                !
 ! A33   A(19,16,20)           119.6332         estimate D2E/DX2                !
 ! A34   A(15,17,21)           120.0756         estimate D2E/DX2                !
 ! A35   A(15,17,22)           119.8423         estimate D2E/DX2                !
 ! A36   A(21,17,22)           120.0821         estimate D2E/DX2                !
 ! A37   A(16,19,21)           120.2054         estimate D2E/DX2                !
 ! A38   A(16,19,23)           119.8134         estimate D2E/DX2                !
 ! A39   A(21,19,23)           119.9812         estimate D2E/DX2                !
 ! A40   A(17,21,19)           119.7438         estimate D2E/DX2                !
 ! A41   A(17,21,24)           120.1254         estimate D2E/DX2                !
 ! A42   A(19,21,24)           120.1308         estimate D2E/DX2                !
 ! A43   A(1,25,26)            122.2457         estimate D2E/DX2                !
 ! A44   A(1,25,27)            118.7933         estimate D2E/DX2                !
 ! A45   A(26,25,27)           118.961          estimate D2E/DX2                !
 ! A46   A(25,26,28)           120.6102         estimate D2E/DX2                !
 ! A47   A(25,26,29)           118.847          estimate D2E/DX2                !
 ! A48   A(28,26,29)           120.5426         estimate D2E/DX2                !
 ! A49   A(25,27,30)           120.4037         estimate D2E/DX2                !
 ! A50   A(25,27,31)           119.9628         estimate D2E/DX2                !
 ! A51   A(30,27,31)           119.6332         estimate D2E/DX2                !
 ! A52   A(26,28,32)           120.0756         estimate D2E/DX2                !
 ! A53   A(26,28,33)           119.8423         estimate D2E/DX2                !
 ! A54   A(32,28,33)           120.0821         estimate D2E/DX2                !
 ! A55   A(27,30,32)           120.2054         estimate D2E/DX2                !
 ! A56   A(27,30,34)           119.8134         estimate D2E/DX2                !
 ! A57   A(32,30,34)           119.9812         estimate D2E/DX2                !
 ! A58   A(28,32,30)           119.7438         estimate D2E/DX2                !
 ! A59   A(28,32,35)           120.1254         estimate D2E/DX2                !
 ! A60   A(30,32,35)           120.1308         estimate D2E/DX2                !
 ! D1    D(2,1,3,4)              0.0            estimate D2E/DX2                !
 ! D2    D(2,1,3,5)           -180.0            estimate D2E/DX2                !
 ! D3    D(14,1,3,4)          -116.4728         estimate D2E/DX2                !
 ! D4    D(14,1,3,5)            63.5272         estimate D2E/DX2                !
 ! D5    D(25,1,3,4)           116.4728         estimate D2E/DX2                !
 ! D6    D(25,1,3,5)           -63.5272         estimate D2E/DX2                !
 ! D7    D(2,1,14,15)         -180.0            estimate D2E/DX2                !
 ! D8    D(2,1,14,16)            0.0            estimate D2E/DX2                !
 ! D9    D(3,1,14,15)          -63.5272         estimate D2E/DX2                !
 ! D10   D(3,1,14,16)          116.4728         estimate D2E/DX2                !
 ! D11   D(25,1,14,15)          63.5272         estimate D2E/DX2                !
 ! D12   D(25,1,14,16)        -116.4728         estimate D2E/DX2                !
 ! D13   D(2,1,25,26)          180.0            estimate D2E/DX2                !
 ! D14   D(2,1,25,27)            0.0            estimate D2E/DX2                !
 ! D15   D(3,1,25,26)           63.5272         estimate D2E/DX2                !
 ! D16   D(3,1,25,27)         -116.4728         estimate D2E/DX2                !
 ! D17   D(14,1,25,26)         -63.5272         estimate D2E/DX2                !
 ! D18   D(14,1,25,27)         116.4728         estimate D2E/DX2                !
 ! D19   D(1,3,4,6)           -180.0            estimate D2E/DX2                !
 ! D20   D(1,3,4,7)              0.1754         estimate D2E/DX2                !
 ! D21   D(5,3,4,6)              0.0            estimate D2E/DX2                !
 ! D22   D(5,3,4,7)           -179.8246         estimate D2E/DX2                !
 ! D23   D(1,3,5,8)            179.8721         estimate D2E/DX2                !
 ! D24   D(1,3,5,9)              0.0            estimate D2E/DX2                !
 ! D25   D(4,3,5,8)             -0.1279         estimate D2E/DX2                !
 ! D26   D(4,3,5,9)           -180.0            estimate D2E/DX2                !
 ! D27   D(3,4,6,10)             0.0958         estimate D2E/DX2                !
 ! D28   D(3,4,6,11)          -180.0            estimate D2E/DX2                !
 ! D29   D(7,4,6,10)           179.9209         estimate D2E/DX2                !
 ! D30   D(7,4,6,11)            -0.1748         estimate D2E/DX2                !
 ! D31   D(3,5,8,10)             0.1603         estimate D2E/DX2                !
 ! D32   D(3,5,8,12)          -179.9071         estimate D2E/DX2                !
 ! D33   D(9,5,8,10)          -179.9698         estimate D2E/DX2                !
 ! D34   D(9,5,8,12)            -0.0372         estimate D2E/DX2                !
 ! D35   D(4,6,10,8)            -0.0641         estimate D2E/DX2                !
 ! D36   D(4,6,10,13)          179.937          estimate D2E/DX2                !
 ! D37   D(11,6,10,8)         -179.9682         estimate D2E/DX2                !
 ! D38   D(11,6,10,13)           0.0329         estimate D2E/DX2                !
 ! D39   D(5,8,10,6)            -0.0631         estimate D2E/DX2                !
 ! D40   D(5,8,10,13)          179.9357         estimate D2E/DX2                !
 ! D41   D(12,8,10,6)         -179.9956         estimate D2E/DX2                !
 ! D42   D(12,8,10,13)           0.0033         estimate D2E/DX2                !
 ! D43   D(1,14,15,17)         179.8721         estimate D2E/DX2                !
 ! D44   D(1,14,15,18)           0.0            estimate D2E/DX2                !
 ! D45   D(16,14,15,17)         -0.1279         estimate D2E/DX2                !
 ! D46   D(16,14,15,18)       -180.0            estimate D2E/DX2                !
 ! D47   D(1,14,16,19)        -180.0            estimate D2E/DX2                !
 ! D48   D(1,14,16,20)           0.1754         estimate D2E/DX2                !
 ! D49   D(15,14,16,19)          0.0            estimate D2E/DX2                !
 ! D50   D(15,14,16,20)       -179.8246         estimate D2E/DX2                !
 ! D51   D(14,15,17,21)          0.1603         estimate D2E/DX2                !
 ! D52   D(14,15,17,22)       -179.9071         estimate D2E/DX2                !
 ! D53   D(18,15,17,21)       -179.9698         estimate D2E/DX2                !
 ! D54   D(18,15,17,22)         -0.0372         estimate D2E/DX2                !
 ! D55   D(14,16,19,21)          0.0958         estimate D2E/DX2                !
 ! D56   D(14,16,19,23)       -180.0            estimate D2E/DX2                !
 ! D57   D(20,16,19,21)        179.9209         estimate D2E/DX2                !
 ! D58   D(20,16,19,23)         -0.1748         estimate D2E/DX2                !
 ! D59   D(15,17,21,19)         -0.0631         estimate D2E/DX2                !
 ! D60   D(15,17,21,24)        179.9357         estimate D2E/DX2                !
 ! D61   D(22,17,21,19)       -179.9956         estimate D2E/DX2                !
 ! D62   D(22,17,21,24)          0.0033         estimate D2E/DX2                !
 ! D63   D(16,19,21,17)         -0.0642         estimate D2E/DX2                !
 ! D64   D(16,19,21,24)        179.937          estimate D2E/DX2                !
 ! D65   D(23,19,21,17)       -179.9682         estimate D2E/DX2                !
 ! D66   D(23,19,21,24)          0.0329         estimate D2E/DX2                !
 ! D67   D(1,25,26,28)         179.8721         estimate D2E/DX2                !
 ! D68   D(1,25,26,29)           0.0            estimate D2E/DX2                !
 ! D69   D(27,25,26,28)         -0.1279         estimate D2E/DX2                !
 ! D70   D(27,25,26,29)        180.0            estimate D2E/DX2                !
 ! D71   D(1,25,27,30)        -180.0            estimate D2E/DX2                !
 ! D72   D(1,25,27,31)           0.1754         estimate D2E/DX2                !
 ! D73   D(26,25,27,30)          0.0            estimate D2E/DX2                !
 ! D74   D(26,25,27,31)       -179.8246         estimate D2E/DX2                !
 ! D75   D(25,26,28,32)          0.1603         estimate D2E/DX2                !
 ! D76   D(25,26,28,33)       -179.9071         estimate D2E/DX2                !
 ! D77   D(29,26,28,32)       -179.9698         estimate D2E/DX2                !
 ! D78   D(29,26,28,33)         -0.0372         estimate D2E/DX2                !
 ! D79   D(25,27,30,32)          0.0958         estimate D2E/DX2                !
 ! D80   D(25,27,30,34)        180.0            estimate D2E/DX2                !
 ! D81   D(31,27,30,32)        179.9209         estimate D2E/DX2                !
 ! D82   D(31,27,30,34)         -0.1748         estimate D2E/DX2                !
 ! D83   D(26,28,32,30)         -0.0631         estimate D2E/DX2                !
 ! D84   D(26,28,32,35)        179.9357         estimate D2E/DX2                !
 ! D85   D(33,28,32,30)       -179.9956         estimate D2E/DX2                !
 ! D86   D(33,28,32,35)          0.0033         estimate D2E/DX2                !
 ! D87   D(27,30,32,28)         -0.0641         estimate D2E/DX2                !
 ! D88   D(27,30,32,35)        179.937          estimate D2E/DX2                !
 ! D89   D(34,30,32,28)       -179.9682         estimate D2E/DX2                !
 ! D90   D(34,30,32,35)          0.0329         estimate D2E/DX2                !
 --------------------------------------------------------------------------------
 Trust Radius=3.00D-01 FncErr=1.00D-07 GrdErr=1.00D-07
 Number of steps in this run= 197 maximum allowed number of steps= 210.
 GradGradGradGradGradGradGradGradGradGradGradGradGradGradGradGradGradGrad

                          Input orientation:                          
 ---------------------------------------------------------------------
 Center     Atomic      Atomic             Coordinates (Angstroms)
 Number     Number       Type             X           Y           Z
 ---------------------------------------------------------------------
      1          6           0        0.000000    0.000000    0.774491
      2          1           0        0.000000    0.000000    1.899173
      3          6           0       -0.243517    1.424920    0.340544
      4          6           0       -0.411410    2.407326    1.319863
      5          6           0       -0.306494    1.793423   -1.004170
      6          6           0       -0.637516    3.730369    0.957734
      7          1           0       -0.362186    2.136561    2.381296
      8          6           0       -0.535111    3.115312   -1.365478
      9          1           0       -0.173498    1.015207   -1.776860
     10          6           0       -0.700542    4.087238   -0.384705
     11          1           0       -0.767724    4.492268    1.733054
     12          1           0       -0.583606    3.390131   -2.424043
     13          1           0       -0.879659    5.129158   -0.668457
     14          6           0        1.355776   -0.501568    0.340544
     15          6           0        1.706397   -0.631280   -1.004170
     16          6           0        2.290510   -0.847372    1.319863
     17          6           0        2.965495   -1.094236   -1.365478
     18          1           0        0.965944   -0.357350   -1.776860
     19          6           0        3.549352   -1.313079    0.957734
     20          1           0        2.031409   -0.754618    2.381296
     21          6           0        3.889923   -1.436932   -0.384705
     22          1           0        3.227742   -1.189648   -2.424043
     23          1           0        4.274280   -1.581265    1.733054
     24          1           0        4.881811   -1.802772   -0.668457
     25          6           0       -1.112258   -0.923352    0.340544
     26          6           0       -1.399903   -1.162143   -1.004170
     27          6           0       -1.879101   -1.559954    1.319863
     28          6           0       -2.430384   -2.021076   -1.365478
     29          1           0       -0.792446   -0.657857   -1.776860
     30          6           0       -2.911836   -2.417290    0.957734
     31          1           0       -1.669223   -1.381942    2.381296
     32          6           0       -3.189381   -2.650307   -0.384705
     33          1           0       -2.644136   -2.200483   -2.424043
     34          1           0       -3.506556   -2.911002    1.733054
     35          1           0       -4.002151   -3.326386   -0.668457
 ---------------------------------------------------------------------
                    Distance matrix (angstroms):
                    1          2          3          4          5
     1  C    0.000000
     2  H    1.124682   0.000000
     3  C    1.509307   2.125799   0.000000
     4  C    2.502381   2.509995   1.397274   0.000000
     5  C    2.544393   3.426325   1.395713   2.406037   0.000000
     6  C    3.788886   3.899793   2.418936   1.390217   2.776762
     7  H    2.697757   2.220025   2.164528   1.096529   3.403267
     8  C    3.817195   4.544168   2.419290   2.779857   1.389317
     9  H    2.751388   3.817585   2.157815   3.403570   1.104698
    10  C    4.305811   4.734171   2.796926   2.410654   2.408444
    11  H    4.657114   4.560424   3.409178   2.155149   3.871549
    12  H    4.697254   5.524832   3.408908   3.874582   2.154601
    13  H    5.400385   5.802998   3.891547   3.403093   3.401228
    14  C    1.509307   2.125799   2.503816   3.541705   3.136619
    15  C    2.544393   3.426325   3.136619   4.372569   3.151335
    16  C    2.502381   2.509995   3.541705   4.230063   4.372569
    17  C    3.817195   4.544168   4.422038   5.556571   4.378930
    18  H    2.751388   3.817585   3.020377   4.373811   2.615716
    19  C    3.788886   3.899793   4.718414   5.446117   5.326066
    20  H    2.697757   2.220025   3.753711   4.134234   4.839388
    21  C    4.305811   4.734170   5.079519   6.015425   5.331870
    22  H    4.697254   5.524832   5.150587   6.340227   4.837931
    23  H    4.657114   4.560424   5.602386   6.167274   6.313826
    24  H    5.400385   5.802998   6.140445   7.049576   6.321694
    25  C    1.509307   2.125799   2.503816   3.541705   3.136619
    26  C    2.544393   3.426325   3.136619   4.372569   3.151335
    27  C    2.502381   2.509995   3.541705   4.230063   4.372569
    28  C    3.817195   4.544168   4.423549   5.558602   4.380850
    29  H    2.751388   3.817585   3.020377   4.373811   2.615716
    30  C    3.788886   3.899793   4.718414   5.446117   5.326066
    31  H    2.697757   2.220025   3.751771   4.131258   4.837494
    32  C    4.305811   4.734171   5.080509   6.016837   5.333057
    33  H    4.697254   5.524832   5.152617   6.343012   4.840650
    34  H    4.657114   4.560424   5.602386   6.167274   6.313826
    35  H    5.400385   5.802998   6.141687   7.051404   6.323213
                    6          7          8          9         10
     6  C    0.000000
     7  H    2.154660   0.000000
     8  C    2.405431   3.876361   0.000000
     9  H    3.881420   4.310835   2.170355   0.000000
    10  C    1.390493   3.401527   1.390656   3.413685   0.000000
    11  H    1.094789   2.476698   3.398679   4.976198   2.157189
    12  H    3.399277   4.971091   1.094731   2.495456   2.158363
    13  H    2.158644   4.303999   2.158733   4.318775   1.094621
    14  C    4.718414   3.751771   4.423549   3.020377   5.080509
    15  C    5.326066   4.837494   4.380850   2.615716   5.333057
    16  C    5.446117   4.131258   5.558602   4.373812   6.016837
    17  C    6.454132   5.962367   5.474901   3.804242   6.422571
    18  H    5.172865   5.027303   3.805493   1.783883   4.946679
    19  C    6.554864   5.406170   6.456842   5.172865   7.001941
    20  H    5.409695   3.753426   5.966716   5.028335   6.209500
    21  C    7.000060   6.204920   6.423843   4.945954   7.182536
    22  H    7.112187   6.858755   5.814835   4.104712   6.887368
    23  H    7.276010   5.978232   7.401958   6.232486   7.833626
    24  H    7.982676   7.233175   7.349587   5.892852   8.120061
    25  C    4.718414   3.753711   4.422038   3.020377   5.079519
    26  C    5.326066   4.839388   4.378930   2.615716   5.331870
    27  C    5.446117   4.134234   5.556571   4.373811   6.015425
    28  C    6.456842   5.966716   5.474901   3.805493   6.423843
    29  H    5.172865   5.028335   3.804242   1.783883   4.945954
    30  C    6.554864   5.409695   6.454132   5.172865   7.000060
    31  H    5.406170   3.753426   5.962367   5.027303   6.204920
    32  C    7.001941   6.209500   6.422571   4.946679   7.182536
    33  H    7.116034   6.863565   5.816031   4.106526   6.889985
    34  H    7.276010   5.982071   7.399111   6.232486   7.831601
    35  H    7.985178   7.238379   7.348584   5.893774   8.120527
                   11         12         13         14         15
    11  H    0.000000
    12  H    4.304655   0.000000
    13  H    2.487049   2.488763   0.000000
    14  C    5.602386   5.152617   6.141687   0.000000
    15  C    6.313826   4.840650   6.323213   1.395713   0.000000
    16  C    6.167274   6.343012   7.051404   1.397274   2.406037
    17  C    7.399111   5.816031   7.348584   2.419290   1.389317
    18  H    6.232486   4.106526   5.893774   2.157815   1.104698
    19  C    7.276010   7.116034   7.985178   2.418936   2.776762
    20  H    5.982071   6.863565   7.238379   2.164528   3.403267
    21  C    7.831601   6.889985   8.120527   2.796926   2.408443
    22  H    8.095021   5.958250   7.738226   3.408908   2.154601
    23  H    7.893643   8.099092   8.795460   3.409178   3.871549
    24  H    8.792725   7.740742   9.013666   3.891547   3.401228
    25  C    5.602386   5.150587   6.140445   2.503816   3.136619
    26  C    6.313826   4.837931   6.321694   3.136619   3.151335
    27  C    6.167274   6.340227   7.049576   3.541705   4.372569
    28  C    7.401958   5.814835   7.349587   4.422038   4.378930
    29  H    6.232486   4.104712   5.892851   3.020377   2.615716
    30  C    7.276010   7.112187   7.982676   4.718414   5.326066
    31  H    5.978232   6.858755   7.233175   3.753711   4.839388
    32  C    7.833626   6.887368   8.120061   5.079519   5.331870
    33  H    8.099091   5.958250   7.740742   5.150587   4.837931
    34  H    7.893643   8.095021   8.792725   5.602386   6.313826
    35  H    8.795460   7.738226   9.013666   6.140445   6.321694
                   16         17         18         19         20
    16  C    0.000000
    17  C    2.779857   0.000000
    18  H    3.403570   2.170355   0.000000
    19  C    1.390217   2.405431   3.881420   0.000000
    20  H    1.096529   3.876361   4.310835   2.154660   0.000000
    21  C    2.410654   1.390656   3.413685   1.390493   3.401527
    22  H    3.874582   1.094731   2.495456   3.399277   4.971091
    23  H    2.155149   3.398679   4.976198   1.094789   2.476698
    24  H    3.403093   2.158733   4.318775   2.158644   4.303999
    25  C    3.541705   4.423549   3.020377   4.718414   3.751771
    26  C    4.372569   4.380850   2.615716   5.326066   4.837494
    27  C    4.230063   5.558602   4.373812   5.446117   4.131258
    28  C    5.556571   5.474901   3.804242   6.454132   5.962367
    29  H    4.373812   3.805493   1.783883   5.172865   5.027303
    30  C    5.446117   6.456842   5.172865   6.554864   5.406170
    31  H    4.134234   5.966716   5.028335   5.409695   3.753426
    32  C    6.015425   6.423843   4.945954   7.000060   6.204920
    33  H    6.340227   5.814835   4.104712   7.112187   6.858755
    34  H    6.167274   7.401958   6.232486   7.276010   5.978232
    35  H    7.049576   7.349587   5.892851   7.982676   7.233175
                   21         22         23         24         25
    21  C    0.000000
    22  H    2.158363   0.000000
    23  H    2.157189   4.304655   0.000000
    24  H    1.094621   2.488763   2.487049   0.000000
    25  C    5.080509   5.152617   5.602386   6.141687   0.000000
    26  C    5.333057   4.840650   6.313826   6.323213   1.395713
    27  C    6.016837   6.343012   6.167274   7.051404   1.397274
    28  C    6.422571   5.816031   7.399111   7.348584   2.419290
    29  H    4.946679   4.106526   6.232486   5.893774   2.157815
    30  C    7.001941   7.116034   7.276010   7.985178   2.418936
    31  H    6.209500   6.863565   5.982071   7.238379   2.164528
    32  C    7.182536   6.889985   7.831601   8.120527   2.796926
    33  H    6.887368   5.958250   8.095021   7.738225   3.408908
    34  H    7.833625   8.099092   7.893643   8.795460   3.409178
    35  H    8.120061   7.740742   8.792725   9.013666   3.891547
                   26         27         28         29         30
    26  C    0.000000
    27  C    2.406037   0.000000
    28  C    1.389317   2.779857   0.000000
    29  H    1.104698   3.403570   2.170355   0.000000
    30  C    2.776762   1.390217   2.405431   3.881420   0.000000
    31  H    3.403267   1.096529   3.876361   4.310835   2.154660
    32  C    2.408444   2.410654   1.390656   3.413685   1.390493
    33  H    2.154601   3.874582   1.094731   2.495456   3.399277
    34  H    3.871549   2.155149   3.398679   4.976198   1.094789
    35  H    3.401228   3.403093   2.158733   4.318775   2.158643
                   31         32         33         34         35
    31  H    0.000000
    32  C    3.401527   0.000000
    33  H    4.971091   2.158363   0.000000
    34  H    2.476698   2.157189   4.304655   0.000000
    35  H    4.303999   1.094621   2.488763   2.487049   0.000000
 Stoichiometry    C19H16
 Framework group  C3[C3(CH),X(C18H15)]
 Deg. of freedom    33
 Full point group                 C3      NOp   3
 Largest Abelian subgroup         C1      NOp   1
 Largest concise Abelian subgroup C1      NOp   1
                         Standard orientation:                         
 ---------------------------------------------------------------------
 Center     Atomic      Atomic             Coordinates (Angstroms)
 Number     Number       Type             X           Y           Z
 ---------------------------------------------------------------------
      1          6           0        0.000000    0.000000    0.760419
      2          1           0        0.000000    0.000000    1.885101
      3          6           0        0.000000    1.445579    0.326473
      4          6           0        0.000000    2.442228    1.305792
      5          6           0        0.000000    1.819424   -1.018241
      6          6           0        0.000000    3.784452    0.943663
      7          1           0        0.002908    2.167040    2.367225
      8          6           0       -0.002669    3.160934   -1.379550
      9          1           0        0.000000    1.029925   -1.790931
     10          6           0       -0.002009    4.146839   -0.398776
     11          1           0        0.000000    4.557397    1.718983
     12          1           0       -0.004175    3.439995   -2.438114
     13          1           0       -0.003048    5.204042   -0.682528
     14          6           0        1.251908   -0.722789    0.326473
     15          6           0        1.575667   -0.909712   -1.018241
     16          6           0        2.115031   -1.221114    1.305792
     17          6           0        2.738784   -1.578156   -1.379550
     18          1           0        0.891941   -0.514963   -1.790931
     19          6           0        3.277432   -1.892226    0.943663
     20          1           0        1.875257   -1.086038    2.367225
     21          6           0        3.592272   -2.071680   -0.398776
     22          1           0        2.981211   -1.716381   -2.438114
     23          1           0        3.946822   -2.278699    1.718983
     24          1           0        4.508356   -2.599382   -0.682528
     25          6           0       -1.251908   -0.722789    0.326473
     26          6           0       -1.575667   -0.909712   -1.018241
     27          6           0       -2.115031   -1.221114    1.305792
     28          6           0       -2.736115   -1.582778   -1.379550
     29          1           0       -0.891941   -0.514963   -1.790931
     30          6           0       -3.277432   -1.892226    0.943663
     31          1           0       -1.878166   -1.081001    2.367225
     32          6           0       -3.590263   -2.075159   -0.398776
     33          1           0       -2.977035   -1.723614   -2.438114
     34          1           0       -3.946822   -2.278699    1.718983
     35          1           0       -4.505309   -2.604660   -0.682528
 ---------------------------------------------------------------------
 Rotational constants (GHZ):      0.3814220      0.3814220      0.2405032
 Standard basis: 6-311G (5D, 7F)
 There are   295 symmetry adapted basis functions of A   symmetry.
 Integral buffers will be    262144 words long.
 Raffenetti 1 integral format.
 Two-electron integral symmetry is turned on.
   295 basis functions,   574 primitive gaussians,   295 cartesian basis functions
    65 alpha electrons       65 beta electrons
       nuclear repulsion energy      1288.2330216636 Hartrees.
 NAtoms=   35 NActive=   35 NUniq=   13 SFac= 3.00D+00 NAtFMM=   80 NAOKFM=F Big=F
 One-electron integrals computed using PRISM.
 PrsmSu:  requested number of processors reduced to:  10 ShMem   1 Linda.
 NBasis=   295 RedAO= T  NBF=   295
 NBsUse=   295 1.00D-06 NBFU=   295
 Harris functional with IExCor=  205 diagonalized for initial guess.
 ExpMin= 1.03D-01 ExpMax= 4.56D+03 ExpMxC= 6.82D+02 IAcc=1 IRadAn=         1 AccDes= 0.00D+00
 HarFok:  IExCor=  205 AccDes= 0.00D+00 IRadAn=         1 IDoV= 1
 ScaDFX=  1.000000  1.000000  1.000000  1.000000
 FoFCou: FMM=F IPFlag=           0 FMFlag=      100000 FMFlg1=           0
         NFxFlg=           0 DoJE=T BraDBF=F KetDBF=T FulRan=T
         Omega=  0.000000  0.000000  1.000000  0.000000  0.000000 ICntrl=     500 IOpCl=  0
         NMat0=    1 NMatS0=    1 NMatT0=    0 NMatD0=    1 NMtDS0=    0 NMtDT0=    0
         I1Cent=           4 NGrid=           0.
 Petite list used in FoFCou.
 Initial guess orbital symmetries:
       Occupied  (E) (E) (A) (A) (E) (E) (E) (E) (A) (A) (E) (E)
                 (E) (E) (A) (E) (E) (A) (A) (A) (E) (E) (A) (A)
                 (E) (E) (E) (E) (A) (A) (E) (E) (E) (E) (A) (E)
                 (E) (A) (A) (E) (E) (A) (E) (E) (A) (E) (E) (E)
                 (E) (A) (A) (E) (E) (A) (E) (E) (E) (E) (A) (E)
                 (E) (A) (E) (E) (A)
       Virtual   (E) (E) (E) (E) (A) (A) (A) (A) (E) (E) (E) (E)
                 (A) (A) (E) (E) (A) (A) (E) (E) (E) (E) (A) (A)
                 (E) (E) (E) (E) (A) (A) (E) (E) (A) (E) (E) (E)
                 (E) (E) (E) (A) (A) (E) (E) (A) (E) (E) (A) (A)
                 (E) (E) (A) (E) (E) (A) (E) (E) (A) (E) (E) (E)
                 (E) (E) (E) (A) (E) (E) (A) (E) (E) (A) (E) (E)
                 (A) (A) (E) (E) (E) (E) (A) (A) (E) (E) (A) (E)
                 (E) (E) (E) (A) (A) (E) (E) (A) (E) (E) (A) (A)
                 (E) (E) (E) (E) (A) (A) (E) (E) (A) (A) (E) (E)
                 (A) (E) (E) (A) (E) (E) (E) (E) (A) (E) (E) (E)
                 (E) (A) (A) (E) (E) (A) (E) (E) (E) (E) (A) (E)
                 (E) (A) (A) (E) (E) (A) (A) (E) (E) (A) (E) (E)
                 (A) (E) (E) (A) (E) (E) (A) (E) (E) (A) (E) (E)
                 (E) (E) (A) (A) (A) (E) (E) (A) (A) (E) (E) (E)
                 (E) (E) (E) (A) (E) (E) (A) (A) (E) (E) (A) (E)
                 (E) (E) (E) (A) (E) (E) (A) (E) (E) (A) (E) (E)
                 (A) (E) (E) (E) (E) (A) (E) (E) (A) (A) (E) (E)
                 (A) (E) (E) (A) (E) (E) (A) (A) (E) (E) (A) (E)
                 (E) (A) (E) (E) (A) (E) (E) (A) (E) (E) (A) (A)
                 (E) (E)
 The electronic state of the initial guess is 1-A.
 Requested convergence on RMS density matrix=1.00D-08 within 128 cycles.
 Requested convergence on MAX density matrix=1.00D-06.
 Requested convergence on             energy=1.00D-06.
 No special actions if energy rises.
 Integral accuracy reduced to 1.0D-05 until final iterations.
 Initial convergence to 1.0D-05 achieved.  Increase integral accuracy.
 DSYEVD returned Info=       44103 IAlg= 4 N=   295 NDim=   295 NE2=      112833 trying DSYEV.
 SCF Done:  E(RHF) =  -728.661843633     A.U. after   14 cycles
             Convg  =    0.5644D-08             -V/T =  2.0001

 **********************************************************************

            Population analysis using the SCF density.

 **********************************************************************

 Orbital symmetries:
       Occupied  (A) (E) (E) (A) (E) (E) (A) (E) (E) (A) (E) (E)
                 (A) (E) (E) (A) (E) (E) (A) (A) (E) (E) (A) (A)
                 (E) (E) (E) (E) (A) (A) (E) (E) (E) (E) (A) (E)
                 (E) (A) (A) (E) (E) (A) (E) (E) (A) (E) (E) (E)
                 (E) (A) (A) (E) (E) (A) (E) (E) (A) (E) (E) (E)
                 (E) (E) (E) (A) (A)
       Virtual   (E) (E) (E) (E) (A) (A) (A) (E) (E) (A) (A) (E)
                 (E) (A) (E) (E) (A) (E) (E) (A) (E) (E) (A) (E)
                 (E) (A) (E) (E) (A) (A) (E) (E) (A) (E) (E) (E)
                 (E) (A) (E) (E) (A) (E) (E) (A) (E) (E) (A) (A)
                 (E) (E) (A) (E) (E) (E) (E) (A) (A) (E) (E) (E)
                 (E) (E) (E) (A) (A) (E) (E) (E) (E) (A) (A) (E)
                 (E) (E) (E) (A) (E) (E) (A) (E) (E) (A) (A) (E)
                 (E) (E) (E) (A) (A) (E) (E) (E) (E) (A) (A) (A)
                 (E) (E) (A) (E) (E) (A) (A) (E) (E) (E) (E) (A)
                 (A) (E) (E) (E) (E) (A) (A) (E) (E) (E) (E) (A)
                 (E) (E) (A) (E) (E) (A) (E) (E) (E) (E) (A) (E)
                 (E) (A) (A) (E) (E) (A) (A) (E) (E) (A) (E) (E)
                 (A) (A) (E) (E) (E) (E) (A) (A) (E) (E) (A) (E)
                 (E) (E) (E) (A) (E) (E) (A) (A) (E) (E) (A) (E)
                 (E) (E) (E) (A) (E) (E) (A) (A) (E) (E) (A) (E)
                 (E) (E) (E) (A) (A) (E) (E) (E) (E) (A) (E) (E)
                 (A) (E) (E) (E) (E) (A) (E) (E) (A) (A) (E) (E)
                 (E) (E) (A) (A) (E) (E) (A) (A) (E) (E) (A) (E)
                 (E) (A) (E) (E) (A) (A) (E) (E) (E) (E) (A) (A)
                 (E) (E)
 The electronic state is 1-A.
 Alpha  occ. eigenvalues --  -11.25901 -11.25311 -11.25311 -11.25304 -11.24433
 Alpha  occ. eigenvalues --  -11.24433 -11.24433 -11.24316 -11.24316 -11.24316
 Alpha  occ. eigenvalues --  -11.24168 -11.24168 -11.24167 -11.24083 -11.24083
 Alpha  occ. eigenvalues --  -11.24083 -11.23986 -11.23986 -11.23986  -1.18661
 Alpha  occ. eigenvalues --   -1.15800  -1.15800  -1.09077  -1.02579  -1.01967
 Alpha  occ. eigenvalues --   -1.01967  -1.01542  -1.01542  -0.93062  -0.85063
 Alpha  occ. eigenvalues --   -0.82363  -0.82363  -0.81933  -0.81933  -0.78034
 Alpha  occ. eigenvalues --   -0.70466  -0.70466  -0.69873  -0.66402  -0.63079
 Alpha  occ. eigenvalues --   -0.63079  -0.62918  -0.62306  -0.62306  -0.59923
 Alpha  occ. eigenvalues --   -0.58650  -0.58650  -0.57965  -0.57965  -0.53385
 Alpha  occ. eigenvalues --   -0.52148  -0.51251  -0.51251  -0.49542  -0.48622
 Alpha  occ. eigenvalues --   -0.48622  -0.48114  -0.47198  -0.47198  -0.34399
 Alpha  occ. eigenvalues --   -0.34399  -0.33774  -0.33774  -0.33414  -0.31073
 Alpha virt. eigenvalues --    0.12122   0.12122   0.12787   0.12787   0.14081
 Alpha virt. eigenvalues --    0.15510   0.15694   0.16376   0.16376   0.16683
 Alpha virt. eigenvalues --    0.18461   0.19286   0.19286   0.21244   0.21593
 Alpha virt. eigenvalues --    0.21593   0.23778   0.24507   0.24507   0.28413
 Alpha virt. eigenvalues --    0.30982   0.30982   0.33859   0.33993   0.33993
 Alpha virt. eigenvalues --    0.38188   0.39431   0.39431   0.40125   0.43672
 Alpha virt. eigenvalues --    0.44509   0.44509   0.44810   0.45917   0.45917
 Alpha virt. eigenvalues --    0.46988   0.46988   0.48787   0.50140   0.50140
 Alpha virt. eigenvalues --    0.50772   0.52410   0.52410   0.55401   0.57111
 Alpha virt. eigenvalues --    0.57111   0.57368   0.58297   0.58681   0.58681
 Alpha virt. eigenvalues --    0.58968   0.60512   0.60512   0.61961   0.61961
 Alpha virt. eigenvalues --    0.62014   0.62152   0.63138   0.63138   0.63901
 Alpha virt. eigenvalues --    0.63901   0.65386   0.65386   0.65726   0.65992
 Alpha virt. eigenvalues --    0.66936   0.66936   0.68949   0.68949   0.70498
 Alpha virt. eigenvalues --    0.71462   0.74294   0.74294   0.75596   0.75596
 Alpha virt. eigenvalues --    0.76042   0.78747   0.78747   0.79606   0.81308
 Alpha virt. eigenvalues --    0.81308   0.81935   0.82769   0.82799   0.82799
 Alpha virt. eigenvalues --    0.83479   0.83479   0.84096   0.84267   0.86392
 Alpha virt. eigenvalues --    0.86392   0.86741   0.86741   0.86981   0.88624
 Alpha virt. eigenvalues --    0.89534   0.90400   0.90400   0.95751   0.96688
 Alpha virt. eigenvalues --    0.96688   0.96861   0.97604   0.98002   0.98002
 Alpha virt. eigenvalues --    1.00693   1.00693   1.02867   1.06062   1.06218
 Alpha virt. eigenvalues --    1.06218   1.07658   1.07658   1.08076   1.11064
 Alpha virt. eigenvalues --    1.11904   1.11904   1.12629   1.12629   1.13004
 Alpha virt. eigenvalues --    1.14539   1.14539   1.15114   1.22651   1.22651
 Alpha virt. eigenvalues --    1.25069   1.25914   1.25914   1.27815   1.27815
 Alpha virt. eigenvalues --    1.31106   1.38598   1.38598   1.38908   1.43640
 Alpha virt. eigenvalues --    1.52654   1.52654   1.55448   2.45106   2.55202
 Alpha virt. eigenvalues --    2.55202   2.56987   2.62126   2.62126   2.63064
 Alpha virt. eigenvalues --    2.66398   2.67290   2.67290   2.77817   2.77817
 Alpha virt. eigenvalues --    2.78245   2.83354   2.89168   2.89168   2.93999
 Alpha virt. eigenvalues --    2.94073   2.94073   2.96564   2.96564   2.98231
 Alpha virt. eigenvalues --    3.00836   3.00836   3.04219   3.04751   3.08415
 Alpha virt. eigenvalues --    3.08415   3.09154   3.09756   3.09756   3.13041
 Alpha virt. eigenvalues --    3.13041   3.15939   3.16634   3.16634   3.19341
 Alpha virt. eigenvalues --    3.22842   3.24354   3.24354   3.29225   3.30400
 Alpha virt. eigenvalues --    3.30400   3.33697   3.33697   3.34692   3.43647
 Alpha virt. eigenvalues --    3.44338   3.44338   3.48447   3.48447   3.51040
 Alpha virt. eigenvalues --    3.52859   3.52859   3.59366   3.59766   3.59766
 Alpha virt. eigenvalues --    3.62703   3.62703   3.63255   3.65545   3.65545
 Alpha virt. eigenvalues --    3.66495   3.68448   3.71031   3.71031   3.74567
 Alpha virt. eigenvalues --    3.74567   3.76295   3.80843   3.84786   3.84786
 Alpha virt. eigenvalues --    3.98427  24.23884  24.30685  24.30685  24.50331
 Alpha virt. eigenvalues --   24.50781  24.50781  24.53775  24.54625  24.54625
 Alpha virt. eigenvalues --   24.76559  24.78609  24.78791  24.78791  24.81059
 Alpha virt. eigenvalues --   24.81059  24.82957  25.04357  25.06493  25.06493
          Condensed to atoms (all electrons):
              1          2          3          4          5          6
     1  C    5.769791   0.437533   0.198546  -0.022218  -0.052308   0.007775
     2  H    0.437533   0.507755  -0.063945   0.003087   0.005139   0.001719
     3  C    0.198546  -0.063945   5.405668   0.505843   0.425741  -0.075493
     4  C   -0.022218   0.003087   0.505843   5.045530  -0.063312   0.470075
     5  C   -0.052308   0.005139   0.425741  -0.063312   5.081417  -0.028284
     6  C    0.007775   0.001719  -0.075493   0.470075  -0.028284   5.043797
     7  H   -0.000730   0.003402  -0.045996   0.393509   0.004567  -0.033447
     8  C    0.001667  -0.000298  -0.055341  -0.035104   0.483116  -0.078029
     9  H    0.002874   0.000004  -0.059238   0.004151   0.385227   0.000083
    10  C    0.001293   0.000000  -0.021424  -0.085316  -0.093027   0.499780
    11  H   -0.000377  -0.000043   0.007517  -0.040185  -0.000734   0.397008
    12  H   -0.000298   0.000012   0.005989  -0.000515  -0.038167   0.005947
    13  H   -0.000011  -0.000002  -0.001591   0.007563   0.008353  -0.042993
    14  C    0.198546  -0.063945  -0.155228  -0.002713  -0.003982  -0.000557
    15  C   -0.052308   0.005139  -0.004035   0.000217  -0.009857   0.000095
    16  C   -0.022218   0.003087  -0.002677   0.000719   0.000214  -0.000027
    17  C    0.001667  -0.000298   0.001913   0.000034  -0.000318  -0.000001
    18  H    0.002874   0.000004  -0.001975  -0.000329  -0.000429  -0.000016
    19  C    0.007775   0.001719  -0.000562  -0.000027   0.000095   0.000003
    20  H   -0.000730   0.003402   0.000310   0.000141  -0.000040   0.000001
    21  C    0.001293   0.000000  -0.000055  -0.000008  -0.000017   0.000000
    22  H   -0.000298   0.000012   0.000018   0.000001   0.000030   0.000000
    23  H   -0.000377  -0.000043   0.000018   0.000001   0.000000   0.000000
    24  H   -0.000011  -0.000002  -0.000002   0.000000   0.000000   0.000000
    25  C    0.198546  -0.063945  -0.155228  -0.002677  -0.004035  -0.000562
    26  C   -0.052308   0.005139  -0.003982   0.000214  -0.009857   0.000095
    27  C   -0.022218   0.003087  -0.002713   0.000719   0.000217  -0.000027
    28  C    0.001667  -0.000298   0.001910   0.000034  -0.000307  -0.000001
    29  H    0.002874   0.000004  -0.002009  -0.000324  -0.000445  -0.000017
    30  C    0.007775   0.001719  -0.000557  -0.000027   0.000095   0.000003
    31  H   -0.000730   0.003402   0.000297   0.000143  -0.000040   0.000001
    32  C    0.001293   0.000000  -0.000058  -0.000008  -0.000018   0.000000
    33  H   -0.000298   0.000012   0.000018   0.000001   0.000030   0.000000
    34  H   -0.000377  -0.000043   0.000018   0.000001   0.000000   0.000000
    35  H   -0.000011  -0.000002  -0.000002   0.000000   0.000001   0.000000
              7          8          9         10         11         12
     1  C   -0.000730   0.001667   0.002874   0.001293  -0.000377  -0.000298
     2  H    0.003402  -0.000298   0.000004   0.000000  -0.000043   0.000012
     3  C   -0.045996  -0.055341  -0.059238  -0.021424   0.007517   0.005989
     4  C    0.393509  -0.035104   0.004151  -0.085316  -0.040185  -0.000515
     5  C    0.004567   0.483116   0.385227  -0.093027  -0.000734  -0.038167
     6  C   -0.033447  -0.078029   0.000083   0.499780   0.397008   0.005947
     7  H    0.511784  -0.000175  -0.000304   0.005132  -0.004160   0.000027
     8  C   -0.000175   5.037091  -0.021627   0.494725   0.006424   0.396528
     9  H   -0.000304  -0.021627   0.530406   0.004616   0.000022  -0.003438
    10  C    0.005132   0.494725   0.004616   5.031872  -0.041411  -0.039229
    11  H   -0.004160   0.006424   0.000022  -0.041411   0.518827  -0.000208
    12  H    0.000027   0.396528  -0.003438  -0.039229  -0.000208   0.515332
    13  H   -0.000190  -0.043054  -0.000208   0.399278  -0.004665  -0.004425
    14  C    0.000297   0.001910  -0.002009  -0.000058   0.000018   0.000018
    15  C   -0.000040  -0.000307  -0.000445  -0.000018   0.000000   0.000030
    16  C    0.000143   0.000034  -0.000324  -0.000008   0.000001   0.000001
    17  C    0.000001  -0.000067   0.000933   0.000001   0.000000  -0.000001
    18  H    0.000001   0.000938  -0.002504  -0.000011   0.000000  -0.000026
    19  C    0.000001  -0.000001  -0.000017   0.000000   0.000000   0.000000
    20  H    0.000027   0.000000   0.000001   0.000000   0.000000   0.000000
    21  C    0.000000   0.000001  -0.000009   0.000000   0.000000   0.000000
    22  H    0.000000  -0.000001  -0.000028   0.000000   0.000000   0.000000
    23  H    0.000000   0.000000   0.000000   0.000000   0.000000   0.000000
    24  H    0.000000   0.000000   0.000000   0.000000   0.000000   0.000000
    25  C    0.000310   0.001913  -0.001975  -0.000055   0.000018   0.000018
    26  C   -0.000040  -0.000318  -0.000429  -0.000017   0.000000   0.000030
    27  C    0.000141   0.000034  -0.000329  -0.000008   0.000001   0.000001
    28  C    0.000000  -0.000067   0.000938   0.000001   0.000000  -0.000001
    29  H    0.000001   0.000933  -0.002504  -0.000009   0.000000  -0.000028
    30  C    0.000001  -0.000001  -0.000016   0.000000   0.000000   0.000000
    31  H    0.000027   0.000001   0.000001   0.000000   0.000000   0.000000
    32  C    0.000000   0.000001  -0.000011   0.000000   0.000000   0.000000
    33  H    0.000000  -0.000001  -0.000026   0.000000   0.000000   0.000000
    34  H    0.000000   0.000000   0.000000   0.000000   0.000000   0.000000
    35  H    0.000000   0.000000   0.000000   0.000000   0.000000   0.000000
             13         14         15         16         17         18
     1  C   -0.000011   0.198546  -0.052308  -0.022218   0.001667   0.002874
     2  H   -0.000002  -0.063945   0.005139   0.003087  -0.000298   0.000004
     3  C   -0.001591  -0.155228  -0.004035  -0.002677   0.001913  -0.001975
     4  C    0.007563  -0.002713   0.000217   0.000719   0.000034  -0.000329
     5  C    0.008353  -0.003982  -0.009857   0.000214  -0.000318  -0.000429
     6  C   -0.042993  -0.000557   0.000095  -0.000027  -0.000001  -0.000016
     7  H   -0.000190   0.000297  -0.000040   0.000143   0.000001   0.000001
     8  C   -0.043054   0.001910  -0.000307   0.000034  -0.000067   0.000938
     9  H   -0.000208  -0.002009  -0.000445  -0.000324   0.000933  -0.002504
    10  C    0.399278  -0.000058  -0.000018  -0.000008   0.000001  -0.000011
    11  H   -0.004665   0.000018   0.000000   0.000001   0.000000   0.000000
    12  H   -0.004425   0.000018   0.000030   0.000001  -0.000001  -0.000026
    13  H    0.518093  -0.000002   0.000001   0.000000   0.000000   0.000000
    14  C   -0.000002   5.405668   0.425741   0.505843  -0.055341  -0.059238
    15  C    0.000001   0.425741   5.081417  -0.063312   0.483116   0.385227
    16  C    0.000000   0.505843  -0.063312   5.045530  -0.035104   0.004151
    17  C    0.000000  -0.055341   0.483116  -0.035104   5.037091  -0.021627
    18  H    0.000000  -0.059238   0.385227   0.004151  -0.021627   0.530406
    19  C    0.000000  -0.075493  -0.028284   0.470075  -0.078029   0.000083
    20  H    0.000000  -0.045996   0.004567   0.393509  -0.000175  -0.000304
    21  C    0.000000  -0.021424  -0.093027  -0.085316   0.494725   0.004616
    22  H    0.000000   0.005989  -0.038167  -0.000515   0.396528  -0.003438
    23  H    0.000000   0.007517  -0.000734  -0.040185   0.006424   0.000022
    24  H    0.000000  -0.001591   0.008353   0.007563  -0.043054  -0.000208
    25  C   -0.000002  -0.155228  -0.003982  -0.002713   0.001910  -0.002009
    26  C    0.000000  -0.004035  -0.009857   0.000217  -0.000307  -0.000445
    27  C    0.000000  -0.002677   0.000214   0.000719   0.000034  -0.000324
    28  C    0.000000   0.001913  -0.000318   0.000034  -0.000067   0.000933
    29  H    0.000000  -0.001975  -0.000429  -0.000329   0.000938  -0.002504
    30  C    0.000000  -0.000562   0.000095  -0.000027  -0.000001  -0.000017
    31  H    0.000000   0.000310  -0.000040   0.000141   0.000000   0.000001
    32  C    0.000000  -0.000055  -0.000017  -0.000008   0.000001  -0.000009
    33  H    0.000000   0.000018   0.000030   0.000001  -0.000001  -0.000028
    34  H    0.000000   0.000018   0.000000   0.000001   0.000000   0.000000
    35  H    0.000000  -0.000002   0.000000   0.000000   0.000000   0.000000
             19         20         21         22         23         24
     1  C    0.007775  -0.000730   0.001293  -0.000298  -0.000377  -0.000011
     2  H    0.001719   0.003402   0.000000   0.000012  -0.000043  -0.000002
     3  C   -0.000562   0.000310  -0.000055   0.000018   0.000018  -0.000002
     4  C   -0.000027   0.000141  -0.000008   0.000001   0.000001   0.000000
     5  C    0.000095  -0.000040  -0.000017   0.000030   0.000000   0.000000
     6  C    0.000003   0.000001   0.000000   0.000000   0.000000   0.000000
     7  H    0.000001   0.000027   0.000000   0.000000   0.000000   0.000000
     8  C   -0.000001   0.000000   0.000001  -0.000001   0.000000   0.000000
     9  H   -0.000017   0.000001  -0.000009  -0.000028   0.000000   0.000000
    10  C    0.000000   0.000000   0.000000   0.000000   0.000000   0.000000
    11  H    0.000000   0.000000   0.000000   0.000000   0.000000   0.000000
    12  H    0.000000   0.000000   0.000000   0.000000   0.000000   0.000000
    13  H    0.000000   0.000000   0.000000   0.000000   0.000000   0.000000
    14  C   -0.075493  -0.045996  -0.021424   0.005989   0.007517  -0.001591
    15  C   -0.028284   0.004567  -0.093027  -0.038167  -0.000734   0.008353
    16  C    0.470075   0.393509  -0.085316  -0.000515  -0.040185   0.007563
    17  C   -0.078029  -0.000175   0.494725   0.396528   0.006424  -0.043054
    18  H    0.000083  -0.000304   0.004616  -0.003438   0.000022  -0.000208
    19  C    5.043797  -0.033447   0.499780   0.005947   0.397008  -0.042993
    20  H   -0.033447   0.511784   0.005132   0.000027  -0.004160  -0.000190
    21  C    0.499780   0.005132   5.031872  -0.039229  -0.041411   0.399278
    22  H    0.005947   0.000027  -0.039229   0.515332  -0.000208  -0.004425
    23  H    0.397008  -0.004160  -0.041411  -0.000208   0.518827  -0.004665
    24  H   -0.042993  -0.000190   0.399278  -0.004425  -0.004665   0.518093
    25  C   -0.000557   0.000297  -0.000058   0.000018   0.000018  -0.000002
    26  C    0.000095  -0.000040  -0.000018   0.000030   0.000000   0.000001
    27  C   -0.000027   0.000143  -0.000008   0.000001   0.000001   0.000000
    28  C   -0.000001   0.000001   0.000001  -0.000001   0.000000   0.000000
    29  H   -0.000016   0.000001  -0.000011  -0.000026   0.000000   0.000000
    30  C    0.000003   0.000001   0.000000   0.000000   0.000000   0.000000
    31  H    0.000001   0.000027   0.000000   0.000000   0.000000   0.000000
    32  C    0.000000   0.000000   0.000000   0.000000   0.000000   0.000000
    33  H    0.000000   0.000000   0.000000   0.000000   0.000000   0.000000
    34  H    0.000000   0.000000   0.000000   0.000000   0.000000   0.000000
    35  H    0.000000   0.000000   0.000000   0.000000   0.000000   0.000000
             25         26         27         28         29         30
     1  C    0.198546  -0.052308  -0.022218   0.001667   0.002874   0.007775
     2  H   -0.063945   0.005139   0.003087  -0.000298   0.000004   0.001719
     3  C   -0.155228  -0.003982  -0.002713   0.001910  -0.002009  -0.000557
     4  C   -0.002677   0.000214   0.000719   0.000034  -0.000324  -0.000027
     5  C   -0.004035  -0.009857   0.000217  -0.000307  -0.000445   0.000095
     6  C   -0.000562   0.000095  -0.000027  -0.000001  -0.000017   0.000003
     7  H    0.000310  -0.000040   0.000141   0.000000   0.000001   0.000001
     8  C    0.001913  -0.000318   0.000034  -0.000067   0.000933  -0.000001
     9  H   -0.001975  -0.000429  -0.000329   0.000938  -0.002504  -0.000016
    10  C   -0.000055  -0.000017  -0.000008   0.000001  -0.000009   0.000000
    11  H    0.000018   0.000000   0.000001   0.000000   0.000000   0.000000
    12  H    0.000018   0.000030   0.000001  -0.000001  -0.000028   0.000000
    13  H   -0.000002   0.000000   0.000000   0.000000   0.000000   0.000000
    14  C   -0.155228  -0.004035  -0.002677   0.001913  -0.001975  -0.000562
    15  C   -0.003982  -0.009857   0.000214  -0.000318  -0.000429   0.000095
    16  C   -0.002713   0.000217   0.000719   0.000034  -0.000329  -0.000027
    17  C    0.001910  -0.000307   0.000034  -0.000067   0.000938  -0.000001
    18  H   -0.002009  -0.000445  -0.000324   0.000933  -0.002504  -0.000017
    19  C   -0.000557   0.000095  -0.000027  -0.000001  -0.000016   0.000003
    20  H    0.000297  -0.000040   0.000143   0.000001   0.000001   0.000001
    21  C   -0.000058  -0.000018  -0.000008   0.000001  -0.000011   0.000000
    22  H    0.000018   0.000030   0.000001  -0.000001  -0.000026   0.000000
    23  H    0.000018   0.000000   0.000001   0.000000   0.000000   0.000000
    24  H   -0.000002   0.000001   0.000000   0.000000   0.000000   0.000000
    25  C    5.405668   0.425741   0.505843  -0.055341  -0.059238  -0.075493
    26  C    0.425741   5.081417  -0.063312   0.483116   0.385227  -0.028284
    27  C    0.505843  -0.063312   5.045530  -0.035104   0.004151   0.470075
    28  C   -0.055341   0.483116  -0.035104   5.037091  -0.021627  -0.078029
    29  H   -0.059238   0.385227   0.004151  -0.021627   0.530406   0.000083
    30  C   -0.075493  -0.028284   0.470075  -0.078029   0.000083   5.043797
    31  H   -0.045996   0.004567   0.393509  -0.000175  -0.000304  -0.033447
    32  C   -0.021424  -0.093027  -0.085316   0.494725   0.004616   0.499780
    33  H    0.005989  -0.038167  -0.000515   0.396528  -0.003438   0.005947
    34  H    0.007517  -0.000734  -0.040185   0.006424   0.000022   0.397008
    35  H   -0.001591   0.008353   0.007563  -0.043054  -0.000208  -0.042993
             31         32         33         34         35
     1  C   -0.000730   0.001293  -0.000298  -0.000377  -0.000011
     2  H    0.003402   0.000000   0.000012  -0.000043  -0.000002
     3  C    0.000297  -0.000058   0.000018   0.000018  -0.000002
     4  C    0.000143  -0.000008   0.000001   0.000001   0.000000
     5  C   -0.000040  -0.000018   0.000030   0.000000   0.000001
     6  C    0.000001   0.000000   0.000000   0.000000   0.000000
     7  H    0.000027   0.000000   0.000000   0.000000   0.000000
     8  C    0.000001   0.000001  -0.000001   0.000000   0.000000
     9  H    0.000001  -0.000011  -0.000026   0.000000   0.000000
    10  C    0.000000   0.000000   0.000000   0.000000   0.000000
    11  H    0.000000   0.000000   0.000000   0.000000   0.000000
    12  H    0.000000   0.000000   0.000000   0.000000   0.000000
    13  H    0.000000   0.000000   0.000000   0.000000   0.000000
    14  C    0.000310  -0.000055   0.000018   0.000018  -0.000002
    15  C   -0.000040  -0.000017   0.000030   0.000000   0.000000
    16  C    0.000141  -0.000008   0.000001   0.000001   0.000000
    17  C    0.000000   0.000001  -0.000001   0.000000   0.000000
    18  H    0.000001  -0.000009  -0.000028   0.000000   0.000000
    19  C    0.000001   0.000000   0.000000   0.000000   0.000000
    20  H    0.000027   0.000000   0.000000   0.000000   0.000000
    21  C    0.000000   0.000000   0.000000   0.000000   0.000000
    22  H    0.000000   0.000000   0.000000   0.000000   0.000000
    23  H    0.000000   0.000000   0.000000   0.000000   0.000000
    24  H    0.000000   0.000000   0.000000   0.000000   0.000000
    25  C   -0.045996  -0.021424   0.005989   0.007517  -0.001591
    26  C    0.004567  -0.093027  -0.038167  -0.000734   0.008353
    27  C    0.393509  -0.085316  -0.000515  -0.040185   0.007563
    28  C   -0.000175   0.494725   0.396528   0.006424  -0.043054
    29  H   -0.000304   0.004616  -0.003438   0.000022  -0.000208
    30  C   -0.033447   0.499780   0.005947   0.397008  -0.042993
    31  H    0.511784   0.005132   0.000027  -0.004160  -0.000190
    32  C    0.005132   5.031872  -0.039229  -0.041411   0.399278
    33  H    0.000027  -0.039229   0.515332  -0.000208  -0.004425
    34  H   -0.004160  -0.041411  -0.000208   0.518827  -0.004665
    35  H   -0.000190   0.399278  -0.004425  -0.004665   0.518093
 Mulliken atomic charges:
              1
     1  C   -0.615967
     2  H    0.207481
     3  C    0.098305
     4  C   -0.179219
     5  C   -0.089063
     6  C   -0.166930
     7  H    0.165714
     8  C   -0.190927
     9  H    0.166183
    10  C   -0.156104
    11  H    0.161948
    12  H    0.162402
    13  H    0.163853
    14  C    0.098305
    15  C   -0.089063
    16  C   -0.179219
    17  C   -0.190927
    18  H    0.166183
    19  C   -0.166930
    20  H    0.165714
    21  C   -0.156104
    22  H    0.162402
    23  H    0.161948
    24  H    0.163853
    25  C    0.098305
    26  C   -0.089063
    27  C   -0.179219
    28  C   -0.190927
    29  H    0.166183
    30  C   -0.166930
    31  H    0.165714
    32  C   -0.156104
    33  H    0.162402
    34  H    0.161948
    35  H    0.163853
 Sum of Mulliken atomic charges =   0.00000
 Mulliken charges with hydrogens summed into heavy atoms:
              1
     1  C   -0.408486
     3  C    0.098305
     4  C   -0.013505
     5  C    0.077120
     6  C   -0.004982
     8  C   -0.028525
    10  C    0.007749
    14  C    0.098305
    15  C    0.077120
    16  C   -0.013505
    17  C   -0.028525
    19  C   -0.004982
    21  C    0.007749
    25  C    0.098305
    26  C    0.077120
    27  C   -0.013505
    28  C   -0.028525
    30  C   -0.004982
    32  C    0.007749
 Sum of Mulliken charges with hydrogens summed into heavy atoms =   0.00000
 Electronic spatial extent (au):  <R**2>=           4935.9407
 Charge=              0.0000 electrons
 Dipole moment (field-independent basis, Debye):
    X=              0.0000    Y=              0.0000    Z=              0.0941  Tot=              0.0941
 Quadrupole moment (field-independent basis, Debye-Ang):
   XX=           -113.6375   YY=           -113.6375   ZZ=           -100.1394
   XY=              0.0000   XZ=              0.0000   YZ=              0.0000
 Traceless Quadrupole moment (field-independent basis, Debye-Ang):
   XX=             -4.4994   YY=             -4.4994   ZZ=              8.9987
   XY=              0.0000   XZ=              0.0000   YZ=              0.0000
 Octapole moment (field-independent basis, Debye-Ang**2):
  XXX=              0.0916  YYY=             54.0142  ZZZ=             -0.1183  XYY=             -0.0916
  XXY=            -54.0142  XXZ=              0.4727  XZZ=              0.0000  YZZ=              0.0000
  YYZ=              0.4727  XYZ=              0.0000
 Hexadecapole moment (field-independent basis, Debye-Ang**3):
 XXXX=          -2947.3707 YYYY=          -2947.3707 ZZZZ=           -846.7955 XXXY=              0.0000
 XXXZ=             -0.2880 YYYX=              0.0000 YYYZ=             -1.5568 ZZZX=              0.0000
 ZZZY=              0.0000 XXYY=           -982.4569 XXZZ=           -617.1064 YYZZ=           -617.1064
 XXYZ=              1.5568 YYXZ=              0.2880 ZZXY=              0.0000
 N-N= 1.288233021664D+03 E-N=-4.272370622741D+03  KE= 7.285946693854D+02
 PrsmSu:  requested number of processors reduced to:  10 ShMem   1 Linda.
 Calling FoFJK, ICntrl=      2127 FMM=F ISym2X=1 I1Cent= 0 IOpClX= 0 NMat=1 NMatS=1 NMatT=0.
 ***** Axes restored to original set *****
 -------------------------------------------------------------------
 Center     Atomic                   Forces (Hartrees/Bohr)
 Number     Number              X              Y              Z
 -------------------------------------------------------------------
      1        6           0.000000000    0.000000000    0.024152783
      2        1           0.000000000    0.000000000   -0.028906768
      3        6          -0.002199659    0.013267743    0.005089657
      4        6           0.000575061   -0.001379673    0.006043892
      5        6           0.001115625   -0.008465661   -0.011907993
      6        6          -0.001984299    0.010405022    0.007863768
      7        1          -0.000869122    0.003964442   -0.017393009
      8        6          -0.000002914    0.001260826   -0.012154034
      9        1          -0.005398351    0.031702827    0.017238875
     10        6          -0.002297959    0.013172471   -0.001872095
     11        1           0.002023811   -0.011481172   -0.011865078
     12        1           0.000733026   -0.004108980    0.016178503
     13        1           0.002745716   -0.016026722    0.004362176
     14        6           0.012590032   -0.004728910    0.005089657
     15        6          -0.007889290    0.003266671   -0.011907993
     16        6          -0.001482362    0.000191819    0.006043892
     17        6           0.001093364   -0.000627890   -0.012154034
     18        1           0.030154629   -0.011176304    0.017238875
     19        6           0.010003162   -0.003484058    0.007863768
     20        1           0.003867869   -0.001229539   -0.017393009
     21        6           0.012556674   -0.004596145   -0.001872095
     22        1          -0.003924994    0.001419671    0.016178503
     23        1          -0.010954892    0.003987914   -0.011865078
     24        1          -0.015252407    0.005635502    0.004362176
     25        6          -0.010390372   -0.008538832    0.005089657
     26        6           0.006773665    0.005198990   -0.011907993
     27        6           0.000907302    0.001187854    0.006043892
     28        6          -0.001090451   -0.000632936   -0.012154034
     29        1          -0.024756278   -0.020526522    0.017238875
     30        6          -0.008018864   -0.006920964    0.007863768
     31        1          -0.002998746   -0.002734903   -0.017393009
     32        6          -0.010258716   -0.008576326   -0.001872095
     33        1           0.003191968    0.002689309    0.016178503
     34        1           0.008931081    0.007493258   -0.011865078
     35        1           0.012506691    0.010391221    0.004362176
 -------------------------------------------------------------------
 Cartesian Forces:  Max     0.031702827 RMS     0.010594538

 GradGradGradGradGradGradGradGradGradGradGradGradGradGradGradGradGradGrad
 Berny optimization.
 Internal  Forces:  Max     0.035465485 RMS     0.010622664
 Search for a local minimum.
 Step number   1 out of a maximum of  197
 All quantities printed in internal units (Hartrees-Bohrs-Radians)
 Mixed Optimization -- RFO/linear search
 Second derivative matrix not updated -- first step.
     Eigenvalues ---    0.00643   0.00643   0.00643   0.01533   0.01533
     Eigenvalues ---    0.01533   0.02145   0.02145   0.02145   0.02171
     Eigenvalues ---    0.02171   0.02171   0.02188   0.02188   0.02188
     Eigenvalues ---    0.02204   0.02204   0.02204   0.02213   0.02213
     Eigenvalues ---    0.02213   0.02216   0.02216   0.02216   0.02217
     Eigenvalues ---    0.02217   0.02217   0.02222   0.02222   0.02222
     Eigenvalues ---    0.04560   0.06512   0.06512   0.16000   0.16000
     Eigenvalues ---    0.16000   0.16000   0.16000   0.16000   0.16000
     Eigenvalues ---    0.16000   0.16000   0.16000   0.16000   0.16000
     Eigenvalues ---    0.16000   0.16000   0.16000   0.19112   0.19112
     Eigenvalues ---    0.22000   0.22000   0.22000   0.22000   0.22000
     Eigenvalues ---    0.22000   0.23477   0.23477   0.23477   0.25000
     Eigenvalues ---    0.25000   0.25000   0.31094   0.31420   0.31420
     Eigenvalues ---    0.31420   0.33168   0.33168   0.33168   0.34069
     Eigenvalues ---    0.34069   0.34069   0.34265   0.34265   0.34265
     Eigenvalues ---    0.34272   0.34272   0.34272   0.34284   0.34284
     Eigenvalues ---    0.34284   0.42478   0.42478   0.42478   0.42597
     Eigenvalues ---    0.42597   0.42597   0.46420   0.46420   0.46420
     Eigenvalues ---    0.46778   0.46778   0.46778   0.47238   0.47238
     Eigenvalues ---    0.47238   0.47372   0.47372   0.473721000.00000
     Eigenvalues --- 1000.000001000.000001000.000001000.000001000.00000
     Eigenvalues --- 1000.000001000.000001000.000001000.000001000.00000
     Eigenvalues --- 1000.000001000.000001000.000001000.000001000.00000
     Eigenvalues --- 1000.000001000.000001000.000001000.000001000.00000
     Eigenvalues --- 1000.000001000.000001000.000001000.000001000.00000
     Eigenvalues --- 1000.000001000.000001000.000001000.000001000.00000
     Eigenvalues --- 1000.000001000.000001000.000001000.000001000.00000
     Eigenvalues --- 1000.000001000.000001000.000001000.000001000.00000
     Eigenvalues --- 1000.000001000.000001000.000001000.000001000.00000
     Eigenvalues --- 1000.000001000.000001000.000001000.000001000.00000
     Eigenvalues --- 1000.000001000.000001000.000001000.000001000.00000
     Eigenvalues --- 1000.000001000.000001000.000001000.000001000.00000
     Eigenvalues --- 1000.000001000.000001000.000001000.000001000.00000
     Eigenvalues --- 1000.000001000.000001000.000001000.000001000.00000
     Eigenvalues --- 1000.000001000.000001000.000001000.000001000.00000
     Eigenvalues --- 1000.000001000.000001000.000001000.000001000.00000
     Eigenvalues --- 1000.000001000.000001000.000001000.000001000.00000
     Eigenvalues --- 1000.000001000.00000
 RFO step:  Lambda=-7.27171772D-02 EMin= 6.42830487D-03
 Linear search not attempted -- first point.
 Maximum step size (   0.300) exceeded in Quadratic search.
    -- Step size scaled by   0.524
 Iteration  1 RMS(Cart)=  0.16590235 RMS(Int)=  0.00451862
 Iteration  2 RMS(Cart)=  0.00947554 RMS(Int)=  0.00043980
 Iteration  3 RMS(Cart)=  0.00000967 RMS(Int)=  0.00043978
 Iteration  4 RMS(Cart)=  0.00000000 RMS(Int)=  0.00043978
 ClnCor:  largest displacement from symmetrization is 1.57D-08 for atom    35.
 Variable       Old X    -DE/DX   Delta X   Delta X   Delta X     New X
                                 (Linear)    (Quad)   (Total)
    R1        2.12534  -0.02891   0.00000  -0.03951  -0.03951   2.08583
    R2        2.85218   0.03095   0.00000   0.04194   0.04194   2.89412
    R3        2.85218   0.03095   0.00000   0.04194   0.04194   2.89412
    R4        2.85218   0.03095   0.00000   0.04194   0.04194   2.89412
    R5        2.64047  -0.00284   0.00000  -0.00267  -0.00264   2.63782
    R6        2.63752   0.00352   0.00000   0.00369   0.00371   2.64122
    R7        2.62713  -0.00330   0.00000  -0.00329  -0.00328   2.62385
    R8        2.07214  -0.01785   0.00000  -0.02265  -0.02265   2.04949
    R9        2.62543  -0.00401   0.00000  -0.00373  -0.00373   2.62169
   R10        2.08758  -0.03504   0.00000  -0.04544  -0.04544   2.04213
   R11        2.62765  -0.01018   0.00000  -0.01004  -0.01006   2.61760
   R12        2.06885  -0.01663   0.00000  -0.02100  -0.02100   2.04785
   R13        2.62796  -0.00716   0.00000  -0.00703  -0.00705   2.62091
   R14        2.06874  -0.01671   0.00000  -0.02109  -0.02109   2.04765
   R15        2.06853  -0.01684   0.00000  -0.02125  -0.02125   2.04729
   R16        2.63752   0.00352   0.00000   0.00369   0.00371   2.64122
   R17        2.64047  -0.00284   0.00000  -0.00267  -0.00264   2.63782
   R18        2.62543  -0.00401   0.00000  -0.00373  -0.00373   2.62169
   R19        2.08758  -0.03504   0.00000  -0.04544  -0.04544   2.04213
   R20        2.62713  -0.00330   0.00000  -0.00329  -0.00328   2.62385
   R21        2.07214  -0.01785   0.00000  -0.02265  -0.02265   2.04949
   R22        2.62796  -0.00716   0.00000  -0.00703  -0.00705   2.62091
   R23        2.06874  -0.01671   0.00000  -0.02109  -0.02109   2.04765
   R24        2.62765  -0.01018   0.00000  -0.01004  -0.01006   2.61760
   R25        2.06885  -0.01663   0.00000  -0.02100  -0.02100   2.04785
   R26        2.06853  -0.01684   0.00000  -0.02125  -0.02125   2.04729
   R27        2.63752   0.00352   0.00000   0.00369   0.00371   2.64122
   R28        2.64047  -0.00284   0.00000  -0.00267  -0.00264   2.63782
   R29        2.62543  -0.00401   0.00000  -0.00373  -0.00373   2.62169
   R30        2.08758  -0.03504   0.00000  -0.04544  -0.04544   2.04213
   R31        2.62713  -0.00330   0.00000  -0.00329  -0.00328   2.62385
   R32        2.07214  -0.01785   0.00000  -0.02265  -0.02265   2.04949
   R33        2.62796  -0.00716   0.00000  -0.00703  -0.00705   2.62091
   R34        2.06874  -0.01671   0.00000  -0.02109  -0.02109   2.04765
   R35        2.62765  -0.01018   0.00000  -0.01004  -0.01006   2.61760
   R36        2.06885  -0.01663   0.00000  -0.02100  -0.02100   2.04785
   R37        2.06853  -0.01684   0.00000  -0.02125  -0.02125   2.04729
    A1        1.86243  -0.00980   0.00000  -0.04342  -0.04243   1.82000
    A2        1.86243  -0.00980   0.00000  -0.04342  -0.04243   1.82000
    A3        1.86243  -0.00980   0.00000  -0.04342  -0.04243   1.82000
    A4        1.95628   0.00873   0.00000   0.03871   0.03562   1.99189
    A5        1.95628   0.00873   0.00000   0.03871   0.03562   1.99189
    A6        1.95628   0.00873   0.00000   0.03871   0.03562   1.99189
    A7        2.07333  -0.02015   0.00000  -0.03287  -0.03289   2.04044
    A8        2.13359   0.03547   0.00000   0.05750   0.05748   2.19107
    A9        2.07626  -0.01532   0.00000  -0.02463  -0.02459   2.05167
   A10        2.10144   0.01027   0.00000   0.01801   0.01804   2.11948
   A11        2.09375  -0.00559   0.00000  -0.01003  -0.01005   2.08370
   A12        2.08799  -0.00468   0.00000  -0.00797  -0.00799   2.08000
   A13        2.10505   0.00515   0.00000   0.00948   0.00949   2.11453
   A14        2.07427   0.00804   0.00000   0.01919   0.01919   2.09346
   A15        2.10387  -0.01319   0.00000  -0.02867  -0.02867   2.07519
   A16        2.09798   0.00004   0.00000  -0.00102  -0.00103   2.09695
   A17        2.09114   0.00010   0.00000   0.00079   0.00079   2.09193
   A18        2.09407  -0.00015   0.00000   0.00023   0.00023   2.09430
   A19        2.09571   0.00340   0.00000   0.00564   0.00561   2.10133
   A20        2.09164  -0.00161   0.00000  -0.00262  -0.00260   2.08904
   A21        2.09583  -0.00179   0.00000  -0.00303  -0.00301   2.09282
   A22        2.08992  -0.00354   0.00000  -0.00748  -0.00751   2.08241
   A23        2.09668   0.00177   0.00000   0.00374   0.00376   2.10044
   A24        2.09658   0.00177   0.00000   0.00373   0.00375   2.10034
   A25        2.13359   0.03547   0.00000   0.05750   0.05748   2.19107
   A26        2.07333  -0.02015   0.00000  -0.03287  -0.03289   2.04044
   A27        2.07626  -0.01532   0.00000  -0.02463  -0.02459   2.05167
   A28        2.10505   0.00515   0.00000   0.00948   0.00949   2.11453
   A29        2.07427   0.00804   0.00000   0.01919   0.01919   2.09346
   A30        2.10387  -0.01319   0.00000  -0.02867  -0.02867   2.07519
   A31        2.10144   0.01027   0.00000   0.01801   0.01804   2.11948
   A32        2.09375  -0.00559   0.00000  -0.01003  -0.01005   2.08370
   A33        2.08799  -0.00468   0.00000  -0.00797  -0.00799   2.08000
   A34        2.09571   0.00340   0.00000   0.00564   0.00561   2.10133
   A35        2.09164  -0.00161   0.00000  -0.00262  -0.00260   2.08904
   A36        2.09583  -0.00179   0.00000  -0.00303  -0.00301   2.09282
   A37        2.09798   0.00004   0.00000  -0.00102  -0.00103   2.09695
   A38        2.09114   0.00010   0.00000   0.00079   0.00079   2.09193
   A39        2.09407  -0.00015   0.00000   0.00023   0.00023   2.09430
   A40        2.08992  -0.00354   0.00000  -0.00748  -0.00751   2.08241
   A41        2.09658   0.00177   0.00000   0.00373   0.00375   2.10034
   A42        2.09668   0.00177   0.00000   0.00374   0.00376   2.10044
   A43        2.13359   0.03547   0.00000   0.05750   0.05748   2.19107
   A44        2.07333  -0.02015   0.00000  -0.03287  -0.03289   2.04044
   A45        2.07626  -0.01532   0.00000  -0.02463  -0.02459   2.05167
   A46        2.10505   0.00515   0.00000   0.00948   0.00949   2.11453
   A47        2.07427   0.00804   0.00000   0.01919   0.01919   2.09346
   A48        2.10387  -0.01319   0.00000  -0.02867  -0.02867   2.07519
   A49        2.10144   0.01027   0.00000   0.01801   0.01804   2.11948
   A50        2.09375  -0.00559   0.00000  -0.01003  -0.01005   2.08370
   A51        2.08799  -0.00468   0.00000  -0.00797  -0.00799   2.08000
   A52        2.09571   0.00340   0.00000   0.00564   0.00561   2.10133
   A53        2.09164  -0.00161   0.00000  -0.00262  -0.00260   2.08904
   A54        2.09583  -0.00179   0.00000  -0.00303  -0.00301   2.09282
[...]
 0.00555445,-0.00221541,-0.00037715,-0.00005837,-0.00001314,0.00002516,
 0.00003289,-0.00065550,-0.00050635,0.00016501,-0.00043567,-0.00002757,
 0.00016032,0.00016167,-0.00008684,-0.00020099,0.00019297,-0.00019504,0
 .00002965,0.00000921,-0.00002463,-0.00006778,-0.00040101,-0.00014615,-
 0.00018659,0.00006633,-0.00010800,0.00017149,0.00007827,0.00024533,-0.
 00001884,-0.00001870,0.00001374,0.00001878,-0.00000843,0.00000233,-0.0
 0000406,-0.00001982,0.00000012,0.00094413,0.00084852,0.00107046,0.0003
 1515,-0.00015518,-0.00014676,-0.00016492,-0.00001026,-0.00021842,-0.00
 023087,0.00005342,-0.00006542,0.00004114,0.00004508,0.00000225,0.00015
 999,-0.00010000,-0.00019504,0.00002329,0.00000633,0.00013126,0.0000537
 8,-0.00013175,0.00018593,0.00000729,-0.00000351,-0.00000189,0.00001982
 ,-0.00000848,-0.00000619,-0.00000251,0.00000553,0.00001222,-0.02116190
 ,0.03314393,0.06387758,-0.02579043,-0.04352606,-0.04311865,0.01383721,
 -0.04728285,-0.14878424,0.07514828,0.00667650,-0.03406926,-0.00096933,
 -0.00009082,-0.00057551,-0.17762943,0.22917629,0.58251141,0.00071975,0
 .00219424,0.00048361,-0.00062559,-0.00023535,-0.00094981,0.00022426,-0
 .00019685,0.00009501,-0.00004881,0.00005368,0.00002100,0.00001563,0.00
 009405,0.00013169,0.00001914,-0.00007328,-0.00000616,-0.00004719,-0.00
 003028,-0.00002149,-0.00004692,0.00004559,0.00000075,-0.00000241,-0.00
 001538,-0.00008430,-0.00005428,0.00003682,-0.00003839,0.00000663,0.000
 01756,0.00000050,-0.00000715,0.00002094,-0.00002744,0.00000229,0.00001
 342,-0.00001524,-0.00006385,0.00008973,-0.00031855,0.00012159,-0.00010
 078,-0.00006928,0.00000809,-0.00005759,0.00005280,0.00003719,0.0000270
 9,-0.00002391,-0.00000288,0.00001634,-0.00000150,0.00000317,0.00000729
 ,-0.00002280,-0.00001777,0.00004727,-0.00000484,0.00002397,-0.00000959
 ,-0.00000559,0.00002167,0.00000466,-0.00000890,0.00000808,-0.00000498,
 0.00000559,0.00001123,0.00000002,-0.00000479,0.00181825,0.01849511,0.0
 2519763,-0.00375128,-0.00271749,0.00493321,-0.07178538,0.01135489,0.02
 926391,-0.00114092,-0.00023844,-0.00017314,0.00000404,0.00095950,0.001
 15622,0.00790758,-0.01823069,-0.02353624,0.06886728,0.00020196,-0.0020
 2816,0.00159950,0.00012480,0.00061416,0.00096344,-0.00018405,-0.000064
 42,0.00006696,0.00004821,-0.00013147,-0.00008049,0.00001042,-0.0000262
 8,-0.00007039,-0.00003948,-0.00001841,-0.00002333,0.00000550,0.0000063
 4,0.00000923,0.00005395,-0.00003867,0.00003849,0.00000055,0.00005935,0
 .00003177,0.00000221,0.00001467,0.00002761,0.00000192,0.00000736,0.000
 00860,-0.00000318,-0.00000570,-0.00000289,-0.00000007,0.00001214,-0.00
 000018,0.00017428,0.00015922,0.00024309,-0.00001027,0.00004677,0.00005
 430,0.00009811,0.00005755,-0.00015481,-0.00001788,-0.00005102,0.000022
 21,-0.00000276,-0.00000524,0.00001399,-0.00002733,-0.00001887,0.000021
 07,0.00001149,-0.00002308,0.00002924,0.00002445,0.00000470,-0.00000977
 ,-0.00000341,-0.00000633,-0.00000572,0.00001422,-0.00001048,-0.0000001
 6,0.00000132,-0.00000281,0.00000344,-0.00257687,0.00509805,0.00133249,
 -0.00252535,0.00467750,-0.00240881,0.01135517,-0.16568524,-0.15050923,
 -0.00018397,-0.00031214,0.00091873,-0.00006603,-0.00000579,0.00015782,
 0.00530369,-0.00731635,-0.01909466,-0.00780544,0.16547437,-0.00197746,
 0.00172808,-0.00084823,0.00057681,0.00018923,0.00039316,0.00036391,0.0
 0028723,0.00035796,-0.00006323,0.00039250,0.00009179,-0.00026282,-0.00
 008676,-0.00007410,0.00007853,0.00000456,0.00013126,0.00002774,-0.0000
 1043,-0.00003108,-0.00007960,0.00020041,0.00000473,0.00011188,-0.00012
 799,-0.00006037,-0.00004174,-0.00002986,-0.00008392,-0.00000053,-0.000
 00141,-0.00001778,0.00002332,-0.00000615,-0.00000284,0.00001122,-0.000
 01398,-0.00000196,-0.00003539,-0.00023833,0.00032728,-0.00014148,0.000
 08630,0.00006041,-0.00001938,0.00004198,0.00006678,-0.00003228,-0.0000
 0156,0.00004895,-0.00000241,-0.00001752,-0.00003720,-0.00000532,0.0000
 3322,-0.00002463,0.00000275,-0.00002323,-0.00003108,-0.00000755,-0.000
 00252,0.00000557,-0.00001445,0.00000049,-0.00000059,-0.00001363,-0.000
 00003,-0.00000357,-0.00000422,-0.00000267,-0.00000368,-0.00188496,-0.0
 1429179,-0.01064446,0.00521099,-0.00201030,0.00204209,0.02983820,-0.14
 964374,-0.25172573,-0.00008264,0.00100237,0.00029823,-0.00004552,-0.00
 060844,-0.00074841,0.00484126,-0.00345144,-0.00178143,-0.03462341,0.16
 781932,0.26001414,0.00046083,0.00131331,0.00032365,-0.00022291,-0.0000
 2016,-0.00059342,0.00036949,0.00033382,-0.00029622,0.00016760,-0.00035
 276,0.00003192,0.00011599,-0.00009109,-0.00013596,-0.00013115,0.000111
 19,-0.00014099,0.00000309,0.00002165,0.00000159,-0.00007503,-0.0002722
 8,-0.00008076,-0.00031876,-0.00004897,-0.00020540,0.00011854,0.0000124
 4,0.00017300,-0.00001913,-0.00002459,0.00002016,0.00001820,-0.00005087
 ,0.00002390,0.00000091,-0.00001858,-0.00000195,0.00020330,-0.00038756,
 0.00021658,0.00016471,-0.00004367,-0.00024633,-0.00034924,-0.00003114,
 -0.00000399,-0.00017242,0.00016713,-0.00005387,0.00002003,0.00001685,-
 0.00001991,0.00026635,-0.00004574,-0.00015353,0.00001434,0.00000279,0.
 00004673,-0.00006267,-0.00011706,0.00024723,-0.00002266,-0.00000062,0.
 00002035,-0.00002637,0.00001070,-0.00002260,-0.00002353,0.00000220,0.0
 0000230,-0.03416199,0.02178502,0.04527511,-0.05602686,-0.05246603,-0.0
 1961623,0.05927677,-0.00010901,-0.03264140,-0.29605652,-0.00194396,0.1
 4417830,-0.00079670,-0.00541181,-0.00003924,-0.15156314,-0.03810707,0.
 00065643,-0.00242137,-0.00601075,0.00046148,0.70911155,0.00071796,-0.0
 0151066,-0.00016139,-0.00013446,-0.00008444,0.00050989,-0.00104387,0.0
 0012116,-0.00001548,-0.00001072,-0.00004545,0.00022281,-0.00008354,-0.
 00016954,-0.00009039,0.00010408,-0.00008555,0.00001930,-0.00001239,0.0
 0002558,0.00000780,0.00006808,0.00017774,0.00010180,0.00011325,-0.0000
 0182,0.00006341,-0.00006440,-0.00009308,-0.00009330,0.00001949,-0.0000
 3388,-0.00000983,-0.00000292,-0.00002428,0.00002682,0.00000845,-0.0000
 0144,0.00000908,-0.00002690,0.00000132,-0.00028755,-0.00014462,0.00008
 170,-0.00000142,0.00010704,-0.00002024,0.00009722,0.00009562,-0.000067
 30,-0.00000238,-0.00000563,-0.00001545,0.00000065,-0.00008772,0.000029
 61,0.00010938,0.00003740,-0.00005394,-0.00002122,-0.00004022,0.0000881
 4,-0.00006600,-0.00001782,-0.00000535,0.00000398,-0.00003489,0.0000050
 3,-0.00001186,-0.00001137,-0.00000157,-0.00000033,0.02227436,-0.014850
 03,-0.02562339,-0.01188748,0.02948753,0.03243322,-0.04036484,-0.029490
 36,-0.02132683,-0.05429826,-0.12406040,-0.01116210,-0.00545731,0.00172
 709,-0.00477128,0.01366242,-0.19430269,-0.14522336,-0.00566750,0.00272
 986,-0.00390193,0.21113191,0.49552789,-0.00013132,-0.00176515,-0.00115
 213,-0.00026021,-0.00027389,0.00096727,-0.00118637,0.00001434,0.000375
 34,-0.00014828,0.00034897,0.00028453,-0.00028243,-0.00031680,0.0000732
 3,0.00025083,-0.00022289,0.00018593,-0.00000566,0.00000973,0.00000557,
 0.00007657,0.00046123,0.00010776,0.00022407,-0.00008451,0.00006586,-0.
 00018077,-0.00018110,-0.00027643,0.00003748,-0.00001897,-0.00002641,-0
 .00001574,-0.00002548,0.00004703,0.00000788,-0.00000136,0.00000406,-0.
 00021087,0.00016518,-0.00051948,-0.00037207,0.00013967,0.00023155,0.00
 039373,0.00009286,0.00010554,0.00026134,-0.00022258,0.00003959,-0.0000
 1737,-0.00001344,0.00000274,-0.00032743,0.00009560,0.00024533,-0.00000
 472,-0.00004705,-0.00008392,-0.00000571,0.00019647,-0.00027643,-0.0000
 0550,-0.00000546,-0.00000761,-0.00000343,-0.00000599,0.00000987,0.0000
 0719,-0.00000123,-0.00000719,0.04637690,-0.02407627,-0.07028235,0.0309
 1404,0.06010317,0.06270366,-0.08385961,-0.04842595,0.00646951,0.080980
 63,-0.04758388,-0.19707949,-0.00039988,-0.00503504,0.00329559,0.064312
 22,-0.10889404,-0.26233792,0.00104225,-0.00350468,0.00406108,-0.112214
 24,0.24601413,0.55409595,0.00049822,-0.00038020,-0.00094431,-0.0001748
 6,-0.00017915,-0.00014266,-0.00013212,0.00001028,-0.00006592,-0.000003
 48,-0.00005976,0.00002419,0.00001392,-0.00000708,0.00002976,0.00000785
 ,-0.00001338,-0.00000668,0.00000013,0.00000777,0.00000765,0.00000690,-
 0.00000182,0.00000363,0.00000638,-0.00000671,0.00000134,-0.00000169,-0
 .00001149,-0.00000198,0.00000109,-0.00000861,-0.00000244,0.00000260,-0
 .00000041,0.00000219,-0.00000038,-0.00000333,0.00000216,0.00017577,0.0
 0000490,0.00000038,0.00001129,0.00002074,0.00002592,-0.00004024,0.0000
 2476,0.00001161,-0.00001842,0.00002114,0.00001658,0.00000299,-0.000013
 82,-0.00001062,0.00001513,0.00001350,-0.00000209,0.00000163,-0.0000158
 7,-0.00000634,-0.00003695,0.00001903,0.00002994,-0.00001342,-0.0000088
 5,-0.00000061,-0.00001402,0.00000034,-0.00000911,-0.00000962,-0.000005
 42,-0.00000353,-0.00253260,-0.00577643,0.00076411,0.00791032,-0.017751
 13,-0.02324680,-0.00131267,-0.00024141,-0.00009351,-0.07240575,0.01175
 379,0.03037306,0.00034842,0.00216958,-0.00103069,-0.00347961,-0.002984
 46,0.00494717,-0.00011259,0.00038843,-0.00031282,0.00320219,0.01995703
 ,0.02585578,0.06795317,0.00039582,-0.00035235,-0.00067504,-0.00022664,
 -0.00024538,-0.00007576,-0.00014443,0.00012255,-0.00015380,0.00004476,
 -0.00011144,0.00006097,-0.00004518,-0.00011163,0.00001734,-0.00000303,
 -0.00000485,-0.00000455,0.00001584,0.00001521,0.00001227,-0.00001414,0
 .00001183,-0.00000666,0.00000479,0.00003140,-0.00006493,0.00000572,-0.
 00002632,0.00000749,-0.00000051,-0.00001555,0.00000115,0.00001509,-0.0
 0002725,0.00001445,0.00000460,-0.00001053,0.00000044,0.00025668,-0.000
 06011,-0.00002484,-0.00008711,0.00005864,0.00002972,-0.00000514,0.0000
 3636,0.00000394,0.00002479,-0.00000788,0.00001445,0.00000551,-0.000019
 48,-0.00001129,-0.00001229,-0.00000850,0.00002048,0.00000825,-0.000014
 48,0.00002327,-0.00002892,0.00003087,-0.00000089,-0.00002435,-0.000011
 22,0.00001027,-0.00000620,0.00000476,-0.00000221,-0.00001323,0.0000006
 5,-0.00000008,-0.00577107,0.00268516,-0.00326696,0.00522126,-0.0072946
 6,-0.01915540,-0.00021845,-0.00028258,0.00097815,0.01178029,-0.1671716
 2,-0.15209626,0.00132840,-0.00188791,0.00286532,-0.00272402,0.00521427
 ,-0.00265899,0.00040286,-0.00066248,0.00044059,-0.00319877,0.00589000,
 0.00254355,-0.00914954,0.16618064,0.00046418,0.00011489,-0.00029400,-0
 .00005714,-0.00007693,-0.00006464,-0.00015700,0.00001354,-0.00003224,0
 .00000576,-0.00004693,0.00004703,0.00002713,-0.00002220,0.00004326,0.0
 0001170,-0.00001747,-0.00000189,-0.00000050,0.00001056,-0.00000059,-0.
 00001777,0.00001045,-0.00001995,-0.00000613,0.00000785,-0.00003662,-0.
 00000673,-0.00001962,-0.00000761,-0.00000028,-0.00001550,-0.00000639,0
 .00000920,-0.00000461,0.00000612,0.00000067,-0.00001371,0.00000119,0.0
 0006195,-0.00010218,-0.00001652,-0.00000237,0.00001845,-0.00003748,-0.
 00007077,0.00000887,0.00001642,-0.00001698,0.00003117,-0.00000131,0.00
 000995,0.00000312,-0.00001108,0.00004243,0.00000426,0.00000233,0.00001
 622,-0.00002231,-0.00000284,-0.00003518,0.00000729,0.00004703,-0.00001
 361,-0.00000533,0.00000612,-0.00002462,0.00000628,-0.00001893,-0.00001
 904,-0.00000273,0.00000002,0.00036839,-0.00375235,0.00384009,0.0047549
 1,-0.00317739,-0.00161608,-0.00022690,0.00095984,0.00036865,0.03015785
 ,-0.15196263,-0.25416271,-0.00179151,0.00236909,-0.00089963,0.00533821
 ,-0.00241264,0.00233954,-0.00030880,0.00044855,-0.00051142,-0.00213583
 ,-0.01347017,-0.00925746,-0.03536972,0.16878537,0.26191960,-0.00069459
 ,0.00044001,0.00087389,-0.00000654,-0.00001007,-0.00006364,-0.00012594
 ,0.00015147,-0.00008837,0.00005093,-0.00009788,0.00002656,0.00004152,-
 0.00004038,0.00003768,0.00000469,-0.00001624,-0.00001725,-0.00000984,0
 .00001533,0.00000679,-0.00001026,-0.00000162,-0.00001692,-0.00002562,0
 .00002346,-0.00003699,0.00000765,-0.00003034,-0.00000347,-0.00001012,-
 0.00002260,-0.00000054,0.00000260,-0.00000993,0.00001775,-0.00000194,-
 0.00001737,0.00000447,-0.00001605,-0.00032799,-0.00018817,-0.00010077,
 0.00006352,-0.00000779,-0.00006407,-0.00000683,0.00005929,0.00002628,0
 .00001331,0.00000282,0.00000601,-0.00000009,-0.00000487,0.00000773,-0.
 00000554,0.00002561,0.00001561,-0.00001237,0.00000149,-0.00003240,0.00
 001693,-0.00000231,-0.00001534,-0.00000088,0.00001356,-0.00001888,0.00
 001754,-0.00000439,-0.00001509,0.00000397,0.00000274,-0.00055238,-0.00
 578779,-0.00030688,0.00032758,-0.00014746,-0.00105212,-0.01566148,0.00
 258217,0.01805924,0.00286369,-0.00191141,0.00171100,-0.00026475,0.0003
 9581,-0.00021263,-0.27642787,-0.01273745,0.14344260,0.00020379,0.00145
 559,-0.00198453,0.00251470,-0.00315636,-0.00179543,-0.00011357,-0.0000
 3828,-0.00003429,0.28792722,-0.00068291,0.00017258,0.00067607,0.000060
 12,0.00007348,0.00000637,-0.00010129,0.00005621,-0.00004093,0.00000517
 ,-0.00004999,0.00001922,0.00002429,-0.00004100,0.00000060,0.00000992,-
 0.00000219,-0.00001292,-0.00000388,0.00000744,0.00001182,0.00001429,-0
 .00001208,-0.00001316,-0.00003463,0.00001166,0.00000738,0.00001524,-0.
 00002900,0.00000597,-0.00000307,-0.00000698,0.00000324,-0.00000340,-0.
 00001186,0.00001818,-0.00000567,-0.00000464,0.00000497,-0.00013478,-0.
 00033555,-0.00004162,-0.00002103,0.00002654,-0.00000240,-0.00005637,0.
 00003224,-0.00002111,-0.00002470,0.00004200,0.00000971,-0.00000473,-0.
 00001633,-0.00000476,0.00005018,-0.00000119,-0.00000696,0.00000327,-0.
 00000162,0.00000025,-0.00002716,-0.00002061,0.00004194,-0.00000898,0.0
 0000088,0.00000750,-0.00000198,0.00000179,-0.00000389,-0.00000489,-0.0
 0000086,0.,-0.00523738,0.00184584,-0.00503643,-0.00001498,-0.00108675,
 -0.00019790,-0.02043227,0.00512102,0.01371693,-0.00226602,0.00180075,-
 0.00684827,0.00033908,-0.00057326,0.00059169,-0.01264777,-0.06084478,-
 0.00614482,0.00223874,-0.00194097,0.00239967,0.01972063,0.00626944,-0.
 01278151,0.00091486,-0.00000721,-0.00053614,0.01706942,0.05133023,-0.0
 0044629,0.00004822,0.00021825,0.00002265,0.00002758,-0.00004024,0.0001
 0654,0.00004211,0.00002033,0.00000659,-0.00000065,-0.00004487,-0.00001
 482,0.00002488,-0.00001364,-0.00001470,0.00001015,-0.00000619,-0.00000
 293,-0.00000476,-0.00000357,-0.00000116,-0.00001327,0.00003087,0.00002
 733,-0.00002722,-0.00000068,0.00000103,0.00002550,0.00000987,-0.000001
 18,0.00000575,0.00000195,0.00000264,0.00000899,-0.00001893,0.00000382,
 0.00000859,-0.00000264,-0.00000108,0.00001009,-0.00008319,-0.00001328,
 0.00001181,0.00003697,0.00002343,0.00000004,0.00003059,0.00002350,-0.0
 0001264,0.00001416,-0.00000453,-0.00000722,-0.00000327,-0.00003440,0.0
 0001768,0.00001374,-0.00000770,-0.00000386,-0.00001778,-0.00000157,0.0
 0002238,-0.00002641,0.00000022,-0.00000269,-0.00000639,-0.00000253,-0.
 00000209,0.00000195,0.00000322,-0.00000295,-0.00000372,-0.00005870,-0.
 00483187,0.00329802,-0.00104415,-0.00018107,-0.00044226,-0.01014680,-0
 .00247691,0.00975744,0.00131933,-0.00705047,-0.00094069,-0.00021644,0.
 00055753,-0.00042462,0.14363387,-0.00603666,-0.15680179,-0.00104737,0.
 00287991,-0.00090478,0.02624812,0.00328579,-0.00887228,0.00117378,0.00
 012348,-0.00072502,-0.15759845,0.01135338,0.15671193,-0.00007194,0.000
 40588,-0.00025499,-0.00001648,-0.00007282,-0.00010618,-0.00000020,0.00
 007903,0.00000474,0.00000948,-0.00001094,0.00001785,0.00002889,-0.0000
 1389,0.00004132,0.00000601,-0.00000722,0.00000605,0.00000012,0.0000063
 9,-0.00000020,-0.00001943,0.00000667,-0.00002635,-0.00002518,0.0000197
 3,-0.00002902,-0.00000309,-0.00001400,-0.00000466,-0.00000402,-0.00001
 036,-0.00000416,0.00000616,-0.00000369,0.00000715,0.00000029,-0.000013
 16,0.00000066,0.00004122,-0.00006541,-0.00002934,-0.00005819,0.0000104
 8,-0.00004415,-0.00001175,-0.00002880,0.00002939,0.00003023,-0.0000122
 2,-0.00002325,0.00001223,0.00002307,0.00000019,0.00000638,-0.00001297,
 0.00001919,0.00001546,-0.00000582,0.00000650,-0.00000524,0.00001503,-0
 .00000276,-0.00000744,-0.00000074,0.00001154,-0.00001394,0.00001044,-0
 .00000935,-0.00001539,0.00000411,0.00000311,-0.00006834,0.00095988,0.0
 0053067,-0.00208824,-0.00144214,0.00590522,0.00245597,-0.00129219,0.00
 277558,-0.01518773,-0.02088158,-0.01128961,-0.00093488,-0.00086234,-0.
 00046174,0.00738266,0.00483652,0.00429340,0.00010478,0.00018060,0.0000
 8728,-0.23357812,-0.14574388,-0.04931387,0.00024397,0.00219662,-0.0009
 7337,0.00016749,0.00125270,-0.00193800,0.24159829,0.00023801,-0.000591
 54,0.00044749,0.00000624,0.00005487,0.00013807,-0.00014394,-0.00001531
 ,-0.00009018,0.00002659,-0.00005415,0.00004188,0.00000737,-0.00004688,
 0.00001313,0.00000762,-0.00001172,-0.00000059,0.00000509,0.00000830,0.
 00000499,-0.00001246,0.00002014,-0.00002814,-0.00002368,0.00003205,-0.
 00003378,-0.00000043,-0.00002201,-0.00000561,-0.00000150,-0.00001193,-
 0.00000131,0.00000412,-0.00001513,0.00001786,-0.00000121,-0.00001232,0
 .00000197,0.00000098,-0.00006020,0.00000255,-0.00001914,0.00001672,-0.
 00002809,-0.00003047,-0.00001947,-0.00001738,0.00000807,0.00000491,-0.
 00000688,0.00000599,0.00000223,0.00000331,0.00001250,-0.00001886,0.000
 00640,0.00000768,-0.00000103,0.00001671,-0.00001200,0.00000472,0.00000
 750,-0.00000868,-0.00000347,0.00000743,-0.00000126,0.00000736,-0.00000
 099,-0.00000784,0.00000336,0.00000315,0.00105937,-0.00013562,0.0002334
 3,-0.00187973,0.00525096,-0.00323935,-0.00091623,0.00283107,-0.0065436
 0,0.00237125,0.00450996,-0.00247715,0.00009397,-0.00004997,-0.00002341
 ,-0.01811315,-0.00713556,-0.00226563,-0.00073615,-0.00060815,-0.000155
 86,-0.14587711,-0.17724461,-0.05669764,0.00131272,-0.00194896,0.002861
 26,0.00213034,-0.00180523,0.00219047,0.16048705,0.17706546,-0.00026945
 ,0.00052099,-0.00029653,0.00006898,-0.00002852,-0.00003234,0.00003244,
 0.00007840,0.00006365,-0.00001136,0.00003058,0.00000364,-0.00001770,-0
 .00000065,0.00001434,0.00000445,0.00000335,0.00001222,0.00000538,0.000
 00243,-0.00000368,-0.00000283,0.00000746,0.00000113,0.00002043,-0.0000
 1359,-0.00000777,-0.00000144,-0.00000182,-0.00000719,-0.00000137,-0.00
 000237,-0.00000372,0.00000170,0.00000310,0.00000002,0.00000117,-0.0000
 0427,0.00000083,0.00004143,-0.00004115,0.00000975,-0.00002766,0.000022
 60,0.00003938,-0.00001529,0.00004289,0.00001034,-0.00001795,0.00000637
 ,0.00000950,-0.00000036,-0.00000513,-0.00000887,0.00000366,0.00000498,
 0.00000012,0.00000777,-0.00001311,-0.00000196,-0.00000689,-0.00000623,
 0.00000406,-0.00000146,0.00000165,0.00000119,-0.00000654,0.00000139,-0
 .00000264,-0.00000203,-0.00000041,0.00000083,0.00048006,0.00014936,-0.
 00113672,0.00540213,-0.00347065,0.00107927,0.00327587,-0.00629770,-0.0
 0136350,0.01673089,0.01361719,0.01021241,0.00065806,0.00062854,0.00022
 531,-0.02382012,-0.01842688,-0.00084311,-0.00109221,-0.00082464,-0.000
 36615,-0.04932501,-0.05666507,-0.08319787,-0.00201943,0.00224496,-0.00
 091299,-0.00086649,0.00281796,-0.00076309,0.05077117,0.06561803,0.0772
 6013||0.,0.,0.00002649,0.,0.,0.00009503,0.00000358,0.00001278,-0.00001
 789,-0.00001228,-0.00005180,0.00001234,-0.00000775,-0.00002219,-0.0000
 6784,-0.00000775,0.00008628,0.00001612,-0.00000135,-0.00000020,-0.0000
 0866,-0.00003035,-0.00002225,-0.00002857,0.00000931,0.00003923,0.00004
 822,0.00003618,0.00001926,0.00001585,-0.00001566,-0.00001616,-0.000028
 26,0.00000022,-0.00000215,0.00000520,0.00000480,0.00001425,0.00001296,
 0.00000928,-0.00000949,-0.00001789,-0.00001535,0.00001780,-0.00006784,
 -0.00003873,0.00003654,0.00001234,-0.00000409,0.00003741,-0.00002857,0
 .00002932,-0.00002767,0.00004822,0.00007860,-0.00003643,0.00001612,0.0
 0000050,0.00000127,-0.00000866,-0.00000141,-0.00004096,0.00001585,-0.0
 0000197,0.00000089,0.00000520,-0.00000616,0.00002164,-0.00002826,0.000
 00995,-0.00001128,0.00001296,-0.00001286,-0.00000329,-0.00001789,0.000
 02309,0.00000439,-0.00006784,0.00005100,0.00001527,0.00001234,0.000034
 44,-0.00001516,-0.00002857,-0.00003862,-0.00001156,0.00004822,-0.00007
 085,-0.00004985,0.00001612,0.00000085,-0.00000107,-0.00000866,-0.00003
 477,0.00002170,0.00001585,0.00000175,0.00000126,0.00000520,0.00002182,
 -0.00000548,-0.00002826,-0.00001474,-0.00000297,0.00001296|||@


 QED = W**5 (WHICH WAS WHAT WE WANTED)
 Job cpu time:  0 days  0 hours  3 minutes 28.0 seconds.
 File lengths (MBytes):  RWF=    178 Int=      0 D2E=      0 Chk=      7 Scr=      1
 Normal termination of Gaussian 09 at Mon Sep 06 13:34:43 2021.
