 Entering Link 1 = b:\programy\g09w\l1.exe PID=     10532.
  
 Copyright (c) 1988,1990,1992,1993,1995,1998,2003,2009, Gaussian, Inc.
                  All Rights Reserved.
  
 This is part of the Gaussian(R) 09 program.  It is based on
 the Gaussian(R) 03 system (copyright 2003, Gaussian, Inc.),
 the Gaussian(R) 98 system (copyright 1998, Gaussian, Inc.),
 the Gaussian(R) 94 system (copyright 1995, Gaussian, Inc.),
 the Gaussian 92(TM) system (copyright 1992, Gaussian, Inc.),
 the Gaussian 90(TM) system (copyright 1990, Gaussian, Inc.),
 the Gaussian 88(TM) system (copyright 1988, Gaussian, Inc.),
 the Gaussian 86(TM) system (copyright 1986, Carnegie Mellon
 University), and the Gaussian 82(TM) system (copyright 1983,
 Carnegie Mellon University). Gaussian is a federally registered
 trademark of Gaussian, Inc.
  
 This software contains proprietary and confidential information,
 including trade secrets, belonging to Gaussian, Inc.
  
 This software is provided under written license and may be
 used, copied, transmitted, or stored only in accord with that
 written license.
  
 The following legend is applicable only to US Government
 contracts under FAR:
  
                    RESTRICTED RIGHTS LEGEND
  
 Use, reproduction and disclosure by the US Government is
 subject to restrictions as set forth in subparagraphs (a)
 and (c) of the Commercial Computer Software - Restricted
 Rights clause in FAR 52.227-19.
  
 Gaussian, Inc.
 340 Quinnipiac St., Bldg. 40, Wallingford CT 06492
  
  
 ---------------------------------------------------------------
 Warning -- This program may not be used in any manner that
 competes with the business of Gaussian, Inc. or will provide
 assistance to any competitor of Gaussian, Inc.  The licensee
 of this program is prohibited from giving any competitor of
 Gaussian, Inc. access to this program.  By using this program,
 the user acknowledges that Gaussian, Inc. is engaged in the
 business of creating and licensing software in the field of
 computational chemistry and represents and warrants to the
 licensee that it is not a competitor of Gaussian, Inc. and that
 it will not use this program in any manner prohibited above.
 ---------------------------------------------------------------
  

 Cite this work as:
 Gaussian 09, Revision A.02,
 M. J. Frisch, G. W. Trucks, H. B. Schlegel, G. E. Scuseria, 
 M. A. Robb, J. R. Cheeseman, G. Scalmani, V. Barone, B. Mennucci, 
 G. A. Petersson, H. Nakatsuji, M. Caricato, X. Li, H. P. Hratchian, 
 A. F. Izmaylov, J. Bloino, G. Zheng, J. L. Sonnenberg, M. Hada, 
 M. Ehara, K. Toyota, R. Fukuda, J. Hasegawa, M. Ishida, T. Nakajima, 
 Y. Honda, O. Kitao, H. Nakai, T. Vreven, J. A. Montgomery, Jr., 
 J. E. Peralta, F. Ogliaro, M. Bearpark, J. J. Heyd, E. Brothers, 
 K. N. Kudin, V. N. Staroverov, R. Kobayashi, J. Normand, 
 K. Raghavachari, A. Rendell, J. C. Burant, S. S. Iyengar, J. Tomasi, 
 M. Cossi, N. Rega, J. M. Millam, M. Klene, J. E. Knox, J. B. Cross, 
 V. Bakken, C. Adamo, J. Jaramillo, R. Gomperts, R. E. Stratmann, 
 O. Yazyev, A. J. Austin, R. Cammi, C. Pomelli, J. W. Ochterski, 
 R. L. Martin, K. Morokuma, V. G. Zakrzewski, G. A. Voth, 
 P. Salvador, J. J. Dannenberg, S. Dapprich, A. D. Daniels, 
 O. Farkas, J. B. Foresman, J. V. Ortiz, J. Cioslowski, 
 and D. J. Fox, Gaussian, Inc., Wallingford CT, 2009.
 
 ******************************************
 Gaussian 09:  IA32W-G09RevA.02 11-Jun-2009
                07-Sep-2021 
 ******************************************
 %nprocshared=12
 Will use up to   12 processors via shared memory.
 ----------------------------------------------
 # opt freq=noraman hf/6-311g geom=connectivity
 ----------------------------------------------
 1/18=20,19=15,38=1,57=2/1,3;
 2/9=110,12=2,17=6,18=5,40=1/2;
 3/5=4,6=6,11=9,16=1,25=1,30=1,71=1/1,2,3;
 4//1;
 5/5=2,38=5/2;
 6/7=2,8=2,9=2,10=2,28=1/1;
 7//1,2,3,16;
 1/18=20,19=15/3(2);
 2/9=110/2;
 99//99;
 2/9=110/2;
 3/5=4,6=6,11=9,16=1,25=1,30=1,71=1/1,2,3;
 4/5=5,16=3/1;
 5/5=2,38=5/2;
 7//1,2,3,16;
 1/18=20,19=15/3(-5);
 2/9=110/2;
 6/7=2,8=2,9=2,10=2,19=2,28=1/1;
 99/9=1/99;
 -----
 M0001
 -----
 Symbolic Z-matrix:
 Charge =  0 Multiplicity = 1
 C                     0.16251   0.74669  -0.126 
 H                     0.3547    1.83273  -0.33798 
 C                    -1.32387   0.56839   0.07092 
 C                    -2.14984   1.69365   0.11526 
 C                    -1.89187  -0.70004   0.2051 
 C                    -3.52221   1.54935   0.28652 
 H                    -1.7174    2.69621   0.01584 
 C                    -3.26365  -0.84181   0.37346 
 H                    -1.23566  -1.5837    0.19376 
 C                    -4.08156   0.28282   0.4131 
 H                    -4.16273   2.4367    0.32119 
 H                    -3.69961  -1.84079   0.47615 
 H                    -5.16241   0.17091   0.54532 
 C                     0.64468   0.02198  -1.3585 
 C                    -0.03902   0.22678  -2.56215 
 C                     1.77381  -0.79612  -1.35341 
 C                     0.39621  -0.3805   -3.73246 
 H                    -0.92811   0.86868  -2.57427 
 C                     2.2093   -1.40234  -2.52768 
 H                     2.32376  -0.96418  -0.41859 
 C                     1.52286  -1.19744  -3.71813 
 H                    -0.14844  -0.21486  -4.66768 
 H                     3.09761  -2.04219  -2.51027 
 H                     1.86636  -1.67535  -4.64101 
 C                     0.9117    0.39298   1.13433 
 C                     0.84945  -0.88565   1.69298 
 C                     1.68225   1.37299   1.76432 
 C                     1.54513  -1.17923   2.85919 
 H                     0.23006  -1.65392   1.20366 
 C                     2.37795   1.07686   2.93125 
 H                     1.74052   2.3819    1.33892 
 C                     2.31164  -0.19866   3.48022 
 H                     1.48735  -2.18424   3.28944 
 H                     2.97894   1.85172   3.41811 
 H                     2.85961  -0.43033   4.39911 
 

 GradGradGradGradGradGradGradGradGradGradGradGradGradGradGradGradGradGrad
 Berny optimization.
 Initialization pass.
                           ----------------------------
                           !    Initial Parameters    !
                           ! (Angstroms and Degrees)  !
 --------------------------                            --------------------------
 ! Name  Definition              Value          Derivative Info.                !
 --------------------------------------------------------------------------------
 ! R1    R(1,2)                  1.1231         estimate D2E/DX2                !
 ! R2    R(1,3)                  1.5099         estimate D2E/DX2                !
 ! R3    R(1,14)                 1.5089         estimate D2E/DX2                !
 ! R4    R(1,25)                 1.5083         estimate D2E/DX2                !
 ! R5    R(3,4)                  1.3966         estimate D2E/DX2                !
 ! R6    R(3,5)                  1.3963         estimate D2E/DX2                !
 ! R7    R(4,6)                  1.3905         estimate D2E/DX2                !
 ! R8    R(4,7)                  1.0964         estimate D2E/DX2                !
 ! R9    R(5,8)                  1.3893         estimate D2E/DX2                !
 ! R10   R(5,9)                  1.1007         estimate D2E/DX2                !
 ! R11   R(6,10)                 1.3903         estimate D2E/DX2                !
 ! R12   R(6,11)                 1.0949         estimate D2E/DX2                !
 ! R13   R(8,10)                 1.3912         estimate D2E/DX2                !
 ! R14   R(8,12)                 1.0948         estimate D2E/DX2                !
 ! R15   R(10,13)                1.0946         estimate D2E/DX2                !
 ! R16   R(14,15)                1.3993         estimate D2E/DX2                !
 ! R17   R(14,16)                1.3944         estimate D2E/DX2                !
 ! R18   R(15,17)                1.3885         estimate D2E/DX2                !
 ! R19   R(15,18)                1.0967         estimate D2E/DX2                !
 ! R20   R(16,19)                1.3914         estimate D2E/DX2                !
 ! R21   R(16,20)                1.0975         estimate D2E/DX2                !
 ! R22   R(17,21)                1.3917         estimate D2E/DX2                !
 ! R23   R(17,22)                1.0949         estimate D2E/DX2                !
 ! R24   R(19,21)                1.3894         estimate D2E/DX2                !
 ! R25   R(19,23)                1.0949         estimate D2E/DX2                !
 ! R26   R(21,24)                1.0946         estimate D2E/DX2                !
 ! R27   R(25,26)                1.3967         estimate D2E/DX2                !
 ! R28   R(25,27)                1.3968         estimate D2E/DX2                !
 ! R29   R(26,28)                1.3893         estimate D2E/DX2                !
 ! R30   R(26,29)                1.1015         estimate D2E/DX2                !
 ! R31   R(27,30)                1.3905         estimate D2E/DX2                !
 ! R32   R(27,31)                1.0965         estimate D2E/DX2                !
 ! R33   R(28,32)                1.3909         estimate D2E/DX2                !
 ! R34   R(28,33)                1.0948         estimate D2E/DX2                !
 ! R35   R(30,32)                1.3902         estimate D2E/DX2                !
 ! R36   R(30,34)                1.0948         estimate D2E/DX2                !
 ! R37   R(32,35)                1.0947         estimate D2E/DX2                !
 ! A1    A(2,1,3)              107.8943         estimate D2E/DX2                !
 ! A2    A(2,1,14)             104.8083         estimate D2E/DX2                !
 ! A3    A(2,1,25)             107.4274         estimate D2E/DX2                !
 ! A4    A(3,1,14)             111.3694         estimate D2E/DX2                !
 ! A5    A(3,1,25)             110.6283         estimate D2E/DX2                !
 ! A6    A(14,1,25)            114.2798         estimate D2E/DX2                !
 ! A7    A(1,3,4)              119.4194         estimate D2E/DX2                !
 ! A8    A(1,3,5)              121.3502         estimate D2E/DX2                !
 ! A9    A(4,3,5)              119.23           estimate D2E/DX2                !
 ! A10   A(3,4,6)              120.2653         estimate D2E/DX2                !
 ! A11   A(3,4,7)              120.0421         estimate D2E/DX2                !
 ! A12   A(6,4,7)              119.6925         estimate D2E/DX2                !
 ! A13   A(3,5,8)              120.3985         estimate D2E/DX2                !
 ! A14   A(3,5,9)              119.0637         estimate D2E/DX2                !
 ! A15   A(8,5,9)              120.5287         estimate D2E/DX2                !
 ! A16   A(4,6,10)             120.1863         estimate D2E/DX2                !
 ! A17   A(4,6,11)             119.812          estimate D2E/DX2                !
 ! A18   A(10,6,11)            120.0017         estimate D2E/DX2                !
 ! A19   A(5,8,10)             120.0972         estimate D2E/DX2                !
 ! A20   A(5,8,12)             119.8451         estimate D2E/DX2                !
 ! A21   A(10,8,12)            120.0577         estimate D2E/DX2                !
 ! A22   A(6,10,8)             119.8216         estimate D2E/DX2                !
 ! A23   A(6,10,13)            120.0911         estimate D2E/DX2                !
 ! A24   A(8,10,13)            120.0872         estimate D2E/DX2                !
 ! A25   A(1,14,15)            118.4358         estimate D2E/DX2                !
 ! A26   A(1,14,16)            122.5191         estimate D2E/DX2                !
 ! A27   A(15,14,16)           118.9902         estimate D2E/DX2                !
 ! A28   A(14,15,17)           120.5197         estimate D2E/DX2                !
 ! A29   A(14,15,18)           119.4249         estimate D2E/DX2                !
 ! A30   A(17,15,18)           120.0545         estimate D2E/DX2                !
 ! A31   A(14,16,19)           120.3969         estimate D2E/DX2                !
 ! A32   A(14,16,20)           119.9149         estimate D2E/DX2                !
 ! A33   A(19,16,20)           119.6882         estimate D2E/DX2                !
 ! A34   A(15,17,21)           120.1205         estimate D2E/DX2                !
 ! A35   A(15,17,22)           119.8593         estimate D2E/DX2                !
 ! A36   A(21,17,22)           120.0202         estimate D2E/DX2                !
 ! A37   A(16,19,21)           120.2798         estimate D2E/DX2                !
 ! A38   A(16,19,23)           119.6772         estimate D2E/DX2                !
 ! A39   A(21,19,23)           120.043          estimate D2E/DX2                !
 ! A40   A(17,21,19)           119.6922         estimate D2E/DX2                !
 ! A41   A(17,21,24)           120.1098         estimate D2E/DX2                !
 ! A42   A(19,21,24)           120.198          estimate D2E/DX2                !
 ! A43   A(1,25,26)            121.7876         estimate D2E/DX2                !
 ! A44   A(1,25,27)            119.1019         estimate D2E/DX2                !
 ! A45   A(26,25,27)           119.1094         estimate D2E/DX2                !
 ! A46   A(25,26,28)           120.455          estimate D2E/DX2                !
 ! A47   A(25,26,29)           119.0698         estimate D2E/DX2                !
 ! A48   A(28,26,29)           120.4699         estimate D2E/DX2                !
 ! A49   A(25,27,30)           120.338          estimate D2E/DX2                !
 ! A50   A(25,27,31)           119.9944         estimate D2E/DX2                !
 ! A51   A(30,27,31)           119.6676         estimate D2E/DX2                !
 ! A52   A(26,28,32)           120.1165         estimate D2E/DX2                !
 ! A53   A(26,28,33)           119.8319         estimate D2E/DX2                !
 ! A54   A(32,28,33)           120.0515         estimate D2E/DX2                !
 ! A55   A(27,30,32)           120.1942         estimate D2E/DX2                !
 ! A56   A(27,30,34)           119.81           estimate D2E/DX2                !
 ! A57   A(32,30,34)           119.9959         estimate D2E/DX2                !
 ! A58   A(28,32,30)           119.7869         estimate D2E/DX2                !
 ! A59   A(28,32,35)           120.0957         estimate D2E/DX2                !
 ! A60   A(30,32,35)           120.1174         estimate D2E/DX2                !
 ! D1    D(2,1,3,4)             -6.9218         estimate D2E/DX2                !
 ! D2    D(2,1,3,5)            172.8453         estimate D2E/DX2                !
 ! D3    D(14,1,3,4)          -121.4249         estimate D2E/DX2                !
 ! D4    D(14,1,3,5)            58.3422         estimate D2E/DX2                !
 ! D5    D(25,1,3,4)           110.3252         estimate D2E/DX2                !
 ! D6    D(25,1,3,5)           -69.9077         estimate D2E/DX2                !
 ! D7    D(2,1,14,15)          -66.2811         estimate D2E/DX2                !
 ! D8    D(2,1,14,16)          110.9949         estimate D2E/DX2                !
 ! D9    D(3,1,14,15)           50.1244         estimate D2E/DX2                !
 ! D10   D(3,1,14,16)         -132.5996         estimate D2E/DX2                !
 ! D11   D(25,1,14,15)         176.3899         estimate D2E/DX2                !
 ! D12   D(25,1,14,16)          -6.3342         estimate D2E/DX2                !
 ! D13   D(2,1,25,26)          178.1994         estimate D2E/DX2                !
 ! D14   D(2,1,25,27)           -1.4084         estimate D2E/DX2                !
 ! D15   D(3,1,25,26)           60.6655         estimate D2E/DX2                !
 ! D16   D(3,1,25,27)         -118.9423         estimate D2E/DX2                !
 ! D17   D(14,1,25,26)         -65.985          estimate D2E/DX2                !
 ! D18   D(14,1,25,27)         114.4072         estimate D2E/DX2                !
 ! D19   D(1,3,4,6)            179.5521         estimate D2E/DX2                !
 ! D20   D(1,3,4,7)             -0.5037         estimate D2E/DX2                !
 ! D21   D(5,3,4,6)             -0.22           estimate D2E/DX2                !
 ! D22   D(5,3,4,7)            179.7242         estimate D2E/DX2                !
 ! D23   D(1,3,5,8)           -179.4189         estimate D2E/DX2                !
 ! D24   D(1,3,5,9)              1.6735         estimate D2E/DX2                !
 ! D25   D(4,3,5,8)              0.3486         estimate D2E/DX2                !
 ! D26   D(4,3,5,9)           -178.559          estimate D2E/DX2                !
 ! D27   D(3,4,6,10)            -0.0826         estimate D2E/DX2                !
 ! D28   D(3,4,6,11)           179.94           estimate D2E/DX2                !
 ! D29   D(7,4,6,10)           179.973          estimate D2E/DX2                !
 ! D30   D(7,4,6,11)            -0.0045         estimate D2E/DX2                !
 ! D31   D(3,5,8,10)            -0.1747         estimate D2E/DX2                !
 ! D32   D(3,5,8,12)           179.9015         estimate D2E/DX2                !
 ! D33   D(9,5,8,10)           178.7168         estimate D2E/DX2                !
 ! D34   D(9,5,8,12)            -1.207          estimate D2E/DX2                !
 ! D35   D(4,6,10,8)             0.2592         estimate D2E/DX2                !
 ! D36   D(4,6,10,13)         -179.845          estimate D2E/DX2                !
 ! D37   D(11,6,10,8)         -179.7634         estimate D2E/DX2                !
 ! D38   D(11,6,10,13)           0.1324         estimate D2E/DX2                !
 ! D39   D(5,8,10,6)            -0.1309         estimate D2E/DX2                !
 ! D40   D(5,8,10,13)          179.9733         estimate D2E/DX2                !
 ! D41   D(12,8,10,6)          179.7928         estimate D2E/DX2                !
 ! D42   D(12,8,10,13)          -0.1031         estimate D2E/DX2                !
 ! D43   D(1,14,15,17)         177.6868         estimate D2E/DX2                !
 ! D44   D(1,14,15,18)          -2.641          estimate D2E/DX2                !
 ! D45   D(16,14,15,17)          0.3127         estimate D2E/DX2                !
 ! D46   D(16,14,15,18)        179.9849         estimate D2E/DX2                !
 ! D47   D(1,14,16,19)        -177.4896         estimate D2E/DX2                !
 ! D48   D(1,14,16,20)           2.5116         estimate D2E/DX2                !
 ! D49   D(15,14,16,19)         -0.2281         estimate D2E/DX2                !
 ! D50   D(15,14,16,20)        179.7731         estimate D2E/DX2                !
 ! D51   D(14,15,17,21)         -0.2063         estimate D2E/DX2                !
 ! D52   D(14,15,17,22)        179.8407         estimate D2E/DX2                !
 ! D53   D(18,15,17,21)       -179.8764         estimate D2E/DX2                !
 ! D54   D(18,15,17,22)          0.1705         estimate D2E/DX2                !
 ! D55   D(14,16,19,21)          0.0376         estimate D2E/DX2                !
 ! D56   D(14,16,19,23)        179.9781         estimate D2E/DX2                !
 ! D57   D(20,16,19,21)       -179.9636         estimate D2E/DX2                !
 ! D58   D(20,16,19,23)         -0.0231         estimate D2E/DX2                !
 ! D59   D(15,17,21,19)          0.0116         estimate D2E/DX2                !
 ! D60   D(15,17,21,24)       -179.9432         estimate D2E/DX2                !
 ! D61   D(22,17,21,19)        179.9646         estimate D2E/DX2                !
 ! D62   D(22,17,21,24)          0.0098         estimate D2E/DX2                !
 ! D63   D(16,19,21,17)          0.0726         estimate D2E/DX2                !
 ! D64   D(16,19,21,24)       -179.9726         estimate D2E/DX2                !
 ! D65   D(23,19,21,17)       -179.8677         estimate D2E/DX2                !
 ! D66   D(23,19,21,24)          0.0871         estimate D2E/DX2                !
 ! D67   D(1,25,26,28)        -179.6446         estimate D2E/DX2                !
 ! D68   D(1,25,26,29)          -0.4789         estimate D2E/DX2                !
 ! D69   D(27,25,26,28)         -0.0368         estimate D2E/DX2                !
 ! D70   D(27,25,26,29)        179.1289         estimate D2E/DX2                !
 ! D71   D(1,25,27,30)         179.6709         estimate D2E/DX2                !
 ! D72   D(1,25,27,31)          -0.3155         estimate D2E/DX2                !
 ! D73   D(26,25,27,30)          0.0525         estimate D2E/DX2                !
 ! D74   D(26,25,27,31)       -179.934          estimate D2E/DX2                !
 ! D75   D(25,26,28,32)         -0.0342         estimate D2E/DX2                !
 ! D76   D(25,26,28,33)        179.8664         estimate D2E/DX2                !
 ! D77   D(29,26,28,32)       -179.1882         estimate D2E/DX2                !
 ! D78   D(29,26,28,33)          0.7125         estimate D2E/DX2                !
 ! D79   D(25,27,30,32)          0.0028         estimate D2E/DX2                !
 ! D80   D(25,27,30,34)       -179.9732         estimate D2E/DX2                !
 ! D81   D(31,27,30,32)        179.9893         estimate D2E/DX2                !
 ! D82   D(31,27,30,34)          0.0133         estimate D2E/DX2                !
 ! D83   D(26,28,32,30)          0.0898         estimate D2E/DX2                !
 ! D84   D(26,28,32,35)        179.9973         estimate D2E/DX2                !
 ! D85   D(33,28,32,30)       -179.8106         estimate D2E/DX2                !
 ! D86   D(33,28,32,35)          0.0968         estimate D2E/DX2                !
 ! D87   D(27,30,32,28)         -0.0742         estimate D2E/DX2                !
 ! D88   D(27,30,32,35)       -179.9816         estimate D2E/DX2                !
 ! D89   D(34,30,32,28)        179.9018         estimate D2E/DX2                !
 ! D90   D(34,30,32,35)         -0.0056         estimate D2E/DX2                !
 --------------------------------------------------------------------------------
 Trust Radius=3.00D-01 FncErr=1.00D-07 GrdErr=1.00D-07
 Number of steps in this run= 197 maximum allowed number of steps= 210.
 GradGradGradGradGradGradGradGradGradGradGradGradGradGradGradGradGradGrad

                          Input orientation:                          
 ---------------------------------------------------------------------
 Center     Atomic      Atomic             Coordinates (Angstroms)
 Number     Number       Type             X           Y           Z
 ---------------------------------------------------------------------
      1          6           0        0.162512    0.746690   -0.126001
      2          1           0        0.354703    1.832731   -0.337983
      3          6           0       -1.323865    0.568388    0.070921
      4          6           0       -2.149840    1.693652    0.115255
      5          6           0       -1.891873   -0.700044    0.205099
      6          6           0       -3.522212    1.549353    0.286517
      7          1           0       -1.717398    2.696213    0.015838
      8          6           0       -3.263655   -0.841811    0.373455
      9          1           0       -1.235660   -1.583696    0.193760
     10          6           0       -4.081564    0.282822    0.413101
     11          1           0       -4.162734    2.436702    0.321186
     12          1           0       -3.699608   -1.840791    0.476148
     13          1           0       -5.162415    0.170912    0.545318
     14          6           0        0.644679    0.021983   -1.358504
     15          6           0       -0.039022    0.226784   -2.562149
     16          6           0        1.773814   -0.796121   -1.353414
     17          6           0        0.396213   -0.380499   -3.732457
     18          1           0       -0.928110    0.868685   -2.574269
     19          6           0        2.209299   -1.402341   -2.527681
     20          1           0        2.323762   -0.964184   -0.418588
     21          6           0        1.522863   -1.197443   -3.718134
     22          1           0       -0.148443   -0.214864   -4.667676
     23          1           0        3.097609   -2.042185   -2.510269
     24          1           0        1.866358   -1.675352   -4.641009
     25          6           0        0.911704    0.392978    1.134332
     26          6           0        0.849448   -0.885654    1.692985
     27          6           0        1.682246    1.372987    1.764319
     28          6           0        1.545129   -1.179226    2.859185
     29          1           0        0.230056   -1.653918    1.203660
     30          6           0        2.377951    1.076856    2.931247
     31          1           0        1.740518    2.381902    1.338919
     32          6           0        2.311638   -0.198656    3.480222
     33          1           0        1.487352   -2.184242    3.289444
     34          1           0        2.978938    1.851717    3.418107
     35          1           0        2.859609   -0.430329    4.399115
 ---------------------------------------------------------------------
                    Distance matrix (angstroms):
                    1          2          3          4          5
     1  C    0.000000
     2  H    1.123102   0.000000
     3  C    1.509930   2.140878   0.000000
     4  C    2.510361   2.549020   1.396574   0.000000
     5  C    2.534396   3.428847   1.396265   2.409232   0.000000
     6  C    3.793630   3.937102   2.416920   1.390525   2.779284
     7  H    2.711977   2.272530   2.164611   1.096365   3.405998
     8  C    3.809385   4.555418   2.417224   2.781335   1.389326
     9  H    2.736390   3.805782   2.157391   3.403366   1.100721
    10  C    4.303253   4.758866   2.793481   2.410542   2.409156
    11  H    4.665176   4.605054   3.407698   2.155522   3.874204
    12  H    4.687601   5.531275   3.407712   3.876121   2.154687
    13  H    5.397873   5.829275   3.888123   3.402837   3.401582
    14  C    1.508890   2.098657   2.493388   3.574322   3.065987
    15  C    2.499146   2.771461   2.949673   3.711569   3.456837
    16  C    2.546194   3.155288   3.672361   4.873502   3.984401
    17  C    3.785722   4.052476   4.280740   5.058594   4.565281
    18  H    2.682975   2.752448   2.691437   3.067040   3.333861
    19  C    3.817818   4.324349   4.808300   5.964258   4.978043
    20  H    2.771948   3.421465   3.986675   5.230888   4.269699
    21  C    4.305069   4.687427   5.057564   6.045002   5.224900
    22  H    4.652751   4.815812   4.944634   5.524894   5.197969
    23  H    4.698654   5.220856   5.746918   6.955974   5.836908
    24  H    5.399507   5.753936   6.116713   7.078283   6.209693
    25  C    1.508258   2.133272   2.481810   3.478983   3.149320
    26  C    2.538728   3.429172   3.077112   4.258847   3.124596
    27  C    2.505025   2.528519   3.542835   4.184151   4.416215
    28  C    3.812102   4.550921   4.365741   5.425437   4.368841
    29  H    2.745082   3.814304   2.938777   4.249088   2.531715
    30  C    3.789980   3.918257   4.705682   5.367600   5.368487
    31  H    2.703704   2.243674   3.779827   4.135931   4.896754
    32  C    4.303170   4.747085   5.042675   5.899883   5.352320
    33  H    4.691570   5.529665   5.083188   6.192148   4.809906
    34  H    4.659833   4.582050   5.600420   6.102309   6.368651
    35  H    5.397813   5.816880   6.101815   6.925123   6.343430
                    6          7          8          9         10
     6  C    0.000000
     7  H    2.155437   0.000000
     8  C    2.406673   3.877682   0.000000
     9  H    3.879809   4.310609   2.166898   0.000000
    10  C    1.390323   3.401698   1.391168   3.410450   0.000000
    11  H    1.094924   2.477953   3.399959   4.974696   2.157368
    12  H    3.400074   4.972468   1.094788   2.493367   2.158610
    13  H    2.158088   4.304141   2.158804   4.315281   1.094644
    14  C    4.733068   3.823576   4.361295   2.919487   5.054107
    15  C    4.690063   3.944749   4.489758   3.507822   5.019701
    16  C    6.019843   5.124433   5.325435   3.474327   6.210486
    17  C    5.935531   5.289917   5.519597   4.418808   6.138088
    18  H    3.921322   3.266725   4.131542   3.710895   4.383136
    19  C    7.034374   6.219854   6.219646   4.393958   7.145832
    20  H    6.402378   5.469754   5.644602   3.664457   6.578368
    21  C    7.002492   6.293043   6.307006   4.802244   7.118137
    22  H    6.248104   5.733349   5.959078   5.166168   6.444488
    23  H    8.033877   7.212346   7.086779   5.128275   8.092729
    24  H    7.982225   7.323941   7.221958   5.745077   8.047127
    25  C    4.660000   3.669891   4.420097   3.066445   5.046289
    26  C    5.197963   4.715007   4.319803   2.661318   5.226692
    27  C    5.413076   4.045453   5.594798   4.441036   6.019614
    28  C    6.304102   5.809279   5.423753   3.873096   6.307185
    29  H    5.018128   4.911938   3.681680   1.781334   4.792286
    30  C    6.483037   5.281459   6.484697   5.256477   6.978315
    31  H    5.431115   3.715712   6.030439   5.088712   6.257788
    32  C    6.876706   6.051062   6.414791   5.030158   7.107185
    33  H    6.932030   6.693710   5.733862   4.166379   6.735917
    34  H    7.222412   5.860391   7.449494   6.321496   7.832125
    35  H    7.846033   7.066638   7.339592   5.982181   8.035967
                   11         12         13         14         15
    11  H    0.000000
    12  H    4.305281   0.000000
    13  H    2.486644   2.488280   0.000000
    14  C    5.635907   5.070375   6.113024   0.000000
    15  C    5.495667   5.187099   5.992381   1.399339   0.000000
    16  C    6.964053   5.864893   7.256143   1.394369   2.407021
    17  C    6.719571   6.051491   7.035748   2.420615   1.388468
    18  H    4.615748   4.932291   5.305473   2.160707   1.096659
    19  C    7.965996   6.643071   8.140062   2.417376   2.776721
    20  H    7.361244   6.152233   7.632850   2.162241   3.405291
    21  C    7.864421   6.729048   8.046263   2.797509   2.409192
    22  H    6.930662   6.458585   7.243207   3.411123   2.154129
    23  H    8.988334   7.427072   9.080881   3.406496   3.871610
    24  H    8.825096   7.562581   8.928064   3.892080   3.401508
    25  C    5.530636   5.165958   6.106650   2.534398   3.820401
    26  C    6.167807   4.804881   6.210955   3.190191   4.486988
    27  C    6.113748   6.399383   7.055518   3.557215   4.795296
    28  C    7.217760   5.798603   7.222741   4.476898   5.820417
    29  H    6.067003   4.000806   5.730808   3.089537   4.217909
    30  C    7.172319   7.174740   7.960559   4.745414   6.061499
    31  H    5.990590   6.940495   7.291691   3.747823   4.798919
    32  C    7.670861   6.917814   8.038141   5.122568   6.497449
    33  H    7.879540   5.910765   7.569437   5.213535   6.510300
    34  H    7.806190   8.178796   8.795433   5.622518   6.892891
    35  H    8.611775   7.771898   8.919983   6.185521   7.569217
                   16         17         18         19         20
    16  C    0.000000
    17  C    2.780355   0.000000
    18  H    3.400362   2.157705   0.000000
    19  C    1.391421   2.404772   3.873379   0.000000
    20  H    1.097537   3.877868   4.310573   2.157164   0.000000
    21  C    2.411626   1.391741   3.403612   1.389372   3.403359
    22  H    3.875212   1.094861   2.482803   3.398327   4.972728
    23  H    2.154860   3.398895   4.968267   1.094897   2.477107
    24  H    3.404394   2.159500   4.307272   2.158309   4.306253
    25  C    2.888956   4.954758   4.167125   4.279867   2.499471
    26  C    3.184810   5.467725   4.944378   4.464323   2.576530
    27  C    3.799167   5.911272   5.088381   5.138238   3.261747
    28  C    4.236161   6.738525   6.311361   5.432240   3.375842
    29  H    3.107672   5.100436   4.688029   4.231264   2.736973
    30  C    4.715012   7.103247   6.425269   5.997896   3.923031
    31  H    4.165285   5.929323   4.972368   5.430548   3.824304
    32  C    4.900026   7.464895   6.949248   6.128151   3.973273
    33  H    4.854386   7.331518   7.038320   5.913672   3.992195
    34  H    5.588451   7.923624   7.220800   6.821557   4.804039
    35  H    5.865521   8.496661   8.041289   7.024828   4.876719
                   21         22         23         24         25
    21  C    0.000000
    22  H    2.158785   0.000000
    23  H    2.156931   4.304691   0.000000
    24  H    1.094571   2.488606   2.488091   0.000000
    25  C    5.142896   5.929307   4.898093   6.208375   0.000000
    26  C    5.461768   6.473311   4.905012   6.463529   1.396735
    27  C    6.057211   6.873373   5.651438   7.096090   1.396795
    28  C    6.577382   7.775077   5.655611   7.523447   2.418299
    29  H    5.109185   6.056956   4.708171   6.069440   2.158525
    30  C    7.079398   8.111402   6.313194   8.073130   2.417948
    31  H    6.199425   6.811061   6.019178   7.227495   2.164396
    32  C    7.309998   8.511199   6.316830   8.266396   2.795183
    33  H    7.076806   8.358830   6.020779   7.955797   3.408510
    34  H    7.895788   8.912416   7.093815   8.867210   3.408373
    35  H    8.262268   9.555182   7.098895   9.179350   3.889855
                   26         27         28         29         30
    26  C    0.000000
    27  C    2.408339   0.000000
    28  C    1.389309   2.780525   0.000000
    29  H    1.101506   3.403725   2.166913   0.000000
    30  C    2.778680   1.390474   2.405970   3.880095   0.000000
    31  H    3.405333   1.096481   3.876985   4.311337   2.155220
    32  C    2.409187   2.410501   1.390950   3.410793   1.390217
    33  H    2.154515   3.875289   1.094769   2.492496   3.399446
    34  H    3.873496   2.155368   3.399237   4.974897   1.094819
    35  H    3.401647   3.402981   2.158723   4.315397   2.158296
                   31         32         33         34         35
    31  H    0.000000
    32  C    3.401563   0.000000
    33  H    4.971751   2.158332   0.000000
    34  H    2.477459   2.157122   4.304689   0.000000
    35  H    4.304161   1.094673   2.488105   2.486835   0.000000
 Stoichiometry    C19H16
 Framework group  C1[X(C19H16)]
 Deg. of freedom    99
 Full point group                 C1      NOp   1
 Largest Abelian subgroup         C1      NOp   1
 Largest concise Abelian subgroup C1      NOp   1
                         Standard orientation:                         
 ---------------------------------------------------------------------
 Center     Atomic      Atomic             Coordinates (Angstroms)
 Number     Number       Type             X           Y           Z
 ---------------------------------------------------------------------
      1          6           0       -0.012262    0.012395   -0.760031
      2          1           0        0.017653    0.015293   -1.882731
      3          6           0        0.747918   -1.200216   -0.278795
      4          6           0        1.199840   -2.139837   -1.207933
      5          6           0        1.013362   -1.400158    1.077346
      6          6           0        1.909683   -3.258252   -0.785049
      7          1           0        0.994931   -1.998394   -2.275652
      8          6           0        1.725089   -2.517032    1.497185
      9          1           0        0.635289   -0.670344    1.809478
     10          6           0        2.175772   -3.447536    0.566382
     11          1           0        2.259645   -3.990737   -1.519795
     12          1           0        1.929505   -2.663995    2.562632
     13          1           0        2.736901   -4.327232    0.897310
     14          6           0        0.677432    1.291083   -0.352564
     15          6           0        2.043403    1.427143   -0.624155
     16          6           0       -0.005081    2.357771    0.231062
     17          6           0        2.710722    2.603871   -0.311361
     18          1           0        2.587261    0.592589   -1.082847
     19          6           0        0.665191    3.536767    0.542122
     20          1           0       -1.077446    2.268870    0.447199
     21          6           0        2.022428    3.662905    0.273138
     22          1           0        3.780194    2.697668   -0.526193
     23          1           0        0.117598    4.367085    0.999847
     24          1           0        2.548469    4.590815    0.518800
     25          6           0       -1.460513   -0.069920   -0.346952
     26          6           0       -1.840347   -0.130200    0.995791
     27          6           0       -2.448223   -0.094651   -1.334299
     28          6           0       -3.182533   -0.212872    1.344905
     29          1           0       -1.060218   -0.125268    1.773409
     30          6           0       -3.790952   -0.177098   -0.982592
     31          1           0       -2.166289   -0.049177   -2.392938
     32          6           0       -4.160714   -0.235545    0.356275
     33          1           0       -3.468676   -0.261807    2.400483
     34          1           0       -4.557956   -0.196336   -1.763592
     35          1           0       -5.218155   -0.300736    0.631734
 ---------------------------------------------------------------------
 Rotational constants (GHZ):      0.4043737      0.3810349      0.2327558
 Standard basis: 6-311G (5D, 7F)
 There are   295 symmetry adapted basis functions of A   symmetry.
 Integral buffers will be    262144 words long.
 Raffenetti 1 integral format.
 Two-electron integral symmetry is turned on.
   295 basis functions,   574 primitive gaussians,   295 cartesian basis functions
    65 alpha electrons       65 beta electrons
       nuclear repulsion energy      1290.5595959713 Hartrees.
 NAtoms=   35 NActive=   35 NUniq=   35 SFac= 7.50D-01 NAtFMM=   80 NAOKFM=F Big=F
 One-electron integrals computed using PRISM.
 PrsmSu:  requested number of processors reduced to:  10 ShMem   1 Linda.
 NBasis=   295 RedAO= T  NBF=   295
 NBsUse=   295 1.00D-06 NBFU=   295
 Harris functional with IExCor=  205 diagonalized for initial guess.
 ExpMin= 1.03D-01 ExpMax= 4.56D+03 ExpMxC= 6.82D+02 IAcc=1 IRadAn=         1 AccDes= 0.00D+00
 HarFok:  IExCor=  205 AccDes= 0.00D+00 IRadAn=         1 IDoV= 1
 ScaDFX=  1.000000  1.000000  1.000000  1.000000
 FoFCou: FMM=F IPFlag=           0 FMFlag=      100000 FMFlg1=           0
         NFxFlg=           0 DoJE=T BraDBF=F KetDBF=T FulRan=T
         Omega=  0.000000  0.000000  1.000000  0.000000  0.000000 ICntrl=     500 IOpCl=  0
         NMat0=    1 NMatS0=    1 NMatT0=    0 NMatD0=    1 NMtDS0=    0 NMtDT0=    0
         I1Cent=           4 NGrid=           0.
 Petite list used in FoFCou.
 Initial guess orbital symmetries:
       Occupied  (A) (A) (A) (A) (A) (A) (A) (A) (A) (A) (A) (A)
                 (A) (A) (A) (A) (A) (A) (A) (A) (A) (A) (A) (A)
                 (A) (A) (A) (A) (A) (A) (A) (A) (A) (A) (A) (A)
                 (A) (A) (A) (A) (A) (A) (A) (A) (A) (A) (A) (A)
                 (A) (A) (A) (A) (A) (A) (A) (A) (A) (A) (A) (A)
                 (A) (A) (A) (A) (A)
       Virtual   (A) (A) (A) (A) (A) (A) (A) (A) (A) (A) (A) (A)
                 (A) (A) (A) (A) (A) (A) (A) (A) (A) (A) (A) (A)
                 (A) (A) (A) (A) (A) (A) (A) (A) (A) (A) (A) (A)
                 (A) (A) (A) (A) (A) (A) (A) (A) (A) (A) (A) (A)
                 (A) (A) (A) (A) (A) (A) (A) (A) (A) (A) (A) (A)
                 (A) (A) (A) (A) (A) (A) (A) (A) (A) (A) (A) (A)
                 (A) (A) (A) (A) (A) (A) (A) (A) (A) (A) (A) (A)
                 (A) (A) (A) (A) (A) (A) (A) (A) (A) (A) (A) (A)
                 (A) (A) (A) (A) (A) (A) (A) (A) (A) (A) (A) (A)
                 (A) (A) (A) (A) (A) (A) (A) (A) (A) (A) (A) (A)
                 (A) (A) (A) (A) (A) (A) (A) (A) (A) (A) (A) (A)
                 (A) (A) (A) (A) (A) (A) (A) (A) (A) (A) (A) (A)
                 (A) (A) (A) (A) (A) (A) (A) (A) (A) (A) (A) (A)
                 (A) (A) (A) (A) (A) (A) (A) (A) (A) (A) (A) (A)
                 (A) (A) (A) (A) (A) (A) (A) (A) (A) (A) (A) (A)
                 (A) (A) (A) (A) (A) (A) (A) (A) (A) (A) (A) (A)
                 (A) (A) (A) (A) (A) (A) (A) (A) (A) (A) (A) (A)
                 (A) (A) (A) (A) (A) (A) (A) (A) (A) (A) (A) (A)
                 (A) (A) (A) (A) (A) (A) (A) (A) (A) (A) (A) (A)
                 (A) (A)
 The electronic state of the initial guess is 1-A.
 Requested convergence on RMS density matrix=1.00D-08 within 128 cycles.
 Requested convergence on MAX density matrix=1.00D-06.
 Requested convergence on             energy=1.00D-06.
 No special actions if energy rises.
 Integral accuracy reduced to 1.0D-05 until final iterations.
 Initial convergence to 1.0D-05 achieved.  Increase integral accuracy.
 SCF Done:  E(RHF) =  -728.672368023     A.U. after   14 cycles
             Convg  =    0.8639D-08             -V/T =  2.0001

 **********************************************************************

            Population analysis using the SCF density.

 **********************************************************************

 Orbital symmetries:
       Occupied  (A) (A) (A) (A) (A) (A) (A) (A) (A) (A) (A) (A)
                 (A) (A) (A) (A) (A) (A) (A) (A) (A) (A) (A) (A)
                 (A) (A) (A) (A) (A) (A) (A) (A) (A) (A) (A) (A)
                 (A) (A) (A) (A) (A) (A) (A) (A) (A) (A) (A) (A)
                 (A) (A) (A) (A) (A) (A) (A) (A) (A) (A) (A) (A)
                 (A) (A) (A) (A) (A)
       Virtual   (A) (A) (A) (A) (A) (A) (A) (A) (A) (A) (A) (A)
                 (A) (A) (A) (A) (A) (A) (A) (A) (A) (A) (A) (A)
                 (A) (A) (A) (A) (A) (A) (A) (A) (A) (A) (A) (A)
                 (A) (A) (A) (A) (A) (A) (A) (A) (A) (A) (A) (A)
                 (A) (A) (A) (A) (A) (A) (A) (A) (A) (A) (A) (A)
                 (A) (A) (A) (A) (A) (A) (A) (A) (A) (A) (A) (A)
                 (A) (A) (A) (A) (A) (A) (A) (A) (A) (A) (A) (A)
                 (A) (A) (A) (A) (A) (A) (A) (A) (A) (A) (A) (A)
                 (A) (A) (A) (A) (A) (A) (A) (A) (A) (A) (A) (A)
                 (A) (A) (A) (A) (A) (A) (A) (A) (A) (A) (A) (A)
                 (A) (A) (A) (A) (A) (A) (A) (A) (A) (A) (A) (A)
                 (A) (A) (A) (A) (A) (A) (A) (A) (A) (A) (A) (A)
                 (A) (A) (A) (A) (A) (A) (A) (A) (A) (A) (A) (A)
                 (A) (A) (A) (A) (A) (A) (A) (A) (A) (A) (A) (A)
                 (A) (A) (A) (A) (A) (A) (A) (A) (A) (A) (A) (A)
                 (A) (A) (A) (A) (A) (A) (A) (A) (A) (A) (A) (A)
                 (A) (A) (A) (A) (A) (A) (A) (A) (A) (A) (A) (A)
                 (A) (A) (A) (A) (A) (A) (A) (A) (A) (A) (A) (A)
                 (A) (A) (A) (A) (A) (A) (A) (A) (A) (A) (A) (A)
                 (A) (A)
 The electronic state is 1-A.
 Alpha  occ. eigenvalues --  -11.25764 -11.25234 -11.25190 -11.24927 -11.24520
 Alpha  occ. eigenvalues --  -11.24432 -11.24420 -11.24371 -11.24221 -11.24166
 Alpha  occ. eigenvalues --  -11.24140 -11.24120 -11.24076 -11.24041 -11.24032
 Alpha  occ. eigenvalues --  -11.23976 -11.23735 -11.23644 -11.23504  -1.18614
 Alpha  occ. eigenvalues --   -1.15876  -1.15571  -1.09026  -1.02383  -1.02235
 Alpha  occ. eigenvalues --   -1.01879  -1.01484  -1.01097  -0.92919  -0.84292
 Alpha  occ. eigenvalues --   -0.83346  -0.82341  -0.81904  -0.81148  -0.77590
 Alpha  occ. eigenvalues --   -0.70865  -0.70370  -0.68983  -0.65697  -0.63892
 Alpha  occ. eigenvalues --   -0.63608  -0.62510  -0.61709  -0.61593  -0.59720
 Alpha  occ. eigenvalues --   -0.58845  -0.58486  -0.58321  -0.56810  -0.55027
 Alpha  occ. eigenvalues --   -0.51726  -0.50925  -0.50239  -0.49853  -0.49381
 Alpha  occ. eigenvalues --   -0.48437  -0.47936  -0.47510  -0.46323  -0.35011
 Alpha  occ. eigenvalues --   -0.34318  -0.33943  -0.33334  -0.32589  -0.31436
 Alpha virt. eigenvalues --    0.11524   0.12285   0.12779   0.13545   0.14966
 Alpha virt. eigenvalues --    0.15093   0.15612   0.16238   0.16480   0.16923
 Alpha virt. eigenvalues --    0.18904   0.19184   0.19230   0.21244   0.21300
 Alpha virt. eigenvalues --    0.21582   0.23574   0.23991   0.24978   0.25415
 Alpha virt. eigenvalues --    0.26902   0.31386   0.33208   0.34251   0.35774
 Alpha virt. eigenvalues --    0.37538   0.39826   0.40492   0.41521   0.43125
 Alpha virt. eigenvalues --    0.44089   0.44427   0.44905   0.45453   0.45627
 Alpha virt. eigenvalues --    0.45860   0.46751   0.47212   0.48015   0.50582
 Alpha virt. eigenvalues --    0.51088   0.51440   0.52118   0.54935   0.56041
 Alpha virt. eigenvalues --    0.57343   0.57839   0.58489   0.58938   0.59360
 Alpha virt. eigenvalues --    0.60170   0.60440   0.60625   0.61152   0.61457
 Alpha virt. eigenvalues --    0.62063   0.62239   0.62953   0.63497   0.63709
 Alpha virt. eigenvalues --    0.64277   0.64543   0.65218   0.65913   0.66402
 Alpha virt. eigenvalues --    0.67198   0.67812   0.68584   0.69875   0.72356
 Alpha virt. eigenvalues --    0.73135   0.73922   0.74342   0.75261   0.75747
 Alpha virt. eigenvalues --    0.76737   0.78874   0.79331   0.79868   0.81335
 Alpha virt. eigenvalues --    0.81510   0.82194   0.82501   0.82926   0.83258
 Alpha virt. eigenvalues --    0.83824   0.84356   0.84791   0.84885   0.85471
 Alpha virt. eigenvalues --    0.85975   0.86253   0.86445   0.87698   0.88162
 Alpha virt. eigenvalues --    0.90297   0.90779   0.92183   0.93409   0.94986
 Alpha virt. eigenvalues --    0.95967   0.96388   0.97058   0.98185   0.99681
 Alpha virt. eigenvalues --    0.99955   1.02320   1.03007   1.04695   1.06213
 Alpha virt. eigenvalues --    1.07102   1.08196   1.09238   1.10216   1.10723
 Alpha virt. eigenvalues --    1.11405   1.11736   1.12459   1.12710   1.13825
 Alpha virt. eigenvalues --    1.14965   1.16553   1.19569   1.20596   1.20995
 Alpha virt. eigenvalues --    1.23864   1.25811   1.27285   1.28267   1.29017
 Alpha virt. eigenvalues --    1.29417   1.32069   1.32970   1.46718   1.47690
 Alpha virt. eigenvalues --    1.52096   1.54128   1.57105   2.53545   2.55693
 Alpha virt. eigenvalues --    2.56105   2.57754   2.62077   2.62286   2.63910
 Alpha virt. eigenvalues --    2.66352   2.67165   2.68487   2.71968   2.74318
 Alpha virt. eigenvalues --    2.78328   2.83442   2.86573   2.91630   2.94353
 Alpha virt. eigenvalues --    2.94596   2.94750   2.96027   2.98056   2.98556
 Alpha virt. eigenvalues --    3.00000   3.02222   3.03899   3.04474   3.06451
 Alpha virt. eigenvalues --    3.08514   3.09206   3.09746   3.10096   3.13190
 Alpha virt. eigenvalues --    3.15174   3.16213   3.17702   3.18419   3.19372
 Alpha virt. eigenvalues --    3.21628   3.24125   3.25132   3.27650   3.28765
 Alpha virt. eigenvalues --    3.31349   3.33870   3.34283   3.35682   3.41014
 Alpha virt. eigenvalues --    3.41396   3.44166   3.45090   3.49928   3.52449
 Alpha virt. eigenvalues --    3.53480   3.55917   3.57516   3.58250   3.59627
 Alpha virt. eigenvalues --    3.62324   3.64128   3.65022   3.66241   3.66658
 Alpha virt. eigenvalues --    3.67663   3.69210   3.71258   3.72418   3.74138
 Alpha virt. eigenvalues --    3.76179   3.77439   3.78577   3.85503   3.87947
 Alpha virt. eigenvalues --    3.91160  24.26013  24.30044  24.31782  24.50511
 Alpha virt. eigenvalues --   24.50786  24.51026  24.53101  24.54595  24.56505
 Alpha virt. eigenvalues --   24.76249  24.77081  24.79114  24.80208  24.80682
 Alpha virt. eigenvalues --   24.82738  24.87305  25.04669  25.05785  25.07115
          Condensed to atoms (all electrons):
              1          2          3          4          5          6
     1  C    6.098941   0.473196   0.150910  -0.024596  -0.055316   0.006851
     2  H    0.473196   0.503332  -0.070616   0.001528   0.005545   0.001569
     3  C    0.150910  -0.070616   5.389107   0.492930   0.446645  -0.073588
     4  C   -0.024596   0.001528   0.492930   5.092098  -0.072070   0.454013
     5  C   -0.055316   0.005545   0.446645  -0.072070   5.069818  -0.026555
     6  C    0.006851   0.001569  -0.073588   0.454013  -0.026555   5.059663
     7  H   -0.000057   0.002347  -0.050718   0.400467   0.004328  -0.034883
     8  C    0.003183  -0.000264  -0.058354  -0.030618   0.478891  -0.078539
     9  H    0.000253   0.000112  -0.044654   0.004072   0.388920   0.000014
    10  C    0.001269  -0.000001  -0.018770  -0.086360  -0.091188   0.497554
    11  H   -0.000340  -0.000039   0.006925  -0.039669  -0.000683   0.396939
    12  H   -0.000348   0.000011   0.006028  -0.000478  -0.038945   0.005974
    13  H   -0.000012  -0.000001  -0.001546   0.007493   0.007888  -0.042574
    14  C    0.036706  -0.062501  -0.097134  -0.001621  -0.007585  -0.000419
    15  C   -0.085761  -0.004879  -0.006580   0.000618  -0.008294  -0.000109
    16  C   -0.029298   0.001040   0.000483  -0.000442   0.001660   0.000021
    17  C    0.008129   0.000672  -0.001558  -0.000048  -0.000240   0.000014
    18  H   -0.002541  -0.000142   0.003965   0.001721  -0.000570   0.000118
    19  C    0.012097  -0.000129  -0.000797   0.000007   0.000051   0.000000
    20  H   -0.011190  -0.000274   0.000407  -0.000017   0.000070   0.000000
    21  C    0.000416   0.000032   0.000127  -0.000003   0.000035   0.000000
    22  H   -0.000355   0.000004   0.000014  -0.000005   0.000014  -0.000001
    23  H   -0.000361   0.000014   0.000012   0.000000   0.000000   0.000000
    24  H   -0.000014  -0.000002   0.000002   0.000000   0.000000   0.000000
    25  C    0.118790  -0.075912  -0.139446  -0.001960  -0.003537  -0.000516
    26  C   -0.070973   0.004439  -0.003242   0.000526  -0.012010   0.000130
    27  C   -0.024718   0.006514  -0.004330   0.000612   0.000733  -0.000017
    28  C    0.002475  -0.000225   0.001980   0.000044  -0.000099   0.000001
    29  H    0.000850  -0.000035  -0.003674  -0.000215   0.002071  -0.000062
    30  C    0.008260   0.001466  -0.000597  -0.000011   0.000052   0.000002
    31  H   -0.002081   0.002827   0.000164   0.000192  -0.000025  -0.000002
    32  C    0.001717   0.000005  -0.000055  -0.000013  -0.000004   0.000000
    33  H   -0.000371   0.000012   0.000026   0.000002   0.000037   0.000000
    34  H   -0.000412  -0.000034   0.000020   0.000001  -0.000001   0.000000
    35  H   -0.000026  -0.000002  -0.000003   0.000000   0.000001   0.000000
              7          8          9         10         11         12
     1  C   -0.000057   0.003183   0.000253   0.001269  -0.000340  -0.000348
     2  H    0.002347  -0.000264   0.000112  -0.000001  -0.000039   0.000011
     3  C   -0.050718  -0.058354  -0.044654  -0.018770   0.006925   0.006028
     4  C    0.400467  -0.030618   0.004072  -0.086360  -0.039669  -0.000478
     5  C    0.004328   0.478891   0.388920  -0.091188  -0.000683  -0.038945
     6  C   -0.034883  -0.078539   0.000014   0.497554   0.396939   0.005974
     7  H    0.509793  -0.000281  -0.000272   0.005247  -0.004206   0.000025
     8  C   -0.000281   5.040234  -0.028417   0.491288   0.006232   0.397234
     9  H   -0.000272  -0.028417   0.496835   0.004548   0.000015  -0.003332
    10  C    0.005247   0.491288   0.004548   5.034092  -0.040663  -0.039835
    11  H   -0.004206   0.006232   0.000015  -0.040663   0.518051  -0.000206
    12  H    0.000025   0.397234  -0.003332  -0.039835  -0.000206   0.514854
    13  H   -0.000185  -0.042914  -0.000172   0.399674  -0.004587  -0.004471
    14  C    0.000137  -0.000569   0.001095   0.000048   0.000011   0.000024
    15  C    0.000297  -0.000330   0.000211   0.000105  -0.000002   0.000017
    16  C   -0.000035   0.000021  -0.000074  -0.000002   0.000000   0.000000
    17  C   -0.000008  -0.000007   0.000044   0.000002   0.000000   0.000001
    18  H    0.000207  -0.000238  -0.000069  -0.000090   0.000005   0.000005
    19  C    0.000000   0.000005  -0.000088   0.000000   0.000000   0.000000
    20  H    0.000001   0.000000   0.000019   0.000000   0.000000   0.000000
    21  C    0.000001   0.000002  -0.000042   0.000000   0.000000   0.000000
    22  H    0.000000   0.000002   0.000005   0.000000   0.000000   0.000000
    23  H    0.000000   0.000000   0.000000   0.000000   0.000000   0.000000
    24  H    0.000000   0.000000   0.000001   0.000000   0.000000   0.000000
    25  C    0.000367   0.001901  -0.002807  -0.000087   0.000025   0.000027
    26  C   -0.000007  -0.000448  -0.001073  -0.000024   0.000000   0.000056
    27  C    0.000266   0.000029  -0.000197  -0.000008   0.000001   0.000000
    28  C   -0.000001  -0.000101   0.000869   0.000001   0.000000   0.000002
    29  H    0.000001   0.001153   0.001675   0.000006   0.000001  -0.000061
    30  C    0.000007  -0.000001   0.000002   0.000000   0.000000   0.000000
    31  H    0.000060   0.000001  -0.000002  -0.000001   0.000000   0.000000
    32  C   -0.000002   0.000002  -0.000014   0.000000   0.000000   0.000000
    33  H    0.000000  -0.000001  -0.000034   0.000000   0.000000   0.000001
    34  H    0.000000   0.000000   0.000000   0.000000   0.000000   0.000000
    35  H    0.000000   0.000000   0.000000   0.000000   0.000000   0.000000
             13         14         15         16         17         18
     1  C   -0.000012   0.036706  -0.085761  -0.029298   0.008129  -0.002541
     2  H   -0.000001  -0.062501  -0.004879   0.001040   0.000672  -0.000142
     3  C   -0.001546  -0.097134  -0.006580   0.000483  -0.001558   0.003965
     4  C    0.007493  -0.001621   0.000618  -0.000442  -0.000048   0.001721
     5  C    0.007888  -0.007585  -0.008294   0.001660  -0.000240  -0.000570
     6  C   -0.042574  -0.000419  -0.000109   0.000021   0.000014   0.000118
     7  H   -0.000185   0.000137   0.000297  -0.000035  -0.000008   0.000207
     8  C   -0.042914  -0.000569  -0.000330   0.000021  -0.000007  -0.000238
     9  H   -0.000172   0.001095   0.000211  -0.000074   0.000044  -0.000069
    10  C    0.399674   0.000048   0.000105  -0.000002   0.000002  -0.000090
    11  H   -0.004587   0.000011  -0.000002   0.000000   0.000000   0.000005
    12  H   -0.004471   0.000024   0.000017   0.000000   0.000001   0.000005
    13  H    0.517424   0.000001   0.000000   0.000000   0.000000   0.000001
    14  C    0.000001   5.353122   0.470930   0.501522  -0.056815  -0.045521
    15  C    0.000000   0.470930   5.122977  -0.083124   0.463987   0.397593
    16  C    0.000000   0.501522  -0.083124   5.094873  -0.029983   0.004443
    17  C    0.000000  -0.056815   0.463987  -0.029983   5.061215  -0.035144
    18  H    0.000001  -0.045521   0.397593   0.004443  -0.035144   0.490580
    19  C    0.000000  -0.069343  -0.033322   0.454450  -0.073978  -0.000464
    20  H    0.000000  -0.034738   0.004944   0.393779  -0.000426  -0.000197
    21  C    0.000000  -0.020523  -0.085064  -0.090204   0.480375   0.005229
    22  H    0.000000   0.006151  -0.038414  -0.000441   0.397126  -0.003886
    23  H    0.000000   0.006485  -0.000407  -0.036817   0.006009   0.000017
    24  H    0.000000  -0.001456   0.007441   0.007673  -0.043238  -0.000173
    25  C   -0.000003  -0.066104   0.011431  -0.012555  -0.000880   0.000828
    26  C    0.000000   0.006657   0.000783  -0.017982  -0.000022  -0.000041
    27  C    0.000000  -0.000619  -0.000264   0.000856   0.000009  -0.000005
    28  C    0.000000   0.000808   0.000016  -0.001449   0.000000   0.000000
    29  H    0.000000   0.001323   0.000024   0.001558  -0.000046   0.000021
    30  C    0.000000  -0.000771   0.000005   0.000360   0.000000   0.000000
    31  H    0.000000   0.000502   0.000012   0.000141  -0.000001  -0.000002
    32  C    0.000000  -0.000069   0.000000   0.000130   0.000000   0.000000
    33  H    0.000000   0.000018   0.000000   0.000005   0.000000   0.000000
    34  H    0.000000   0.000024   0.000000  -0.000007   0.000000   0.000000
    35  H    0.000000   0.000002   0.000000  -0.000003   0.000000   0.000000
             19         20         21         22         23         24
     1  C    0.012097  -0.011190   0.000416  -0.000355  -0.000361  -0.000014
     2  H   -0.000129  -0.000274   0.000032   0.000004   0.000014  -0.000002
     3  C   -0.000797   0.000407   0.000127   0.000014   0.000012   0.000002
     4  C    0.000007  -0.000017  -0.000003  -0.000005   0.000000   0.000000
     5  C    0.000051   0.000070   0.000035   0.000014   0.000000   0.000000
     6  C    0.000000   0.000000   0.000000  -0.000001   0.000000   0.000000
     7  H    0.000000   0.000001   0.000001   0.000000   0.000000   0.000000
     8  C    0.000005   0.000000   0.000002   0.000002   0.000000   0.000000
     9  H   -0.000088   0.000019  -0.000042   0.000005   0.000000   0.000001
    10  C    0.000000   0.000000   0.000000   0.000000   0.000000   0.000000
    11  H    0.000000   0.000000   0.000000   0.000000   0.000000   0.000000
    12  H    0.000000   0.000000   0.000000   0.000000   0.000000   0.000000
    13  H    0.000000   0.000000   0.000000   0.000000   0.000000   0.000000
    14  C   -0.069343  -0.034738  -0.020523   0.006151   0.006485  -0.001456
    15  C   -0.033322   0.004944  -0.085064  -0.038414  -0.000407   0.007441
    16  C    0.454450   0.393779  -0.090204  -0.000441  -0.036817   0.007673
    17  C   -0.073978  -0.000426   0.480375   0.397126   0.006009  -0.043238
    18  H   -0.000464  -0.000197   0.005229  -0.003886   0.000017  -0.000173
    19  C    5.078396  -0.036296   0.496198   0.005999   0.395575  -0.042123
    20  H   -0.036296   0.477144   0.005019   0.000017  -0.003504  -0.000170
    21  C    0.496198   0.005019   5.042596  -0.040825  -0.041232   0.399481
    22  H    0.005999   0.000017  -0.040825   0.517600  -0.000213  -0.004404
    23  H    0.395575  -0.003504  -0.041232  -0.000213   0.517792  -0.004465
    24  H   -0.042123  -0.000170   0.399481  -0.004404  -0.004465   0.519363
    25  C   -0.001525   0.000813   0.000120   0.000012   0.000058   0.000001
    26  C   -0.000919  -0.001104  -0.000018   0.000000   0.000027   0.000001
    27  C   -0.000117  -0.001127  -0.000004   0.000000   0.000004   0.000000
    28  C   -0.000040   0.000372   0.000000   0.000000  -0.000001   0.000000
    29  H    0.000097   0.000016   0.000001  -0.000001   0.000000   0.000000
    30  C    0.000004  -0.000124   0.000000   0.000000   0.000000   0.000000
    31  H    0.000005   0.000083   0.000000   0.000000   0.000000   0.000000
    32  C    0.000004   0.000096   0.000000   0.000000  -0.000001   0.000000
    33  H   -0.000002   0.000040   0.000000   0.000000   0.000000   0.000000
    34  H    0.000000   0.000011   0.000000   0.000000   0.000000   0.000000
    35  H    0.000000   0.000009   0.000000   0.000000   0.000000   0.000000
             25         26         27         28         29         30
     1  C    0.118790  -0.070973  -0.024718   0.002475   0.000850   0.008260
     2  H   -0.075912   0.004439   0.006514  -0.000225  -0.000035   0.001466
     3  C   -0.139446  -0.003242  -0.004330   0.001980  -0.003674  -0.000597
     4  C   -0.001960   0.000526   0.000612   0.000044  -0.000215  -0.000011
     5  C   -0.003537  -0.012010   0.000733  -0.000099   0.002071   0.000052
     6  C   -0.000516   0.000130  -0.000017   0.000001  -0.000062   0.000002
     7  H    0.000367  -0.000007   0.000266  -0.000001   0.000001   0.000007
     8  C    0.001901  -0.000448   0.000029  -0.000101   0.001153  -0.000001
     9  H   -0.002807  -0.001073  -0.000197   0.000869   0.001675   0.000002
    10  C   -0.000087  -0.000024  -0.000008   0.000001   0.000006   0.000000
    11  H    0.000025   0.000000   0.000001   0.000000   0.000001   0.000000
    12  H    0.000027   0.000056   0.000000   0.000002  -0.000061   0.000000
    13  H   -0.000003   0.000000   0.000000   0.000000   0.000000   0.000000
    14  C   -0.066104   0.006657  -0.000619   0.000808   0.001323  -0.000771
    15  C    0.011431   0.000783  -0.000264   0.000016   0.000024   0.000005
    16  C   -0.012555  -0.017982   0.000856  -0.001449   0.001558   0.000360
    17  C   -0.000880  -0.000022   0.000009   0.000000  -0.000046   0.000000
    18  H    0.000828  -0.000041  -0.000005   0.000000   0.000021   0.000000
    19  C   -0.001525  -0.000919  -0.000117  -0.000040   0.000097   0.000004
    20  H    0.000813  -0.001104  -0.001127   0.000372   0.000016  -0.000124
    21  C    0.000120  -0.000018  -0.000004   0.000000   0.000001   0.000000
    22  H    0.000012   0.000000   0.000000   0.000000  -0.000001   0.000000
    23  H    0.000058   0.000027   0.000004  -0.000001   0.000000   0.000000
    24  H    0.000001   0.000001   0.000000   0.000000   0.000000   0.000000
    25  C    5.392515   0.451038   0.499407  -0.064280  -0.047842  -0.076885
    26  C    0.451038   5.098308  -0.063071   0.480158   0.386250  -0.029601
    27  C    0.499407  -0.063071   5.047140  -0.034108   0.004613   0.468618
    28  C   -0.064280   0.480158  -0.034108   5.046759  -0.027028  -0.077278
    29  H   -0.047842   0.386250   0.004613  -0.027028   0.497367  -0.000134
    30  C   -0.076885  -0.029601   0.468618  -0.077278  -0.000134   5.046931
    31  H   -0.045522   0.004766   0.394384  -0.000289  -0.000270  -0.033767
    32  C   -0.016070  -0.093615  -0.088963   0.490301   0.004643   0.499648
    33  H    0.005977  -0.038536  -0.000375   0.397000  -0.003397   0.005901
    34  H    0.007031  -0.000632  -0.039475   0.006275   0.000017   0.396379
    35  H   -0.001677   0.007987   0.007566  -0.042953  -0.000171  -0.042560
             31         32         33         34         35
     1  C   -0.002081   0.001717  -0.000371  -0.000412  -0.000026
     2  H    0.002827   0.000005   0.000012  -0.000034  -0.000002
     3  C    0.000164  -0.000055   0.000026   0.000020  -0.000003
     4  C    0.000192  -0.000013   0.000002   0.000001   0.000000
     5  C   -0.000025  -0.000004   0.000037  -0.000001   0.000001
     6  C   -0.000002   0.000000   0.000000   0.000000   0.000000
     7  H    0.000060  -0.000002   0.000000   0.000000   0.000000
     8  C    0.000001   0.000002  -0.000001   0.000000   0.000000
     9  H   -0.000002  -0.000014  -0.000034   0.000000   0.000000
    10  C   -0.000001   0.000000   0.000000   0.000000   0.000000
    11  H    0.000000   0.000000   0.000000   0.000000   0.000000
    12  H    0.000000   0.000000   0.000001   0.000000   0.000000
    13  H    0.000000   0.000000   0.000000   0.000000   0.000000
    14  C    0.000502  -0.000069   0.000018   0.000024   0.000002
    15  C    0.000012   0.000000   0.000000   0.000000   0.000000
    16  C    0.000141   0.000130   0.000005  -0.000007  -0.000003
    17  C   -0.000001   0.000000   0.000000   0.000000   0.000000
    18  H   -0.000002   0.000000   0.000000   0.000000   0.000000
    19  C    0.000005   0.000004  -0.000002   0.000000   0.000000
    20  H    0.000083   0.000096   0.000040   0.000011   0.000009
    21  C    0.000000   0.000000   0.000000   0.000000   0.000000
    22  H    0.000000   0.000000   0.000000   0.000000   0.000000
    23  H    0.000000  -0.000001   0.000000   0.000000   0.000000
    24  H    0.000000   0.000000   0.000000   0.000000   0.000000
    25  C   -0.045522  -0.016070   0.005977   0.007031  -0.001677
    26  C    0.004766  -0.093615  -0.038536  -0.000632   0.007987
    27  C    0.394384  -0.088963  -0.000375  -0.039475   0.007566
    28  C   -0.000289   0.490301   0.397000   0.006275  -0.042953
    29  H   -0.000270   0.004643  -0.003397   0.000017  -0.000171
    30  C   -0.033767   0.499648   0.005901   0.396379  -0.042560
    31  H    0.506478   0.005068   0.000025  -0.004077  -0.000179
    32  C    0.005068   5.033730  -0.039806  -0.041057   0.399449
    33  H    0.000025  -0.039806   0.514437  -0.000206  -0.004368
    34  H   -0.004077  -0.041057  -0.000206   0.517953  -0.004557
    35  H   -0.000179   0.399449  -0.004368  -0.004557   0.516923
 Mulliken atomic charges:
              1
     1  C   -0.615274
     2  H    0.210391
     3  C    0.075917
     4  C   -0.198199
     5  C   -0.089636
     6  C   -0.165600
     7  H    0.167104
     8  C   -0.179097
     9  H    0.182556
    10  C   -0.156803
    11  H    0.162189
    12  H    0.163417
    13  H    0.163984
    14  C    0.080221
    15  C   -0.134840
    16  C   -0.160596
    17  C   -0.175187
    18  H    0.184352
    19  C   -0.183747
    20  H    0.206328
    21  C   -0.151718
    22  H    0.161600
    23  H    0.161005
    24  H    0.162083
    25  C    0.067267
    26  C   -0.107810
    27  C   -0.173355
    28  C   -0.179209
    29  H    0.181248
    30  C   -0.165906
    31  H    0.171508
    32  C   -0.155122
    33  H    0.163617
    34  H    0.162749
    35  H    0.164561
 Sum of Mulliken atomic charges =   0.00000
 Mulliken charges with hydrogens summed into heavy atoms:
              1
     1  C   -0.404883
     3  C    0.075917
     4  C   -0.031096
     5  C    0.092921
     6  C   -0.003411
     8  C   -0.015679
    10  C    0.007181
    14  C    0.080221
    15  C    0.049511
    16  C    0.045732
    17  C   -0.013587
    19  C   -0.022741
    21  C    0.010366
    25  C    0.067267
    26  C    0.073438
    27  C   -0.001847
    28  C   -0.015592
    30  C   -0.003157
    32  C    0.009439
 Sum of Mulliken charges with hydrogens summed into heavy atoms =   0.00000
 Electronic spatial extent (au):  <R**2>=           4932.4902
 Charge=              0.0000 electrons
 Dipole moment (field-independent basis, Debye):
    X=             -0.0937    Y=             -0.1652    Z=             -0.0193  Tot=              0.1909
 Quadrupole moment (field-independent basis, Debye-Ang):
   XX=           -107.7406   YY=           -113.3036   ZZ=           -106.7146
   XY=             -2.7380   XZ=             -1.0385   YZ=              2.6200
 Traceless Quadrupole moment (field-independent basis, Debye-Ang):
   XX=              1.5123   YY=             -4.0507   ZZ=              2.5384
   XY=             -2.7380   XZ=             -1.0385   YZ=              2.6200
 Octapole moment (field-independent basis, Debye-Ang**2):
  XXX=            -28.1753  YYY=              8.7188  ZZZ=              0.6918  XYY=             37.2107
  XXY=              1.7901  XXZ=             -3.3214  XZZ=             -9.8634  YZZ=            -18.1453
  YYZ=             12.2045  XYZ=             -1.4575
 Hexadecapole moment (field-independent basis, Debye-Ang**3):
 XXXX=          -3057.8312 YYYY=          -2910.5317 ZZZZ=           -670.3193 XXXY=             61.4092
 XXXZ=            -16.2750 YYYX=            -64.5801 YYYZ=             75.8944 ZZZX=              6.6454
 ZZZY=             -2.8703 XXYY=          -1017.8135 XXZZ=           -628.6353 YYZZ=           -633.9689
 XXYZ=            -10.7647 YYXZ=              9.8734 ZZXY=            -33.1977
 N-N= 1.290559595971D+03 E-N=-4.277192370619D+03  KE= 7.286007272630D+02
 PrsmSu:  requested number of processors reduced to:  10 ShMem   1 Linda.
 Calling FoFJK, ICntrl=      2127 FMM=F ISym2X=0 I1Cent= 0 IOpClX= 0 NMat=1 NMatS=1 NMatT=0.
 ***** Axes restored to original set *****
 -------------------------------------------------------------------
 Center     Atomic                   Forces (Hartrees/Bohr)
 Number     Number              X              Y              Z
 -------------------------------------------------------------------
      1        6           0.004066447    0.022655596   -0.002987402
      2        1          -0.006353879   -0.023098034    0.008451425
      3        6          -0.011718640    0.008512698    0.000080334
      4        6           0.002810426    0.005180428   -0.000212012
      5        6           0.004872233   -0.010289308   -0.000321259
      6        6          -0.009904562    0.009446480    0.000893732
      7        1          -0.006328731   -0.016332344    0.001462823
      8        6          -0.002497811   -0.012068041    0.001326360
      9        1          -0.020897241    0.017528596   -0.005582740
     10        6          -0.013627396    0.000678332    0.001607500
     11        1           0.009575941   -0.013637661   -0.000580103
     12        1           0.006565435    0.015307220   -0.001544994
     13        1           0.016582188    0.001724307   -0.002082167
     14        6           0.006908555   -0.006899411   -0.011470575
     15        6          -0.006677062    0.004408429   -0.002793452
     16        6           0.006518944   -0.001351367    0.010174729
     17        6          -0.007390967    0.003493593   -0.009672652
     18        1           0.014893850   -0.011210098   -0.000740103
     19        6           0.009532836   -0.007879374   -0.003149050
     20        1          -0.009440378    0.003245001   -0.019767641
     21        6           0.005899625   -0.006984144   -0.010184412
     22        1           0.008338283   -0.002473707    0.014228605
     23        1          -0.013554638    0.009744609   -0.000341840
     24        1          -0.005232572    0.007181141    0.014064437
     25        6           0.008201751    0.007013331    0.008482295
     26        6          -0.007463735   -0.009661199   -0.002687169
     27        6           0.000207367    0.005238404   -0.003105807
     28        6          -0.002027448   -0.012037917    0.003057788
     29        1           0.020344287    0.014966135    0.015577265
     30        6           0.008056526    0.007931067    0.007820629
     31        1          -0.001205988   -0.016595044    0.006416709
     32        6           0.007594762   -0.000797466    0.011439514
     33        1           0.000934512    0.015339176   -0.006507070
     34        1          -0.009141563   -0.011883588   -0.007260244
     35        1          -0.008441357    0.003604163   -0.014093455
 -------------------------------------------------------------------
 Cartesian Forces:  Max     0.023098034 RMS     0.009560846

 GradGradGradGradGradGradGradGradGradGradGradGradGradGradGradGradGradGrad
 Berny optimization.
 Internal  Forces:  Max     0.028798197 RMS     0.007794023
 Search for a local minimum.
 Step number   1 out of a maximum of  197
 All quantities printed in internal units (Hartrees-Bohrs-Radians)
 Mixed Optimization -- RFO/linear search
 Second derivative matrix not updated -- first step.
     Eigenvalues ---    0.00635   0.00648   0.00657   0.01533   0.01538
     Eigenvalues ---    0.01538   0.02136   0.02142   0.02146   0.02171
     Eigenvalues ---    0.02171   0.02173   0.02183   0.02183   0.02185
     Eigenvalues ---    0.02201   0.02202   0.02202   0.02210   0.02211
     Eigenvalues ---    0.02213   0.02214   0.02215   0.02216   0.02216
     Eigenvalues ---    0.02217   0.02218   0.02220   0.02221   0.02225
     Eigenvalues ---    0.04553   0.06391   0.06637   0.15997   0.15998
     Eigenvalues ---    0.16000   0.16000   0.16000   0.16000   0.16000
     Eigenvalues ---    0.16000   0.16000   0.16000   0.16000   0.16000
     Eigenvalues ---    0.16000   0.16000   0.16000   0.18866   0.19348
     Eigenvalues ---    0.22000   0.22000   0.22000   0.22000   0.22000
     Eigenvalues ---    0.22000   0.23467   0.23477   0.23478   0.24971
     Eigenvalues ---    0.24999   0.25000   0.31251   0.31358   0.31462
     Eigenvalues ---    0.31526   0.33516   0.33603   0.33956   0.34054
     Eigenvalues ---    0.34074   0.34087   0.34250   0.34253   0.34257
     Eigenvalues ---    0.34262   0.34265   0.34267   0.34278   0.34281
     Eigenvalues ---    0.34290   0.42375   0.42464   0.42477   0.42569
     Eigenvalues ---    0.42584   0.42609   0.46306   0.46394   0.46433
     Eigenvalues ---    0.46739   0.46746   0.46795   0.47197   0.47207
     Eigenvalues ---    0.47227   0.47354   0.47360   0.474401000.00000
     Eigenvalues --- 1000.000001000.000001000.000001000.000001000.00000
     Eigenvalues --- 1000.000001000.000001000.000001000.000001000.00000
     Eigenvalues --- 1000.000001000.000001000.000001000.000001000.00000
     Eigenvalues --- 1000.000001000.000001000.000001000.000001000.00000
     Eigenvalues --- 1000.000001000.000001000.000001000.000001000.00000
     Eigenvalues --- 1000.000001000.000001000.000001000.000001000.00000
     Eigenvalues --- 1000.000001000.000001000.000001000.000001000.00000
     Eigenvalues --- 1000.000001000.000001000.000001000.000001000.00000
     Eigenvalues --- 1000.000001000.000001000.000001000.000001000.00000
     Eigenvalues --- 1000.000001000.000001000.000001000.000001000.00000
     Eigenvalues --- 1000.000001000.000001000.000001000.000001000.00000
     Eigenvalues --- 1000.000001000.000001000.000001000.000001000.00000
     Eigenvalues --- 1000.000001000.000001000.000001000.000001000.00000
     Eigenvalues --- 1000.000001000.000001000.000001000.000001000.00000
     Eigenvalues --- 1000.000001000.000001000.000001000.000001000.00000
     Eigenvalues --- 1000.000001000.000001000.000001000.000001000.00000
     Eigenvalues --- 1000.000001000.000001000.000001000.000001000.00000
     Eigenvalues --- 1000.000001000.00000
 RFO step:  Lambda=-4.19496962D-02 EMin= 6.34598273D-03
 Linear search not attempted -- first point.
 Maximum step size (   0.300) exceeded in Quadratic search.
    -- Step size scaled by   0.591
 Iteration  1 RMS(Cart)=  0.12544225 RMS(Int)=  0.00302638
 Iteration  2 RMS(Cart)=  0.00610982 RMS(Int)=  0.00028098
 Iteration  3 RMS(Cart)=  0.00001064 RMS(Int)=  0.00028092
 Iteration  4 RMS(Cart)=  0.00000000 RMS(Int)=  0.00028092
 Variable       Old X    -DE/DX   Delta X   Delta X   Delta X     New X
                                 (Linear)    (Quad)   (Total)
    R1        2.12236  -0.02502   0.00000  -0.04168  -0.04168   2.08068
    R2        2.85335   0.02282   0.00000   0.03791   0.03791   2.89126
    R3        2.85139   0.02337   0.00000   0.03871   0.03871   2.89010
    R4        2.85019   0.02374   0.00000   0.03924   0.03924   2.88943
    R5        2.63914  -0.00441   0.00000  -0.00511  -0.00510   2.63404
    R6        2.63856  -0.00001   0.00000   0.00009   0.00011   2.63867
    R7        2.62771  -0.00222   0.00000  -0.00260  -0.00260   2.62511
    R8        2.07183  -0.01756   0.00000  -0.02709  -0.02709   2.04474
    R9        2.62545  -0.00459   0.00000  -0.00520  -0.00519   2.62025
   R10        2.08006  -0.02647   0.00000  -0.04136  -0.04136   2.03870
   R11        2.62733  -0.00867   0.00000  -0.01006  -0.01008   2.61725
   R12        2.06911  -0.01667   0.00000  -0.02561  -0.02561   2.04350
   R13        2.62893  -0.00546   0.00000  -0.00635  -0.00636   2.62257
   R14        2.06885  -0.01673   0.00000  -0.02568  -0.02568   2.04317
   R15        2.06858  -0.01680   0.00000  -0.02579  -0.02579   2.04279
   R16        2.64437  -0.00221   0.00000  -0.00257  -0.00256   2.64181
   R17        2.63498  -0.00244   0.00000  -0.00271  -0.00271   2.63227
   R18        2.62382  -0.00497   0.00000  -0.00575  -0.00575   2.61807
   R19        2.07239  -0.01863   0.00000  -0.02876  -0.02876   2.04363
   R20        2.62940  -0.00130   0.00000  -0.00142  -0.00142   2.62799
   R21        2.07404  -0.02206   0.00000  -0.03415  -0.03415   2.03989
   R22        2.63001  -0.00500   0.00000  -0.00590  -0.00591   2.62410
   R23        2.06899  -0.01668   0.00000  -0.02561  -0.02561   2.04338
   R24        2.62553  -0.00764   0.00000  -0.00878  -0.00879   2.61674
   R25        2.06906  -0.01670   0.00000  -0.02565  -0.02565   2.04341
   R26        2.06844  -0.01664   0.00000  -0.02553  -0.02553   2.04291
   R27        2.63945   0.00085   0.00000   0.00114   0.00116   2.64060
   R28        2.63956  -0.00424   0.00000  -0.00491  -0.00489   2.63467
   R29        2.62541  -0.00426   0.00000  -0.00479  -0.00480   2.62062
   R30        2.08154  -0.02880   0.00000  -0.04510  -0.04510   2.03645
   R31        2.62762  -0.00237   0.00000  -0.00280  -0.00280   2.62482
   R32        2.07205  -0.01782   0.00000  -0.02750  -0.02750   2.04455
   R33        2.62851  -0.00562   0.00000  -0.00652  -0.00654   2.62197
   R34        2.06881  -0.01669   0.00000  -0.02562  -0.02562   2.04319
   R35        2.62713  -0.00908   0.00000  -0.01056  -0.01058   2.61655
   R36        2.06891  -0.01666   0.00000  -0.02558  -0.02558   2.04333
   R37        2.06863  -0.01682   0.00000  -0.02581  -0.02581   2.04282
    A1        1.88311  -0.00851   0.00000  -0.04762  -0.04681   1.83630
    A2        1.82925   0.00368   0.00000  -0.00048  -0.00024   1.82901
    A3        1.87496  -0.01003   0.00000  -0.05137  -0.05045   1.82451
    A4        1.94376  -0.00344   0.00000   0.01157   0.00940   1.95316
    A5        1.93083   0.01535   0.00000   0.05430   0.05315   1.98398
    A6        1.99456   0.00105   0.00000   0.02203   0.02014   2.01470
    A7        2.08426  -0.00769   0.00000  -0.01553  -0.01558   2.06868
    A8        2.11796   0.01840   0.00000   0.03724   0.03717   2.15513
    A9        2.08096  -0.01071   0.00000  -0.02177  -0.02177   2.05919
   A10        2.09903   0.00732   0.00000   0.01611   0.01612   2.11514
   A11        2.09513  -0.00435   0.00000  -0.01008  -0.01009   2.08504
   A12        2.08903  -0.00297   0.00000  -0.00604  -0.00605   2.08298
   A13        2.10135   0.00422   0.00000   0.00948   0.00942   2.11077
   A14        2.07805   0.00368   0.00000   0.01234   0.01224   2.09029
   A15        2.10362  -0.00786   0.00000  -0.02141  -0.02151   2.08211
   A16        2.09765  -0.00024   0.00000  -0.00125  -0.00127   2.09637
   A17        2.09111   0.00034   0.00000   0.00126   0.00127   2.09238
   A18        2.09443  -0.00010   0.00000  -0.00001   0.00000   2.09443
   A19        2.09609   0.00222   0.00000   0.00457   0.00457   2.10066
   A20        2.09169  -0.00100   0.00000  -0.00197  -0.00197   2.08972
   A21        2.09540  -0.00122   0.00000  -0.00260  -0.00261   2.09279
   A22        2.09128  -0.00281   0.00000  -0.00707  -0.00710   2.08418
   A23        2.09599   0.00140   0.00000   0.00351   0.00352   2.09950
   A24        2.09592   0.00141   0.00000   0.00357   0.00357   2.09949
   A25        2.06709   0.00038   0.00000   0.00068   0.00067   2.06776
   A26        2.13836   0.00755   0.00000   0.01520   0.01518   2.15355
   A27        2.07677  -0.00795   0.00000  -0.01610  -0.01609   2.06069
   A28        2.10347   0.00476   0.00000   0.01036   0.01037   2.11384
   A29        2.08436  -0.00134   0.00000  -0.00215  -0.00216   2.08220
   A30        2.09535  -0.00342   0.00000  -0.00821  -0.00822   2.08713
   A31        2.10132   0.00348   0.00000   0.00797   0.00797   2.10930
   A32        2.09291  -0.00009   0.00000   0.00085   0.00085   2.09376
   A33        2.08895  -0.00340   0.00000  -0.00882  -0.00883   2.08012
   A34        2.09650   0.00082   0.00000   0.00113   0.00112   2.09762
   A35        2.09194  -0.00040   0.00000  -0.00055  -0.00054   2.09140
   A36        2.09475  -0.00042   0.00000  -0.00058  -0.00058   2.09417
   A37        2.09928   0.00113   0.00000   0.00232   0.00231   2.10159
   A38        2.08876  -0.00048   0.00000  -0.00092  -0.00092   2.08784
   A39        2.09515  -0.00065   0.00000  -0.00140  -0.00139   2.09375
   A40        2.08902  -0.00224   0.00000  -0.00570  -0.00572   2.08331
   A41        2.09631   0.00117   0.00000   0.00299   0.00299   2.09930
   A42        2.09785   0.00107   0.00000   0.00271   0.00272   2.10057
   A43        2.12559   0.02303   0.00000   0.04662   0.04660   2.17219
   A44        2.07872  -0.01113   0.00000  -0.02247  -0.02249   2.05623
   A45        2.07885  -0.01190   0.00000  -0.02412  -0.02409   2.05476
   A46        2.10234   0.00455   0.00000   0.01026   0.01025   2.11258
   A47        2.07816   0.00440   0.00000   0.01444   0.01441   2.09257
   A48        2.10260  -0.00893   0.00000  -0.02454  -0.02457   2.07803
   A49        2.10029   0.00818   0.00000   0.01792   0.01795   2.11824
   A50        2.09430  -0.00469   0.00000  -0.01072  -0.01074   2.08356
   A51        2.08859  -0.00349   0.00000  -0.00720  -0.00721   2.08138
   A52        2.09643   0.00238   0.00000   0.00495   0.00493   2.10136
   A53        2.09146  -0.00111   0.00000  -0.00224  -0.00223   2.08923
   A54        2.09529  -0.00127   0.00000  -0.00270  -0.00269   2.09260
   A55        2.09778  -0.00020   0.00000  -0.00136  -0.00137   2.09641
   A56        2.09108   0.00027   0.00000   0.00119   0.00119   2.09227
   A57        2.09432  -0.00007   0.00000   0.00018   0.00018   2.09450
[...]
 07,0.00027793,-0.00068925,-0.00045703,-0.00047289,0.00000813,-0.000226
 78,0.00035598,0.00035035,-0.00010848,0.00046341,0.00028541,-0.00004095
 ,-0.00003123,-0.00006394,0.00007272,-0.00035767,0.00009623,0.00017402,
 0.00001910,0.00001829,0.00002836,0.00001506,-0.00040462,-0.00016125,-0
 .00001099,0.00001950,0.00000019,-0.00001024,-0.00001707,0.00001311,-0.
 00001685,-0.00000265,-0.00000094,0.00171603,0.00031270,0.00049528,0.00
 022119,0.00027413,-0.00030579,0.00017452,0.00028733,0.00025216,-0.0003
 3838,0.00022205,0.00021332,0.00003660,0.00000677,-0.00000269,0.0000537
 0,0.00000718,-0.00054391,-0.00032532,0.00002019,0.00005411,0.00015298,
 -0.00028668,0.00028743,-0.00004728,-0.00002434,0.00002001,0.00002456,0
 .00004113,0.00000454,-0.00000517,0.00000504,-0.00000066,-0.07734569,-0
 .07054318,0.02909069,-0.01642635,0.04118285,-0.08449599,-0.08215849,0.
 07083162,-0.28266725,0.08293157,0.02879134,0.05777783,0.00007260,0.000
 36016,-0.00112604,0.14946630,-0.18337290,0.61486561,0.00017366,0.00033
 590,0.00258898,-0.00050648,0.00106568,-0.00073140,-0.00009147,0.000386
 46,-0.00003425,-0.00000101,-0.00009473,-0.00005496,0.00015375,0.000057
 91,-0.00009445,0.00000836,0.00002698,0.00000641,-0.00003059,0.00001988
 ,0.00004357,0.00003387,0.00003731,0.00003977,-0.00000587,0.00000621,0.
 00001616,0.00002025,0.00000134,-0.00000630,0.00000553,-0.00000608,-0.0
 0000010,0.00002105,0.00000825,0.00000939,0.00001065,0.00000523,0.00000
 222,0.00027411,-0.00009782,-0.00011697,-0.00006897,-0.00002052,0.00005
 268,-0.00000455,-0.00012482,0.00013137,0.00003818,-0.00000613,-0.00006
 057,-0.00003948,0.00001523,-0.00004412,-0.00006131,0.00001665,0.000027
 11,0.00000126,0.00008018,-0.00003904,-0.00005550,0.00004547,0.00001343
 ,0.00000247,0.00000354,0.00001610,-0.00001082,0.00002980,0.00001432,-0
 .00000008,0.00001660,0.00000815,-0.00278942,-0.02081981,0.02209885,-0.
 00273510,-0.00582130,-0.00318482,-0.08808580,-0.06179960,0.05037186,-0
 .00097110,0.00034419,-0.00052108,-0.00025150,-0.00091544,0.00114336,0.
 01059551,0.01502475,-0.01735445,0.08469036,0.00233232,-0.00155061,-0.0
 0134426,-0.00049975,0.00017582,-0.00021816,0.00002261,0.00031722,0.000
 21654,0.00004871,0.00008848,-0.00003777,0.00015136,0.00003164,-0.00004
 964,0.00000646,-0.00003505,-0.00002931,-0.00000612,-0.00003203,0.00002
 398,0.00003126,0.00004067,-0.00001028,-0.00000375,-0.00003532,0.000023
 27,0.00001138,0.00000780,0.00000465,0.00001597,-0.00000386,0.00000240,
 0.00001343,0.00000007,0.00000128,0.00000354,-0.00000385,0.00000378,-0.
 00030199,0.00027584,-0.00043422,0.00016661,0.00002232,-0.00039657,0.00
 023223,-0.00004243,0.00014603,-0.00007446,0.00012966,-0.00005200,-0.00
 002931,-0.00002936,0.00001147,0.00013203,-0.00004382,-0.00017462,-0.00
 014053,-0.00003693,0.00011881,0.00002915,-0.00008030,0.00005694,-0.000
 00073,-0.00001823,0.00000648,-0.00002401,-0.00000125,-0.00000033,-0.00
 001440,0.00000130,0.00001318,-0.00255337,-0.00740007,0.01655468,-0.005
 95736,0.00306578,0.00102811,-0.06214913,-0.18984759,0.14410593,0.00028
 768,-0.00009918,-0.00100456,-0.00013874,-0.00062622,0.00071473,-0.0040
 0326,0.00228182,0.00073400,0.07162484,0.19085627,0.00015106,-0.0016644
 7,-0.00077872,-0.00008063,-0.00065116,0.00071207,0.00010175,-0.0001934
 2,0.00019672,0.00008448,0.00012989,0.00004501,-0.00001977,-0.00003904,
 0.00004349,-0.00002397,-0.00001183,-0.00001358,0.00000968,-0.00002359,
 -0.00000933,-0.00000616,-0.00003299,-0.00003947,-0.00000292,-0.0000066
 7,-0.00000415,0.00002673,0.00000953,0.00000614,0.00001493,-0.00000271,
 -0.00000764,0.00000042,0.00000649,-0.00000636,0.00000356,-0.00000211,-
 0.00000208,-0.00005011,-0.00016094,-0.00003222,0.00003347,0.00004576,-
 0.00004168,-0.00002883,0.00004655,-0.00003757,-0.00001050,-0.00000789,
 -0.00003577,0.00000057,0.00000142,-0.00000313,0.00002042,-0.00003489,0
 .00002432,0.00001446,0.00000596,0.00003220,-0.00002154,0.00000185,0.00
 001207,0.00000050,-0.00000273,0.00001195,0.00000069,0.00000901,-0.0000
 0363,0.00000007,0.00000629,0.00001126,-0.00400459,-0.00360795,0.006462
 58,-0.00293841,0.00146806,0.00263866,0.05048835,0.14507213,-0.21125046
 ,-0.00044854,-0.00090614,-0.00008479,-0.00010415,-0.00024586,0.0001276
 9,0.01141858,0.02108147,-0.01406961,-0.05049153,-0.16083368,0.21879495
 ,-0.00010995,-0.00006708,0.00177165,-0.00013490,0.00072935,-0.00016871
 ,0.00027968,-0.00037284,-0.00026203,-0.00036561,0.00002652,-0.00012244
 ,0.00023369,0.00023177,-0.00006470,0.00030962,0.00016988,-0.00002175,-
 0.00000083,-0.00005011,0.00002807,-0.00023640,0.00009144,0.00012407,0.
 00001751,0.00002322,0.00002081,-0.00003218,-0.00029229,-0.00009739,-0.
 00001842,0.00002150,0.00000132,-0.00001853,-0.00001866,0.00000045,-0.0
 0002090,-0.00000201,-0.00000176,0.00058339,0.00035314,0.00037416,0.000
 24827,-0.00003814,-0.00030219,0.00015558,0.00010614,-0.00002224,-0.000
 18247,0.00017635,0.00006629,0.00000258,0.00000337,0.00001552,-0.000011
 33,0.00004034,-0.00035460,-0.00031721,0.00020657,-0.00016148,0.0001157
 3,-0.00019174,0.00011059,-0.00002194,-0.00002562,-0.00001600,0.0000274
 7,-0.00002320,-0.00003369,0.00000278,0.00000053,-0.00001801,-0.0479080
 9,-0.04695501,0.02552720,-0.03709355,0.01719864,-0.07575544,0.06847022
 ,0.02817848,0.01941447,-0.28692491,-0.14267758,-0.00782341,0.00160164,
 -0.00190668,-0.00488507,-0.15473307,-0.04209205,-0.01514588,0.00021927
 ,-0.00232525,-0.00604802,0.62342374,-0.00010933,-0.00079570,0.00162935
 ,0.00021052,0.00087622,0.00013161,0.00020768,-0.00047502,-0.00002036,-
 0.00032834,0.00006605,-0.00018936,0.00036480,0.00019579,-0.00008191,0.
 00032489,0.00019476,-0.00005652,-0.00000015,-0.00006945,0.00005143,-0.
 00027366,0.00007994,0.00013354,0.00001329,0.00000427,0.00001270,0.0000
 2387,-0.00028618,-0.00011813,-0.00000422,0.00001303,0.00000345,0.00000
 056,-0.00000714,0.00000609,-0.00000948,-0.00000662,0.00000009,0.000945
 48,0.00035874,0.00015431,0.00022796,0.00016057,-0.00034608,0.00019576,
 0.00014093,0.00030743,-0.00025441,0.00021517,0.00010684,0.00000421,0.0
 0000290,-0.00000442,0.00003711,0.00000157,-0.00042689,-0.00020608,0.00
 006728,0.00002505,0.00011154,-0.00021614,0.00023731,-0.00003578,-0.000
 02082,0.00000857,0.00001191,0.00004409,0.00001507,-0.00000605,0.000002
 38,-0.00000069,-0.04756254,-0.05800913,0.02246087,-0.01697357,0.043602
 58,-0.06826316,0.06320293,0.01797428,0.05459777,-0.10063931,-0.1815297
 5,0.03733828,-0.00163491,0.00514435,0.00411443,-0.08468086,-0.20997773
 ,0.09557931,-0.00272230,0.00546618,0.00243419,0.20084735,0.45466464,0.
 00108908,-0.00000138,-0.00129708,-0.00021962,-0.00055224,-0.00008099,0
 .00000950,0.00030758,-0.00011960,0.00009179,-0.00011224,0.00003552,-0.
 00018768,0.00003264,0.00004883,-0.00009746,-0.00010655,0.00003723,0.00
 005168,0.00001316,-0.00005343,0.00011507,-0.00000733,-0.00004376,-0.00
 000085,0.00000069,-0.00001444,-0.00007053,0.00007759,0.00006716,-0.000
 03955,0.00001575,-0.00000607,-0.00002158,-0.00000795,-0.00000996,-0.00
 001411,0.00000099,-0.00000478,-0.00115216,0.00005463,-0.00007563,-0.00
 000157,-0.00028034,-0.00000201,-0.00004520,0.00005369,-0.00027644,0.00
 013529,-0.00004165,-0.00006359,-0.00001926,-0.00000244,0.00002871,0.00
 001229,-0.00005907,0.00022026,0.00008136,-0.00003200,-0.00000502,-0.00
 003526,0.00007706,-0.00015059,0.00003059,0.00000134,-0.00003672,0.0000
 0517,-0.00004710,-0.00003058,0.00001038,-0.00001004,-0.00000167,0.0262
 3500,0.02418627,-0.01338176,-0.02581919,-0.03215030,0.02965673,-0.0303
 2967,0.01886483,-0.05018808,-0.07185519,-0.00951822,-0.14880408,-0.005
 00524,0.00377862,-0.00251966,0.04839076,0.14246944,-0.24349452,-0.0055
 9310,0.00293261,-0.00131582,0.19045205,-0.19867550,0.68073633,0.000468
 11,0.00067875,-0.00034346,-0.00008214,0.00009421,-0.00016014,0.0001025
 3,-0.00000265,0.00004877,-0.00003750,-0.00000614,0.00000885,0.00002726
 ,-0.00001906,0.00001682,0.00001196,0.00000941,0.00001636,0.00000200,0.
 00000879,-0.00001299,-0.00002726,-0.00000850,0.00001717,0.00000358,0.0
 0000528,-0.00000999,-0.00003093,-0.00002405,0.00000960,-0.00001013,0.0
 0000714,-0.00000493,-0.00000533,0.00000201,-0.00000779,-0.00000397,0.0
 0000234,-0.00000694,-0.00008085,0.00002483,-0.00004271,-0.00000677,-0.
 00001357,-0.00003130,0.00001625,-0.00001884,0.00002763,0.00001024,0.00
 000307,-0.00000984,-0.00000433,-0.00000391,0.00000363,0.00001127,-0.00
 000694,-0.00000112,0.00000752,-0.00002000,-0.00000866,-0.00000138,0.00
 000229,-0.00000534,0.00000220,0.00000144,-0.00000412,-0.00000249,0.000
 00253,0.00000507,-0.00000144,-0.00000194,-0.00000016,0.00010441,-0.002
 43802,-0.00578748,0.01050517,0.01483566,-0.01686730,-0.00111911,0.0002
 8426,-0.00054980,-0.08902288,-0.06313680,0.05128084,-0.00032525,0.0020
 3896,0.00202848,-0.00236338,-0.00594727,-0.00344918,-0.00027133,0.0004
 6980,0.00036615,-0.00161592,-0.02089104,0.02364657,0.08452234,-0.00033
 763,-0.00019059,-0.00022786,0.00000318,-0.00004281,0.00003889,-0.00003
 084,0.00000647,0.00008397,0.00006795,0.00001434,0.00001112,-0.00001529
 ,-0.00004287,-0.00000159,-0.00004174,-0.00000265,-0.00001537,-0.000018
 53,-0.00000341,0.00001640,0.00002804,-0.00001048,-0.00002509,-0.000007
 38,-0.00000982,-0.00000685,0.00003084,0.00004515,-0.00000336,0.0000226
 3,-0.00001898,0.00000373,0.00000790,0.00000443,0.00000412,0.00001505,0
 .00000049,0.00000637,0.00012022,-0.00000009,0.00003939,-0.00000054,0.0
 0003831,0.00001741,-0.00003263,0.00003852,-0.00001586,-0.00001543,0.00
 000230,0.00001294,0.00000502,-0.00000439,-0.00000566,0.00001505,-0.000
 01950,-0.00000072,0.00000590,-0.00002295,0.00000458,0.00000395,-0.0000
 0603,0.00001692,-0.00000286,-0.00000398,0.00001290,-0.00000555,0.00000
 295,-0.00000280,-0.00000222,0.00000332,0.00001072,-0.00216666,0.005176
 76,0.00286531,-0.00386589,0.00239951,0.00046503,0.00040949,-0.00003436
 ,-0.00094120,-0.06290201,-0.19150985,0.14633879,0.00249263,-0.00197142
 ,-0.00184740,-0.00621408,0.00349792,0.00140519,0.00047031,-0.00069418,
 -0.00034688,-0.00223779,-0.00643135,0.01574344,0.07233216,0.19236471,0
 .00070036,0.00081518,-0.00042640,-0.00018986,0.00005910,-0.00035996,0.
 00030746,0.00000956,-0.00000977,-0.00003665,-0.00000090,0.00003569,-0.
 00009463,-0.00001344,0.00004802,-0.00000025,-0.00001999,-0.00000035,0.
 00001485,-0.00002419,-0.00001427,0.00001425,-0.00001643,0.00001010,0.0
 0001312,0.00001079,-0.00002131,-0.00005022,-0.00000743,0.00002674,-0.0
 0001436,0.00000889,0.00000092,-0.00002564,-0.00001318,-0.00001763,-0.0
 0001768,0.00000074,-0.00000546,-0.00021149,0.00018998,0.00003919,0.000
 06692,-0.00009705,-0.00009945,-0.00001046,-0.00005303,-0.00010922,0.00
 000385,0.00000392,-0.00001146,0.00000992,-0.00000953,0.00002347,-0.000
 01732,0.00001179,0.00000704,0.00000153,0.00007321,0.00001655,0.0000104
 2,-0.00001137,-0.00002821,0.00000414,-0.00000323,-0.00001908,0.0000215
 4,-0.00002058,-0.00001899,0.00000724,-0.00000380,-0.00001160,-0.005863
 97,0.00230782,-0.00128790,0.01128336,0.02107890,-0.01390302,-0.0005559
 5,-0.00098889,-0.00007329,0.05126311,0.14642342,-0.21319794,0.00105147
 ,-0.00245718,-0.00014214,-0.00311361,0.00171757,0.00293998,0.00038112,
 -0.00033905,-0.00032107,-0.00467865,-0.00489908,0.00787832,-0.05223631
 ,-0.16181898,0.21915792,-0.00061014,-0.00059662,0.00038772,-0.00001107
 ,0.00005482,-0.00004273,0.00007713,0.00011785,-0.00026347,-0.00004969,
 -0.00006210,-0.00001317,-0.00010222,0.00002018,0.00003000,-0.00000182,
 -0.00002648,-0.00000126,0.00001691,-0.00000461,-0.00000715,0.00002819,
 0.00000079,0.00001087,0.00000626,0.00000417,0.00000468,-0.00002870,0.0
 0001414,0.00001128,-0.00002089,0.00000687,0.00001130,-0.00001301,-0.00
 001174,-0.00000156,-0.00001448,-0.00000189,0.00000143,-0.00012833,0.00
 010332,0.00008797,0.00006434,-0.00004029,-0.00006487,0.00003996,-0.000
 04295,-0.00001475,0.00000721,0.00001020,-0.00001702,-0.00001155,-0.000
 00137,0.00001175,-0.00001239,0.00001524,-0.00000419,-0.00002105,0.0000
 4126,0.00000921,0.00000960,0.00000026,-0.00002338,-0.00000419,-0.00000
 272,-0.00002214,0.00000403,-0.00001543,-0.00000372,0.00000265,-0.00000
 654,-0.00001512,0.00186789,-0.00179069,-0.00527184,0.00039040,0.000958
 29,0.00000461,-0.01097773,-0.01341416,0.00179449,0.00340050,-0.0035665
 1,-0.00046415,-0.00040550,0.00040830,0.00032852,-0.27418328,-0.1441038
 5,-0.03244950,-0.00049518,0.00271039,0.00110732,-0.00222432,-0.0024083
 8,-0.00486961,-0.00036053,-0.00012628,-0.00010168,0.28423120,0.0003060
 9,0.00007872,0.00003847,-0.00000932,-0.00004271,-0.00000634,-0.0000120
 5,-0.00008749,-0.00006265,-0.00003257,0.00003528,-0.00000820,0.0000125
 1,0.00003459,-0.00001128,0.00004713,0.00001099,-0.00000968,0.00000623,
 -0.00001649,0.00000857,-0.00003131,0.00001599,0.00001101,0.00000241,-0
 .00000150,0.00000491,0.00000051,-0.00003867,-0.00001923,0.00000176,0.0
 0000305,0.00000219,-0.00000287,-0.00000696,0.00000372,-0.00000472,-0.0
 0000301,0.00000236,-0.00011226,0.00002151,-0.00006305,-0.00000603,-0.0
 0004840,-0.00000047,0.00002512,-0.00001952,-0.00002395,0.00001803,-0.0
 0000568,-0.00000542,0.00000047,-0.00000450,0.00000738,0.00000317,0.000
 03422,0.00000481,-0.00003916,0.00000362,0.00002038,0.00000912,0.000002
 26,-0.00003037,0.00000218,-0.00000012,-0.00000668,-0.00000183,-0.00002
 380,-0.00000714,-0.00000285,-0.00000527,-0.00000925,-0.00187736,0.0051
 6465,0.00387201,0.00097926,-0.00040588,0.00027298,0.00542682,0.0074610
 3,0.00330821,-0.00330740,0.00188453,0.00646256,0.00039369,-0.00065637,
 -0.00046597,-0.14425495,-0.14902432,-0.00902587,0.00207524,-0.00199011
 ,-0.00247267,-0.02113764,-0.00631551,-0.00566854,-0.00094639,-0.000611
 36,-0.00022161,0.15988622,0.14635208,-0.00097794,-0.00080929,0.0002273
 1,0.00004331,0.00002986,0.00008057,-0.00003671,0.00001959,-0.00042436,
 -0.00006867,0.00000693,0.00001318,-0.00005391,0.00000562,0.00003032,0.
 00004163,-0.00000184,0.00001109,0.00000635,0.00000173,-0.00000422,-0.0
 0002242,-0.00000425,0.00003830,0.00000019,0.00000281,-0.00001833,-0.00
 003190,-0.00003586,-0.00001209,-0.00000746,0.00000535,0.00000271,-0.00
 001219,-0.00000876,-0.00000089,-0.00000718,0.00000004,-0.00000218,-0.0
 0012081,0.00007380,0.00005744,0.00003209,-0.00002945,-0.00005987,0.000
 03840,-0.00001519,-0.00003356,0.00000926,0.00001629,-0.00000525,-0.000
 00909,-0.00000995,0.00001009,0.00001452,0.00000739,-0.00001327,-0.0000
 3522,0.00000391,0.00000281,0.00002232,-0.00001261,-0.00002332,-0.00000
 311,-0.00000536,-0.00001082,-0.00000035,-0.00001977,-0.00000842,-0.000
 00376,-0.00000646,-0.00000660,-0.00468132,0.00409721,-0.00244150,0.000
 13533,0.00028484,-0.00118597,-0.02643774,-0.01756485,0.00272723,-0.000
 89114,0.00619733,-0.00156058,0.00027213,-0.00049700,-0.00020069,-0.032
 31813,-0.00887860,-0.07078868,0.00206182,-0.00183670,-0.00015616,0.023
 19314,0.01504855,0.00845516,0.00107551,0.00064105,0.00012606,0.0378702
 4,0.00576151,0.06531103,-0.00020063,0.00042564,0.00038897,0.00000443,0
 .00011383,-0.00010809,0.00004908,0.00001934,-0.00004310,0.00000035,-0.
 00003642,-0.00001950,-0.00004887,0.00003931,-0.00001394,0.00000422,-0.
 00001866,-0.00000426,0.00001354,-0.00000369,-0.00000109,0.00003185,0.0
 0001838,-0.00001033,0.00000537,0.00000444,0.00002363,-0.00000491,0.000
 00723,0.00001193,-0.00001407,0.00001033,0.00000345,-0.00000558,-0.0000
 0932,0.00000059,-0.00001364,-0.00000152,0.00000058,0.00001124,-0.00000
 607,0.00008387,0.00000345,-0.00000781,0.00000223,0.00002551,-0.0000366
 4,0.00001029,0.00000459,-0.00000623,-0.00000247,-0.00000215,0.00000194
 ,0.00000356,-0.00001497,0.00001949,-0.00000578,-0.00002156,0.00002261,
 0.00000368,-0.00000070,0.00000118,-0.00000948,-0.00000161,0.00000208,-
 0.00000847,0.00000480,-0.00000305,0.00000134,0.00000266,-0.00000212,-0
 .00000928,-0.00055692,-0.00032044,0.00093914,-0.00163051,-0.00675204,-
 0.00149066,0.00249828,-0.00446717,-0.00013564,-0.01029408,0.00647993,-
 0.02681045,-0.00072512,0.00028226,-0.00112824,0.01024837,-0.00327450,0
 .01063782,0.00022729,-0.00006761,0.00043645,-0.16372060,0.01201055,-0.
 14497974,-0.00042191,0.00199303,0.00206405,-0.00047017,0.00258274,0.00
 090281,0.16501299,0.00042403,-0.00049957,-0.00045775,-0.00007627,-0.00
 005038,0.00003382,-0.00004561,0.00001456,0.00001652,0.00001964,0.00000
 439,-0.00004422,0.00002947,0.00003920,-0.00002108,0.00000072,-0.000002
 68,-0.00000821,-0.00000912,-0.00000254,0.00001170,0.00002020,0.0000091
 8,-0.00000264,-0.00000023,-0.00000812,0.00000723,0.00000287,0.00000377
 ,0.00000717,0.00000595,-0.00000243,0.00000192,0.00000026,-0.00000069,-
 0.00000220,0.00000030,0.00000041,0.00000108,-0.00003669,0.00006313,-0.
 00010576,0.00002469,-0.00001260,-0.00003419,0.00002062,0.00000971,-0.0
 0000615,-0.00000100,0.00001083,-0.00000827,-0.00000420,-0.00000464,-0.
 00000084,0.00000151,0.00000571,-0.00000439,-0.00002831,0.00000290,0.00
 001328,0.00000156,-0.00000637,-0.00000089,0.00000087,-0.00000335,0.000
 00093,0.00000030,-0.00000457,-0.00000527,-0.00000174,0.00000079,0.0000
 0135,-0.00027291,-0.00116901,-0.00000815,-0.00640764,0.00261086,0.0026
 2689,-0.00481484,0.00132873,0.00566504,-0.01216254,0.00788268,-0.01738
 365,-0.00045544,0.00009901,-0.00077677,0.01549240,0.00282822,0.0204230
 4,0.00073060,-0.00019047,0.00092902,0.01200909,-0.06513520,0.03866257,
 0.00268217,-0.00196411,-0.00169192,0.00187032,-0.00179486,-0.00246786,
 -0.00902104,0.05593751,0.00022193,-0.00038089,-0.00025974,0.00000317,-
 0.00009354,0.00005192,0.00003569,-0.00001367,-0.00007292,-0.00002961,0
 .00000462,-0.00002559,-0.00003941,0.00003347,0.00000761,0.00001764,-0.
 00001433,-0.00001389,0.00001222,-0.00001775,0.00000148,0.00001069,0.00
 001041,0.00000360,0.00000672,-0.00000026,0.00000834,-0.00001548,-0.000
 00575,0.00000465,-0.00000745,0.00000546,0.00000727,-0.00000979,-0.0000
 1033,-0.00000346,-0.00001217,-0.00000293,0.00000203,-0.00012814,0.0000
 7577,-0.00002623,0.00003319,-0.00005354,-0.00003182,0.00001938,-0.0000
 3376,-0.00003882,0.00001178,-0.00000555,-0.00000888,0.00000337,-0.0000
 0202,0.00001150,-0.00001971,0.00003649,0.00001110,-0.00002898,0.000046
 11,0.00001773,0.00000449,0.00000280,-0.00002524,0.00000076,0.00000007,
 -0.00001471,0.00000785,-0.00002124,-0.00000916,0.00000250,-0.00000522,
 -0.00001464,0.00102627,-0.00010734,0.00038509,-0.00202128,0.00231223,0
 .00326180,0.00033413,0.00599575,0.00009686,0.00162144,0.00334178,0.001
 93893,0.00003430,0.00005823,-0.00013395,-0.01751380,-0.00039053,-0.013
 66643,-0.00069951,0.00006228,-0.00090586,-0.14511631,0.03868587,-0.265
 18798,0.00098811,-0.00247866,-0.00023146,0.00197990,-0.00166269,-0.000
 13652,0.15926612,-0.04537135,0.27499739||-0.00001407,0.00000096,-0.000
 00096,0.00000045,-0.00000358,0.00000141,0.00000393,0.00000280,0.000001
 29,-0.00000302,0.00000300,0.00000268,0.00000397,0.00000070,-0.00000132
 ,0.00000262,0.00000577,-0.00000247,0.00000028,-0.00000118,0.00000044,-
 0.00000323,-0.00000019,-0.00000189,0.00000130,-0.00000041,0.00000171,0
 .00000065,-0.00000552,0.00000051,0.00000046,-0.00000100,0.00000019,0.0
 0000026,0.00000040,0.00000025,0.00000106,-0.00000015,-0.00000002,-0.00
 000258,0.00002851,-0.00001810,-0.00001122,-0.00000424,0.00004555,0.000
 01739,-0.00003768,-0.00002333,0.00002343,-0.00003461,-0.00002241,0.000
 00041,0.00000154,-0.00000319,-0.00000718,0.00000145,0.00004611,-0.0000
 0091,0.00000325,0.00000046,-0.00001505,0.00003659,-0.00002804,-0.00000
 222,0.00000349,0.00000279,0.00000036,0.00000073,-0.00000406,0.00000103
 ,-0.00000407,0.00000314,0.00003322,0.00001992,-0.00001241,-0.00000052,
 -0.00001156,0.00003125,-0.00003465,-0.00000116,-0.00001469,-0.00002424
 ,-0.00001061,-0.00001937,-0.00000251,0.00000090,-0.00000317,0.00001081
 ,-0.00001934,0.00002396,0.00000211,0.00000022,0.00000162,0.00001821,0.
 00002517,-0.00000751,0.00000284,0.00000077,0.00000079,-0.00000166,0.00
 000077,-0.00000185,-0.00000173,-0.00000163,0.00000063|||@


  DISAPPOINTMENT IS THE NURSE OF WISDOM.               
                              SIR BOYLE ROCHE                 
 Job cpu time:  0 days  0 hours  6 minutes 32.0 seconds.
 File lengths (MBytes):  RWF=    350 Int=      0 D2E=      0 Chk=      7 Scr=      1
 Normal termination of Gaussian 09 at Tue Sep 07 00:57:10 2021.
