 Entering Link 1 = b:\programy\g09w\l1.exe PID=     22292.
  
 Copyright (c) 1988,1990,1992,1993,1995,1998,2003,2009, Gaussian, Inc.
                  All Rights Reserved.
  
 This is part of the Gaussian(R) 09 program.  It is based on
 the Gaussian(R) 03 system (copyright 2003, Gaussian, Inc.),
 the Gaussian(R) 98 system (copyright 1998, Gaussian, Inc.),
 the Gaussian(R) 94 system (copyright 1995, Gaussian, Inc.),
 the Gaussian 92(TM) system (copyright 1992, Gaussian, Inc.),
 the Gaussian 90(TM) system (copyright 1990, Gaussian, Inc.),
 the Gaussian 88(TM) system (copyright 1988, Gaussian, Inc.),
 the Gaussian 86(TM) system (copyright 1986, Carnegie Mellon
 University), and the Gaussian 82(TM) system (copyright 1983,
 Carnegie Mellon University). Gaussian is a federally registered
 trademark of Gaussian, Inc.
  
 This software contains proprietary and confidential information,
 including trade secrets, belonging to Gaussian, Inc.
  
 This software is provided under written license and may be
 used, copied, transmitted, or stored only in accord with that
 written license.
  
 The following legend is applicable only to US Government
 contracts under FAR:
  
                    RESTRICTED RIGHTS LEGEND
  
 Use, reproduction and disclosure by the US Government is
 subject to restrictions as set forth in subparagraphs (a)
 and (c) of the Commercial Computer Software - Restricted
 Rights clause in FAR 52.227-19.
  
 Gaussian, Inc.
 340 Quinnipiac St., Bldg. 40, Wallingford CT 06492
  
  
 ---------------------------------------------------------------
 Warning -- This program may not be used in any manner that
 competes with the business of Gaussian, Inc. or will provide
 assistance to any competitor of Gaussian, Inc.  The licensee
 of this program is prohibited from giving any competitor of
 Gaussian, Inc. access to this program.  By using this program,
 the user acknowledges that Gaussian, Inc. is engaged in the
 business of creating and licensing software in the field of
 computational chemistry and represents and warrants to the
 licensee that it is not a competitor of Gaussian, Inc. and that
 it will not use this program in any manner prohibited above.
 ---------------------------------------------------------------
  

 Cite this work as:
 Gaussian 09, Revision A.02,
 M. J. Frisch, G. W. Trucks, H. B. Schlegel, G. E. Scuseria, 
 M. A. Robb, J. R. Cheeseman, G. Scalmani, V. Barone, B. Mennucci, 
 G. A. Petersson, H. Nakatsuji, M. Caricato, X. Li, H. P. Hratchian, 
 A. F. Izmaylov, J. Bloino, G. Zheng, J. L. Sonnenberg, M. Hada, 
 M. Ehara, K. Toyota, R. Fukuda, J. Hasegawa, M. Ishida, T. Nakajima, 
 Y. Honda, O. Kitao, H. Nakai, T. Vreven, J. A. Montgomery, Jr., 
 J. E. Peralta, F. Ogliaro, M. Bearpark, J. J. Heyd, E. Brothers, 
 K. N. Kudin, V. N. Staroverov, R. Kobayashi, J. Normand, 
 K. Raghavachari, A. Rendell, J. C. Burant, S. S. Iyengar, J. Tomasi, 
 M. Cossi, N. Rega, J. M. Millam, M. Klene, J. E. Knox, J. B. Cross, 
 V. Bakken, C. Adamo, J. Jaramillo, R. Gomperts, R. E. Stratmann, 
 O. Yazyev, A. J. Austin, R. Cammi, C. Pomelli, J. W. Ochterski, 
 R. L. Martin, K. Morokuma, V. G. Zakrzewski, G. A. Voth, 
 P. Salvador, J. J. Dannenberg, S. Dapprich, A. D. Daniels, 
 O. Farkas, J. B. Foresman, J. V. Ortiz, J. Cioslowski, 
 and D. J. Fox, Gaussian, Inc., Wallingford CT, 2009.
 
 ******************************************
 Gaussian 09:  IA32W-G09RevA.02 11-Jun-2009
                06-Sep-2021 
 ******************************************
 %nprocshared=12
 Will use up to   12 processors via shared memory.
 ----------------------------------------------
 # opt freq=noraman hf/6-311g geom=connectivity
 ----------------------------------------------
 1/18=20,19=15,38=1,57=2/1,3;
 2/9=110,12=2,17=6,18=5,40=1/2;
 3/5=4,6=6,11=9,16=1,25=1,30=1,71=1/1,2,3;
 4//1;
 5/5=2,38=5/2;
 6/7=2,8=2,9=2,10=2,28=1/1;
 7//1,2,3,16;
 1/18=20,19=15/3(2);
 2/9=110/2;
 99//99;
 2/9=110/2;
 3/5=4,6=6,11=9,16=1,25=1,30=1,71=1/1,2,3;
 4/5=5,16=3/1;
 5/5=2,38=5/2;
 7//1,2,3,16;
 1/18=20,19=15/3(-5);
 2/9=110/2;
 6/7=2,8=2,9=2,10=2,19=2,28=1/1;
 99/9=1/99;
 -----
 M0001
 -----
 Symbolic Z-matrix:
 Charge =  0 Multiplicity = 1
 C                     0.        0.        0.7744 
 H                     0.        0.        1.89905 
 C                     1.01346  -1.03081   0.34068 
 C                     1.71219  -1.74149   1.31998 
 C                     1.27453  -1.2992   -1.00422 
 C                     2.65319  -2.6986    0.95781 
 H                     1.52107  -1.54458   2.38118 
 C                     2.21469  -2.25618  -1.36558 
 H                     0.72048  -0.73682  -1.77695 
 C                     2.90727  -2.95703  -0.38463 
 H                     3.19602  -3.24971   1.73303 
 H                     2.40946  -2.45596  -2.42414 
 H                     3.64847  -3.71091  -0.66829 
 C                    -1.39944  -0.36228   0.34068 
 C                    -2.36427  -0.61205   1.31998 
 C                    -1.7624   -0.45417  -1.00422 
 C                    -3.66366  -0.94843   0.95781 
 H                    -2.09818  -0.54499   2.38118 
 C                    -3.06125  -0.78989  -1.36558 
 H                    -0.99834  -0.25555  -1.77695 
 C                    -4.0145   -1.03926  -0.38463 
 H                    -4.41234  -1.14298   1.73303 
 H                    -3.33165  -0.85867  -2.42414 
 H                    -5.03798  -1.30421  -0.66829 
 C                     0.38597   1.39309   0.34068 
 C                     0.48787   1.75337  -1.00422 
 C                     0.65208   2.35354   1.31998 
 C                     0.84656   3.04607  -1.36558 
 H                     0.27786   0.99237  -1.77695 
 C                     1.01046   3.64703   0.95781 
 H                     0.57711   2.08958   2.38118 
 C                     1.10723   3.99629  -0.38463 
 H                     0.92219   3.31463  -2.42414 
 H                     1.21632   4.39269   1.73303 
 H                     1.38951   5.01512  -0.66829 
 

 GradGradGradGradGradGradGradGradGradGradGradGradGradGradGradGradGradGrad
 Berny optimization.
 Initialization pass.
                           ----------------------------
                           !    Initial Parameters    !
                           ! (Angstroms and Degrees)  !
 --------------------------                            --------------------------
 ! Name  Definition              Value          Derivative Info.                !
 --------------------------------------------------------------------------------
 ! R1    R(1,2)                  1.1247         estimate D2E/DX2                !
 ! R2    R(1,3)                  1.5092         estimate D2E/DX2                !
 ! R3    R(1,14)                 1.5092         estimate D2E/DX2                !
 ! R4    R(1,25)                 1.5092         estimate D2E/DX2                !
 ! R5    R(3,4)                  1.3973         estimate D2E/DX2                !
 ! R6    R(3,5)                  1.396          estimate D2E/DX2                !
 ! R7    R(4,6)                  1.3902         estimate D2E/DX2                !
 ! R8    R(4,7)                  1.0961         estimate D2E/DX2                !
 ! R9    R(5,8)                  1.3894         estimate D2E/DX2                !
 ! R10   R(5,9)                  1.1047         estimate D2E/DX2                !
 ! R11   R(6,10)                 1.3905         estimate D2E/DX2                !
 ! R12   R(6,11)                 1.0951         estimate D2E/DX2                !
 ! R13   R(8,10)                 1.3904         estimate D2E/DX2                !
 ! R14   R(8,12)                 1.0947         estimate D2E/DX2                !
 ! R15   R(10,13)                1.0946         estimate D2E/DX2                !
 ! R16   R(14,15)                1.3973         estimate D2E/DX2                !
 ! R17   R(14,16)                1.396          estimate D2E/DX2                !
 ! R18   R(15,17)                1.3902         estimate D2E/DX2                !
 ! R19   R(15,18)                1.0961         estimate D2E/DX2                !
 ! R20   R(16,19)                1.3894         estimate D2E/DX2                !
 ! R21   R(16,20)                1.1047         estimate D2E/DX2                !
 ! R22   R(17,21)                1.3905         estimate D2E/DX2                !
 ! R23   R(17,22)                1.0951         estimate D2E/DX2                !
 ! R24   R(19,21)                1.3904         estimate D2E/DX2                !
 ! R25   R(19,23)                1.0947         estimate D2E/DX2                !
 ! R26   R(21,24)                1.0946         estimate D2E/DX2                !
 ! R27   R(25,26)                1.396          estimate D2E/DX2                !
 ! R28   R(25,27)                1.3973         estimate D2E/DX2                !
 ! R29   R(26,28)                1.3894         estimate D2E/DX2                !
 ! R30   R(26,29)                1.1047         estimate D2E/DX2                !
 ! R31   R(27,30)                1.3902         estimate D2E/DX2                !
 ! R32   R(27,31)                1.0961         estimate D2E/DX2                !
 ! R33   R(28,32)                1.3904         estimate D2E/DX2                !
 ! R34   R(28,33)                1.0947         estimate D2E/DX2                !
 ! R35   R(30,32)                1.3905         estimate D2E/DX2                !
 ! R36   R(30,34)                1.0951         estimate D2E/DX2                !
 ! R37   R(32,35)                1.0946         estimate D2E/DX2                !
 ! A1    A(2,1,3)              106.7011         estimate D2E/DX2                !
 ! A2    A(2,1,14)             106.7011         estimate D2E/DX2                !
 ! A3    A(2,1,25)             106.7011         estimate D2E/DX2                !
 ! A4    A(3,1,14)             112.0936         estimate D2E/DX2                !
 ! A5    A(3,1,25)             112.0936         estimate D2E/DX2                !
 ! A6    A(14,1,25)            112.0936         estimate D2E/DX2                !
 ! A7    A(1,3,4)              118.8016         estimate D2E/DX2                !
 ! A8    A(1,3,5)              122.2577         estimate D2E/DX2                !
 ! A9    A(4,3,5)              118.9406         estimate D2E/DX2                !
 ! A10   A(3,4,6)              120.4022         estimate D2E/DX2                !
 ! A11   A(3,4,7)              119.9995         estimate D2E/DX2                !
 ! A12   A(6,4,7)              119.5982         estimate D2E/DX2                !
 ! A13   A(3,5,8)              120.632          estimate D2E/DX2                !
 ! A14   A(3,5,9)              118.8299         estimate D2E/DX2                !
 ! A15   A(8,5,9)              120.5382         estimate D2E/DX2                !
 ! A16   A(4,6,10)             120.2079         estimate D2E/DX2                !
 ! A17   A(4,6,11)             119.8378         estimate D2E/DX2                !
 ! A18   A(10,6,11)            119.9542         estimate D2E/DX2                !
 ! A19   A(5,8,10)             120.0521         estimate D2E/DX2                !
 ! A20   A(5,8,12)             119.8409         estimate D2E/DX2                !
 ! A21   A(10,8,12)            120.1069         estimate D2E/DX2                !
 ! A22   A(6,10,8)             119.7649         estimate D2E/DX2                !
 ! A23   A(6,10,13)            120.1266         estimate D2E/DX2                !
 ! A24   A(8,10,13)            120.1083         estimate D2E/DX2                !
 ! A25   A(1,14,15)            118.8016         estimate D2E/DX2                !
 ! A26   A(1,14,16)            122.2577         estimate D2E/DX2                !
 ! A27   A(15,14,16)           118.9406         estimate D2E/DX2                !
 ! A28   A(14,15,17)           120.4022         estimate D2E/DX2                !
 ! A29   A(14,15,18)           119.9995         estimate D2E/DX2                !
 ! A30   A(17,15,18)           119.5982         estimate D2E/DX2                !
 ! A31   A(14,16,19)           120.632          estimate D2E/DX2                !
 ! A32   A(14,16,20)           118.8299         estimate D2E/DX2                !
 ! A33   A(19,16,20)           120.5382         estimate D2E/DX2                !
 ! A34   A(15,17,21)           120.2079         estimate D2E/DX2                !
 ! A35   A(15,17,22)           119.8378         estimate D2E/DX2                !
 ! A36   A(21,17,22)           119.9542         estimate D2E/DX2                !
 ! A37   A(16,19,21)           120.0521         estimate D2E/DX2                !
 ! A38   A(16,19,23)           119.8409         estimate D2E/DX2                !
 ! A39   A(21,19,23)           120.1069         estimate D2E/DX2                !
 ! A40   A(17,21,19)           119.7649         estimate D2E/DX2                !
 ! A41   A(17,21,24)           120.1266         estimate D2E/DX2                !
 ! A42   A(19,21,24)           120.1083         estimate D2E/DX2                !
 ! A43   A(1,25,26)            122.2577         estimate D2E/DX2                !
 ! A44   A(1,25,27)            118.8016         estimate D2E/DX2                !
 ! A45   A(26,25,27)           118.9406         estimate D2E/DX2                !
 ! A46   A(25,26,28)           120.632          estimate D2E/DX2                !
 ! A47   A(25,26,29)           118.8299         estimate D2E/DX2                !
 ! A48   A(28,26,29)           120.5382         estimate D2E/DX2                !
 ! A49   A(25,27,30)           120.4022         estimate D2E/DX2                !
 ! A50   A(25,27,31)           119.9995         estimate D2E/DX2                !
 ! A51   A(30,27,31)           119.5982         estimate D2E/DX2                !
 ! A52   A(26,28,32)           120.0521         estimate D2E/DX2                !
 ! A53   A(26,28,33)           119.8409         estimate D2E/DX2                !
 ! A54   A(32,28,33)           120.1069         estimate D2E/DX2                !
 ! A55   A(27,30,32)           120.2079         estimate D2E/DX2                !
 ! A56   A(27,30,34)           119.8378         estimate D2E/DX2                !
 ! A57   A(32,30,34)           119.9542         estimate D2E/DX2                !
 ! A58   A(28,32,30)           119.7649         estimate D2E/DX2                !
 ! A59   A(28,32,35)           120.1083         estimate D2E/DX2                !
 ! A60   A(30,32,35)           120.1266         estimate D2E/DX2                !
 ! D1    D(2,1,3,4)              0.0            estimate D2E/DX2                !
 ! D2    D(2,1,3,5)            179.9028         estimate D2E/DX2                !
 ! D3    D(14,1,3,4)          -116.462          estimate D2E/DX2                !
 ! D4    D(14,1,3,5)            63.4408         estimate D2E/DX2                !
 ! D5    D(25,1,3,4)           116.462          estimate D2E/DX2                !
 ! D6    D(25,1,3,5)           -63.6352         estimate D2E/DX2                !
 ! D7    D(2,1,14,15)            0.0            estimate D2E/DX2                !
 ! D8    D(2,1,14,16)          179.9028         estimate D2E/DX2                !
 ! D9    D(3,1,14,15)          116.462          estimate D2E/DX2                !
 ! D10   D(3,1,14,16)          -63.6352         estimate D2E/DX2                !
 ! D11   D(25,1,14,15)        -116.462          estimate D2E/DX2                !
 ! D12   D(25,1,14,16)          63.4408         estimate D2E/DX2                !
 ! D13   D(2,1,25,26)          179.9028         estimate D2E/DX2                !
 ! D14   D(2,1,25,27)            0.0            estimate D2E/DX2                !
 ! D15   D(3,1,25,26)           63.4408         estimate D2E/DX2                !
 ! D16   D(3,1,25,27)         -116.462          estimate D2E/DX2                !
 ! D17   D(14,1,25,26)         -63.6352         estimate D2E/DX2                !
 ! D18   D(14,1,25,27)         116.462          estimate D2E/DX2                !
 ! D19   D(1,3,4,6)           -180.0            estimate D2E/DX2                !
 ! D20   D(1,3,4,7)             -0.1065         estimate D2E/DX2                !
 ! D21   D(5,3,4,6)              0.0939         estimate D2E/DX2                !
 ! D22   D(5,3,4,7)            179.9874         estimate D2E/DX2                !
 ! D23   D(1,3,5,8)           -179.9724         estimate D2E/DX2                !
 ! D24   D(1,3,5,9)              0.0495         estimate D2E/DX2                !
 ! D25   D(4,3,5,8)             -0.0697         estimate D2E/DX2                !
 ! D26   D(4,3,5,9)            179.9522         estimate D2E/DX2                !
 ! D27   D(3,4,6,10)             0.0            estimate D2E/DX2                !
 ! D28   D(3,4,6,11)           179.9571         estimate D2E/DX2                !
 ! D29   D(7,4,6,10)          -179.8939         estimate D2E/DX2                !
 ! D30   D(7,4,6,11)             0.0632         estimate D2E/DX2                !
 ! D31   D(3,5,8,10)            -0.0486         estimate D2E/DX2                !
 ! D32   D(3,5,8,12)          -179.976          estimate D2E/DX2                !
 ! D33   D(9,5,8,10)           179.929          estimate D2E/DX2                !
 ! D34   D(9,5,8,12)             0.0017         estimate D2E/DX2                !
 ! D35   D(4,6,10,8)            -0.1192         estimate D2E/DX2                !
 ! D36   D(4,6,10,13)         -180.0            estimate D2E/DX2                !
 ! D37   D(11,6,10,8)          179.9237         estimate D2E/DX2                !
 ! D38   D(11,6,10,13)           0.0429         estimate D2E/DX2                !
 ! D39   D(5,8,10,6)             0.1433         estimate D2E/DX2                !
 ! D40   D(5,8,10,13)         -179.9759         estimate D2E/DX2                !
 ! D41   D(12,8,10,6)         -179.9295         estimate D2E/DX2                !
 ! D42   D(12,8,10,13)          -0.0488         estimate D2E/DX2                !
 ! D43   D(1,14,15,17)         180.0            estimate D2E/DX2                !
 ! D44   D(1,14,15,18)          -0.1065         estimate D2E/DX2                !
 ! D45   D(16,14,15,17)          0.0939         estimate D2E/DX2                !
 ! D46   D(16,14,15,18)        179.9874         estimate D2E/DX2                !
 ! D47   D(1,14,16,19)        -179.9724         estimate D2E/DX2                !
 ! D48   D(1,14,16,20)           0.0495         estimate D2E/DX2                !
 ! D49   D(15,14,16,19)         -0.0697         estimate D2E/DX2                !
 ! D50   D(15,14,16,20)        179.9522         estimate D2E/DX2                !
 ! D51   D(14,15,17,21)          0.0            estimate D2E/DX2                !
 ! D52   D(14,15,17,22)        179.9571         estimate D2E/DX2                !
 ! D53   D(18,15,17,21)       -179.8939         estimate D2E/DX2                !
 ! D54   D(18,15,17,22)          0.0632         estimate D2E/DX2                !
 ! D55   D(14,16,19,21)         -0.0486         estimate D2E/DX2                !
 ! D56   D(14,16,19,23)       -179.976          estimate D2E/DX2                !
 ! D57   D(20,16,19,21)        179.929          estimate D2E/DX2                !
 ! D58   D(20,16,19,23)          0.0017         estimate D2E/DX2                !
 ! D59   D(15,17,21,19)         -0.1192         estimate D2E/DX2                !
 ! D60   D(15,17,21,24)        180.0            estimate D2E/DX2                !
 ! D61   D(22,17,21,19)        179.9237         estimate D2E/DX2                !
 ! D62   D(22,17,21,24)          0.0429         estimate D2E/DX2                !
 ! D63   D(16,19,21,17)          0.1433         estimate D2E/DX2                !
 ! D64   D(16,19,21,24)       -179.9759         estimate D2E/DX2                !
 ! D65   D(23,19,21,17)       -179.9295         estimate D2E/DX2                !
 ! D66   D(23,19,21,24)         -0.0487         estimate D2E/DX2                !
 ! D67   D(1,25,26,28)        -179.9724         estimate D2E/DX2                !
 ! D68   D(1,25,26,29)           0.0495         estimate D2E/DX2                !
 ! D69   D(27,25,26,28)         -0.0697         estimate D2E/DX2                !
 ! D70   D(27,25,26,29)        179.9522         estimate D2E/DX2                !
 ! D71   D(1,25,27,30)         180.0            estimate D2E/DX2                !
 ! D72   D(1,25,27,31)          -0.1065         estimate D2E/DX2                !
 ! D73   D(26,25,27,30)          0.0939         estimate D2E/DX2                !
 ! D74   D(26,25,27,31)        179.9874         estimate D2E/DX2                !
 ! D75   D(25,26,28,32)         -0.0486         estimate D2E/DX2                !
 ! D76   D(25,26,28,33)       -179.976          estimate D2E/DX2                !
 ! D77   D(29,26,28,32)        179.929          estimate D2E/DX2                !
 ! D78   D(29,26,28,33)          0.0017         estimate D2E/DX2                !
 ! D79   D(25,27,30,32)          0.0            estimate D2E/DX2                !
 ! D80   D(25,27,30,34)        179.9571         estimate D2E/DX2                !
 ! D81   D(31,27,30,32)       -179.8939         estimate D2E/DX2                !
 ! D82   D(31,27,30,34)          0.0632         estimate D2E/DX2                !
 ! D83   D(26,28,32,30)          0.1433         estimate D2E/DX2                !
 ! D84   D(26,28,32,35)       -179.9759         estimate D2E/DX2                !
 ! D85   D(33,28,32,30)       -179.9295         estimate D2E/DX2                !
 ! D86   D(33,28,32,35)         -0.0487         estimate D2E/DX2                !
 ! D87   D(27,30,32,28)         -0.1193         estimate D2E/DX2                !
 ! D88   D(27,30,32,35)        180.0            estimate D2E/DX2                !
 ! D89   D(34,30,32,28)        179.9237         estimate D2E/DX2                !
 ! D90   D(34,30,32,35)          0.0429         estimate D2E/DX2                !
 --------------------------------------------------------------------------------
 Trust Radius=3.00D-01 FncErr=1.00D-07 GrdErr=1.00D-07
 Number of steps in this run= 197 maximum allowed number of steps= 210.
 GradGradGradGradGradGradGradGradGradGradGradGradGradGradGradGradGradGrad

                          Input orientation:                          
 ---------------------------------------------------------------------
 Center     Atomic      Atomic             Coordinates (Angstroms)
 Number     Number       Type             X           Y           Z
 ---------------------------------------------------------------------
      1          6           0        0.000000    0.000000    0.774397
      2          1           0        0.000000    0.000000    1.899051
      3          6           0        1.013464   -1.030809    0.340676
      4          6           0        1.712189   -1.741492    1.319979
      5          6           0        1.274526   -1.299195   -1.004224
      6          6           0        2.653195   -2.698602    0.957810
      7          1           0        1.521069   -1.544584    2.381178
      8          6           0        2.214692   -2.256178   -1.365578
      9          1           0        0.720483   -0.736817   -1.776947
     10          6           0        2.907273   -2.957029   -0.384635
     11          1           0        3.196023   -3.249706    1.733028
     12          1           0        2.409458   -2.455958   -2.424143
     13          1           0        3.648468   -3.710909   -0.668293
     14          6           0       -1.399438   -0.362281    0.340676
     15          6           0       -2.364270   -0.612053    1.319979
     16          6           0       -1.762399   -0.454174   -1.004224
     17          6           0       -3.663655   -0.948433    0.957810
     18          1           0       -2.098184   -0.544992    2.381178
     19          6           0       -3.061253   -0.789891   -1.365578
     20          1           0       -0.998344   -0.255548   -1.776947
     21          6           0       -4.014498   -1.039258   -0.384635
     22          1           0       -4.412339   -1.142984    1.733028
     23          1           0       -3.331651   -0.858673   -2.424143
     24          1           0       -5.037975   -1.304211   -0.668293
     25          6           0        0.385975    1.393090    0.340676
     26          6           0        0.487873    1.753369   -1.004224
     27          6           0        0.652082    2.353545    1.319979
     28          6           0        0.846561    3.046068   -1.365578
     29          1           0        0.277861    0.992366   -1.776947
     30          6           0        1.010461    3.647035    0.957810
     31          1           0        0.577115    2.089576    2.381178
     32          6           0        1.107226    3.996286   -0.384635
     33          1           0        0.922193    3.314631   -2.424143
     34          1           0        1.216317    4.392690    1.733028
     35          1           0        1.389507    5.015120   -0.668293
 ---------------------------------------------------------------------
                    Distance matrix (angstroms):
                    1          2          3          4          5
     1  C    0.000000
     2  H    1.124654   0.000000
     3  C    1.509235   2.125608   0.000000
     4  C    2.502407   2.509922   1.397255   0.000000
     5  C    2.544763   3.426562   1.396044   2.406053   0.000000
     6  C    3.788870   3.899722   2.418906   1.390223   2.776444
     7  H    2.698358   2.220774   2.164550   1.096103   3.403225
     8  C    3.817681   4.544557   2.419872   2.780220   1.389354
     9  H    2.751609   3.817716   2.157914   3.403498   1.104687
    10  C    4.305764   4.734076   2.796947   2.410697   2.407938
    11  H    4.657695   4.560999   3.409650   2.155710   3.871587
    12  H    4.697646   5.525145   3.409410   3.874932   2.154610
    13  H    5.400325   5.802880   3.891555   3.403087   3.400708
    14  C    1.509235   2.125608   2.503802   3.541677   3.136343
    15  C    2.502407   2.509922   3.541677   4.230029   4.372061
    16  C    2.544762   3.426562   3.137942   4.373998   3.152297
    17  C    3.788870   3.899722   4.718377   5.446082   5.325246
    18  H    2.698358   2.220774   3.752601   4.132395   4.837864
    19  C    3.817681   4.544557   4.424100   5.559092   4.380519
    20  H    2.751609   3.817716   3.022040   4.375610   2.617678
    21  C    4.305764   4.734076   5.080015   6.016127   5.331532
    22  H    4.657695   4.560999   5.602729   6.167549   6.313270
    23  H    4.697646   5.525145   5.153046   6.343354   4.840155
    24  H    5.400325   5.802880   6.141065   7.050472   6.321435
    25  C    1.509235   2.125608   2.503802   3.541677   3.137942
    26  C    2.544763   3.426562   3.136343   4.372061   3.152297
    27  C    2.502407   2.509922   3.541677   4.230029   4.373998
    28  C    3.817681   4.544557   4.422678   5.557180   4.381215
    29  H    2.751609   3.817716   3.019714   4.372896   2.615663
    30  C    3.788870   3.899722   4.718377   5.446082   5.327711
    31  H    2.698358   2.220774   3.753778   4.134201   4.840568
    32  C    4.305764   4.734076   5.080015   6.016127   5.334230
    33  H    4.697646   5.525145   5.151252   6.340892   4.840217
    34  H    4.657695   4.560999   5.603046   6.168037   6.316130
    35  H    5.400325   5.802880   6.141065   7.050472   6.324291
                    6          7          8          9         10
     6  C    0.000000
     7  H    2.153936   0.000000
     8  C    2.405443   3.876294   0.000000
     9  H    3.881091   4.310849   2.170332   0.000000
    10  C    1.390503   3.400923   1.390363   3.413198   0.000000
    11  H    1.095144   2.476491   3.398745   4.976226   2.157205
    12  H    3.399396   4.971011   1.094718   2.495385   2.158353
    13  H    2.158598   4.303261   2.158277   4.318267   1.094608
    14  C    4.718377   3.753778   4.422678   3.019714   5.080015
    15  C    5.446082   4.134201   5.557180   4.372896   6.016127
    16  C    5.327711   4.840568   4.381215   2.615663   5.334230
    17  C    6.554821   5.409504   6.454711   5.171494   7.000979
    18  H    5.407366   3.754753   5.963826   5.027094   6.206628
    19  C    6.457261   5.967027   5.475910   3.804415   6.425110
    20  H    5.175050   5.029816   3.807275   1.784934   4.948775
    21  C    7.000979   6.208669   6.422301   4.944700   7.182531
    22  H    7.276172   5.982200   7.399872   6.231433   7.832750
    23  H    7.116272   6.863707   5.816829   4.105302   6.891071
    24  H    7.983898   7.237272   7.348035   5.891595   8.120297
    25  C    4.718377   3.752601   4.424100   3.022040   5.080015
    26  C    5.325246   4.837864   4.380519   2.617678   5.331532
    27  C    5.446082   4.132395   5.559092   4.375610   6.016127
    28  C    6.454711   5.963826   5.475911   3.807275   6.422301
    29  H    5.171494   5.027094   3.804415   1.784934   4.944700
    30  C    6.554821   5.407366   6.457261   5.175050   7.000979
    31  H    5.409504   3.754753   5.967027   5.029816   6.208669
    32  C    7.000979   6.206628   6.425110   4.948775   7.182531
    33  H    7.112872   6.860155   5.815929   4.107771   6.887224
    34  H    7.276813   5.980317   7.403077   6.235192   7.833402
    35  H    7.983898   7.235074   7.351116   5.895888   8.120297
                   11         12         13         14         15
    11  H    0.000000
    12  H    4.304741   0.000000
    13  H    2.486716   2.488585   0.000000
    14  C    5.603046   5.151252   6.141065   0.000000
    15  C    6.168037   6.340892   7.050472   1.397255   0.000000
    16  C    6.316130   4.840217   6.324291   1.396044   2.406053
    17  C    7.276813   7.112872   7.983898   2.418906   1.390223
    18  H    5.980317   6.860155   7.235074   2.164550   1.096103
    19  C    7.403077   5.815929   7.351116   2.419872   2.780220
    20  H    6.235192   4.107771   5.895888   2.157914   3.403498
    21  C    7.833402   6.887224   8.120297   2.796947   2.410697
    22  H    7.894647   8.095857   8.794157   3.409650   2.155710
    23  H    8.099978   5.959166   7.742114   3.409410   3.874932
    24  H    8.794886   7.737816   9.013683   3.891555   3.403087
    25  C    5.602729   5.153046   6.141065   2.503803   3.541677
    26  C    6.313270   4.840155   6.321435   3.137942   4.373998
    27  C    6.167549   6.343354   7.050472   3.541677   4.230029
    28  C    7.399872   5.816829   7.348035   4.424100   5.559092
    29  H    6.231433   4.105302   5.891595   3.022040   4.375610
    30  C    7.276172   7.116272   7.983898   4.718377   5.446082
    31  H    5.982200   6.863707   7.237272   3.752601   4.132395
    32  C    7.832750   6.891071   8.120297   5.080015   6.016127
    33  H    8.095857   5.959166   7.737816   5.153046   6.343354
    34  H    7.894647   8.099978   8.794886   5.602729   6.167549
    35  H    8.794157   7.742113   9.013683   6.141065   7.050472
                   16         17         18         19         20
    16  C    0.000000
    17  C    2.776444   0.000000
    18  H    3.403225   2.153936   0.000000
    19  C    1.389354   2.405443   3.876294   0.000000
    20  H    1.104687   3.881091   4.310849   2.170332   0.000000
    21  C    2.407938   1.390503   3.400923   1.390363   3.413198
    22  H    3.871588   1.095144   2.476491   3.398745   4.976226
    23  H    2.154610   3.399396   4.971011   1.094718   2.495385
    24  H    3.400708   2.158598   4.303261   2.158277   4.318267
    25  C    3.136343   4.718377   3.753778   4.422678   3.019714
    26  C    3.152297   5.327711   4.840568   4.381215   2.615663
    27  C    4.372061   5.446082   4.134201   5.557180   4.372896
    28  C    4.380519   6.457261   5.967027   5.475911   3.804415
    29  H    2.617678   5.175050   5.029816   3.807275   1.784934
    30  C    5.325246   6.554821   5.409504   6.454711   5.171494
    31  H    4.837864   5.407366   3.754753   5.963826   5.027094
    32  C    5.331532   7.000979   6.208669   6.422301   4.944699
    33  H    4.840155   7.116272   6.863707   5.816829   4.105302
    34  H    6.313270   7.276172   5.982200   7.399872   6.231433
    35  H    6.321435   7.983898   7.237272   7.348035   5.891595
                   21         22         23         24         25
    21  C    0.000000
    22  H    2.157205   0.000000
    23  H    2.158353   4.304741   0.000000
    24  H    1.094608   2.486716   2.488585   0.000000
    25  C    5.080015   5.603047   5.151252   6.141065   0.000000
    26  C    5.334230   6.316130   4.840217   6.324291   1.396044
    27  C    6.016127   6.168037   6.340892   7.050472   1.397255
    28  C    6.425110   7.403077   5.815929   7.351116   2.419872
    29  H    4.948775   6.235192   4.107771   5.895888   2.157914
    30  C    7.000979   7.276813   7.112872   7.983898   2.418906
    31  H    6.206628   5.980317   6.860155   7.235074   2.164550
    32  C    7.182531   7.833402   6.887224   8.120297   2.796947
    33  H    6.891071   8.099978   5.959166   7.742114   3.409410
    34  H    7.832750   7.894647   8.095857   8.794157   3.409650
    35  H    8.120297   8.794886   7.737816   9.013683   3.891555
                   26         27         28         29         30
    26  C    0.000000
    27  C    2.406053   0.000000
    28  C    1.389354   2.780220   0.000000
    29  H    1.104687   3.403498   2.170332   0.000000
    30  C    2.776444   1.390223   2.405443   3.881091   0.000000
    31  H    3.403225   1.096103   3.876294   4.310849   2.153936
    32  C    2.407938   2.410697   1.390363   3.413198   1.390503
    33  H    2.154610   3.874932   1.094718   2.495385   3.399396
    34  H    3.871587   2.155710   3.398745   4.976226   1.095144
    35  H    3.400707   3.403087   2.158277   4.318267   2.158598
                   31         32         33         34         35
    31  H    0.000000
    32  C    3.400923   0.000000
    33  H    4.971011   2.158353   0.000000
    34  H    2.476491   2.157205   4.304741   0.000000
    35  H    4.303261   1.094608   2.488585   2.486716   0.000000
 Stoichiometry    C19H16
 Framework group  C3[C3(CH),X(C18H15)]
 Deg. of freedom    33
 Full point group                 C3      NOp   3
 Largest Abelian subgroup         C1      NOp   1
 Largest concise Abelian subgroup C1      NOp   1
                         Standard orientation:                         
 ---------------------------------------------------------------------
 Center     Atomic      Atomic             Coordinates (Angstroms)
 Number     Number       Type             X           Y           Z
 ---------------------------------------------------------------------
      1          6           0        0.000000    0.000000    0.760302
      2          1           0        0.000000    0.000000    1.884955
      3          6           0        1.251901    0.722785    0.326580
      4          6           0        2.115015    1.221104    1.305883
      5          6           0        1.577149    0.908254   -1.018319
      6          6           0        3.277411    1.892214    0.943714
      7          1           0        1.876494    1.085432    2.367082
      8          6           0        2.739210    1.578583   -1.379673
      9          1           0        0.893867    0.512833   -1.791042
     10          6           0        3.591266    2.073418   -0.398730
     11          1           0        3.946968    2.279604    1.718933
     12          1           0        2.981426    1.717066   -2.438239
     13          1           0        4.506842    2.602026   -0.682388
     14          6           0        0.000000   -1.445571    0.326580
     15          6           0        0.000000   -2.442209    1.305883
     16          6           0       -0.002003   -1.819978   -1.018319
     17          6           0        0.000000   -3.784428    0.943714
     18          1           0        0.001764   -2.167807    2.367082
     19          6           0       -0.002512   -3.161517   -1.379673
     20          1           0       -0.002807   -1.030528   -1.791042
     21          6           0        0.000000   -4.146836   -0.398730
     22          1           0        0.000711   -4.557976    1.718933
     23          1           0       -0.003690   -3.440524   -2.438239
     24          1           0        0.000000   -5.204052   -0.682388
     25          6           0       -1.251901    0.722786    0.326580
     26          6           0       -1.575146    0.911724   -1.018319
     27          6           0       -2.115015    1.221104    1.305883
     28          6           0       -2.736698    1.582934   -1.379673
     29          1           0       -0.891060    0.517695   -1.791042
     30          6           0       -3.277411    1.892214    0.943714
     31          1           0       -1.878258    1.082376    2.367082
     32          6           0       -3.591266    2.073418   -0.398730
     33          1           0       -2.977736    1.723458   -2.438239
     34          1           0       -3.947679    2.278372    1.718933
     35          1           0       -4.506842    2.602026   -0.682388
 ---------------------------------------------------------------------
 Rotational constants (GHZ):      0.3813800      0.3813800      0.2404764
 Standard basis: 6-311G (5D, 7F)
 There are   295 symmetry adapted basis functions of A   symmetry.
 Integral buffers will be    262144 words long.
 Raffenetti 1 integral format.
 Two-electron integral symmetry is turned on.
   295 basis functions,   574 primitive gaussians,   295 cartesian basis functions
    65 alpha electrons       65 beta electrons
       nuclear repulsion energy      1288.1800292510 Hartrees.
 NAtoms=   35 NActive=   35 NUniq=   13 SFac= 3.00D+00 NAtFMM=   80 NAOKFM=F Big=F
 One-electron integrals computed using PRISM.
 PrsmSu:  requested number of processors reduced to:  10 ShMem   1 Linda.
 NBasis=   295 RedAO= T  NBF=   295
 NBsUse=   295 1.00D-06 NBFU=   295
 Harris functional with IExCor=  205 diagonalized for initial guess.
 ExpMin= 1.03D-01 ExpMax= 4.56D+03 ExpMxC= 6.82D+02 IAcc=1 IRadAn=         1 AccDes= 0.00D+00
 HarFok:  IExCor=  205 AccDes= 0.00D+00 IRadAn=         1 IDoV= 1
 ScaDFX=  1.000000  1.000000  1.000000  1.000000
 FoFCou: FMM=F IPFlag=           0 FMFlag=      100000 FMFlg1=           0
         NFxFlg=           0 DoJE=T BraDBF=F KetDBF=T FulRan=T
         Omega=  0.000000  0.000000  1.000000  0.000000  0.000000 ICntrl=     500 IOpCl=  0
         NMat0=    1 NMatS0=    1 NMatT0=    0 NMatD0=    1 NMtDS0=    0 NMtDT0=    0
         I1Cent=           4 NGrid=           0.
 Petite list used in FoFCou.
 Initial guess orbital symmetries:
       Occupied  (E) (E) (A) (A) (E) (E) (E) (E) (A) (A) (E) (E)
                 (E) (E) (A) (E) (E) (A) (A) (A) (E) (E) (A) (A)
                 (E) (E) (E) (E) (A) (A) (E) (E) (E) (E) (A) (E)
                 (E) (A) (A) (E) (E) (A) (E) (E) (A) (E) (E) (E)
                 (E) (A) (A) (E) (E) (A) (E) (E) (E) (E) (A) (E)
                 (E) (A) (E) (E) (A)
       Virtual   (E) (E) (E) (E) (A) (A) (A) (A) (E) (E) (E) (E)
                 (A) (A) (E) (E) (A) (A) (E) (E) (E) (E) (A) (A)
                 (E) (E) (E) (E) (A) (A) (E) (E) (E) (E) (A) (E)
                 (E) (E) (E) (A) (A) (E) (E) (A) (E) (E) (A) (A)
                 (E) (E) (A) (E) (E) (A) (E) (E) (A) (E) (E) (E)
                 (E) (E) (E) (A) (E) (E) (A) (E) (E) (A) (E) (E)
                 (A) (A) (E) (E) (E) (E) (A) (A) (E) (E) (A) (E)
                 (E) (E) (E) (A) (A) (E) (E) (A) (E) (E) (A) (A)
                 (E) (E) (E) (E) (A) (A) (E) (E) (A) (A) (E) (E)
                 (A) (E) (E) (A) (E) (E) (E) (E) (A) (E) (E) (E)
                 (E) (A) (A) (E) (E) (A) (E) (E) (E) (E) (A) (E)
                 (E) (A) (A) (E) (E) (A) (A) (E) (E) (A) (E) (E)
                 (A) (E) (E) (A) (E) (E) (A) (E) (E) (A) (E) (E)
                 (E) (E) (A) (A) (A) (E) (E) (A) (A) (E) (E) (E)
                 (E) (E) (E) (A) (E) (E) (A) (A) (E) (E) (A) (E)
                 (E) (E) (E) (A) (E) (E) (A) (E) (E) (A) (E) (E)
                 (A) (E) (E) (E) (E) (A) (E) (E) (A) (A) (E) (E)
                 (A) (E) (E) (A) (E) (E) (A) (A) (E) (E) (A) (E)
                 (E) (A) (E) (E) (A) (E) (E) (A) (E) (E) (A) (A)
                 (E) (E)
 The electronic state of the initial guess is 1-A.
 Requested convergence on RMS density matrix=1.00D-08 within 128 cycles.
 Requested convergence on MAX density matrix=1.00D-06.
 Requested convergence on             energy=1.00D-06.
 No special actions if energy rises.
 Integral accuracy reduced to 1.0D-05 until final iterations.
 Initial convergence to 1.0D-05 achieved.  Increase integral accuracy.
 SCF Done:  E(RHF) =  -728.661917128     A.U. after   14 cycles
             Convg  =    0.5515D-08             -V/T =  2.0001

 **********************************************************************

            Population analysis using the SCF density.

 **********************************************************************

 Orbital symmetries:
       Occupied  (A) (E) (E) (A) (E) (E) (A) (E) (E) (A) (E) (E)
                 (A) (E) (E) (A) (E) (E) (A) (A) (E) (E) (A) (A)
                 (E) (E) (E) (E) (A) (A) (E) (E) (E) (E) (A) (E)
                 (E) (A) (A) (E) (E) (A) (E) (E) (A) (E) (E) (E)
                 (E) (A) (A) (E) (E) (A) (E) (E) (A) (E) (E) (E)
                 (E) (E) (E) (A) (A)
       Virtual   (E) (E) (E) (E) (A) (A) (A) (E) (E) (A) (A) (E)
                 (E) (A) (E) (E) (A) (E) (E) (A) (E) (E) (A) (E)
                 (E) (A) (E) (E) (A) (A) (E) (E) (A) (E) (E) (E)
                 (E) (A) (E) (E) (A) (E) (E) (A) (E) (E) (A) (A)
                 (E) (E) (A) (E) (E) (E) (E) (A) (A) (E) (E) (E)
                 (E) (E) (E) (A) (A) (E) (E) (E) (E) (A) (A) (E)
                 (E) (E) (E) (A) (E) (E) (A) (E) (E) (A) (A) (E)
                 (E) (E) (E) (A) (A) (E) (E) (E) (E) (A) (A) (A)
                 (E) (E) (A) (E) (E) (A) (A) (E) (E) (E) (E) (A)
                 (A) (E) (E) (E) (E) (A) (A) (E) (E) (E) (E) (A)
                 (E) (E) (A) (E) (E) (A) (E) (E) (E) (E) (A) (E)
                 (E) (A) (A) (E) (E) (A) (A) (E) (E) (A) (E) (E)
                 (A) (A) (E) (E) (E) (E) (A) (A) (E) (E) (A) (E)
                 (E) (E) (E) (A) (E) (E) (A) (A) (E) (E) (A) (E)
                 (E) (E) (E) (A) (E) (E) (A) (A) (E) (E) (A) (E)
                 (E) (E) (E) (A) (A) (E) (E) (E) (E) (A) (E) (E)
                 (A) (E) (E) (E) (E) (A) (E) (E) (A) (A) (E) (E)
                 (E) (E) (A) (A) (E) (E) (A) (A) (E) (E) (A) (E)
                 (E) (A) (E) (E) (A) (A) (E) (E) (E) (E) (A) (A)
                 (E) (E)
 The electronic state is 1-A.
 Alpha  occ. eigenvalues --  -11.25904 -11.25315 -11.25315 -11.25308 -11.24431
 Alpha  occ. eigenvalues --  -11.24431 -11.24431 -11.24317 -11.24317 -11.24317
 Alpha  occ. eigenvalues --  -11.24171 -11.24171 -11.24170 -11.24080 -11.24080
 Alpha  occ. eigenvalues --  -11.24080 -11.23982 -11.23982 -11.23982  -1.18658
 Alpha  occ. eigenvalues --   -1.15800  -1.15800  -1.09081  -1.02577  -1.01975
 Alpha  occ. eigenvalues --   -1.01975  -1.01534  -1.01534  -0.93066  -0.85060
 Alpha  occ. eigenvalues --   -0.82363  -0.82363  -0.81934  -0.81934  -0.78031
 Alpha  occ. eigenvalues --   -0.70467  -0.70467  -0.69872  -0.66400  -0.63086
 Alpha  occ. eigenvalues --   -0.63086  -0.62912  -0.62302  -0.62302  -0.59928
 Alpha  occ. eigenvalues --   -0.58660  -0.58660  -0.57957  -0.57957  -0.53388
 Alpha  occ. eigenvalues --   -0.52143  -0.51248  -0.51248  -0.49543  -0.48625
 Alpha  occ. eigenvalues --   -0.48625  -0.48111  -0.47201  -0.47201  -0.34394
 Alpha  occ. eigenvalues --   -0.34394  -0.33779  -0.33779  -0.33417  -0.31070
 Alpha virt. eigenvalues --    0.12120   0.12120   0.12789   0.12789   0.14083
 Alpha virt. eigenvalues --    0.15510   0.15692   0.16375   0.16375   0.16684
 Alpha virt. eigenvalues --    0.18461   0.19285   0.19285   0.21245   0.21594
 Alpha virt. eigenvalues --    0.21594   0.23778   0.24507   0.24507   0.28407
 Alpha virt. eigenvalues --    0.30982   0.30982   0.33868   0.33992   0.33992
 Alpha virt. eigenvalues --    0.38185   0.39429   0.39429   0.40124   0.43670
 Alpha virt. eigenvalues --    0.44518   0.44518   0.44816   0.45918   0.45918
 Alpha virt. eigenvalues --    0.46987   0.46987   0.48786   0.50133   0.50133
 Alpha virt. eigenvalues --    0.50772   0.52410   0.52410   0.55403   0.57108
 Alpha virt. eigenvalues --    0.57108   0.57366   0.58296   0.58680   0.58680
 Alpha virt. eigenvalues --    0.58966   0.60514   0.60514   0.61962   0.61962
 Alpha virt. eigenvalues --    0.62016   0.62151   0.63137   0.63137   0.63900
 Alpha virt. eigenvalues --    0.63900   0.65382   0.65382   0.65728   0.65990
 Alpha virt. eigenvalues --    0.66930   0.66930   0.68944   0.68944   0.70498
 Alpha virt. eigenvalues --    0.71463   0.74290   0.74290   0.75593   0.75593
 Alpha virt. eigenvalues --    0.76043   0.78744   0.78744   0.79607   0.81306
 Alpha virt. eigenvalues --    0.81306   0.81937   0.82771   0.82797   0.82797
 Alpha virt. eigenvalues --    0.83483   0.83483   0.84093   0.84268   0.86387
 Alpha virt. eigenvalues --    0.86387   0.86746   0.86746   0.86978   0.88620
 Alpha virt. eigenvalues --    0.89532   0.90394   0.90394   0.95748   0.96691
 Alpha virt. eigenvalues --    0.96691   0.96856   0.97616   0.98004   0.98004
 Alpha virt. eigenvalues --    1.00687   1.00687   1.02857   1.06072   1.06226
 Alpha virt. eigenvalues --    1.06226   1.07658   1.07658   1.08069   1.11069
 Alpha virt. eigenvalues --    1.11902   1.11902   1.12626   1.12626   1.12991
 Alpha virt. eigenvalues --    1.14537   1.14537   1.15116   1.22645   1.22645
 Alpha virt. eigenvalues --    1.25061   1.25904   1.25904   1.27817   1.27817
 Alpha virt. eigenvalues --    1.31099   1.38602   1.38602   1.38916   1.43677
 Alpha virt. eigenvalues --    1.52660   1.52660   1.55412   2.45107   2.55198
 Alpha virt. eigenvalues --    2.55198   2.56984   2.62125   2.62125   2.63069
 Alpha virt. eigenvalues --    2.66404   2.67298   2.67298   2.77822   2.77822
 Alpha virt. eigenvalues --    2.78236   2.83367   2.89146   2.89146   2.94001
 Alpha virt. eigenvalues --    2.94071   2.94071   2.96566   2.96566   2.98230
 Alpha virt. eigenvalues --    3.00825   3.00825   3.04218   3.04750   3.08406
 Alpha virt. eigenvalues --    3.08406   3.09148   3.09750   3.09750   3.13039
 Alpha virt. eigenvalues --    3.13039   3.15940   3.16630   3.16630   3.19342
 Alpha virt. eigenvalues --    3.22847   3.24351   3.24351   3.29214   3.30393
 Alpha virt. eigenvalues --    3.30393   3.33702   3.33702   3.34691   3.43652
 Alpha virt. eigenvalues --    3.44349   3.44349   3.48465   3.48465   3.51034
 Alpha virt. eigenvalues --    3.52861   3.52861   3.59328   3.59760   3.59760
 Alpha virt. eigenvalues --    3.62699   3.62699   3.63247   3.65552   3.65552
 Alpha virt. eigenvalues --    3.66508   3.68447   3.71014   3.71014   3.74566
 Alpha virt. eigenvalues --    3.74566   3.76283   3.80854   3.84788   3.84788
 Alpha virt. eigenvalues --    3.98408  24.23880  24.30683  24.30683  24.50336
 Alpha virt. eigenvalues --   24.50780  24.50780  24.53770  24.54630  24.54630
 Alpha virt. eigenvalues --   24.76549  24.78615  24.78773  24.78773  24.81072
 Alpha virt. eigenvalues --   24.81072  24.82954  25.04360  25.06491  25.06491
          Condensed to atoms (all electrons):
              1          2          3          4          5          6
     1  C    5.769887   0.437614   0.198498  -0.022312  -0.052259   0.007780
     2  H    0.437614   0.507737  -0.063971   0.003072   0.005138   0.001720
     3  C    0.198498  -0.063971   5.405074   0.505777   0.426046  -0.075537
     4  C   -0.022312   0.003072   0.505777   5.045683  -0.063226   0.470011
     5  C   -0.052259   0.005138   0.426046  -0.063226   5.081415  -0.028297
     6  C    0.007780   0.001720  -0.075537   0.470011  -0.028297   5.043788
     7  H   -0.000724   0.003395  -0.045980   0.393547   0.004558  -0.033462
     8  C    0.001664  -0.000298  -0.055381  -0.035101   0.483138  -0.078051
     9  H    0.002878   0.000004  -0.059213   0.004159   0.385195   0.000084
    10  C    0.001289   0.000000  -0.021400  -0.085262  -0.093060   0.499899
    11  H   -0.000377  -0.000043   0.007507  -0.040184  -0.000735   0.397009
    12  H   -0.000297   0.000012   0.005976  -0.000516  -0.038148   0.005939
    13  H   -0.000011  -0.000002  -0.001589   0.007564   0.008365  -0.042973
    14  C    0.198498  -0.063971  -0.155160  -0.002702  -0.003993  -0.000563
    15  C   -0.022312   0.003072  -0.002674   0.000718   0.000215  -0.000027
    16  C   -0.052259   0.005138  -0.004081   0.000214  -0.009809   0.000094
    17  C    0.007780   0.001720  -0.000556  -0.000027   0.000095   0.000003
    18  H   -0.000724   0.003395   0.000301   0.000141  -0.000040   0.000001
    19  C    0.001664  -0.000298   0.001916   0.000034  -0.000318  -0.000001
    20  H    0.002878   0.000004  -0.001987  -0.000326  -0.000464  -0.000016
    21  C    0.001289   0.000000  -0.000059  -0.000008  -0.000017   0.000000
    22  H   -0.000377  -0.000043   0.000018   0.000001   0.000000   0.000000
    23  H   -0.000297   0.000012   0.000018   0.000001   0.000030   0.000000
    24  H   -0.000011  -0.000002  -0.000002   0.000000   0.000000   0.000000
    25  C    0.198498  -0.063971  -0.155160  -0.002674  -0.004081  -0.000556
    26  C   -0.052259   0.005138  -0.003993   0.000215  -0.009809   0.000095
    27  C   -0.022312   0.003072  -0.002702   0.000718   0.000214  -0.000027
    28  C    0.001664  -0.000298   0.001905   0.000034  -0.000309  -0.000001
    29  H    0.002878   0.000004  -0.001994  -0.000327  -0.000375  -0.000017
    30  C    0.007780   0.001720  -0.000563  -0.000027   0.000094   0.000003
    31  H   -0.000724   0.003395   0.000304   0.000141  -0.000040   0.000001
    32  C    0.001289   0.000000  -0.000055  -0.000008  -0.000017   0.000000
    33  H   -0.000297   0.000012   0.000018   0.000001   0.000030   0.000000
    34  H   -0.000377  -0.000043   0.000018   0.000001   0.000000   0.000000
    35  H   -0.000011  -0.000002  -0.000002   0.000000   0.000001   0.000000
              7          8          9         10         11         12
     1  C   -0.000724   0.001664   0.002878   0.001289  -0.000377  -0.000297
     2  H    0.003395  -0.000298   0.000004   0.000000  -0.000043   0.000012
     3  C   -0.045980  -0.055381  -0.059213  -0.021400   0.007507   0.005976
     4  C    0.393547  -0.035101   0.004159  -0.085262  -0.040184  -0.000516
     5  C    0.004558   0.483138   0.385195  -0.093060  -0.000735  -0.038148
     6  C   -0.033462  -0.078051   0.000084   0.499899   0.397009   0.005939
     7  H    0.511766  -0.000173  -0.000304   0.005139  -0.004160   0.000027
     8  C   -0.000173   5.036917  -0.021661   0.494632   0.006429   0.396528
     9  H   -0.000304  -0.021661   0.530423   0.004626   0.000022  -0.003436
    10  C    0.005139   0.494632   0.004626   5.031986  -0.041427  -0.039204
    11  H   -0.004160   0.006429   0.000022  -0.041427   0.518850  -0.000208
    12  H    0.000027   0.396528  -0.003436  -0.039204  -0.000208   0.515220
    13  H   -0.000190  -0.043090  -0.000208   0.399273  -0.004669  -0.004431
    14  C    0.000304   0.001905  -0.001994  -0.000055   0.000018   0.000018
    15  C    0.000141   0.000034  -0.000327  -0.000008   0.000001   0.000001
    16  C   -0.000040  -0.000309  -0.000375  -0.000017   0.000000   0.000030
    17  C    0.000001  -0.000001  -0.000017   0.000000   0.000000   0.000000
    18  H    0.000027   0.000000   0.000001   0.000000   0.000000   0.000000
    19  C    0.000000  -0.000066   0.000938   0.000001   0.000000  -0.000001
    20  H    0.000001   0.000929  -0.002488  -0.000010   0.000000  -0.000027
    21  C    0.000000   0.000001  -0.000010   0.000000   0.000000   0.000000
    22  H    0.000000   0.000000   0.000000   0.000000   0.000000   0.000000
    23  H    0.000000  -0.000001  -0.000026   0.000000   0.000000   0.000000
    24  H    0.000000   0.000000   0.000000   0.000000   0.000000   0.000000
    25  C    0.000301   0.001916  -0.001987  -0.000059   0.000018   0.000018
    26  C   -0.000040  -0.000318  -0.000464  -0.000017   0.000000   0.000030
    27  C    0.000141   0.000034  -0.000326  -0.000008   0.000001   0.000001
    28  C    0.000000  -0.000066   0.000929   0.000001   0.000000  -0.000001
    29  H    0.000001   0.000938  -0.002488  -0.000010   0.000000  -0.000026
    30  C    0.000001  -0.000001  -0.000016   0.000000   0.000000   0.000000
    31  H    0.000027   0.000000   0.000001   0.000000   0.000000   0.000000
    32  C    0.000000   0.000001  -0.000010   0.000000   0.000000   0.000000
    33  H    0.000000  -0.000001  -0.000027   0.000000   0.000000   0.000000
    34  H    0.000000   0.000000   0.000000   0.000000   0.000000   0.000000
    35  H    0.000000   0.000000   0.000000   0.000000   0.000000   0.000000
             13         14         15         16         17         18
     1  C   -0.000011   0.198498  -0.022312  -0.052259   0.007780  -0.000724
     2  H   -0.000002  -0.063971   0.003072   0.005138   0.001720   0.003395
     3  C   -0.001589  -0.155160  -0.002674  -0.004081  -0.000556   0.000301
     4  C    0.007564  -0.002702   0.000718   0.000214  -0.000027   0.000141
     5  C    0.008365  -0.003993   0.000215  -0.009809   0.000095  -0.000040
     6  C   -0.042973  -0.000563  -0.000027   0.000094   0.000003   0.000001
     7  H   -0.000190   0.000304   0.000141  -0.000040   0.000001   0.000027
     8  C   -0.043090   0.001905   0.000034  -0.000309  -0.000001   0.000000
     9  H   -0.000208  -0.001994  -0.000327  -0.000375  -0.000017   0.000001
    10  C    0.399273  -0.000055  -0.000008  -0.000017   0.000000   0.000000
    11  H   -0.004669   0.000018   0.000001   0.000000   0.000000   0.000000
    12  H   -0.004431   0.000018   0.000001   0.000030   0.000000   0.000000
    13  H    0.518169  -0.000002   0.000000   0.000001   0.000000   0.000000
    14  C   -0.000002   5.405074   0.505777   0.426046  -0.075537  -0.045980
    15  C    0.000000   0.505777   5.045683  -0.063226   0.470011   0.393547
    16  C    0.000001   0.426046  -0.063226   5.081415  -0.028297   0.004558
    17  C    0.000000  -0.075537   0.470011  -0.028297   5.043788  -0.033462
    18  H    0.000000  -0.045980   0.393547   0.004558  -0.033462   0.511766
    19  C    0.000000  -0.055381  -0.035101   0.483138  -0.078051  -0.000173
    20  H    0.000000  -0.059213   0.004159   0.385195   0.000084  -0.000304
    21  C    0.000000  -0.021400  -0.085262  -0.093060   0.499899   0.005139
    22  H    0.000000   0.007507  -0.040184  -0.000735   0.397009  -0.004160
    23  H    0.000000   0.005976  -0.000516  -0.038148   0.005939   0.000027
    24  H    0.000000  -0.001589   0.007564   0.008365  -0.042973  -0.000190
    25  C   -0.000002  -0.155160  -0.002702  -0.003993  -0.000563   0.000304
    26  C    0.000000  -0.004081   0.000214  -0.009809   0.000094  -0.000040
    27  C    0.000000  -0.002674   0.000718   0.000215  -0.000027   0.000141
    28  C    0.000000   0.001916   0.000034  -0.000318  -0.000001   0.000000
    29  H    0.000000  -0.001987  -0.000326  -0.000464  -0.000016   0.000001
    30  C    0.000000  -0.000556  -0.000027   0.000095   0.000003   0.000001
    31  H    0.000000   0.000301   0.000141  -0.000040   0.000001   0.000027
    32  C    0.000000  -0.000059  -0.000008  -0.000017   0.000000   0.000000
    33  H    0.000000   0.000018   0.000001   0.000030   0.000000   0.000000
    34  H    0.000000   0.000018   0.000001   0.000000   0.000000   0.000000
    35  H    0.000000  -0.000002   0.000000   0.000000   0.000000   0.000000
             19         20         21         22         23         24
     1  C    0.001664   0.002878   0.001289  -0.000377  -0.000297  -0.000011
     2  H   -0.000298   0.000004   0.000000  -0.000043   0.000012  -0.000002
     3  C    0.001916  -0.001987  -0.000059   0.000018   0.000018  -0.000002
     4  C    0.000034  -0.000326  -0.000008   0.000001   0.000001   0.000000
     5  C   -0.000318  -0.000464  -0.000017   0.000000   0.000030   0.000000
     6  C   -0.000001  -0.000016   0.000000   0.000000   0.000000   0.000000
     7  H    0.000000   0.000001   0.000000   0.000000   0.000000   0.000000
     8  C   -0.000066   0.000929   0.000001   0.000000  -0.000001   0.000000
     9  H    0.000938  -0.002488  -0.000010   0.000000  -0.000026   0.000000
    10  C    0.000001  -0.000010   0.000000   0.000000   0.000000   0.000000
    11  H    0.000000   0.000000   0.000000   0.000000   0.000000   0.000000
    12  H   -0.000001  -0.000027   0.000000   0.000000   0.000000   0.000000
    13  H    0.000000   0.000000   0.000000   0.000000   0.000000   0.000000
    14  C   -0.055381  -0.059213  -0.021400   0.007507   0.005976  -0.001589
    15  C   -0.035101   0.004159  -0.085262  -0.040184  -0.000516   0.007564
    16  C    0.483138   0.385195  -0.093060  -0.000735  -0.038148   0.008365
    17  C   -0.078051   0.000084   0.499899   0.397009   0.005939  -0.042973
    18  H   -0.000173  -0.000304   0.005139  -0.004160   0.000027  -0.000190
    19  C    5.036917  -0.021661   0.494632   0.006429   0.396528  -0.043090
    20  H   -0.021661   0.530423   0.004626   0.000022  -0.003436  -0.000208
    21  C    0.494632   0.004626   5.031986  -0.041427  -0.039204   0.399273
    22  H    0.006429   0.000022  -0.041427   0.518850  -0.000208  -0.004669
    23  H    0.396528  -0.003436  -0.039204  -0.000208   0.515220  -0.004431
    24  H   -0.043090  -0.000208   0.399273  -0.004669  -0.004431   0.518169
    25  C    0.001905  -0.001994  -0.000055   0.000018   0.000018  -0.000002
    26  C   -0.000309  -0.000375  -0.000017   0.000000   0.000030   0.000001
    27  C    0.000034  -0.000327  -0.000008   0.000001   0.000001   0.000000
    28  C   -0.000066   0.000938   0.000001   0.000000  -0.000001   0.000000
    29  H    0.000929  -0.002488  -0.000010   0.000000  -0.000027   0.000000
    30  C   -0.000001  -0.000017   0.000000   0.000000   0.000000   0.000000
    31  H    0.000000   0.000001   0.000000   0.000000   0.000000   0.000000
    32  C    0.000001  -0.000010   0.000000   0.000000   0.000000   0.000000
    33  H   -0.000001  -0.000026   0.000000   0.000000   0.000000   0.000000
    34  H    0.000000   0.000000   0.000000   0.000000   0.000000   0.000000
    35  H    0.000000   0.000000   0.000000   0.000000   0.000000   0.000000
             25         26         27         28         29         30
     1  C    0.198498  -0.052259  -0.022312   0.001664   0.002878   0.007780
     2  H   -0.063971   0.005138   0.003072  -0.000298   0.000004   0.001720
     3  C   -0.155160  -0.003993  -0.002702   0.001905  -0.001994  -0.000563
     4  C   -0.002674   0.000215   0.000718   0.000034  -0.000327  -0.000027
     5  C   -0.004081  -0.009809   0.000214  -0.000309  -0.000375   0.000094
     6  C   -0.000556   0.000095  -0.000027  -0.000001  -0.000017   0.000003
     7  H    0.000301  -0.000040   0.000141   0.000000   0.000001   0.000001
     8  C    0.001916  -0.000318   0.000034  -0.000066   0.000938  -0.000001
     9  H   -0.001987  -0.000464  -0.000326   0.000929  -0.002488  -0.000016
    10  C   -0.000059  -0.000017  -0.000008   0.000001  -0.000010   0.000000
    11  H    0.000018   0.000000   0.000001   0.000000   0.000000   0.000000
    12  H    0.000018   0.000030   0.000001  -0.000001  -0.000026   0.000000
    13  H   -0.000002   0.000000   0.000000   0.000000   0.000000   0.000000
    14  C   -0.155160  -0.004081  -0.002674   0.001916  -0.001987  -0.000556
    15  C   -0.002702   0.000214   0.000718   0.000034  -0.000326  -0.000027
    16  C   -0.003993  -0.009809   0.000215  -0.000318  -0.000464   0.000095
    17  C   -0.000563   0.000094  -0.000027  -0.000001  -0.000016   0.000003
    18  H    0.000304  -0.000040   0.000141   0.000000   0.000001   0.000001
    19  C    0.001905  -0.000309   0.000034  -0.000066   0.000929  -0.000001
    20  H   -0.001994  -0.000375  -0.000327   0.000938  -0.002488  -0.000017
    21  C   -0.000055  -0.000017  -0.000008   0.000001  -0.000010   0.000000
    22  H    0.000018   0.000000   0.000001   0.000000   0.000000   0.000000
    23  H    0.000018   0.000030   0.000001  -0.000001  -0.000027   0.000000
    24  H   -0.000002   0.000001   0.000000   0.000000   0.000000   0.000000
    25  C    5.405074   0.426046   0.505777  -0.055381  -0.059213  -0.075537
    26  C    0.426046   5.081415  -0.063226   0.483138   0.385195  -0.028297
    27  C    0.505777  -0.063226   5.045683  -0.035101   0.004159   0.470011
    28  C   -0.055381   0.483138  -0.035101   5.036917  -0.021661  -0.078051
    29  H   -0.059213   0.385195   0.004159  -0.021661   0.530423   0.000084
    30  C   -0.075537  -0.028297   0.470011  -0.078051   0.000084   5.043788
    31  H   -0.045980   0.004558   0.393547  -0.000173  -0.000304  -0.033462
    32  C   -0.021400  -0.093060  -0.085262   0.494632   0.004626   0.499899
    33  H    0.005976  -0.038148  -0.000516   0.396528  -0.003436   0.005939
    34  H    0.007507  -0.000735  -0.040184   0.006429   0.000022   0.397009
    35  H   -0.001589   0.008365   0.007564  -0.043090  -0.000208  -0.042973
             31         32         33         34         35
     1  C   -0.000724   0.001289  -0.000297  -0.000377  -0.000011
     2  H    0.003395   0.000000   0.000012  -0.000043  -0.000002
     3  C    0.000304  -0.000055   0.000018   0.000018  -0.000002
     4  C    0.000141  -0.000008   0.000001   0.000001   0.000000
     5  C   -0.000040  -0.000017   0.000030   0.000000   0.000001
     6  C    0.000001   0.000000   0.000000   0.000000   0.000000
     7  H    0.000027   0.000000   0.000000   0.000000   0.000000
     8  C    0.000000   0.000001  -0.000001   0.000000   0.000000
     9  H    0.000001  -0.000010  -0.000027   0.000000   0.000000
    10  C    0.000000   0.000000   0.000000   0.000000   0.000000
    11  H    0.000000   0.000000   0.000000   0.000000   0.000000
    12  H    0.000000   0.000000   0.000000   0.000000   0.000000
    13  H    0.000000   0.000000   0.000000   0.000000   0.000000
    14  C    0.000301  -0.000059   0.000018   0.000018  -0.000002
    15  C    0.000141  -0.000008   0.000001   0.000001   0.000000
    16  C   -0.000040  -0.000017   0.000030   0.000000   0.000000
    17  C    0.000001   0.000000   0.000000   0.000000   0.000000
    18  H    0.000027   0.000000   0.000000   0.000000   0.000000
    19  C    0.000000   0.000001  -0.000001   0.000000   0.000000
    20  H    0.000001  -0.000010  -0.000026   0.000000   0.000000
    21  C    0.000000   0.000000   0.000000   0.000000   0.000000
    22  H    0.000000   0.000000   0.000000   0.000000   0.000000
    23  H    0.000000   0.000000   0.000000   0.000000   0.000000
    24  H    0.000000   0.000000   0.000000   0.000000   0.000000
    25  C   -0.045980  -0.021400   0.005976   0.007507  -0.001589
    26  C    0.004558  -0.093060  -0.038148  -0.000735   0.008365
    27  C    0.393547  -0.085262  -0.000516  -0.040184   0.007564
    28  C   -0.000173   0.494632   0.396528   0.006429  -0.043090
    29  H   -0.000304   0.004626  -0.003436   0.000022  -0.000208
    30  C   -0.033462   0.499899   0.005939   0.397009  -0.042973
    31  H    0.511766   0.005139   0.000027  -0.004160  -0.000190
    32  C    0.005139   5.031986  -0.039204  -0.041427   0.399273
    33  H    0.000027  -0.039204   0.515220  -0.000208  -0.004431
    34  H   -0.004160  -0.041427  -0.000208   0.518850  -0.004669
    35  H   -0.000190   0.399273  -0.004431  -0.004669   0.518169
 Mulliken atomic charges:
              1
     1  C   -0.615890
     2  H    0.207563
     3  C    0.098684
     4  C   -0.179336
     5  C   -0.089538
     6  C   -0.166899
     7  H    0.165696
     8  C   -0.190548
     9  H    0.166117
    10  C   -0.156308
    11  H    0.161950
    12  H    0.162495
    13  H    0.163795
    14  C    0.098684
    15  C   -0.179336
    16  C   -0.089538
    17  C   -0.166899
    18  H    0.165696
    19  C   -0.190548
    20  H    0.166117
    21  C   -0.156308
    22  H    0.161950
    23  H    0.162495
    24  H    0.163795
    25  C    0.098684
    26  C   -0.089538
    27  C   -0.179336
    28  C   -0.190548
    29  H    0.166117
    30  C   -0.166899
    31  H    0.165696
    32  C   -0.156308
    33  H    0.162495
    34  H    0.161950
    35  H    0.163795
 Sum of Mulliken atomic charges =   0.00000
 Mulliken charges with hydrogens summed into heavy atoms:
              1
     1  C   -0.408327
     3  C    0.098684
     4  C   -0.013640
     5  C    0.076579
     6  C   -0.004949
     8  C   -0.028053
    10  C    0.007487
    14  C    0.098684
    15  C   -0.013640
    16  C    0.076579
    17  C   -0.004949
    19  C   -0.028053
    21  C    0.007487
    25  C    0.098684
    26  C    0.076579
    27  C   -0.013640
    28  C   -0.028053
    30  C   -0.004949
    32  C    0.007487
 Sum of Mulliken charges with hydrogens summed into heavy atoms =   0.00000
 Electronic spatial extent (au):  <R**2>=           4936.4801
 Charge=              0.0000 electrons
 Dipole moment (field-independent basis, Debye):
    X=              0.0000    Y=              0.0000    Z=              0.0942  Tot=              0.0942
 Quadrupole moment (field-independent basis, Debye-Ang):
   XX=           -113.6390   YY=           -113.6390   ZZ=           -100.1339
   XY=              0.0000   XZ=              0.0000   YZ=              0.0000
 Traceless Quadrupole moment (field-independent basis, Debye-Ang):
   XX=             -4.5017   YY=             -4.5017   ZZ=              9.0034
   XY=              0.0000   XZ=              0.0000   YZ=              0.0000
 Octapole moment (field-independent basis, Debye-Ang**2):
  XXX=             -0.0108  YYY=            -54.0053  ZZZ=             -0.1262  XYY=              0.0108
  XXY=             54.0053  XXZ=              0.4659  XZZ=              0.0000  YZZ=              0.0000
  YYZ=              0.4659  XYZ=              0.0000
 Hexadecapole moment (field-independent basis, Debye-Ang**3):
 XXXX=          -2947.8419 YYYY=          -2947.8419 ZZZZ=           -846.7983 XXXY=              0.0000
 XXXZ=             -0.1954 YYYX=              0.0000 YYYZ=              1.5606 ZZZX=              0.0000
 ZZZY=              0.0000 XXYY=           -982.6140 XXZZ=           -617.1203 YYZZ=           -617.1203
 XXYZ=             -1.5606 YYXZ=              0.1954 ZZXY=              0.0000
 N-N= 1.288180029251D+03 E-N=-4.272264757447D+03  KE= 7.285946428865D+02
 PrsmSu:  requested number of processors reduced to:  10 ShMem   1 Linda.
 Calling FoFJK, ICntrl=      2127 FMM=F ISym2X=1 I1Cent= 0 IOpClX= 0 NMat=1 NMatS=1 NMatT=0.
 ***** Axes restored to original set *****
 -------------------------------------------------------------------
 Center     Atomic                   Forces (Hartrees/Bohr)
 Number     Number              X              Y              Z
 -------------------------------------------------------------------
      1        6           0.000000000    0.000000000    0.024174146
      2        1           0.000000000    0.000000000   -0.028880687
      3        6           0.009416193   -0.009907115    0.004786377
      4        6          -0.000748259    0.001062975    0.005866910
      5        6          -0.006113545    0.006240083   -0.011728008
      6        6           0.007653751   -0.007596062    0.007905670
      7        1           0.002652992   -0.002845692   -0.017146957
      8        6           0.000788069   -0.000522129   -0.012162490
      9        1           0.022481228   -0.022915500    0.017219266
     10        6           0.009351008   -0.009950450   -0.001759498
     11        1          -0.008326666    0.008459935   -0.011982886
     12        1          -0.002906809    0.002970795    0.016185623
     13        1          -0.011361402    0.011594354    0.004384840
     14        6          -0.013287909   -0.003201105    0.004786377
     15        6           0.001294693    0.000116524    0.005866910
     16        6           0.008460843    0.002174444   -0.011728008
     17        6          -0.010405259   -0.002830312    0.007905670
     18        1          -0.003790937   -0.000874713   -0.017146957
     19        6          -0.000846212   -0.000421423   -0.012162490
     20        1          -0.031086019   -0.008011564    0.017219266
     21        6          -0.013292847   -0.003122986   -0.001759498
     22        1           0.011489852    0.002981137   -0.011982886
     23        1           0.004026188    0.001031973    0.016185623
     24        1           0.015721706    0.004042085    0.004384840
     25        6           0.003871717    0.013108219    0.004786377
     26        6          -0.002347298   -0.008414527   -0.011728008
     27        6          -0.000546434   -0.001179499    0.005866910
     28        6           0.000058143    0.000943552   -0.012162490
     29        1           0.008604792    0.030927064    0.017219266
     30        6           0.002751507    0.010426374    0.007905670
     31        1           0.001137945    0.003720404   -0.017146957
     32        6           0.003941838    0.013073436   -0.001759498
     33        1          -0.001119379   -0.004002768    0.016185623
     34        1          -0.003163186   -0.011441072   -0.011982886
     35        1          -0.004360304   -0.015636439    0.004384840
 -------------------------------------------------------------------
 Cartesian Forces:  Max     0.031086019 RMS     0.010599643

 GradGradGradGradGradGradGradGradGradGradGradGradGradGradGradGradGradGrad
 Berny optimization.
 Internal  Forces:  Max     0.035265240 RMS     0.010589939
 Search for a local minimum.
 Step number   1 out of a maximum of  197
 All quantities printed in internal units (Hartrees-Bohrs-Radians)
 Mixed Optimization -- RFO/linear search
 Second derivative matrix not updated -- first step.
     Eigenvalues ---    0.00644   0.00644   0.00644   0.01532   0.01532
     Eigenvalues ---    0.01532   0.02143   0.02143   0.02143   0.02171
     Eigenvalues ---    0.02171   0.02171   0.02186   0.02186   0.02186
     Eigenvalues ---    0.02204   0.02204   0.02204   0.02215   0.02215
     Eigenvalues ---    0.02215   0.02216   0.02216   0.02216   0.02218
     Eigenvalues ---    0.02218   0.02218   0.02223   0.02223   0.02223
     Eigenvalues ---    0.04558   0.06513   0.06513   0.16000   0.16000
     Eigenvalues ---    0.16000   0.16000   0.16000   0.16000   0.16000
     Eigenvalues ---    0.16000   0.16000   0.16000   0.16000   0.16000
     Eigenvalues ---    0.16000   0.16000   0.16000   0.19115   0.19115
     Eigenvalues ---    0.22000   0.22000   0.22000   0.22000   0.22000
     Eigenvalues ---    0.22000   0.23476   0.23476   0.23476   0.25000
     Eigenvalues ---    0.25000   0.25000   0.31096   0.31427   0.31427
     Eigenvalues ---    0.31427   0.33169   0.33169   0.33169   0.34117
     Eigenvalues ---    0.34117   0.34117   0.34225   0.34225   0.34225
     Eigenvalues ---    0.34273   0.34273   0.34273   0.34285   0.34285
     Eigenvalues ---    0.34285   0.42483   0.42483   0.42483   0.42583
     Eigenvalues ---    0.42583   0.42583   0.46410   0.46410   0.46410
     Eigenvalues ---    0.46773   0.46773   0.46773   0.47255   0.47255
     Eigenvalues ---    0.47255   0.47369   0.47369   0.473691000.00000
     Eigenvalues --- 1000.000001000.000001000.000001000.000001000.00000
     Eigenvalues --- 1000.000001000.000001000.000001000.000001000.00000
     Eigenvalues --- 1000.000001000.000001000.000001000.000001000.00000
     Eigenvalues --- 1000.000001000.000001000.000001000.000001000.00000
     Eigenvalues --- 1000.000001000.000001000.000001000.000001000.00000
     Eigenvalues --- 1000.000001000.000001000.000001000.000001000.00000
     Eigenvalues --- 1000.000001000.000001000.000001000.000001000.00000
     Eigenvalues --- 1000.000001000.000001000.000001000.000001000.00000
     Eigenvalues --- 1000.000001000.000001000.000001000.000001000.00000
     Eigenvalues --- 1000.000001000.000001000.000001000.000001000.00000
     Eigenvalues --- 1000.000001000.000001000.000001000.000001000.00000
     Eigenvalues --- 1000.000001000.000001000.000001000.000001000.00000
     Eigenvalues --- 1000.000001000.000001000.000001000.000001000.00000
     Eigenvalues --- 1000.000001000.000001000.000001000.000001000.00000
     Eigenvalues --- 1000.000001000.000001000.000001000.000001000.00000
     Eigenvalues --- 1000.000001000.000001000.000001000.000001000.00000
     Eigenvalues --- 1000.000001000.000001000.000001000.000001000.00000
     Eigenvalues --- 1000.000001000.00000
 RFO step:  Lambda=-7.23579265D-02 EMin= 6.43789079D-03
 Linear search not attempted -- first point.
 Maximum step size (   0.300) exceeded in Quadratic search.
    -- Step size scaled by   0.525
 Iteration  1 RMS(Cart)=  0.16583952 RMS(Int)=  0.00451726
 Iteration  2 RMS(Cart)=  0.00947848 RMS(Int)=  0.00044010
 Iteration  3 RMS(Cart)=  0.00000972 RMS(Int)=  0.00044008
 Iteration  4 RMS(Cart)=  0.00000000 RMS(Int)=  0.00044008
 ClnCor:  largest displacement from symmetrization is 1.74D-08 for atom    35.
 Variable       Old X    -DE/DX   Delta X   Delta X   Delta X     New X
                                 (Linear)    (Quad)   (Total)
    R1        2.12529  -0.02888   0.00000  -0.03957  -0.03957   2.08572
    R2        2.85204   0.03091   0.00000   0.04198   0.04198   2.89402
    R3        2.85204   0.03091   0.00000   0.04198   0.04198   2.89402
    R4        2.85204   0.03091   0.00000   0.04198   0.04198   2.89402
    R5        2.64043  -0.00283   0.00000  -0.00267  -0.00265   2.63778
    R6        2.63814   0.00320   0.00000   0.00338   0.00339   2.64153
    R7        2.62714  -0.00330   0.00000  -0.00329  -0.00328   2.62386
    R8        2.07134  -0.01757   0.00000  -0.02232  -0.02232   2.04902
    R9        2.62550  -0.00404   0.00000  -0.00377  -0.00377   2.62173
   R10        2.08756  -0.03499   0.00000  -0.04547  -0.04547   2.04208
   R11        2.62767  -0.01021   0.00000  -0.01007  -0.01009   2.61758
   R12        2.06952  -0.01687   0.00000  -0.02136  -0.02136   2.04816
   R13        2.62741  -0.00688   0.00000  -0.00675  -0.00677   2.62064
   R14        2.06872  -0.01671   0.00000  -0.02114  -0.02114   2.04758
   R15        2.06851  -0.01681   0.00000  -0.02127  -0.02127   2.04724
   R16        2.64043  -0.00283   0.00000  -0.00267  -0.00265   2.63778
   R17        2.63814   0.00320   0.00000   0.00338   0.00339   2.64153
   R18        2.62714  -0.00330   0.00000  -0.00329  -0.00328   2.62386
   R19        2.07134  -0.01757   0.00000  -0.02232  -0.02232   2.04902
   R20        2.62550  -0.00404   0.00000  -0.00377  -0.00377   2.62173
   R21        2.08756  -0.03499   0.00000  -0.04547  -0.04547   2.04208
   R22        2.62767  -0.01021   0.00000  -0.01007  -0.01009   2.61758
   R23        2.06952  -0.01687   0.00000  -0.02136  -0.02136   2.04816
   R24        2.62741  -0.00688   0.00000  -0.00675  -0.00677   2.62064
   R25        2.06872  -0.01671   0.00000  -0.02114  -0.02114   2.04758
   R26        2.06851  -0.01681   0.00000  -0.02127  -0.02127   2.04724
   R27        2.63814   0.00320   0.00000   0.00338   0.00339   2.64153
   R28        2.64043  -0.00283   0.00000  -0.00267  -0.00265   2.63778
   R29        2.62550  -0.00404   0.00000  -0.00377  -0.00377   2.62173
   R30        2.08756  -0.03499   0.00000  -0.04547  -0.04547   2.04208
   R31        2.62714  -0.00330   0.00000  -0.00329  -0.00328   2.62386
   R32        2.07134  -0.01757   0.00000  -0.02232  -0.02232   2.04902
   R33        2.62741  -0.00688   0.00000  -0.00675  -0.00677   2.62064
   R34        2.06872  -0.01671   0.00000  -0.02114  -0.02114   2.04758
   R35        2.62767  -0.01021   0.00000  -0.01007  -0.01009   2.61758
   R36        2.06952  -0.01687   0.00000  -0.02136  -0.02136   2.04816
   R37        2.06851  -0.01681   0.00000  -0.02127  -0.02127   2.04724
    A1        1.86228  -0.00976   0.00000  -0.04344  -0.04244   1.81984
    A2        1.86228  -0.00976   0.00000  -0.04344  -0.04244   1.81984
    A3        1.86228  -0.00976   0.00000  -0.04344  -0.04244   1.81984
    A4        1.95640   0.00869   0.00000   0.03871   0.03561   1.99202
    A5        1.95640   0.00869   0.00000   0.03871   0.03561   1.99202
    A6        1.95640   0.00869   0.00000   0.03871   0.03561   1.99202
    A7        2.07348  -0.02010   0.00000  -0.03287  -0.03289   2.04059
    A8        2.13380   0.03527   0.00000   0.05733   0.05732   2.19112
    A9        2.07591  -0.01516   0.00000  -0.02447  -0.02443   2.05148
   A10        2.10142   0.01026   0.00000   0.01802   0.01805   2.11947
   A11        2.09439  -0.00568   0.00000  -0.01025  -0.01026   2.08413
   A12        2.08738  -0.00458   0.00000  -0.00778  -0.00779   2.07959
   A13        2.10542   0.00506   0.00000   0.00932   0.00932   2.11475
   A14        2.07397   0.00807   0.00000   0.01929   0.01928   2.09325
   A15        2.10379  -0.01312   0.00000  -0.02860  -0.02860   2.07518
   A16        2.09802   0.00002   0.00000  -0.00104  -0.00104   2.09698
   A17        2.09156   0.00005   0.00000   0.00066   0.00066   2.09223
   A18        2.09360  -0.00007   0.00000   0.00037   0.00038   2.09397
   A19        2.09531   0.00348   0.00000   0.00582   0.00579   2.10110
   A20        2.09162  -0.00163   0.00000  -0.00266  -0.00265   2.08897
   A21        2.09626  -0.00185   0.00000  -0.00316  -0.00314   2.09312
   A22        2.09029  -0.00366   0.00000  -0.00766  -0.00769   2.08260
   A23        2.09661   0.00180   0.00000   0.00376   0.00378   2.10039
   A24        2.09629   0.00186   0.00000   0.00389   0.00391   2.10020
   A25        2.07348  -0.02010   0.00000  -0.03287  -0.03289   2.04059
   A26        2.13380   0.03527   0.00000   0.05733   0.05732   2.19112
   A27        2.07591  -0.01516   0.00000  -0.02447  -0.02443   2.05148
   A28        2.10142   0.01026   0.00000   0.01802   0.01805   2.11947
   A29        2.09439  -0.00568   0.00000  -0.01025  -0.01026   2.08413
   A30        2.08738  -0.00458   0.00000  -0.00778  -0.00779   2.07959
   A31        2.10542   0.00506   0.00000   0.00932   0.00932   2.11475
   A32        2.07397   0.00807   0.00000   0.01929   0.01928   2.09325
   A33        2.10379  -0.01312   0.00000  -0.02860  -0.02860   2.07518
   A34        2.09802   0.00002   0.00000  -0.00104  -0.00104   2.09698
   A35        2.09156   0.00005   0.00000   0.00066   0.00066   2.09223
   A36        2.09360  -0.00007   0.00000   0.00037   0.00038   2.09397
   A37        2.09531   0.00348   0.00000   0.00582   0.00579   2.10110
   A38        2.09162  -0.00163   0.00000  -0.00266  -0.00265   2.08897
   A39        2.09626  -0.00185   0.00000  -0.00316  -0.00314   2.09312
   A40        2.09029  -0.00366   0.00000  -0.00766  -0.00769   2.08260
   A41        2.09661   0.00180   0.00000   0.00376   0.00378   2.10039
   A42        2.09629   0.00186   0.00000   0.00389   0.00391   2.10020
   A43        2.13380   0.03527   0.00000   0.05733   0.05732   2.19112
   A44        2.07348  -0.02010   0.00000  -0.03287  -0.03289   2.04059
   A45        2.07591  -0.01516   0.00000  -0.02447  -0.02443   2.05148
   A46        2.10542   0.00506   0.00000   0.00932   0.00932   2.11475
   A47        2.07397   0.00807   0.00000   0.01929   0.01928   2.09325
   A48        2.10379  -0.01312   0.00000  -0.02860  -0.02860   2.07518
   A49        2.10142   0.01026   0.00000   0.01802   0.01805   2.11947
   A50        2.09439  -0.00568   0.00000  -0.01025  -0.01026   2.08413
   A51        2.08738  -0.00458   0.00000  -0.00778  -0.00779   2.07959
   A52        2.09531   0.00348   0.00000   0.00582   0.00579   2.10110
   A53        2.09162  -0.00163   0.00000  -0.00266  -0.00265   2.08897
   A54        2.09626  -0.00185   0.00000  -0.00316  -0.00314   2.09312
   A55        2.09802   0.00002   0.00000  -0.00104  -0.00104   2.09698
[...]
 855553,0.00428687,-0.00417368,-0.00037437,-0.00001167,0.00005854,0.000
 02504,-0.00039203,-0.00120783,0.00107038,-0.00005788,0.00015497,-0.000
 21849,0.00026988,-0.00022494,-0.00014676,0.00015631,-0.00010555,-0.000
 19494,0.00000381,-0.00002373,0.00013131,-0.00014257,0.00018930,-0.0000
 6561,-0.00002454,-0.00005595,0.00000235,0.00014226,0.00000446,0.000185
 91,0.00001580,-0.00001463,-0.00000619,0.00000619,-0.00000524,-0.000001
 90,-0.00000607,0.00000005,0.00001224,0.00061119,0.00023719,-0.00050710
 ,0.00046520,0.00002645,-0.00002754,-0.00008321,-0.00021281,-0.00008765
 ,-0.00025824,0.00010512,-0.00019494,0.00000363,-0.00003084,-0.00002462
 ,0.00033872,0.00022467,-0.00014618,-0.00013705,0.00014313,-0.00010729,
 -0.00000175,-0.00018860,0.00024532,0.00000945,0.00002481,0.00001375,0.
 00001538,-0.00001374,0.00000234,0.00001643,0.00001179,0.00000017,-0.03
 888601,0.00582522,0.06383328,0.02927687,0.04124657,-0.04307381,0.04883
 877,0.00661761,-0.14873083,0.02447880,-0.07132411,-0.03406103,-0.00031
 304,0.00092272,-0.00057638,-0.28163337,0.06903211,0.58211550,-0.002460
 65,-0.00121618,-0.00126428,0.00045001,0.00060401,-0.00126685,0.0000241
 4,0.00021320,-0.00035199,0.00003439,0.00010975,0.00016275,0.00010047,-
 0.00001983,-0.00007769,-0.00000772,-0.00003214,-0.00002852,-0.00004406
 ,-0.00000027,-0.00002855,-0.00003985,-0.00005223,-0.00002997,-0.000009
 87,-0.00000587,-0.00001338,0.00000236,0.00001482,0.00000662,-0.0000108
 4,0.00000579,0.00000243,-0.00000216,-0.00001401,0.00000160,-0.00000099
 ,-0.00000413,-0.00000508,0.00012520,-0.00022808,-0.00002296,-0.0001552
 3,0.00000084,0.00008214,-0.00005812,-0.00002270,0.00011791,0.00002970,
 -0.00003477,0.00001864,0.00000667,0.00002956,-0.00001715,-0.00007697,0
 .00004058,-0.00003482,0.00005464,0.00002597,-0.00006339,-0.00001130,0.
 00002135,-0.00004076,0.00000002,-0.00000104,-0.00000766,-0.00001255,-0
 .00000557,-0.00000851,0.00000555,0.00000138,-0.00000604,-0.00137030,-0
 .00399700,0.00903158,0.00522528,0.00147457,0.00420826,-0.15870972,-0.0
 2732365,0.14941912,-0.00029167,0.00019644,-0.00090995,-0.00033666,-0.0
 0021781,0.00032667,-0.00000135,0.00178247,0.00787726,0.15543156,0.0007
 7722,0.00115552,-0.00109127,0.00024378,-0.00046147,0.00047580,0.000128
 91,0.00007109,0.00019221,-0.00004585,0.00003131,0.00001477,-0.00011024
 ,0.00006804,0.00004120,0.00000238,-0.00000788,0.00001228,0.00003556,0.
 00000320,-0.00000750,-0.00000715,0.00002601,0.00001277,0.00001320,0.00
 000177,-0.00000430,-0.00001921,0.00002630,0.00000904,-0.00001341,0.000
 00844,-0.00000504,-0.00000595,0.00001751,0.00001045,-0.00000542,0.0000
 0939,0.00000298,-0.00024117,0.00003466,-0.00011453,0.00000611,-0.00002
 469,0.00001355,0.00006118,0.00004727,-0.00009187,-0.00006863,-0.000028
 97,0.00001516,-0.00000627,-0.00004753,0.00001587,0.00003213,-0.0000085
 4,-0.00001638,0.00000999,0.00000231,0.00006414,0.00005605,-0.00002842,
 0.00002376,0.00001461,0.00001398,-0.00000397,0.00001855,-0.00000031,0.
 00002626,0.00001488,0.00000890,0.00001401,0.01708786,0.00827791,-0.023
 54829,0.00128194,-0.00430429,-0.00352732,-0.02732267,-0.07889525,0.034
 49175,0.00013926,-0.00116071,-0.00021517,0.00080826,0.00033443,-0.0011
 2003,-0.02176511,0.00058142,0.02925892,0.03071322,0.07906360,-0.002381
 94,0.00110278,-0.00084890,0.00006211,-0.00060379,0.00039230,0.00020295
 ,0.00012894,0.00032701,-0.00004615,0.00000069,0.00006696,-0.00013628,0
 .00009418,0.00006047,-0.00003257,-0.00000861,-0.00002462,0.00002232,0.
 00000692,-0.00003115,-0.00001163,0.00003009,0.00004882,0.00001498,0.00
 000928,-0.00003724,-0.00000080,0.00000791,0.00000551,-0.00000553,0.000
 01247,-0.00000358,-0.00000631,0.00001299,-0.00000060,0.00000071,0.0000
 0493,-0.00000368,-0.00011413,-0.00044888,0.00035809,-0.00038454,-0.000
 10200,0.00009214,-0.00002770,0.00027573,-0.00007399,0.00002817,-0.0000
 7372,0.00013131,0.00002077,-0.00002098,-0.00003115,-0.00021601,-0.0000
 0881,0.00000477,0.00016250,-0.00005024,-0.00006061,0.00001034,0.000050
 46,-0.00008418,0.00000110,0.00000108,-0.00001782,0.00001509,-0.0000188
 2,-0.00000283,0.00001737,-0.00000453,-0.00000196,0.01229330,0.00753483
 ,-0.01063699,0.00395518,-0.00394249,0.00204379,0.14886526,0.03362236,-
 0.25157102,-0.00094974,-0.00033058,0.00029731,0.00053736,0.00028872,-0
 .00074752,0.00512027,-0.00302092,-0.00177025,-0.16741769,-0.03663967,0
 .25984035,-0.00193936,-0.00035182,0.00028154,-0.00005011,-0.00005854,-
 0.00070846,0.00018849,-0.00003348,0.00035128,-0.00010280,0.00021696,-0
 .00009060,0.00016548,-0.00014435,-0.00009912,0.00011838,-0.00015372,-0
 .00016246,-0.00005765,0.00000541,0.00003853,-0.00018230,0.00009132,-0.
 00001973,-0.00001377,-0.00002069,-0.00000861,0.00012173,0.00004185,0.0
 0016091,0.00000885,-0.00001922,0.00000165,-0.00000136,-0.00000835,0.00
 000464,-0.00000180,-0.00000170,0.00000125,0.00042590,-0.00101893,-0.00
 010759,0.00012502,-0.00002975,-0.00019085,-0.00005832,-0.00016114,0.00
 002693,-0.00017333,0.00008546,-0.00007499,0.00001841,-0.00000555,-0.00
 000645,0.00021199,0.00019558,-0.00012576,-0.00007849,0.00021996,-0.000
 14102,-0.00003892,-0.00013460,0.00015573,-0.00002957,0.00001485,0.0000
 1723,0.00000270,-0.00000985,-0.00001486,0.00000267,0.00000924,-0.00000
 906,-0.03444643,0.02217109,0.04184121,0.03928795,0.03055247,-0.0376095
 1,0.00021749,-0.06669184,0.00619317,-0.13166985,0.01896049,0.06890149,
 0.00534137,-0.00272619,0.00433886,-0.17826200,0.00181867,0.13290624,0.
 00621681,-0.00182224,0.00375492,0.37420120,0.00024308,0.00089042,-0.00
 022943,0.00005670,-0.00025752,0.00033518,-0.00039375,0.00001632,-0.000
 08099,0.00007871,-0.00026682,-0.00003578,-0.00004344,0.00008127,0.0002
 2574,-0.00011172,0.00017771,0.00009582,-0.00002929,0.00001794,-0.00003
 418,0.00016288,-0.00005747,0.00005027,0.00000184,0.00001838,0.00001787
 ,-0.00003515,-0.00009634,-0.00019908,0.00002638,-0.00003018,0.00002551
 ,0.00000885,-0.00002665,-0.00002019,0.00001190,-0.00002327,-0.00000199
 ,0.00035967,0.00006386,0.00027659,-0.00037184,-0.00000266,-0.00011967,
 -0.00016775,0.00000443,0.00016125,0.00009264,-0.00004361,0.00012097,0.
 00002848,0.00001024,-0.00000464,-0.00014467,-0.00010897,0.00003245,0.0
 0005842,-0.00024221,0.00016144,-0.00005760,0.00006431,-0.00012015,-0.0
 0002924,-0.00002348,-0.00001441,-0.00005777,-0.00000878,-0.00003272,-0
 .00001778,-0.00000327,-0.00000193,0.02167824,-0.01459033,-0.03092494,-
 0.01005712,-0.06578743,0.00469838,-0.02641802,0.02953668,0.03848498,0.
 07133865,-0.28861122,-0.12727635,-0.00267621,-0.00441918,0.00197409,-0
 .04997162,-0.16771814,0.05841276,-0.00216826,-0.00590765,0.00116171,0.
 06194696,0.83081672,0.00155681,0.00083941,-0.00115530,0.00014458,0.000
 35033,0.00096836,-0.00023648,0.00012562,-0.00051942,0.00007547,-0.0003
 9779,0.00010575,-0.00027870,0.00028310,0.00023172,-0.00022052,0.000260
 34,0.00024532,0.00004096,0.00002342,-0.00008418,0.00030962,-0.00014839
 ,0.00003960,0.00000523,0.00002136,0.00000265,-0.00018192,-0.00007480,-
 0.00027646,0.00000410,0.00000554,0.00000988,0.00000275,0.00000721,-0.0
 0000762,0.00000407,-0.00000607,-0.00000722,-0.00049406,0.00107687,0.00
 037713,-0.00037946,-0.00000664,0.00028448,0.00017556,0.00038749,0.0000
 7394,0.00030580,-0.00013849,0.00018591,-0.00001114,0.00000121,0.000005
 51,-0.00039027,-0.00025714,0.00010758,0.00016877,-0.00016983,0.0000652
 6,0.00009196,0.00023889,-0.00027646,0.00003251,-0.00002653,-0.00002645
 ,0.00001685,0.00002475,0.00004703,0.00000447,-0.00000664,0.00000401,0.
 04087159,-0.03255913,-0.07025634,-0.04234643,-0.05269388,0.06266229,0.
 01013555,0.09627570,0.00650003,0.07647169,-0.05473922,-0.19712844,0.00
 443822,0.00240919,0.00329956,0.12559899,-0.01447537,-0.26205909,0.0036
 2607,0.00047103,0.00406452,-0.27043110,0.00265206,0.55378953,-0.000218
 06,0.00007732,0.00023293,-0.00008294,-0.00018590,0.00001122,-0.0001183
 0,0.00012589,0.00002284,0.00001639,0.00002015,0.00000112,0.00007545,-0
 .00005860,-0.00001663,-0.00000503,-0.00002131,-0.00001959,-0.00000899,
 0.00000351,-0.00002384,-0.00002671,0.00002113,-0.00000647,-0.00001268,
 -0.00000146,0.00000598,0.00002337,-0.00000208,0.00001301,0.00000383,0.
 00000174,-0.00000168,0.00000075,-0.00001803,-0.00000963,0.00000588,-0.
 00000634,-0.00000136,0.00013036,-0.00002780,0.00011374,-0.00008806,0.0
 0000715,-0.00004585,-0.00007142,-0.00008310,-0.00000378,0.00000333,-0.
 00000505,0.00000144,0.00000395,0.00001754,-0.00000809,0.00001695,-0.00
 000966,0.00000755,0.00002788,0.00001435,0.00005978,-0.00002011,-0.0000
 0247,-0.00000762,-0.00000942,-0.00000519,-0.00000203,-0.00002775,0.000
 00158,-0.00001230,-0.00000932,0.00000062,0.00000047,0.00610612,-0.0019
 2521,0.00329760,-0.00012941,0.00164695,0.00804777,-0.00028135,0.000237
 05,-0.00093284,-0.16031746,-0.02735589,0.15130911,-0.00281419,-0.00007
 925,-0.00303578,0.00589845,0.00145222,0.00444319,-0.00086510,0.0000676
 6,-0.00053001,-0.00078753,-0.00497207,0.00819797,0.15682205,-0.0006993
 6,0.00036313,0.00113684,-0.00013821,-0.00033717,0.00016114,-0.00012604
 ,0.00023395,0.00000970,0.00004997,-0.00002024,-0.00001221,0.00004931,-
 0.00000562,-0.00003577,0.00000453,0.00001167,-0.00000645,-0.00002061,-
 0.00000386,-0.00000366,0.00001745,0.00000039,-0.00002099,-0.00002076,-
 0.00000380,0.00001429,0.00004584,-0.00002945,-0.00002697,0.00000829,-0
 .00001310,0.00000925,-0.00000253,-0.00002537,-0.00000362,0.00000149,-0
 .00001484,0.00000326,0.00012705,-0.00014006,0.00012290,-0.00009745,-0.
 00002692,-0.00004694,-0.00004509,-0.00002620,-0.00003423,-0.00001539,-
 0.00000038,0.00000798,0.00000947,0.00001140,-0.00001196,0.00000266,0.0
 0000179,-0.00000060,0.00000289,0.00000977,0.00002515,-0.00001968,-0.00
 000790,-0.00000122,-0.00001329,-0.00000505,0.00000177,-0.00001392,0.00
 000312,-0.00000787,-0.00000731,-0.00000159,-0.00000215,-0.00192979,-0.
 00596082,0.00062748,-0.02133792,0.00073533,0.02902223,0.00021766,-0.00
 131264,-0.00031283,-0.02737893,-0.07934643,0.03411947,0.00076056,0.001
 27765,-0.00022222,0.00118896,-0.00416075,-0.00343915,0.00005341,0.0000
 9044,0.00010679,0.01819129,0.00987413,-0.02464796,0.03040632,0.0774140
 1,0.00008355,-0.00047055,-0.00029372,0.00004705,0.00008329,-0.00006464
 ,0.00011854,-0.00001497,-0.00001647,-0.00003691,0.00006109,0.00001638,
 -0.00001780,-0.00000540,-0.00003748,0.00001341,-0.00004052,0.00000234,
 0.00002700,-0.00000576,-0.00000283,-0.00003545,0.00000286,-0.00000134,
 0.00000118,-0.00001037,-0.00001107,-0.00002091,0.00002923,0.00004703,-
 0.00001576,0.00001994,-0.00001895,-0.00000067,0.00001459,0.00000611,-0
 .00000525,0.00001849,0.00000003,-0.00007614,0.00013788,-0.00003215,0.0
 0004519,0.00001381,0.00004703,0.00003128,-0.00001577,0.00004321,0.0000
 2071,-0.00000356,-0.00000190,-0.00000985,-0.00000384,-0.00000060,-0.00
 001678,0.00001199,-0.00001994,-0.00000970,0.00000241,-0.00003661,0.000
 01517,0.00001412,-0.00000762,0.00001404,0.00000656,-0.00000640,0.00000
 795,-0.00000653,0.00000611,0.00001280,0.00000497,0.00000119,0.00357455
 ,0.00118696,0.00384330,0.00483315,-0.00304949,-0.00160912,-0.00096922,
 -0.00018579,0.00036713,0.15110707,0.03425719,-0.25406831,-0.00289181,0
 .00067444,-0.00089919,0.00437736,-0.00389478,0.00234104,-0.00053532,0.
 00009976,-0.00051178,0.01144396,0.00743391,-0.00925197,-0.16859762,-0.
 03634196,0.26181131,0.00011953,-0.00032069,-0.00026215,0.00004171,0.00
 008172,-0.00003177,-0.00011074,-0.00017698,-0.00003861,0.00003973,-0.0
 0001012,0.00004337,-0.00001028,0.00001918,-0.00000092,-0.00001629,0.00
 003947,0.00001677,0.00000461,-0.00000161,0.00000039,0.00004360,-0.0000
 1698,-0.00000773,-0.00001083,-0.00001221,0.00000235,-0.00001877,-0.000
 02108,-0.00003923,-0.00000741,0.00000312,0.00000177,0.00000186,-0.0000
 0132,-0.00000134,-0.00000287,0.00000054,0.00000112,0.00000740,-0.00004
 182,0.00000136,0.00000122,-0.00001698,-0.00000675,-0.00002140,-0.00000
 374,0.00001481,0.00000128,0.00000842,0.00000477,0.00000032,0.00000065,
 -0.00000803,-0.00001645,0.00001153,0.00000514,0.00000966,-0.00001891,-
 0.00002179,-0.00001732,0.00000411,-0.00000685,0.00000205,0.00000234,-0
 .00000318,-0.00000452,-0.00000656,-0.00000939,0.00000437,-0.00000286,-
 0.00000272,0.00554436,-0.00252414,0.00447645,-0.00079192,-0.00051515,-
 0.00024811,0.00832225,-0.00976171,-0.00518591,0.00351864,-0.00197463,0
 .00695296,-0.00079471,0.00010338,-0.00062687,-0.08713199,0.07166636,0.
 06397234,-0.00295759,0.00083072,-0.00300154,-0.00051794,0.01838763,0.0
 1095301,-0.00035079,0.00081039,0.00047663,0.07785034,0.00080308,-0.000
 64191,-0.00107335,0.00001143,0.00002545,0.00005554,-0.00037033,-0.0002
 4083,0.00018877,0.00003935,-0.00007157,-0.00004551,0.00010384,-0.00006
 403,0.00000809,-0.00001625,0.00002277,-0.00002059,-0.00001726,0.000009
 39,-0.00000150,0.00002102,0.00002468,-0.00000657,-0.00000761,0.0000005
 3,0.00000637,0.00002301,-0.00003428,-0.00001489,0.00002264,-0.00000967
 ,0.00000560,0.00000678,-0.00001633,-0.00001544,0.00000942,-0.00001307,
 -0.00000251,0.00021095,-0.00007705,0.00009730,-0.00011999,-0.00000020,
 -0.00003202,-0.00006839,0.00002196,-0.00003467,-0.00001775,0.00000119,
 0.00002100,0.00001985,-0.00000272,-0.00001103,-0.00000437,-0.00000584,
 0.00002082,0.00003916,-0.00002363,0.00003076,-0.00004149,-0.00000401,0
 .00000078,-0.00001718,-0.00001913,-0.00000082,-0.00001311,-0.00000474,
 -0.00002362,-0.00001456,-0.00001096,-0.00000611,-0.00307572,-0.0042527
 8,0.00232623,-0.00064645,0.00003275,0.00104120,0.01326744,-0.01886234,
 -0.02208049,-0.00161769,0.00113534,0.00122164,0.00015987,-0.00004278,-
 0.00004623,0.07157205,-0.25009211,-0.12847590,0.00004856,0.00122161,0.
 00083760,-0.00450411,0.00929307,0.00683641,-0.00014377,0.00022981,0.00
 024953,-0.07650142,0.26137433,-0.00022543,0.00038777,0.00021799,-0.000
 01596,-0.00003188,-0.00004034,-0.00000985,-0.00000330,-0.00008320,0.00
 000955,-0.00002147,0.00003061,-0.00001616,0.00000735,0.00003701,-0.000
 03018,0.00002429,0.00001375,0.00000039,0.00000862,-0.00001782,0.000021
 16,-0.00001634,0.00001417,0.00000474,0.00000707,-0.00000327,-0.0000211
 0,-0.00000772,-0.00002645,0.00000088,0.00000316,0.00000195,0.00000255,
 0.00000087,-0.00000640,0.00000401,-0.00000174,-0.00000373,0.00000491,-
 0.00011456,0.00002028,0.00000324,-0.00000573,-0.00004494,-0.00002887,0
 .00000335,-0.00001362,-0.00001526,0.00000931,-0.00000619,0.00000316,0.
 00000462,-0.00000358,0.00001170,0.00000645,0.00003089,0.00003601,-0.00
 001392,-0.00000068,-0.00002292,-0.00001133,0.00000988,-0.00000574,-0.0
 0000127,0.00000195,-0.00000717,-0.00000608,-0.00001895,-0.00000630,-0.
 00000698,-0.00000264,0.00439307,0.00201580,0.00330377,-0.00025973,0.00
 102688,-0.00044214,-0.00185866,0.01026838,0.00975231,0.00697836,0.0016
 5941,-0.00093365,-0.00059770,-0.00002865,-0.00042516,0.06395704,-0.128
 70963,-0.15677256,-0.00305972,-0.00021276,-0.00090785,0.00766832,-0.02
 529642,-0.00886107,0.00036437,-0.00112141,-0.00072461,-0.07449396,0.13
 929793,0.15666946,-0.00074406,-0.00006173,-0.00051266,0.00006785,0.000
 04393,-0.00016946,-0.00001948,-0.00002615,-0.00001442,0.00000387,-0.00
 002352,0.00002784,0.00000755,0.00001009,0.00000772,-0.00001450,0.00000
 322,0.00000199,0.00000102,0.00000123,-0.00001261,0.00001065,-0.0000006
 7,-0.00000318,-0.00000691,-0.00000253,-0.00000294,0.00000192,-0.000008
 80,-0.00000798,0.00000042,0.00000514,-0.00000290,-0.00000063,-0.000005
 64,-0.00000209,0.00000164,-0.00000025,-0.00000161,0.00001122,-0.000138
 53,0.00008422,-0.00004936,0.00000038,-0.00003093,-0.00003188,-0.000019
 72,0.00000485,-0.00000890,0.00000095,0.00000299,0.00000266,0.00000624,
 -0.00000463,0.00001574,0.00000319,0.00001498,0.00002400,-0.00000176,0.
 00001902,-0.00001349,-0.00000505,0.00000323,-0.00000620,-0.00000247,-0
 .00000049,-0.00001176,-0.00000384,-0.00001338,-0.00000488,-0.00000351,
 -0.00000153,-0.00087423,0.00070150,0.00000210,0.00527040,0.00139454,0.
 00536336,0.00357923,-0.00041005,0.00710936,0.00813570,0.01276039,-0.00
 232408,0.00008920,0.00055025,-0.00016633,0.00018890,-0.02132697,0.0038
 1287,-0.00028410,-0.00091015,0.00017784,-0.07824290,-0.07675772,0.0317
 3749,-0.00289017,-0.00008125,-0.00301142,-0.00273111,0.00083902,-0.002
 78876,0.06852256,0.00010626,0.00008128,0.00005096,-0.00003531,-0.00002
 940,0.00004087,-0.00009248,0.00000056,0.00002578,-0.00002182,-0.000035
 06,-0.00001973,0.00003972,-0.00004892,0.00005175,-0.00002232,0.0000020
 5,-0.00002012,-0.00001227,0.00001343,-0.00001278,-0.00002087,0.0000244
 9,0.00002402,0.00001453,0.00002135,-0.00000152,0.00001822,-0.00000251,
 -0.00000055,0.00001684,-0.00000701,0.00000895,0.00000229,-0.00001029,-
 0.00001357,0.00001170,-0.00001366,-0.00000413,0.00008419,-0.00002687,0
 .00003234,-0.00003720,0.00000479,-0.00003334,-0.00004096,0.00001390,-0
 .00004307,-0.00001388,0.00000322,-0.00000529,0.00000753,0.00000574,-0.
 00000185,0.00002236,-0.00001503,0.00003549,0.00004160,-0.00001718,0.00
 004024,-0.00001865,-0.00001158,0.00000656,-0.00001134,-0.00000973,0.00
 000434,-0.00001167,0.00000281,-0.00001379,-0.00001546,-0.00000714,-0.0
 0000141,0.00060148,0.00067067,-0.00057929,0.00183398,-0.00210717,-0.00
 407797,-0.00078753,0.00169694,0.00012505,-0.01050724,-0.01881521,0.011
 31521,-0.00040656,-0.00107436,0.00043074,0.00164112,0.00005036,-0.0029
 9971,0.00000763,-0.00021942,-0.00001643,-0.07662551,-0.33264030,0.0680
 5794,0.00080201,0.00118558,-0.00027372,-0.00004064,0.00109709,0.000879
 94,0.08347027,0.35021661,-0.00058571,0.00003419,-0.00029705,0.00005422
 ,-0.00005137,-0.00003253,0.00005440,-0.00002119,0.00000966,-0.00004534
 ,-0.00000352,0.00001036,-0.00003190,0.00001616,0.00003941,-0.00000308,
 -0.00000533,0.00000017,0.00001515,-0.00000177,-0.00000196,-0.00001305,
 0.00001377,0.00000948,0.00000453,0.00000240,-0.00000887,0.00000286,0.0
 0000881,0.00000401,-0.00000393,0.00000541,-0.00000264,-0.00000210,0.00
 000066,0.00000119,-0.00000045,0.00000203,0.00000083,-0.00005847,-0.000
 06148,0.00006374,-0.00003258,-0.00000207,0.00000368,-0.00000659,0.0000
 1643,0.00001438,-0.00000122,-0.00000544,0.00001224,-0.00000004,-0.0000
 0589,-0.00000368,-0.00000801,-0.00000044,0.00000111,0.00002071,-0.0000
 1312,-0.00000780,0.00000110,0.00000207,-0.00000722,0.00000161,0.000002
 22,-0.00000373,-0.00000214,-0.00000281,0.00000003,0.00000438,0.0000006
 7,0.00000083,0.00005914,-0.00049872,-0.00113724,0.00537081,-0.00352468
 ,0.00108331,0.00708681,-0.00042975,-0.00135660,-0.00563649,-0.02082790
 ,0.01020950,-0.00030670,-0.00085680,0.00022460,0.00714036,0.02923749,-
 0.00083110,0.00030923,0.00133238,-0.00036562,0.03171234,0.06807193,-0.
 08316001,-0.00287496,0.00093193,-0.00091549,-0.00292644,-0.00035433,-0
 .00076517,-0.03929848,-0.07301195,0.07720819||0.,0.,-0.00004589,0.,0.,
 0.00000319,-0.00002412,-0.00001848,-0.00000900,0.00002330,-0.00001568,
 0.00001119,0.00001146,0.00001699,0.00000754,0.00000552,0.00003281,0.00
 000895,0.00000104,0.00000031,0.00000469,0.00000067,-0.00001413,0.00000
 662,0.00000177,-0.00001274,-0.00000691,-0.00002194,-0.00001585,-0.0000
 0386,-0.00000206,0.00000049,0.00000144,-0.00000141,0.00000797,-0.00000
 420,0.00000250,0.00000411,-0.00000224,-0.00000395,0.00003013,-0.000009
 00,-0.00002523,-0.00001234,0.00001119,0.00000898,-0.00001842,0.0000075
 4,0.00002566,-0.00002119,0.00000895,-0.00000025,-0.00000106,0.00000469
 ,-0.00001257,0.00000649,0.00000662,-0.00001192,0.00000483,-0.00000691,
 -0.00000276,0.00002692,-0.00000386,0.00000146,0.00000154,0.00000144,0.
 00000761,-0.00000277,-0.00000420,0.00000231,-0.00000422,-0.00000224,0.
 00002807,-0.00001165,-0.00000900,-0.00002044,0.00000143,0.00000754,0.0
 0000193,0.00002802,0.00001119,0.00001190,0.00000764,0.00000662,0.00001
 014,0.00000791,-0.00000691,-0.00003118,-0.00001163,0.00000895,-0.00000
 079,0.00000075,0.00000469,0.00002469,-0.00001107,-0.00000386,-0.000006
 20,-0.00000520,-0.00000420,0.00000060,-0.00000203,0.00000144,-0.000004
 81,0.00000011,-0.00000224|||@


 Children are likely to live up to what you believe of them.
 -- Lady Bird Johnson
 Job cpu time:  0 days  0 hours  3 minutes 25.0 seconds.
 File lengths (MBytes):  RWF=    178 Int=      0 D2E=      0 Chk=      7 Scr=      1
 Normal termination of Gaussian 09 at Mon Sep 06 15:31:08 2021.
