 Entering Link 1 = b:\programy\g09w\l1.exe PID=     10520.
  
 Copyright (c) 1988,1990,1992,1993,1995,1998,2003,2009, Gaussian, Inc.
                  All Rights Reserved.
  
 This is part of the Gaussian(R) 09 program.  It is based on
 the Gaussian(R) 03 system (copyright 2003, Gaussian, Inc.),
 the Gaussian(R) 98 system (copyright 1998, Gaussian, Inc.),
 the Gaussian(R) 94 system (copyright 1995, Gaussian, Inc.),
 the Gaussian 92(TM) system (copyright 1992, Gaussian, Inc.),
 the Gaussian 90(TM) system (copyright 1990, Gaussian, Inc.),
 the Gaussian 88(TM) system (copyright 1988, Gaussian, Inc.),
 the Gaussian 86(TM) system (copyright 1986, Carnegie Mellon
 University), and the Gaussian 82(TM) system (copyright 1983,
 Carnegie Mellon University). Gaussian is a federally registered
 trademark of Gaussian, Inc.
  
 This software contains proprietary and confidential information,
 including trade secrets, belonging to Gaussian, Inc.
  
 This software is provided under written license and may be
 used, copied, transmitted, or stored only in accord with that
 written license.
  
 The following legend is applicable only to US Government
 contracts under FAR:
  
                    RESTRICTED RIGHTS LEGEND
  
 Use, reproduction and disclosure by the US Government is
 subject to restrictions as set forth in subparagraphs (a)
 and (c) of the Commercial Computer Software - Restricted
 Rights clause in FAR 52.227-19.
  
 Gaussian, Inc.
 340 Quinnipiac St., Bldg. 40, Wallingford CT 06492
  
  
 ---------------------------------------------------------------
 Warning -- This program may not be used in any manner that
 competes with the business of Gaussian, Inc. or will provide
 assistance to any competitor of Gaussian, Inc.  The licensee
 of this program is prohibited from giving any competitor of
 Gaussian, Inc. access to this program.  By using this program,
 the user acknowledges that Gaussian, Inc. is engaged in the
 business of creating and licensing software in the field of
 computational chemistry and represents and warrants to the
 licensee that it is not a competitor of Gaussian, Inc. and that
 it will not use this program in any manner prohibited above.
 ---------------------------------------------------------------
  

 Cite this work as:
 Gaussian 09, Revision A.02,
 M. J. Frisch, G. W. Trucks, H. B. Schlegel, G. E. Scuseria, 
 M. A. Robb, J. R. Cheeseman, G. Scalmani, V. Barone, B. Mennucci, 
 G. A. Petersson, H. Nakatsuji, M. Caricato, X. Li, H. P. Hratchian, 
 A. F. Izmaylov, J. Bloino, G. Zheng, J. L. Sonnenberg, M. Hada, 
 M. Ehara, K. Toyota, R. Fukuda, J. Hasegawa, M. Ishida, T. Nakajima, 
 Y. Honda, O. Kitao, H. Nakai, T. Vreven, J. A. Montgomery, Jr., 
 J. E. Peralta, F. Ogliaro, M. Bearpark, J. J. Heyd, E. Brothers, 
 K. N. Kudin, V. N. Staroverov, R. Kobayashi, J. Normand, 
 K. Raghavachari, A. Rendell, J. C. Burant, S. S. Iyengar, J. Tomasi, 
 M. Cossi, N. Rega, J. M. Millam, M. Klene, J. E. Knox, J. B. Cross, 
 V. Bakken, C. Adamo, J. Jaramillo, R. Gomperts, R. E. Stratmann, 
 O. Yazyev, A. J. Austin, R. Cammi, C. Pomelli, J. W. Ochterski, 
 R. L. Martin, K. Morokuma, V. G. Zakrzewski, G. A. Voth, 
 P. Salvador, J. J. Dannenberg, S. Dapprich, A. D. Daniels, 
 O. Farkas, J. B. Foresman, J. V. Ortiz, J. Cioslowski, 
 and D. J. Fox, Gaussian, Inc., Wallingford CT, 2009.
 
 ******************************************
 Gaussian 09:  IA32W-G09RevA.02 11-Jun-2009
                06-Sep-2021 
 ******************************************
 %nprocshared=12
 Will use up to   12 processors via shared memory.
 ----------------------------------------------
 # opt freq=noraman hf/6-311g geom=connectivity
 ----------------------------------------------
 1/18=20,19=15,38=1,57=2/1,3;
 2/9=110,12=2,17=6,18=5,40=1/2;
 3/5=4,6=6,11=9,16=1,25=1,30=1,71=1/1,2,3;
 4//1;
 5/5=2,38=5/2;
 6/7=2,8=2,9=2,10=2,28=1/1;
 7//1,2,3,16;
 1/18=20,19=15/3(2);
 2/9=110/2;
 99//99;
 2/9=110/2;
 3/5=4,6=6,11=9,16=1,25=1,30=1,71=1/1,2,3;
 4/5=5,16=3/1;
 5/5=2,38=5/2;
 7//1,2,3,16;
 1/18=20,19=15/3(-5);
 2/9=110/2;
 6/7=2,8=2,9=2,10=2,19=2,28=1/1;
 99/9=1/99;
 -----
 M0001
 -----
 Symbolic Z-matrix:
 Charge =  0 Multiplicity = 1
 C                     0.0365   -0.75952   0.10976 
 H                     0.03115  -1.87532   0.24487 
 C                     1.46811  -0.31798   0.28615 
 C                     2.47821  -1.2779    0.17037 
 C                     1.82239   1.00503   0.55554 
 C                     3.81234  -0.91975   0.32262 
 H                     2.21965  -2.32183  -0.04331 
 C                     3.1573    1.36098   0.71103 
 H                     1.03393   1.76876   0.65264 
 C                     4.15525   0.40025   0.59449 
 H                     4.59446  -1.68011   0.22877 
 H                     3.42065   2.40162   0.92654 
 H                     5.20616   0.68111   0.71661 
 C                    -0.49759  -0.49362  -1.2773 
 C                    -0.10213   0.60633  -2.03767 
 C                    -1.43179  -1.38714  -1.811 
 C                    -0.62902   0.80977  -3.30887 
 H                     0.63623   1.31184  -1.63584 
 C                    -1.95847  -1.18069  -3.07981 
 H                    -1.75519  -2.255    -1.22451 
 C                    -1.55779  -0.08145  -3.83236 
 H                    -0.30842   1.67545  -3.89737 
 H                    -2.69031  -1.88551  -3.48758 
 H                    -1.97202   0.0797   -4.83269 
 C                    -0.89466  -0.18448   1.14888 
 C                    -1.23      1.17029   1.16928 
 C                    -1.45317  -1.03643   2.10496 
 C                    -2.11474   1.66418   2.12029 
 H                    -0.76603   1.84506   0.43381 
 C                    -2.33505  -0.54026   3.05838 
 H                    -1.19742  -2.10272   2.10531 
 C                    -2.67038   0.80925   3.06595 
 H                    -2.37284   2.72805   2.12363 
 H                    -2.76721  -1.21558   3.80376 
 H                    -3.36808   1.19763   3.81465 
 

 GradGradGradGradGradGradGradGradGradGradGradGradGradGradGradGradGradGrad
 Berny optimization.
 Initialization pass.
                           ----------------------------
                           !    Initial Parameters    !
                           ! (Angstroms and Degrees)  !
 --------------------------                            --------------------------
 ! Name  Definition              Value          Derivative Info.                !
 --------------------------------------------------------------------------------
 ! R1    R(1,2)                  1.124          estimate D2E/DX2                !
 ! R2    R(1,3)                  1.5085         estimate D2E/DX2                !
 ! R3    R(1,14)                 1.5099         estimate D2E/DX2                !
 ! R4    R(1,25)                 1.5091         estimate D2E/DX2                !
 ! R5    R(3,4)                  1.3983         estimate D2E/DX2                !
 ! R6    R(3,5)                  1.3959         estimate D2E/DX2                !
 ! R7    R(4,6)                  1.3897         estimate D2E/DX2                !
 ! R8    R(4,7)                  1.0965         estimate D2E/DX2                !
 ! R9    R(5,8)                  1.3903         estimate D2E/DX2                !
 ! R10   R(5,9)                  1.102          estimate D2E/DX2                !
 ! R11   R(6,10)                 1.3906         estimate D2E/DX2                !
 ! R12   R(6,11)                 1.0948         estimate D2E/DX2                !
 ! R13   R(8,10)                 1.3901         estimate D2E/DX2                !
 ! R14   R(8,12)                 1.0949         estimate D2E/DX2                !
 ! R15   R(10,13)                1.0946         estimate D2E/DX2                !
 ! R16   R(14,15)                1.3944         estimate D2E/DX2                !
 ! R17   R(14,16)                1.3986         estimate D2E/DX2                !
 ! R18   R(15,17)                1.391          estimate D2E/DX2                !
 ! R19   R(15,18)                1.0974         estimate D2E/DX2                !
 ! R20   R(16,19)                1.3892         estimate D2E/DX2                !
 ! R21   R(16,20)                1.0962         estimate D2E/DX2                !
 ! R22   R(17,21)                1.3896         estimate D2E/DX2                !
 ! R23   R(17,22)                1.0948         estimate D2E/DX2                !
 ! R24   R(19,21)                1.3911         estimate D2E/DX2                !
 ! R25   R(19,23)                1.0948         estimate D2E/DX2                !
 ! R26   R(21,24)                1.0946         estimate D2E/DX2                !
 ! R27   R(25,26)                1.3958         estimate D2E/DX2                !
 ! R28   R(25,27)                1.3971         estimate D2E/DX2                !
 ! R29   R(26,28)                1.3896         estimate D2E/DX2                !
 ! R30   R(26,29)                1.1007         estimate D2E/DX2                !
 ! R31   R(27,30)                1.3903         estimate D2E/DX2                !
 ! R32   R(27,31)                1.0965         estimate D2E/DX2                !
 ! R33   R(28,32)                1.3906         estimate D2E/DX2                !
 ! R34   R(28,33)                1.0947         estimate D2E/DX2                !
 ! R35   R(30,32)                1.3906         estimate D2E/DX2                !
 ! R36   R(30,34)                1.0947         estimate D2E/DX2                !
 ! R37   R(32,35)                1.0946         estimate D2E/DX2                !
 ! A1    A(2,1,3)              106.3225         estimate D2E/DX2                !
 ! A2    A(2,1,14)             106.4726         estimate D2E/DX2                !
 ! A3    A(2,1,25)             107.0114         estimate D2E/DX2                !
 ! A4    A(3,1,14)             113.0518         estimate D2E/DX2                !
 ! A5    A(3,1,25)             113.1738         estimate D2E/DX2                !
 ! A6    A(14,1,25)            110.3143         estimate D2E/DX2                !
 ! A7    A(1,3,4)              118.3556         estimate D2E/DX2                !
 ! A8    A(1,3,5)              122.7423         estimate D2E/DX2                !
 ! A9    A(4,3,5)              118.9019         estimate D2E/DX2                !
 ! A10   A(3,4,6)              120.4969         estimate D2E/DX2                !
 ! A11   A(3,4,7)              119.9602         estimate D2E/DX2                !
 ! A12   A(6,4,7)              119.5428         estimate D2E/DX2                !
 ! A13   A(3,5,8)              120.5277         estimate D2E/DX2                !
 ! A14   A(3,5,9)              119.4907         estimate D2E/DX2                !
 ! A15   A(8,5,9)              119.9799         estimate D2E/DX2                !
 ! A16   A(4,6,10)             120.1825         estimate D2E/DX2                !
 ! A17   A(4,6,11)             119.8291         estimate D2E/DX2                !
 ! A18   A(10,6,11)            119.9884         estimate D2E/DX2                !
 ! A19   A(5,8,10)             120.1964         estimate D2E/DX2                !
 ! A20   A(5,8,12)             119.7571         estimate D2E/DX2                !
 ! A21   A(10,8,12)            120.0465         estimate D2E/DX2                !
 ! A22   A(6,10,8)             119.6941         estimate D2E/DX2                !
 ! A23   A(6,10,13)            120.1383         estimate D2E/DX2                !
 ! A24   A(8,10,13)            120.1676         estimate D2E/DX2                !
 ! A25   A(1,14,15)            122.6502         estimate D2E/DX2                !
 ! A26   A(1,14,16)            118.3158         estimate D2E/DX2                !
 ! A27   A(15,14,16)           119.033          estimate D2E/DX2                !
 ! A28   A(14,15,17)           120.4151         estimate D2E/DX2                !
 ! A29   A(14,15,18)           119.8844         estimate D2E/DX2                !
 ! A30   A(17,15,18)           119.6981         estimate D2E/DX2                !
 ! A31   A(14,16,19)           120.4538         estimate D2E/DX2                !
 ! A32   A(14,16,20)           119.913          estimate D2E/DX2                !
 ! A33   A(19,16,20)           119.6327         estimate D2E/DX2                !
 ! A34   A(15,17,21)           120.2411         estimate D2E/DX2                !
 ! A35   A(15,17,22)           119.7338         estimate D2E/DX2                !
 ! A36   A(21,17,22)           120.0251         estimate D2E/DX2                !
 ! A37   A(16,19,21)           120.1531         estimate D2E/DX2                !
 ! A38   A(16,19,23)           119.8632         estimate D2E/DX2                !
 ! A39   A(21,19,23)           119.9838         estimate D2E/DX2                !
 ! A40   A(17,21,19)           119.7037         estimate D2E/DX2                !
 ! A41   A(17,21,24)           120.184          estimate D2E/DX2                !
 ! A42   A(19,21,24)           120.1123         estimate D2E/DX2                !
 ! A43   A(1,25,26)            121.8794         estimate D2E/DX2                !
 ! A44   A(1,25,27)            119.0462         estimate D2E/DX2                !
 ! A45   A(26,25,27)           119.0668         estimate D2E/DX2                !
 ! A46   A(25,26,28)           120.5249         estimate D2E/DX2                !
 ! A47   A(25,26,29)           118.9461         estimate D2E/DX2                !
 ! A48   A(28,26,29)           120.5162         estimate D2E/DX2                !
 ! A49   A(25,27,30)           120.3483         estimate D2E/DX2                !
 ! A50   A(25,27,31)           119.9973         estimate D2E/DX2                !
 ! A51   A(30,27,31)           119.6544         estimate D2E/DX2                !
 ! A52   A(26,28,32)           120.0837         estimate D2E/DX2                !
 ! A53   A(26,28,33)           119.8395         estimate D2E/DX2                !
 ! A54   A(32,28,33)           120.0768         estimate D2E/DX2                !
 ! A55   A(27,30,32)           120.2015         estimate D2E/DX2                !
 ! A56   A(27,30,34)           119.8139         estimate D2E/DX2                !
 ! A57   A(32,30,34)           119.9845         estimate D2E/DX2                !
 ! A58   A(28,32,30)           119.7728         estimate D2E/DX2                !
 ! A59   A(28,32,35)           120.1102         estimate D2E/DX2                !
 ! A60   A(30,32,35)           120.117          estimate D2E/DX2                !
 ! D1    D(2,1,3,4)             18.3494         estimate D2E/DX2                !
 ! D2    D(2,1,3,5)           -161.8229         estimate D2E/DX2                !
 ! D3    D(14,1,3,4)           -98.1203         estimate D2E/DX2                !
 ! D4    D(14,1,3,5)            81.7075         estimate D2E/DX2                !
 ! D5    D(25,1,3,4)           135.5404         estimate D2E/DX2                !
 ! D6    D(25,1,3,5)           -44.6319         estimate D2E/DX2                !
 ! D7    D(2,1,14,15)         -149.6831         estimate D2E/DX2                !
 ! D8    D(2,1,14,16)           30.6786         estimate D2E/DX2                !
 ! D9    D(3,1,14,15)          -33.3024         estimate D2E/DX2                !
 ! D10   D(3,1,14,16)          147.0593         estimate D2E/DX2                !
 ! D11   D(25,1,14,15)          94.5455         estimate D2E/DX2                !
 ! D12   D(25,1,14,16)         -85.0928         estimate D2E/DX2                !
 ! D13   D(2,1,25,26)         -173.1076         estimate D2E/DX2                !
 ! D14   D(2,1,25,27)            5.8786         estimate D2E/DX2                !
 ! D15   D(3,1,25,26)           70.1063         estimate D2E/DX2                !
 ! D16   D(3,1,25,27)         -110.9074         estimate D2E/DX2                !
 ! D17   D(14,1,25,26)         -57.6745         estimate D2E/DX2                !
 ! D18   D(14,1,25,27)         121.3118         estimate D2E/DX2                !
 ! D19   D(1,3,4,6)            179.9039         estimate D2E/DX2                !
 ! D20   D(1,3,4,7)             -0.0215         estimate D2E/DX2                !
 ! D21   D(5,3,4,6)              0.0694         estimate D2E/DX2                !
 ! D22   D(5,3,4,7)           -179.8559         estimate D2E/DX2                !
 ! D23   D(1,3,5,8)            179.9351         estimate D2E/DX2                !
 ! D24   D(1,3,5,9)              0.4084         estimate D2E/DX2                !
 ! D25   D(4,3,5,8)             -0.2381         estimate D2E/DX2                !
 ! D26   D(4,3,5,9)           -179.7648         estimate D2E/DX2                !
 ! D27   D(3,4,6,10)             0.1058         estimate D2E/DX2                !
 ! D28   D(3,4,6,11)          -179.9412         estimate D2E/DX2                !
 ! D29   D(7,4,6,10)          -179.9686         estimate D2E/DX2                !
 ! D30   D(7,4,6,11)            -0.0156         estimate D2E/DX2                !
 ! D31   D(3,5,8,10)             0.2325         estimate D2E/DX2                !
 ! D32   D(3,5,8,12)          -179.7252         estimate D2E/DX2                !
 ! D33   D(9,5,8,10)           179.7569         estimate D2E/DX2                !
 ! D34   D(9,5,8,12)            -0.2008         estimate D2E/DX2                !
 ! D35   D(4,6,10,8)            -0.1135         estimate D2E/DX2                !
 ! D36   D(4,6,10,13)          179.8564         estimate D2E/DX2                !
 ! D37   D(11,6,10,8)          179.9335         estimate D2E/DX2                !
 ! D38   D(11,6,10,13)          -0.0966         estimate D2E/DX2                !
 ! D39   D(5,8,10,6)            -0.0547         estimate D2E/DX2                !
 ! D40   D(5,8,10,13)          179.9754         estimate D2E/DX2                !
 ! D41   D(12,8,10,6)          179.9029         estimate D2E/DX2                !
 ! D42   D(12,8,10,13)          -0.067          estimate D2E/DX2                !
 ! D43   D(1,14,15,17)        -179.7014         estimate D2E/DX2                !
 ! D44   D(1,14,15,18)           0.8629         estimate D2E/DX2                !
 ! D45   D(16,14,15,17)         -0.0656         estimate D2E/DX2                !
 ! D46   D(16,14,15,18)       -179.5013         estimate D2E/DX2                !
 ! D47   D(1,14,16,19)         179.6016         estimate D2E/DX2                !
 ! D48   D(1,14,16,20)          -0.1587         estimate D2E/DX2                !
 ! D49   D(15,14,16,19)         -0.0501         estimate D2E/DX2                !
 ! D50   D(15,14,16,20)       -179.8104         estimate D2E/DX2                !
 ! D51   D(14,15,17,21)          0.1263         estimate D2E/DX2                !
 ! D52   D(14,15,17,22)       -179.8167         estimate D2E/DX2                !
 ! D53   D(18,15,17,21)        179.563          estimate D2E/DX2                !
 ! D54   D(18,15,17,22)         -0.3799         estimate D2E/DX2                !
 ! D55   D(14,16,19,21)          0.1059         estimate D2E/DX2                !
 ! D56   D(14,16,19,23)       -179.9109         estimate D2E/DX2                !
 ! D57   D(20,16,19,21)        179.8668         estimate D2E/DX2                !
 ! D58   D(20,16,19,23)         -0.1499         estimate D2E/DX2                !
 ! D59   D(15,17,21,19)         -0.0703         estimate D2E/DX2                !
 ! D60   D(15,17,21,24)        179.983          estimate D2E/DX2                !
 ! D61   D(22,17,21,19)        179.8725         estimate D2E/DX2                !
 ! D62   D(22,17,21,24)         -0.0742         estimate D2E/DX2                !
 ! D63   D(16,19,21,17)         -0.0453         estimate D2E/DX2                !
 ! D64   D(16,19,21,24)        179.9014         estimate D2E/DX2                !
 ! D65   D(23,19,21,17)        179.9714         estimate D2E/DX2                !
 ! D66   D(23,19,21,24)         -0.0818         estimate D2E/DX2                !
 ! D67   D(1,25,26,28)         178.4988         estimate D2E/DX2                !
 ! D68   D(1,25,26,29)          -2.796          estimate D2E/DX2                !
 ! D69   D(27,25,26,28)         -0.4873         estimate D2E/DX2                !
 ! D70   D(27,25,26,29)        178.218          estimate D2E/DX2                !
 ! D71   D(1,25,27,30)        -178.7246         estimate D2E/DX2                !
 ! D72   D(1,25,27,31)           1.2096         estimate D2E/DX2                !
 ! D73   D(26,25,27,30)          0.2906         estimate D2E/DX2                !
 ! D74   D(26,25,27,31)       -179.7753         estimate D2E/DX2                !
 ! D75   D(25,26,28,32)          0.2668         estimate D2E/DX2                !
 ! D76   D(25,26,28,33)       -179.7687         estimate D2E/DX2                !
 ! D77   D(29,26,28,32)       -178.418          estimate D2E/DX2                !
 ! D78   D(29,26,28,33)          1.5465         estimate D2E/DX2                !
 ! D79   D(25,27,30,32)          0.1267         estimate D2E/DX2                !
 ! D80   D(25,27,30,34)       -179.9731         estimate D2E/DX2                !
 ! D81   D(31,27,30,32)       -179.8077         estimate D2E/DX2                !
 ! D82   D(31,27,30,34)          0.0924         estimate D2E/DX2                !
 ! D83   D(26,28,32,30)          0.1556         estimate D2E/DX2                !
 ! D84   D(26,28,32,35)       -179.9409         estimate D2E/DX2                !
 ! D85   D(33,28,32,30)       -179.8089         estimate D2E/DX2                !
 ! D86   D(33,28,32,35)          0.0946         estimate D2E/DX2                !
 ! D87   D(27,30,32,28)         -0.3515         estimate D2E/DX2                !
 ! D88   D(27,30,32,35)        179.745          estimate D2E/DX2                !
 ! D89   D(34,30,32,28)        179.7486         estimate D2E/DX2                !
 ! D90   D(34,30,32,35)         -0.1549         estimate D2E/DX2                !
 --------------------------------------------------------------------------------
 Trust Radius=3.00D-01 FncErr=1.00D-07 GrdErr=1.00D-07
 Number of steps in this run= 197 maximum allowed number of steps= 210.
 GradGradGradGradGradGradGradGradGradGradGradGradGradGradGradGradGradGrad

                          Input orientation:                          
 ---------------------------------------------------------------------
 Center     Atomic      Atomic             Coordinates (Angstroms)
 Number     Number       Type             X           Y           Z
 ---------------------------------------------------------------------
      1          6           0        0.036503   -0.759519    0.109764
      2          1           0        0.031146   -1.875322    0.244870
      3          6           0        1.468109   -0.317979    0.286155
      4          6           0        2.478205   -1.277904    0.170366
      5          6           0        1.822390    1.005028    0.555544
      6          6           0        3.812342   -0.919749    0.322623
      7          1           0        2.219654   -2.321832   -0.043311
      8          6           0        3.157295    1.360985    0.711032
      9          1           0        1.033931    1.768759    0.652635
     10          6           0        4.155249    0.400247    0.594493
     11          1           0        4.594457   -1.680106    0.228767
     12          1           0        3.420647    2.401615    0.926544
     13          1           0        5.206164    0.681107    0.716608
     14          6           0       -0.497592   -0.493622   -1.277295
     15          6           0       -0.102128    0.606330   -2.037665
     16          6           0       -1.431789   -1.387141   -1.811003
     17          6           0       -0.629018    0.809769   -3.308874
     18          1           0        0.636225    1.311835   -1.635837
     19          6           0       -1.958473   -1.180692   -3.079813
     20          1           0       -1.755194   -2.254997   -1.224513
     21          6           0       -1.557794   -0.081448   -3.832357
     22          1           0       -0.308420    1.675450   -3.897368
     23          1           0       -2.690309   -1.885508   -3.487578
     24          1           0       -1.972017    0.079696   -4.832688
     25          6           0       -0.894657   -0.184483    1.148883
     26          6           0       -1.229997    1.170294    1.169280
     27          6           0       -1.453173   -1.036425    2.104963
     28          6           0       -2.114740    1.664176    2.120291
     29          1           0       -0.766031    1.845059    0.433806
     30          6           0       -2.335046   -0.540257    3.058380
     31          1           0       -1.197424   -2.102724    2.105308
     32          6           0       -2.670381    0.809249    3.065948
     33          1           0       -2.372841    2.728055    2.123630
     34          1           0       -2.767213   -1.215578    3.803764
     35          1           0       -3.368081    1.197632    3.814647
 ---------------------------------------------------------------------
                    Distance matrix (angstroms):
                    1          2          3          4          5
     1  C    0.000000
     2  H    1.123966   0.000000
     3  C    1.508498   2.119407   0.000000
     4  C    2.496860   2.520031   1.398270   0.000000
     5  C    2.549850   3.406096   1.395862   2.406290   0.000000
     6  C    3.785228   3.900848   2.420514   1.389741   2.778296
     7  H    2.688942   2.252107   2.165363   1.096491   3.403593
     8  C    3.820655   4.523693   2.419254   2.777988   1.390271
     9  H    2.771598   3.801470   2.162705   3.405975   1.101989
    10  C    4.306285   4.723207   2.798507   2.410094   2.410292
    11  H    4.651514   4.567513   3.410679   2.154924   3.873123
    12  H    4.702375   5.499599   3.408621   3.872837   2.154652
    13  H    5.400839   5.791259   3.893137   3.402626   3.403056
    14  C    1.509931   2.122650   2.517778   3.400910   3.314749
    15  C    2.548767   3.374363   2.952987   3.883795   3.253838
    16  C    2.497826   2.570042   3.735049   4.384725   4.681099
    17  C    3.820035   4.502736   4.312075   5.110610   4.580529
    18  H    2.774401   3.749821   2.653748   3.655409   2.510631
    19  C    3.785593   3.936319   4.880110   5.500657   5.682263
    20  H    2.688294   2.343981   4.052633   4.563120   5.157079
    21  C    4.306028   4.729323   5.116070   5.808837   5.644444
    22  H    4.701611   5.466390   4.963031   5.747525   4.981790
    23  H    4.652335   4.619263   5.830150   6.361075   6.713157
    24  H    5.400580   5.797961   6.180223   6.832138   6.654833
    25  C    1.509136   2.129152   2.518886   3.678215   3.024786
    26  C    2.539837   3.423564   3.205408   4.554368   3.117860
    27  C    2.505320   2.523271   3.515411   4.388247   4.159031
    28  C    3.813707   4.544236   4.486625   5.792511   4.287645
    29  H    2.744611   3.809518   3.113184   4.510805   2.724040
    30  C    3.790337   3.911151   4.711542   5.661460   5.092776
    31  H    2.703511   2.241054   3.687777   4.234923   4.602083
    32  C    4.304332   4.739584   5.111262   6.264866   5.150287
    33  H    4.692948   5.522678   5.235221   6.587533   4.798717
    34  H    4.659876   4.575128   5.578280   6.381212   6.045368
    35  H    5.398869   5.808709   6.175441   7.320391   6.131871
                    6          7          8          9         10
     6  C    0.000000
     7  H    2.153230   0.000000
     8  C    2.404516   3.874448   0.000000
     9  H    3.880278   4.315462   2.162953   0.000000
    10  C    1.390644   3.400447   1.390148   3.408641   0.000000
    11  H    1.094830   2.474980   3.397977   4.975106   2.157436
    12  H    3.398471   4.969302   1.094857   2.484340   2.157631
    13  H    2.158866   4.302832   2.158733   4.312146   1.094630
    14  C    4.617018   3.499785   4.555350   3.344930   5.094264
    15  C    4.819021   4.235830   4.329974   3.143181   5.009590
    16  C    5.680822   4.163102   5.913759   4.702020   6.340045
    17  C    5.992052   5.346565   5.549743   4.402115   6.188150
    18  H    4.347788   4.271642   3.444706   2.367288   4.264844
    19  C    6.704250   5.289545   6.855779   5.620045   7.305990
    20  H    5.930765   4.147182   6.399547   5.243425   6.729966
    21  C    6.841416   5.800457   6.704853   5.500496   7.243473
    22  H    6.443917   6.101080   5.774722   4.744801   6.459667
    23  H    7.598342   6.013409   7.896994   6.660705   8.291541
    24  H    7.812486   6.802615   7.660572   6.478998   8.191486
    25  C    4.835201   3.960874   4.358727   2.789421   5.113787
    26  C    5.523612   5.056225   4.415279   2.398010   5.470304
    27  C    5.560216   4.444886   5.380245   4.020447   5.983306
    28  C    6.711079   6.273469   5.465555   3.475497   6.575587
    29  H    5.349582   5.148295   3.962785   1.814819   5.131500
    30  C    6.739344   5.791355   6.268219   4.740165   7.005656
    31  H    5.447490   4.042399   5.736276   4.698679   6.099060
    32  C    7.248515   6.586624   6.309664   4.524010   7.270805
    33  H    7.403148   7.161565   5.869133   3.832776   7.097388
    34  H    7.449591   6.394734   7.162644   5.769278   7.799409
    35  H    8.260509   7.648089   7.227700   5.449974   8.222269
                   11         12         13         14         15
    11  H    0.000000
    12  H    4.304088   0.000000
    13  H    2.487469   2.488431   0.000000
    14  C    5.441041   5.347140   6.155361   0.000000
    15  C    5.694068   4.941612   5.980767   1.394435   0.000000
    16  C    6.368841   6.737579   7.397897   1.398551   2.406927
    17  C    6.782262   6.072275   7.090163   2.417316   1.391033
    18  H    5.300571   3.937819   5.178431   2.161891   1.097438
    19  C    7.357785   7.603864   8.319322   2.419775   2.779485
    20  H    6.539158   7.287003   7.800587   2.164899   3.403092
    21  C    7.543118   7.321040   8.186922   2.796830   2.411000
    22  H    7.233460   6.140308   7.258658   3.406676   2.155010
    23  H    8.180539   8.672236   9.306824   3.410382   3.874298
    24  H    8.475483   8.224408   9.093000   3.891457   3.403818
    25  C    5.763148   5.035791   6.177064   2.477815   3.377510
    26  C    6.552374   4.817007   6.470578   3.048076   3.445960
    27  C    6.364610   6.079713   7.015997   3.556324   4.656751
    28  C    7.731455   5.710460   7.518802   4.337610   4.739013
    29  H    6.419007   4.252154   6.091130   2.910216   2.843129
    30  C    7.571259   6.806418   7.990336   4.709192   5.680691
    31  H    6.102941   6.557830   7.119279   3.810640   5.069800
    32  C    8.186840   6.649308   8.220449   5.028146   5.716989
    33  H    8.459647   5.924870   7.975652   5.045994   5.193672
    34  H    8.196985   7.723476   8.758007   5.611556   6.674153
    35  H    9.194668   7.475128   9.131392   6.085058   6.727975
                   16         17         18         19         20
    16  C    0.000000
    17  C    2.777494   0.000000
    18  H    3.404679   2.156841   0.000000
    19  C    1.389207   2.404549   3.876883   0.000000
    20  H    1.096237   3.873710   4.313974   2.153507   0.000000
    21  C    2.409685   1.389578   3.402890   1.391116   3.400608
    22  H    3.872252   1.094765   2.477719   3.398326   4.968473
    23  H    2.154796   3.397849   4.971698   1.094816   2.476374
    24  H    3.402063   2.158393   4.305920   2.159012   4.303107
    25  C    3.239725   4.575008   3.512440   4.472807   3.265051
    26  C    3.932338   4.532662   3.372166   4.910459   4.211733
    27  C    3.931698   5.779040   4.886051   5.211338   3.558306
    28  C    5.023149   5.693261   4.669096   5.929484   5.164969
    29  H    3.991180   3.885647   2.556183   4.787756   4.531989
    30  C    5.024338   6.728672   5.856140   6.182991   4.649702
    31  H    3.988042   6.174064   5.386804   5.321167   3.379645
    32  C    5.490254   6.693693   5.770011   6.499005   5.351189
    33  H    5.770767   6.019372   5.019338   6.521183   6.035094
    34  H    5.773941   7.698281   6.896410   6.931011   5.233368
    35  H    6.486772   7.641823   6.764266   7.428123   6.317846
                   21         22         23         24         25
    21  C    0.000000
    22  H    2.156816   0.000000
    23  H    2.157798   4.303690   0.000000
    24  H    1.094628   2.487732   2.487426   0.000000
    25  C    5.026243   5.409960   5.254961   6.083558   0.000000
    26  C    5.166303   5.174496   5.758191   6.145211   1.395811
    27  C    6.014540   6.685260   5.790333   7.045986   1.397081
    28  C    6.228275   6.282924   6.661812   7.132662   2.418631
    29  H    4.747470   4.358582   5.744321   5.683913   2.155672
    30  C    6.949595   7.576212   6.692195   7.923703   2.418155
    31  H    6.282618   7.148219   5.792776   7.314283   2.164732
    32  C    7.043991   7.403846   7.085959   7.962940   2.795682
    33  H    6.635616   6.451529   7.271273   7.454182   3.408524
    34  H    7.814044   8.585519   7.322458   8.769171   3.408521
    35  H    7.961775   8.310536   7.955352   8.830355   3.890291
                   26         27         28         29         30
    26  C    0.000000
    27  C    2.407264   0.000000
    28  C    1.389645   2.780495   0.000000
    29  H    1.100679   3.401159   2.167018   0.000000
    30  C    2.777735   1.390283   2.405841   3.878135   0.000000
    31  H    3.404388   1.096541   3.877014   4.308714   2.154956
    32  C    2.408819   2.410726   1.390649   3.409930   1.390566
    33  H    2.154877   3.875235   1.094744   2.493397   3.399565
    34  H    3.872457   2.155161   3.398939   4.972811   1.094726
    35  H    3.401488   3.403073   2.158557   4.315080   2.158555
                   31         32         33         34         35
    31  H    0.000000
    32  C    3.401768   0.000000
    33  H    4.971757   2.158311   0.000000
    34  H    2.477099   2.157238   4.304720   0.000000
    35  H    4.304178   1.094612   2.488420   2.486915   0.000000
 Stoichiometry    C19H16
 Framework group  C1[X(C19H16)]
 Deg. of freedom    99
 Full point group                 C1      NOp   1
 Largest Abelian subgroup         C1      NOp   1
 Largest concise Abelian subgroup C1      NOp   1
                         Standard orientation:                         
 ---------------------------------------------------------------------
 Center     Atomic      Atomic             Coordinates (Angstroms)
 Number     Number       Type             X           Y           Z
 ---------------------------------------------------------------------
      1          6           0        0.022519   -0.012755   -0.753917
      2          1           0       -0.000190   -0.006283   -1.877635
      3          6           0        1.457287   -0.261902   -0.360300
      4          6           0        2.455692   -0.039366   -1.313623
      5          6           0        1.825694   -0.700230    0.912718
      6          6           0        3.792222   -0.252813   -0.998176
      7          1           0        2.186007    0.307332   -2.318293
      8          6           0        3.162914   -0.916615    1.225568
      9          1           0        1.046461   -0.882409    1.670336
     10          6           0        4.149179   -0.693075    0.271722
     11          1           0        4.565111   -0.074185   -1.752755
     12          1           0        3.437326   -1.264782    2.226662
     13          1           0        5.201929   -0.863213    0.518677
     14          6           0       -0.487218    1.336637   -0.307599
     15          6           0       -0.065419    1.947328    0.872906
     16          6           0       -1.425592    1.990646   -1.112378
     17          6           0       -0.570532    3.189567    1.242602
     18          1           0        0.676523    1.450346    1.510793
     19          6           0       -1.930493    3.230124   -0.740002
     20          1           0       -1.769574    1.522291   -2.041924
     21          6           0       -1.503606    3.833074    0.438736
     22          1           0       -0.229357    3.660220    2.170286
     23          1           0       -2.665821    3.732824   -1.376560
     24          1           0       -1.900678    4.810470    0.730695
     25          6           0       -0.915966   -1.103790   -0.299624
     26          6           0       -1.232905   -1.290163    1.046892
     27          6           0       -1.500278   -1.937712   -1.256174
     28          6           0       -2.124790   -2.284188    1.431035
     29          1           0       -0.748834   -0.651547    1.801439
     30          6           0       -2.389298   -2.934448   -0.870110
     31          1           0       -1.259252   -1.807184   -2.317904
     32          6           0       -2.706115   -3.107432    0.472789
     33          1           0       -2.368255   -2.418034    2.489938
     34          1           0       -2.841730   -3.583237   -1.626947
     35          1           0       -3.409444   -3.889924    0.774800
 ---------------------------------------------------------------------
 Rotational constants (GHZ):      0.4000490      0.3720735      0.2368767
 Standard basis: 6-311G (5D, 7F)
 There are   295 symmetry adapted basis functions of A   symmetry.
 Integral buffers will be    262144 words long.
 Raffenetti 1 integral format.
 Two-electron integral symmetry is turned on.
   295 basis functions,   574 primitive gaussians,   295 cartesian basis functions
    65 alpha electrons       65 beta electrons
       nuclear repulsion energy      1288.3778866253 Hartrees.
 NAtoms=   35 NActive=   35 NUniq=   35 SFac= 7.50D-01 NAtFMM=   80 NAOKFM=F Big=F
 One-electron integrals computed using PRISM.
 PrsmSu:  requested number of processors reduced to:  10 ShMem   1 Linda.
 NBasis=   295 RedAO= T  NBF=   295
 NBsUse=   295 1.00D-06 NBFU=   295
 Harris functional with IExCor=  205 diagonalized for initial guess.
 ExpMin= 1.03D-01 ExpMax= 4.56D+03 ExpMxC= 6.82D+02 IAcc=1 IRadAn=         1 AccDes= 0.00D+00
 HarFok:  IExCor=  205 AccDes= 0.00D+00 IRadAn=         1 IDoV= 1
 ScaDFX=  1.000000  1.000000  1.000000  1.000000
 FoFCou: FMM=F IPFlag=           0 FMFlag=      100000 FMFlg1=           0
         NFxFlg=           0 DoJE=T BraDBF=F KetDBF=T FulRan=T
         Omega=  0.000000  0.000000  1.000000  0.000000  0.000000 ICntrl=     500 IOpCl=  0
         NMat0=    1 NMatS0=    1 NMatT0=    0 NMatD0=    1 NMtDS0=    0 NMtDT0=    0
         I1Cent=           4 NGrid=           0.
 Petite list used in FoFCou.
 Initial guess orbital symmetries:
       Occupied  (A) (A) (A) (A) (A) (A) (A) (A) (A) (A) (A) (A)
                 (A) (A) (A) (A) (A) (A) (A) (A) (A) (A) (A) (A)
                 (A) (A) (A) (A) (A) (A) (A) (A) (A) (A) (A) (A)
                 (A) (A) (A) (A) (A) (A) (A) (A) (A) (A) (A) (A)
                 (A) (A) (A) (A) (A) (A) (A) (A) (A) (A) (A) (A)
                 (A) (A) (A) (A) (A)
       Virtual   (A) (A) (A) (A) (A) (A) (A) (A) (A) (A) (A) (A)
                 (A) (A) (A) (A) (A) (A) (A) (A) (A) (A) (A) (A)
                 (A) (A) (A) (A) (A) (A) (A) (A) (A) (A) (A) (A)
                 (A) (A) (A) (A) (A) (A) (A) (A) (A) (A) (A) (A)
                 (A) (A) (A) (A) (A) (A) (A) (A) (A) (A) (A) (A)
                 (A) (A) (A) (A) (A) (A) (A) (A) (A) (A) (A) (A)
                 (A) (A) (A) (A) (A) (A) (A) (A) (A) (A) (A) (A)
                 (A) (A) (A) (A) (A) (A) (A) (A) (A) (A) (A) (A)
                 (A) (A) (A) (A) (A) (A) (A) (A) (A) (A) (A) (A)
                 (A) (A) (A) (A) (A) (A) (A) (A) (A) (A) (A) (A)
                 (A) (A) (A) (A) (A) (A) (A) (A) (A) (A) (A) (A)
                 (A) (A) (A) (A) (A) (A) (A) (A) (A) (A) (A) (A)
                 (A) (A) (A) (A) (A) (A) (A) (A) (A) (A) (A) (A)
                 (A) (A) (A) (A) (A) (A) (A) (A) (A) (A) (A) (A)
                 (A) (A) (A) (A) (A) (A) (A) (A) (A) (A) (A) (A)
                 (A) (A) (A) (A) (A) (A) (A) (A) (A) (A) (A) (A)
                 (A) (A) (A) (A) (A) (A) (A) (A) (A) (A) (A) (A)
                 (A) (A) (A) (A) (A) (A) (A) (A) (A) (A) (A) (A)
                 (A) (A) (A) (A) (A) (A) (A) (A) (A) (A) (A) (A)
                 (A) (A)
 The electronic state of the initial guess is 1-A.
 Requested convergence on RMS density matrix=1.00D-08 within 128 cycles.
 Requested convergence on MAX density matrix=1.00D-06.
 Requested convergence on             energy=1.00D-06.
 No special actions if energy rises.
 Integral accuracy reduced to 1.0D-05 until final iterations.
 Initial convergence to 1.0D-05 achieved.  Increase integral accuracy.
 SCF Done:  E(RHF) =  -728.671738877     A.U. after   14 cycles
             Convg  =    0.6168D-08             -V/T =  2.0001

 **********************************************************************

            Population analysis using the SCF density.

 **********************************************************************

 Orbital symmetries:
       Occupied  (A) (A) (A) (A) (A) (A) (A) (A) (A) (A) (A) (A)
                 (A) (A) (A) (A) (A) (A) (A) (A) (A) (A) (A) (A)
                 (A) (A) (A) (A) (A) (A) (A) (A) (A) (A) (A) (A)
                 (A) (A) (A) (A) (A) (A) (A) (A) (A) (A) (A) (A)
                 (A) (A) (A) (A) (A) (A) (A) (A) (A) (A) (A) (A)
                 (A) (A) (A) (A) (A)
       Virtual   (A) (A) (A) (A) (A) (A) (A) (A) (A) (A) (A) (A)
                 (A) (A) (A) (A) (A) (A) (A) (A) (A) (A) (A) (A)
                 (A) (A) (A) (A) (A) (A) (A) (A) (A) (A) (A) (A)
                 (A) (A) (A) (A) (A) (A) (A) (A) (A) (A) (A) (A)
                 (A) (A) (A) (A) (A) (A) (A) (A) (A) (A) (A) (A)
                 (A) (A) (A) (A) (A) (A) (A) (A) (A) (A) (A) (A)
                 (A) (A) (A) (A) (A) (A) (A) (A) (A) (A) (A) (A)
                 (A) (A) (A) (A) (A) (A) (A) (A) (A) (A) (A) (A)
                 (A) (A) (A) (A) (A) (A) (A) (A) (A) (A) (A) (A)
                 (A) (A) (A) (A) (A) (A) (A) (A) (A) (A) (A) (A)
                 (A) (A) (A) (A) (A) (A) (A) (A) (A) (A) (A) (A)
                 (A) (A) (A) (A) (A) (A) (A) (A) (A) (A) (A) (A)
                 (A) (A) (A) (A) (A) (A) (A) (A) (A) (A) (A) (A)
                 (A) (A) (A) (A) (A) (A) (A) (A) (A) (A) (A) (A)
                 (A) (A) (A) (A) (A) (A) (A) (A) (A) (A) (A) (A)
                 (A) (A) (A) (A) (A) (A) (A) (A) (A) (A) (A) (A)
                 (A) (A) (A) (A) (A) (A) (A) (A) (A) (A) (A) (A)
                 (A) (A) (A) (A) (A) (A) (A) (A) (A) (A) (A) (A)
                 (A) (A) (A) (A) (A) (A) (A) (A) (A) (A) (A) (A)
                 (A) (A)
 The electronic state is 1-A.
 Alpha  occ. eigenvalues --  -11.25831 -11.25273 -11.25263 -11.25128 -11.24448
 Alpha  occ. eigenvalues --  -11.24433 -11.24355 -11.24349 -11.24208 -11.24188
 Alpha  occ. eigenvalues --  -11.24128 -11.24116 -11.24112 -11.24053 -11.24027
 Alpha  occ. eigenvalues --  -11.24019 -11.23911 -11.23832 -11.23737  -1.18592
 Alpha  occ. eigenvalues --   -1.15826  -1.15683  -1.09038  -1.02410  -1.02114
 Alpha  occ. eigenvalues --   -1.01890  -1.01499  -1.01389  -0.92963  -0.84537
 Alpha  occ. eigenvalues --   -0.82943  -0.82543  -0.81707  -0.81564  -0.77733
 Alpha  occ. eigenvalues --   -0.70732  -0.70449  -0.69108  -0.65998  -0.63618
 Alpha  occ. eigenvalues --   -0.63502  -0.62370  -0.62034  -0.61901  -0.59568
 Alpha  occ. eigenvalues --   -0.58772  -0.58519  -0.58430  -0.57617  -0.53918
 Alpha  occ. eigenvalues --   -0.51741  -0.51080  -0.50854  -0.49676  -0.49167
 Alpha  occ. eigenvalues --   -0.48682  -0.47792  -0.47471  -0.46764  -0.34694
 Alpha  occ. eigenvalues --   -0.34243  -0.33699  -0.33588  -0.33278  -0.31181
 Alpha virt. eigenvalues --    0.11653   0.12014   0.13581   0.13745   0.14054
 Alpha virt. eigenvalues --    0.14932   0.15135   0.16274   0.16375   0.16882
 Alpha virt. eigenvalues --    0.18808   0.19133   0.19284   0.21284   0.21420
 Alpha virt. eigenvalues --    0.21512   0.23640   0.24241   0.24982   0.27160
 Alpha virt. eigenvalues --    0.28522   0.29481   0.34029   0.34193   0.35873
 Alpha virt. eigenvalues --    0.37464   0.38511   0.39680   0.40952   0.43682
 Alpha virt. eigenvalues --    0.44099   0.44376   0.45030   0.45397   0.45575
 Alpha virt. eigenvalues --    0.45871   0.46404   0.48413   0.49900   0.50382
 Alpha virt. eigenvalues --    0.50799   0.51017   0.51447   0.54977   0.55781
 Alpha virt. eigenvalues --    0.56804   0.57907   0.58955   0.59054   0.59612
 Alpha virt. eigenvalues --    0.59687   0.60667   0.61071   0.61496   0.61699
 Alpha virt. eigenvalues --    0.61851   0.62384   0.62469   0.63285   0.63464
 Alpha virt. eigenvalues --    0.64130   0.64996   0.65164   0.65422   0.66900
 Alpha virt. eigenvalues --    0.67410   0.68223   0.68435   0.70115   0.71397
 Alpha virt. eigenvalues --    0.72345   0.73797   0.74456   0.75069   0.76217
 Alpha virt. eigenvalues --    0.77289   0.78318   0.78617   0.80471   0.81180
 Alpha virt. eigenvalues --    0.81859   0.82195   0.82343   0.82821   0.82912
 Alpha virt. eigenvalues --    0.83517   0.83922   0.84058   0.84786   0.85605
 Alpha virt. eigenvalues --    0.86040   0.86385   0.86902   0.87459   0.88061
 Alpha virt. eigenvalues --    0.89665   0.90555   0.91264   0.92977   0.94407
 Alpha virt. eigenvalues --    0.96094   0.96853   0.97684   0.98138   0.98943
 Alpha virt. eigenvalues --    0.99331   1.00298   1.02793   1.05747   1.06228
 Alpha virt. eigenvalues --    1.06805   1.07137   1.08017   1.08382   1.10511
 Alpha virt. eigenvalues --    1.11087   1.12220   1.12492   1.12989   1.14262
 Alpha virt. eigenvalues --    1.14640   1.15381   1.18589   1.19498   1.21724
 Alpha virt. eigenvalues --    1.25352   1.26743   1.27696   1.28216   1.28837
 Alpha virt. eigenvalues --    1.30336   1.35128   1.39533   1.45226   1.46618
 Alpha virt. eigenvalues --    1.51673   1.52264   1.56503   2.54621   2.55623
 Alpha virt. eigenvalues --    2.56174   2.59197   2.61971   2.62499   2.64465
 Alpha virt. eigenvalues --    2.67000   2.67721   2.68453   2.72306   2.76750
 Alpha virt. eigenvalues --    2.77765   2.83500   2.87920   2.88624   2.94131
 Alpha virt. eigenvalues --    2.94275   2.94425   2.97079   2.97453   2.98028
 Alpha virt. eigenvalues --    3.00375   3.00774   3.04045   3.05737   3.07130
 Alpha virt. eigenvalues --    3.08135   3.08429   3.08977   3.09974   3.14334
 Alpha virt. eigenvalues --    3.14778   3.16345   3.16831   3.17569   3.18832
 Alpha virt. eigenvalues --    3.22644   3.25643   3.25821   3.28293   3.28900
 Alpha virt. eigenvalues --    3.30919   3.33378   3.34272   3.35152   3.42620
 Alpha virt. eigenvalues --    3.43063   3.44414   3.46947   3.49486   3.52246
 Alpha virt. eigenvalues --    3.53440   3.54455   3.59238   3.60656   3.60673
 Alpha virt. eigenvalues --    3.63132   3.63505   3.63782   3.65967   3.66666
 Alpha virt. eigenvalues --    3.68377   3.70283   3.70472   3.71426   3.73485
 Alpha virt. eigenvalues --    3.74200   3.75555   3.80869   3.85863   3.86662
 Alpha virt. eigenvalues --    3.93022  24.24837  24.30690  24.31558  24.50538
 Alpha virt. eigenvalues --   24.50841  24.51119  24.53993  24.54669  24.56105
 Alpha virt. eigenvalues --   24.77296  24.78600  24.79142  24.79614  24.80642
 Alpha virt. eigenvalues --   24.81841  24.83246  25.05547  25.05812  25.06131
          Condensed to atoms (all electrons):
              1          2          3          4          5          6
     1  C    5.829962   0.463889   0.170739  -0.045309  -0.045841   0.008264
     2  H    0.463889   0.512408  -0.073780   0.002812   0.005101   0.001516
     3  C    0.170739  -0.073780   5.366725   0.495153   0.450272  -0.071546
     4  C   -0.045309   0.002812   0.495153   5.040894  -0.061504   0.471718
     5  C   -0.045841   0.005101   0.450272  -0.061504   5.121699  -0.031229
     6  C    0.008264   0.001516  -0.071546   0.471718  -0.031229   5.044562
     7  H   -0.000716   0.002682  -0.045669   0.394476   0.004753  -0.034687
     8  C    0.003573  -0.000275  -0.064440  -0.036117   0.473388  -0.075113
     9  H   -0.000312  -0.000141  -0.053042   0.004508   0.386614  -0.000213
    10  C    0.001139  -0.000016  -0.017768  -0.086737  -0.094820   0.494602
    11  H   -0.000389  -0.000029   0.007149  -0.039670  -0.000598   0.396663
    12  H   -0.000295   0.000014   0.006032  -0.000392  -0.036768   0.005898
    13  H   -0.000019  -0.000001  -0.001593   0.007489   0.008118  -0.042959
    14  C    0.157588  -0.059904  -0.103922  -0.001460  -0.005832  -0.000716
    15  C   -0.040071   0.004913  -0.014432   0.001908  -0.007351   0.000226
    16  C   -0.050063  -0.003280   0.006376   0.000453  -0.000176   0.000003
    17  C    0.004821  -0.000248   0.000516  -0.000090   0.000016  -0.000003
    18  H   -0.001648  -0.000067  -0.003166  -0.000887   0.001084  -0.000135
    19  C    0.006261   0.001550  -0.000759  -0.000017   0.000025   0.000001
    20  H    0.001775   0.001060   0.000695   0.000013  -0.000038   0.000001
    21  C    0.000991   0.000009   0.000046  -0.000013  -0.000019   0.000000
    22  H   -0.000325   0.000013   0.000037   0.000007   0.000028   0.000001
    23  H   -0.000351  -0.000026   0.000011   0.000001   0.000000   0.000000
    24  H   -0.000012  -0.000002  -0.000001   0.000000   0.000001   0.000000
    25  C    0.185287  -0.074313  -0.112262   0.001971  -0.004640  -0.000680
    26  C   -0.054368   0.005549  -0.006297   0.000221  -0.017205   0.000029
    27  C   -0.026222   0.002068  -0.000336   0.000195   0.001494  -0.000004
    28  C    0.001400  -0.000282   0.001776   0.000028  -0.001737  -0.000001
    29  H    0.003102   0.000067  -0.003178  -0.000195   0.000308   0.000016
    30  C    0.007684   0.001759  -0.000602  -0.000009   0.000125   0.000001
    31  H   -0.000483   0.002417   0.000560   0.000135   0.000002   0.000003
    32  C    0.001273  -0.000013  -0.000035  -0.000001   0.000045   0.000000
    33  H   -0.000319   0.000012   0.000008   0.000000   0.000016   0.000000
    34  H   -0.000368  -0.000037   0.000020   0.000000  -0.000001   0.000000
    35  H   -0.000013  -0.000001  -0.000001   0.000000   0.000001   0.000000
              7          8          9         10         11         12
     1  C   -0.000716   0.003573  -0.000312   0.001139  -0.000389  -0.000295
     2  H    0.002682  -0.000275  -0.000141  -0.000016  -0.000029   0.000014
     3  C   -0.045669  -0.064440  -0.053042  -0.017768   0.007149   0.006032
     4  C    0.394476  -0.036117   0.004508  -0.086737  -0.039670  -0.000392
     5  C    0.004753   0.473388   0.386614  -0.094820  -0.000598  -0.036768
     6  C   -0.034687  -0.075113  -0.000213   0.494602   0.396663   0.005898
     7  H    0.507679  -0.000401  -0.000243   0.005351  -0.004217   0.000022
     8  C   -0.000401   5.056497  -0.025342   0.495827   0.006228   0.395573
     9  H   -0.000243  -0.025342   0.498399   0.004794   0.000020  -0.003439
    10  C    0.005351   0.495827   0.004794   5.030368  -0.041064  -0.039659
    11  H   -0.004217   0.006228   0.000020  -0.041064   0.517946  -0.000212
    12  H    0.000022   0.395573  -0.003439  -0.039659  -0.000212   0.515487
    13  H   -0.000183  -0.042534  -0.000183   0.399173  -0.004551  -0.004352
    14  C    0.000479   0.000878  -0.000495   0.000023   0.000022  -0.000007
    15  C    0.000187  -0.001485   0.000341   0.000081  -0.000001   0.000013
    16  C    0.000118   0.000023  -0.000028  -0.000001   0.000000  -0.000001
    17  C    0.000009  -0.000031   0.000051   0.000004   0.000000   0.000001
    18  H   -0.000037   0.000956   0.000143   0.000047   0.000001  -0.000003
    19  C   -0.000008   0.000000   0.000006   0.000000   0.000000   0.000000
    20  H    0.000004   0.000000   0.000007   0.000000   0.000000   0.000000
    21  C   -0.000004   0.000000   0.000001   0.000000   0.000000   0.000000
    22  H    0.000000  -0.000001  -0.000017  -0.000001   0.000000   0.000000
    23  H    0.000000   0.000000   0.000000   0.000000   0.000000   0.000000
    24  H    0.000000   0.000000   0.000000   0.000000   0.000000   0.000000
    25  C    0.000363   0.001541  -0.003014   0.000021   0.000014   0.000011
    26  C   -0.000026  -0.000013   0.002868  -0.000004   0.000000   0.000031
    27  C   -0.000022   0.000042  -0.000257  -0.000011   0.000001   0.000002
    28  C    0.000002  -0.000089   0.001157   0.000001   0.000000   0.000000
    29  H   -0.000007   0.000859   0.003448  -0.000011   0.000000  -0.000053
    30  C    0.000001   0.000000  -0.000139   0.000000   0.000000   0.000000
    31  H   -0.000025   0.000003  -0.000004  -0.000001   0.000000   0.000000
    32  C    0.000000   0.000003   0.000079   0.000000   0.000000  -0.000001
    33  H    0.000000   0.000001  -0.000105   0.000000   0.000000   0.000001
    34  H    0.000000   0.000000   0.000000   0.000000   0.000000   0.000000
    35  H    0.000000   0.000000   0.000000   0.000000   0.000000   0.000000
             13         14         15         16         17         18
     1  C   -0.000019   0.157588  -0.040071  -0.050063   0.004821  -0.001648
     2  H   -0.000001  -0.059904   0.004913  -0.003280  -0.000248  -0.000067
     3  C   -0.001593  -0.103922  -0.014432   0.006376   0.000516  -0.003166
     4  C    0.007489  -0.001460   0.001908   0.000453  -0.000090  -0.000887
     5  C    0.008118  -0.005832  -0.007351  -0.000176   0.000016   0.001084
     6  C   -0.042959  -0.000716   0.000226   0.000003  -0.000003  -0.000135
     7  H   -0.000183   0.000479   0.000187   0.000118   0.000009  -0.000037
     8  C   -0.042534   0.000878  -0.001485   0.000023  -0.000031   0.000956
     9  H   -0.000183  -0.000495   0.000341  -0.000028   0.000051   0.000143
    10  C    0.399173   0.000023   0.000081  -0.000001   0.000004   0.000047
    11  H   -0.004551   0.000022  -0.000001   0.000000   0.000000   0.000001
    12  H   -0.004352  -0.000007   0.000013  -0.000001   0.000001  -0.000003
    13  H    0.517633   0.000001   0.000000   0.000000   0.000000   0.000001
    14  C    0.000001   5.366523   0.485897   0.473103  -0.064542  -0.042670
    15  C    0.000000   0.485897   5.087457  -0.072004   0.471608   0.390197
    16  C    0.000000   0.473103  -0.072004   5.071667  -0.031592   0.004194
    17  C    0.000000  -0.064542   0.471608  -0.031592   5.050331  -0.029940
    18  H    0.000001  -0.042670   0.390197   0.004194  -0.029940   0.481546
    19  C    0.000000  -0.065301  -0.027901   0.466325  -0.076931  -0.000182
    20  H    0.000000  -0.050644   0.004146   0.399582  -0.000335  -0.000249
    21  C    0.000000  -0.018542  -0.093453  -0.086083   0.499254   0.004711
    22  H    0.000000   0.006182  -0.037588  -0.000424   0.395921  -0.003333
    23  H    0.000000   0.006706  -0.000523  -0.039650   0.006130   0.000020
    24  H    0.000000  -0.001480   0.007822   0.007373  -0.042200  -0.000182
    25  C   -0.000002  -0.154224  -0.014052   0.000704   0.000631  -0.001030
    26  C    0.000001  -0.007692  -0.000051   0.000796  -0.000658   0.000494
    27  C    0.000000  -0.005702  -0.000318   0.002047   0.000027  -0.000082
    28  C    0.000000   0.000741  -0.000031  -0.000066  -0.000016   0.000062
    29  H    0.000000  -0.001874   0.004752  -0.000267   0.000445   0.001025
    30  C    0.000000  -0.000464   0.000048  -0.000099  -0.000001   0.000002
    31  H    0.000000   0.000150  -0.000048   0.000252   0.000000   0.000000
    32  C    0.000000   0.000097  -0.000004  -0.000014   0.000000   0.000002
    33  H    0.000000   0.000017  -0.000002   0.000006  -0.000001  -0.000009
    34  H    0.000000   0.000011   0.000000   0.000003   0.000000   0.000000
    35  H    0.000000  -0.000002   0.000000   0.000000   0.000000   0.000000
             19         20         21         22         23         24
     1  C    0.006261   0.001775   0.000991  -0.000325  -0.000351  -0.000012
     2  H    0.001550   0.001060   0.000009   0.000013  -0.000026  -0.000002
     3  C   -0.000759   0.000695   0.000046   0.000037   0.000011  -0.000001
     4  C   -0.000017   0.000013  -0.000013   0.000007   0.000001   0.000000
     5  C    0.000025  -0.000038  -0.000019   0.000028   0.000000   0.000001
     6  C    0.000001   0.000001   0.000000   0.000001   0.000000   0.000000
     7  H   -0.000008   0.000004  -0.000004   0.000000   0.000000   0.000000
     8  C    0.000000   0.000000   0.000000  -0.000001   0.000000   0.000000
     9  H    0.000006   0.000007   0.000001  -0.000017   0.000000   0.000000
    10  C    0.000000   0.000000   0.000000  -0.000001   0.000000   0.000000
    11  H    0.000000   0.000000   0.000000   0.000000   0.000000   0.000000
    12  H    0.000000   0.000000   0.000000   0.000000   0.000000   0.000000
    13  H    0.000000   0.000000   0.000000   0.000000   0.000000   0.000000
    14  C   -0.065301  -0.050644  -0.018542   0.006182   0.006706  -0.001480
    15  C   -0.027901   0.004146  -0.093453  -0.037588  -0.000523   0.007822
    16  C    0.466325   0.399582  -0.086083  -0.000424  -0.039650   0.007373
    17  C   -0.076931  -0.000335   0.499254   0.395921   0.006130  -0.042200
    18  H   -0.000182  -0.000249   0.004711  -0.003333   0.000020  -0.000182
    19  C    5.050229  -0.035576   0.488923   0.006005   0.397095  -0.042949
    20  H   -0.035576   0.509953   0.005341   0.000024  -0.004287  -0.000185
    21  C    0.488923   0.005341   5.033471  -0.040272  -0.040734   0.399198
    22  H    0.006005   0.000024  -0.040272   0.516827  -0.000213  -0.004447
    23  H    0.397095  -0.004287  -0.040734  -0.000213   0.518605  -0.004489
    24  H   -0.042949  -0.000185   0.399198  -0.004447  -0.004489   0.518505
    25  C   -0.000425   0.000561   0.000075   0.000005   0.000012  -0.000001
    26  C    0.000193  -0.000050   0.000029   0.000014   0.000003  -0.000001
    27  C   -0.000036   0.001436  -0.000003   0.000000  -0.000001   0.000000
    28  C    0.000002  -0.000018   0.000003   0.000000   0.000000   0.000000
    29  H   -0.000098  -0.000037  -0.000011  -0.000001   0.000001  -0.000001
    30  C    0.000006   0.000030   0.000000   0.000000   0.000000   0.000000
    31  H   -0.000006   0.000255   0.000000   0.000000  -0.000001   0.000000
    32  C    0.000000  -0.000012   0.000000   0.000000   0.000000   0.000000
    33  H    0.000001   0.000000   0.000000   0.000000   0.000000   0.000000
    34  H    0.000000  -0.000003   0.000000   0.000000   0.000000   0.000000
    35  H    0.000000   0.000000   0.000000   0.000000   0.000000   0.000000
             25         26         27         28         29         30
     1  C    0.185287  -0.054368  -0.026222   0.001400   0.003102   0.007684
     2  H   -0.074313   0.005549   0.002068  -0.000282   0.000067   0.001759
     3  C   -0.112262  -0.006297  -0.000336   0.001776  -0.003178  -0.000602
     4  C    0.001971   0.000221   0.000195   0.000028  -0.000195  -0.000009
     5  C   -0.004640  -0.017205   0.001494  -0.001737   0.000308   0.000125
     6  C   -0.000680   0.000029  -0.000004  -0.000001   0.000016   0.000001
     7  H    0.000363  -0.000026  -0.000022   0.000002  -0.000007   0.000001
     8  C    0.001541  -0.000013   0.000042  -0.000089   0.000859   0.000000
     9  H   -0.003014   0.002868  -0.000257   0.001157   0.003448  -0.000139
    10  C    0.000021  -0.000004  -0.000011   0.000001  -0.000011   0.000000
    11  H    0.000014   0.000000   0.000001   0.000000   0.000000   0.000000
    12  H    0.000011   0.000031   0.000002   0.000000  -0.000053   0.000000
    13  H   -0.000002   0.000001   0.000000   0.000000   0.000000   0.000000
    14  C   -0.154224  -0.007692  -0.005702   0.000741  -0.001874  -0.000464
    15  C   -0.014052  -0.000051  -0.000318  -0.000031   0.004752   0.000048
    16  C    0.000704   0.000796   0.002047  -0.000066  -0.000267  -0.000099
    17  C    0.000631  -0.000658   0.000027  -0.000016   0.000445  -0.000001
    18  H   -0.001030   0.000494  -0.000082   0.000062   0.001025   0.000002
    19  C   -0.000425   0.000193  -0.000036   0.000002  -0.000098   0.000006
    20  H    0.000561  -0.000050   0.001436  -0.000018  -0.000037   0.000030
    21  C    0.000075   0.000029  -0.000003   0.000003  -0.000011   0.000000
    22  H    0.000005   0.000014   0.000000   0.000000  -0.000001   0.000000
    23  H    0.000012   0.000003  -0.000001   0.000000   0.000001   0.000000
    24  H   -0.000001  -0.000001   0.000000   0.000000  -0.000001   0.000000
    25  C    5.374531   0.438981   0.503580  -0.061701  -0.048477  -0.072760
    26  C    0.438981   5.095401  -0.065436   0.479230   0.388584  -0.029621
    27  C    0.503580  -0.065436   5.070120  -0.033439   0.004046   0.459772
    28  C   -0.061701   0.479230  -0.033439   5.035937  -0.027231  -0.076815
    29  H   -0.048477   0.388584   0.004046  -0.027231   0.495235  -0.000169
    30  C   -0.072760  -0.029621   0.459772  -0.076815  -0.000169   5.054921
    31  H   -0.046656   0.004629   0.395737  -0.000239  -0.000260  -0.035038
    32  C   -0.017865  -0.092110  -0.086343   0.494398   0.004558   0.496939
    33  H    0.006071  -0.039062  -0.000449   0.396677  -0.003435   0.006000
    34  H    0.007062  -0.000617  -0.039703   0.006222   0.000021   0.396786
    35  H   -0.001593   0.008018   0.007534  -0.042919  -0.000169  -0.042754
             31         32         33         34         35
     1  C   -0.000483   0.001273  -0.000319  -0.000368  -0.000013
     2  H    0.002417  -0.000013   0.000012  -0.000037  -0.000001
     3  C    0.000560  -0.000035   0.000008   0.000020  -0.000001
     4  C    0.000135  -0.000001   0.000000   0.000000   0.000000
     5  C    0.000002   0.000045   0.000016  -0.000001   0.000001
     6  C    0.000003   0.000000   0.000000   0.000000   0.000000
     7  H   -0.000025   0.000000   0.000000   0.000000   0.000000
     8  C    0.000003   0.000003   0.000001   0.000000   0.000000
     9  H   -0.000004   0.000079  -0.000105   0.000000   0.000000
    10  C   -0.000001   0.000000   0.000000   0.000000   0.000000
    11  H    0.000000   0.000000   0.000000   0.000000   0.000000
    12  H    0.000000  -0.000001   0.000001   0.000000   0.000000
    13  H    0.000000   0.000000   0.000000   0.000000   0.000000
    14  C    0.000150   0.000097   0.000017   0.000011  -0.000002
    15  C   -0.000048  -0.000004  -0.000002   0.000000   0.000000
    16  C    0.000252  -0.000014   0.000006   0.000003   0.000000
    17  C    0.000000   0.000000  -0.000001   0.000000   0.000000
    18  H    0.000000   0.000002  -0.000009   0.000000   0.000000
    19  C   -0.000006   0.000000   0.000001   0.000000   0.000000
    20  H    0.000255  -0.000012   0.000000  -0.000003   0.000000
    21  C    0.000000   0.000000   0.000000   0.000000   0.000000
    22  H    0.000000   0.000000   0.000000   0.000000   0.000000
    23  H   -0.000001   0.000000   0.000000   0.000000   0.000000
    24  H    0.000000   0.000000   0.000000   0.000000   0.000000
    25  C   -0.046656  -0.017865   0.006071   0.007062  -0.001593
    26  C    0.004629  -0.092110  -0.039062  -0.000617   0.008018
    27  C    0.395737  -0.086343  -0.000449  -0.039703   0.007534
    28  C   -0.000239   0.494398   0.396677   0.006222  -0.042919
    29  H   -0.000260   0.004558  -0.003435   0.000021  -0.000169
    30  C   -0.035038   0.496939   0.006000   0.396786  -0.042754
    31  H    0.510849   0.005163   0.000024  -0.004175  -0.000186
    32  C    0.005163   5.030994  -0.039550  -0.040777   0.399626
    33  H    0.000024  -0.039550   0.515375  -0.000211  -0.004456
    34  H   -0.004175  -0.040777  -0.000211   0.518273  -0.004580
    35  H   -0.000186   0.399626  -0.004456  -0.004580   0.517480
 Mulliken atomic charges:
              1
     1  C   -0.580626
     2  H    0.204576
     3  C    0.066716
     4  C   -0.149581
     5  C   -0.145334
     6  C   -0.166216
     7  H    0.170118
     8  C   -0.189551
     9  H    0.184538
    10  C   -0.151336
    11  H    0.162688
    12  H    0.162094
    13  H    0.163965
    14  C    0.087054
    15  C   -0.150280
    16  C   -0.149278
    17  C   -0.183179
    18  H    0.199134
    19  C   -0.166433
    20  H    0.166552
    21  C   -0.152916
    22  H    0.161559
    23  H    0.161693
    24  H    0.163051
    25  C    0.092273
    26  C   -0.111860
    27  C   -0.189736
    28  C   -0.173054
    29  H    0.179007
    30  C   -0.165602
    31  H    0.166942
    32  C   -0.156453
    33  H    0.163388
    34  H    0.162076
    35  H    0.164016
 Sum of Mulliken atomic charges =   0.00000
 Mulliken charges with hydrogens summed into heavy atoms:
              1
     1  C   -0.376050
     3  C    0.066716
     4  C    0.020537
     5  C    0.039204
     6  C   -0.003528
     8  C   -0.027457
    10  C    0.012629
    14  C    0.087054
    15  C    0.048854
    16  C    0.017274
    17  C   -0.021621
    19  C   -0.004741
    21  C    0.010135
    25  C    0.092273
    26  C    0.067147
    27  C   -0.022795
    28  C   -0.009666
    30  C   -0.003526
    32  C    0.007563
 Sum of Mulliken charges with hydrogens summed into heavy atoms =   0.00000
 Electronic spatial extent (au):  <R**2>=           4939.8563
 Charge=              0.0000 electrons
 Dipole moment (field-independent basis, Debye):
    X=             -0.0133    Y=             -0.0660    Z=             -0.0428  Tot=              0.0798
 Quadrupole moment (field-independent basis, Debye-Ang):
   XX=           -110.6047   YY=           -114.0590   ZZ=           -102.8618
   XY=              0.7989   XZ=              2.2756   YZ=             -0.1648
 Traceless Quadrupole moment (field-independent basis, Debye-Ang):
   XX=             -1.4295   YY=             -4.8838   ZZ=              6.3133
   XY=              0.7989   XZ=              2.2756   YZ=             -0.1648
 Octapole moment (field-independent basis, Debye-Ang**2):
  XXX=             39.8949  YYY=             18.4494  ZZZ=             -0.1842  XYY=            -44.5900
  XXY=            -14.3864  XXZ=             -6.5017  XZZ=              0.6965  YZZ=             -4.8269
  YYZ=             10.3891  XYZ=              0.1010
 Hexadecapole moment (field-independent basis, Debye-Ang**3):
 XXXX=          -3091.7228 YYYY=          -2908.0421 ZZZZ=           -786.6251 XXXY=             -6.1421
 XXXZ=              0.8006 YYYX=              2.6890 YYYZ=             58.5400 ZZZX=              6.2662
 ZZZY=             -4.0605 XXYY=           -972.9519 XXZZ=           -631.3167 YYZZ=           -601.4256
 XXYZ=            -49.9559 YYXZ=             22.5483 ZZXY=             15.6660
 N-N= 1.288377886625D+03 E-N=-4.272765880476D+03  KE= 7.285923271645D+02
 PrsmSu:  requested number of processors reduced to:  10 ShMem   1 Linda.
 Calling FoFJK, ICntrl=      2127 FMM=F ISym2X=0 I1Cent= 0 IOpClX= 0 NMat=1 NMatS=1 NMatT=0.
 ***** Axes restored to original set *****
 -------------------------------------------------------------------
 Center     Atomic                   Forces (Hartrees/Bohr)
 Number     Number              X              Y              Z
 -------------------------------------------------------------------
      1        6           0.000619247   -0.023569515    0.003932434
      2        1          -0.000419500    0.027355916   -0.002679832
      3        6           0.012427874   -0.004049797    0.003007809
      4        6          -0.000616654   -0.006081520   -0.001498985
      5        6          -0.007806396    0.010594180    0.002849115
      6        6           0.009983693   -0.008353763   -0.001335679
      7        1           0.003495427    0.017014651    0.003552605
      8        6           0.002622929    0.011713390    0.001811270
      9        1           0.025570910   -0.016690458   -0.000031237
     10        6           0.013099696    0.002835963    0.001343221
     11        1          -0.011875423    0.011597059    0.001613458
     12        1          -0.003962929   -0.015902912   -0.003301940
     13        1          -0.016142190   -0.004324627   -0.001736526
     14        6          -0.003635948   -0.003567315   -0.013655810
     15        6           0.007667060    0.007492588    0.003091686
     16        6          -0.003047217   -0.005358515    0.001953170
     17        6           0.002226322    0.009820251   -0.006754616
     18        1          -0.013565955   -0.013768367   -0.010399117
     19        6          -0.008883933   -0.008292228   -0.004115808
     20        1           0.005595566    0.013796752   -0.008918582
     21        6          -0.004882065    0.002425454   -0.012483827
     22        1          -0.004854573   -0.013198564    0.008898060
     23        1           0.011243526    0.010629219    0.006094812
     24        1           0.006484409   -0.002535592    0.015247948
     25        6          -0.007941628   -0.004122105    0.011070894
     26        6           0.003257678    0.008570486   -0.007314928
     27        6           0.001341581   -0.005937974    0.000109246
     28        6          -0.001076891    0.012292193   -0.001428863
     29        1          -0.019274606   -0.012431697    0.014534001
     30        6          -0.006161004   -0.006510432    0.009772336
     31        1          -0.003786685    0.017378515   -0.000419581
     32        6          -0.008724429    0.003059838    0.009930999
     33        1           0.003952900   -0.016223199    0.000072084
     34        1           0.006407005    0.010327674   -0.011270812
     35        1           0.010662203   -0.005985549   -0.011539003
 -------------------------------------------------------------------
 Cartesian Forces:  Max     0.027355916 RMS     0.009556617

 GradGradGradGradGradGradGradGradGradGradGradGradGradGradGradGradGradGrad
 Berny optimization.
 Internal  Forces:  Max     0.029865699 RMS     0.007832292
 Search for a local minimum.
 Step number   1 out of a maximum of  197
 All quantities printed in internal units (Hartrees-Bohrs-Radians)
 Mixed Optimization -- RFO/linear search
 Second derivative matrix not updated -- first step.
     Eigenvalues ---    0.00635   0.00645   0.00654   0.01531   0.01533
     Eigenvalues ---    0.01536   0.02137   0.02141   0.02145   0.02167
     Eigenvalues ---    0.02171   0.02171   0.02181   0.02185   0.02186
     Eigenvalues ---    0.02202   0.02203   0.02203   0.02213   0.02213
     Eigenvalues ---    0.02215   0.02215   0.02216   0.02217   0.02217
     Eigenvalues ---    0.02218   0.02218   0.02219   0.02220   0.02222
     Eigenvalues ---    0.04519   0.06373   0.06674   0.15996   0.15999
     Eigenvalues ---    0.15999   0.16000   0.16000   0.16000   0.16000
     Eigenvalues ---    0.16000   0.16000   0.16000   0.16000   0.16000
     Eigenvalues ---    0.16000   0.16000   0.16000   0.18940   0.19364
     Eigenvalues ---    0.22000   0.22000   0.22000   0.22000   0.22000
     Eigenvalues ---    0.22000   0.23476   0.23476   0.23477   0.24996
     Eigenvalues ---    0.24999   0.25000   0.31165   0.31357   0.31437
     Eigenvalues ---    0.31502   0.33463   0.33607   0.33967   0.34068
     Eigenvalues ---    0.34073   0.34102   0.34257   0.34260   0.34262
     Eigenvalues ---    0.34268   0.34270   0.34272   0.34283   0.34283
     Eigenvalues ---    0.34285   0.42424   0.42426   0.42481   0.42572
     Eigenvalues ---    0.42582   0.42619   0.46337   0.46368   0.46425
     Eigenvalues ---    0.46766   0.46772   0.46840   0.47223   0.47230
     Eigenvalues ---    0.47258   0.47326   0.47333   0.473691000.00000
     Eigenvalues --- 1000.000001000.000001000.000001000.000001000.00000
     Eigenvalues --- 1000.000001000.000001000.000001000.000001000.00000
     Eigenvalues --- 1000.000001000.000001000.000001000.000001000.00000
     Eigenvalues --- 1000.000001000.000001000.000001000.000001000.00000
     Eigenvalues --- 1000.000001000.000001000.000001000.000001000.00000
     Eigenvalues --- 1000.000001000.000001000.000001000.000001000.00000
     Eigenvalues --- 1000.000001000.000001000.000001000.000001000.00000
     Eigenvalues --- 1000.000001000.000001000.000001000.000001000.00000
     Eigenvalues --- 1000.000001000.000001000.000001000.000001000.00000
     Eigenvalues --- 1000.000001000.000001000.000001000.000001000.00000
     Eigenvalues --- 1000.000001000.000001000.000001000.000001000.00000
     Eigenvalues --- 1000.000001000.000001000.000001000.000001000.00000
     Eigenvalues --- 1000.000001000.000001000.000001000.000001000.00000
     Eigenvalues --- 1000.000001000.000001000.000001000.000001000.00000
     Eigenvalues --- 1000.000001000.000001000.000001000.000001000.00000
     Eigenvalues --- 1000.000001000.000001000.000001000.000001000.00000
     Eigenvalues --- 1000.000001000.000001000.000001000.000001000.00000
     Eigenvalues --- 1000.000001000.00000
 RFO step:  Lambda=-4.28618916D-02 EMin= 6.34581660D-03
 Linear search not attempted -- first point.
 Maximum step size (   0.300) exceeded in Quadratic search.
    -- Step size scaled by   0.575
 Iteration  1 RMS(Cart)=  0.12584506 RMS(Int)=  0.00284048
 Iteration  2 RMS(Cart)=  0.00584292 RMS(Int)=  0.00028892
 Iteration  3 RMS(Cart)=  0.00000906 RMS(Int)=  0.00028887
 Iteration  4 RMS(Cart)=  0.00000000 RMS(Int)=  0.00028887
 Variable       Old X    -DE/DX   Delta X   Delta X   Delta X     New X
                                 (Linear)    (Quad)   (Total)
    R1        2.12399  -0.02748   0.00000  -0.04457  -0.04457   2.07942
    R2        2.85065   0.02568   0.00000   0.04126   0.04126   2.89191
    R3        2.85336   0.02088   0.00000   0.03368   0.03368   2.88704
    R4        2.85185   0.02264   0.00000   0.03643   0.03643   2.88829
    R5        2.64235  -0.00357   0.00000  -0.00403  -0.00401   2.63834
    R6        2.63780   0.00074   0.00000   0.00103   0.00104   2.63884
    R7        2.62623  -0.00360   0.00000  -0.00413  -0.00412   2.62211
    R8        2.07207  -0.01772   0.00000  -0.02656  -0.02656   2.04551
    R9        2.62723  -0.00323   0.00000  -0.00349  -0.00349   2.62374
   R10        2.08246  -0.02987   0.00000  -0.04549  -0.04549   2.03697
   R11        2.62794  -0.00834   0.00000  -0.00950  -0.00951   2.61843
   R12        2.06893  -0.01668   0.00000  -0.02488  -0.02488   2.04405
   R13        2.62700  -0.00680   0.00000  -0.00765  -0.00767   2.61933
   R14        2.06898  -0.01672   0.00000  -0.02494  -0.02494   2.04404
   R15        2.06855  -0.01680   0.00000  -0.02505  -0.02505   2.04350
   R16        2.63510  -0.00243   0.00000  -0.00268  -0.00268   2.63242
   R17        2.64288  -0.00416   0.00000  -0.00479  -0.00478   2.63809
   R18        2.62867  -0.00280   0.00000  -0.00306  -0.00306   2.62561
   R19        2.07386  -0.02179   0.00000  -0.03275  -0.03275   2.04111
   R20        2.62522  -0.00417   0.00000  -0.00470  -0.00470   2.62052
   R21        2.07159  -0.01734   0.00000  -0.02598  -0.02598   2.04561
   R22        2.62592  -0.00616   0.00000  -0.00684  -0.00685   2.61908
   R23        2.06881  -0.01664   0.00000  -0.02482  -0.02482   2.04399
   R24        2.62883  -0.00594   0.00000  -0.00670  -0.00671   2.62212
   R25        2.06890  -0.01663   0.00000  -0.02480  -0.02480   2.04410
   R26        2.06855  -0.01676   0.00000  -0.02499  -0.02499   2.04356
   R27        2.63770   0.00072   0.00000   0.00096   0.00098   2.63868
   R28        2.64010  -0.00428   0.00000  -0.00480  -0.00479   2.63531
   R29        2.62605  -0.00458   0.00000  -0.00503  -0.00502   2.62103
   R30        2.07998  -0.02546   0.00000  -0.03863  -0.03863   2.04135
   R31        2.62725  -0.00278   0.00000  -0.00317  -0.00318   2.62408
   R32        2.07216  -0.01778   0.00000  -0.02666  -0.02666   2.04550
   R33        2.62795  -0.00549   0.00000  -0.00620  -0.00622   2.62173
   R34        2.06877  -0.01670   0.00000  -0.02490  -0.02490   2.04387
   R35        2.62779  -0.00838   0.00000  -0.00950  -0.00952   2.61827
   R36        2.06873  -0.01657   0.00000  -0.02472  -0.02472   2.04402
   R37        2.06852  -0.01681   0.00000  -0.02506  -0.02506   2.04346
    A1        1.85568  -0.00924   0.00000  -0.04553  -0.04458   1.81109
    A2        1.85830  -0.00027   0.00000  -0.01896  -0.01879   1.83950
    A3        1.86770  -0.00591   0.00000  -0.03537  -0.03462   1.83308
    A4        1.97313   0.00301   0.00000   0.02543   0.02352   1.99665
    A5        1.97525   0.01475   0.00000   0.05381   0.05263   2.02789
    A6        1.92535  -0.00408   0.00000   0.00948   0.00715   1.93249
    A7        2.06570  -0.01293   0.00000  -0.02541  -0.02543   2.04027
    A8        2.14226   0.02504   0.00000   0.04914   0.04913   2.19138
    A9        2.07523  -0.01211   0.00000  -0.02373  -0.02370   2.05153
   A10        2.10307   0.00828   0.00000   0.01756   0.01758   2.12065
   A11        2.09370  -0.00486   0.00000  -0.01082  -0.01083   2.08287
   A12        2.08642  -0.00342   0.00000  -0.00674  -0.00675   2.07967
   A13        2.10361   0.00443   0.00000   0.00982   0.00982   2.11343
   A14        2.08551   0.00421   0.00000   0.01329   0.01328   2.09879
   A15        2.09404  -0.00864   0.00000  -0.02314  -0.02314   2.07090
   A16        2.09758   0.00002   0.00000  -0.00099  -0.00100   2.09658
   A17        2.09141   0.00006   0.00000   0.00070   0.00070   2.09212
   A18        2.09419  -0.00008   0.00000   0.00029   0.00030   2.09449
   A19        2.09782   0.00243   0.00000   0.00496   0.00493   2.10275
   A20        2.09016  -0.00115   0.00000  -0.00231  -0.00229   2.08786
   A21        2.09521  -0.00127   0.00000  -0.00266  -0.00264   2.09256
   A22        2.08906  -0.00305   0.00000  -0.00760  -0.00764   2.08142
   A23        2.09681   0.00154   0.00000   0.00384   0.00385   2.10066
   A24        2.09732   0.00151   0.00000   0.00376   0.00378   2.10110
   A25        2.14065   0.00955   0.00000   0.01885   0.01884   2.15949
   A26        2.06500  -0.00201   0.00000  -0.00386  -0.00387   2.06113
   A27        2.07752  -0.00754   0.00000  -0.01499  -0.01498   2.06254
   A28        2.10164   0.00314   0.00000   0.00685   0.00685   2.10849
   A29        2.09238   0.00061   0.00000   0.00274   0.00274   2.09511
   A30        2.08913  -0.00375   0.00000  -0.00962  -0.00962   2.07951
   A31        2.10232   0.00529   0.00000   0.01110   0.01111   2.11343
   A32        2.09288  -0.00324   0.00000  -0.00724  -0.00725   2.08563
   A33        2.08798  -0.00205   0.00000  -0.00386  -0.00387   2.08412
   A34        2.09860   0.00130   0.00000   0.00274   0.00272   2.10133
   A35        2.08975  -0.00061   0.00000  -0.00126  -0.00126   2.08849
   A36        2.09483  -0.00069   0.00000  -0.00147  -0.00147   2.09336
   A37        2.09707   0.00007   0.00000  -0.00039  -0.00039   2.09668
   A38        2.09201   0.00000   0.00000   0.00030   0.00030   2.09230
   A39        2.09411  -0.00007   0.00000   0.00009   0.00009   2.09421
   A40        2.08922  -0.00226   0.00000  -0.00531  -0.00532   2.08390
   A41        2.09761   0.00110   0.00000   0.00257   0.00258   2.10018
   A42        2.09635   0.00116   0.00000   0.00274   0.00274   2.09910
   A43        2.12720   0.01644   0.00000   0.03217   0.03209   2.15929
   A44        2.07775  -0.00625   0.00000  -0.01239  -0.01245   2.06529
   A45        2.07811  -0.01021   0.00000  -0.02008  -0.02008   2.05803
   A46        2.10356   0.00379   0.00000   0.00844   0.00838   2.11193
   A47        2.07600   0.00411   0.00000   0.01298   0.01286   2.08886
   A48        2.10341  -0.00784   0.00000  -0.02090  -0.02102   2.08238
   A49        2.10047   0.00696   0.00000   0.01486   0.01486   2.11533
   A50        2.09435  -0.00405   0.00000  -0.00905  -0.00907   2.08528
   A51        2.08836  -0.00290   0.00000  -0.00580  -0.00581   2.08256
   A52        2.09586   0.00211   0.00000   0.00425   0.00424   2.10010
   A53        2.09159  -0.00097   0.00000  -0.00187  -0.00188   2.08972
   A54        2.09574  -0.00114   0.00000  -0.00237  -0.00238   2.09335
   A55        2.09791  -0.00010   0.00000  -0.00101  -0.00103   2.09688
   A56        2.09115   0.00021   0.00000   0.00096   0.00097   2.09211
   A57        2.09413  -0.00011   0.00000   0.00005   0.00006   2.09419
[...]
 4,-0.00039938,0.00046447,0.00002634,-0.00036872,0.00063497,0.00036473,
 -0.00025559,0.00014236,-0.00013309,-0.00014687,0.00034642,-0.00018127,
 -0.00015291,-0.00014089,0.00000531,0.00003272,-0.00001188,0.00032530,-
 0.00006365,0.00003556,-0.00008483,0.00016365,-0.00035840,-0.00009429,0
 .00023635,0.00010074,-0.00002190,0.00002977,-0.00001965,0.00000092,-0.
 00001877,-0.00000283,-0.00002614,0.00000221,-0.00001166,0.00088724,-0.
 00021976,-0.00027859,-0.00001277,-0.00010658,-0.00000382,0.00017317,0.
 00001663,-0.00016557,-0.00007052,0.00000624,0.00002640,-0.00001385,0.0
 0001093,0.00000410,-0.00000281,-0.00003085,0.00012538,-0.00003228,-0.0
 0006341,-0.00005236,0.00002606,0.00004597,-0.00001683,-0.00000407,0.00
 000865,-0.00001075,-0.00001285,-0.00000101,-0.00000547,0.00000058,-0.0
 0000737,-0.00000614,0.01537789,0.01718530,-0.05603462,0.02075939,-0.02
 274681,-0.01319639,0.13512415,-0.07255057,-0.26043111,-0.03201972,0.03
 310955,0.02253562,-0.00006824,-0.00092193,0.00056605,-0.13799245,-0.14
 613657,0.76436633,-0.00221839,-0.00154582,-0.00004906,0.00056323,-0.00
 099602,-0.00000113,-0.00007180,-0.00002068,0.00020991,-0.00014677,0.00
 008495,-0.00005986,-0.00002139,0.00006740,-0.00002955,-0.00001495,0.00
 003483,0.00003974,0.00000676,-0.00001189,-0.00000394,-0.00005132,-0.00
 004261,-0.00005270,0.00006387,-0.00003834,0.00000791,0.00001375,-0.000
 03318,-0.00000142,0.00000663,-0.00000987,-0.00000074,-0.00000562,0.000
 00301,0.00000385,0.00001250,-0.00000071,0.00000047,0.00015396,-0.00026
 132,-0.00014908,0.00004246,-0.00005367,0.00001206,0.00006181,0.0001426
 4,-0.00011791,-0.00005195,-0.00001582,0.00002013,-0.00000540,-0.000015
 00,0.00000453,-0.00002094,-0.00001815,0.00002991,-0.00002442,-0.000030
 76,-0.00000758,0.00000497,0.00000666,-0.00002541,-0.00000611,0.0000061
 5,0.00000254,-0.00001062,-0.00000119,-0.00001443,-0.00000288,-0.000003
 69,-0.00000081,0.00536598,-0.00127276,0.00259527,0.00497249,0.00266604
 ,0.00228689,-0.15277274,0.14447087,-0.02616083,-0.00038962,-0.00086442
 ,0.00027262,-0.00000307,-0.00016025,0.00008413,-0.00606730,0.01812113,
 -0.00706469,0.15085294,-0.00194744,-0.00083858,-0.00173848,-0.00016384
 ,0.00038604,0.00046231,-0.00023373,0.00042470,0.00033487,-0.00038653,0
 .00009939,-0.00007155,0.00006833,-0.00009474,-0.00025024,0.00001285,0.
 00013650,0.00006242,0.00001263,-0.00003076,0.00002557,-0.00020402,0.00
 000621,-0.00007978,0.00012509,-0.00006091,0.00011670,0.00001975,-0.000
 09308,-0.00003753,-0.00000181,-0.00001696,0.00000245,0.00000394,-0.000
 00374,0.00002266,0.00001173,-0.00000295,0.00001162,0.00023012,0.000280
 10,-0.00007322,-0.00007536,0.00004203,-0.00013061,-0.00003463,0.000064
 91,-0.00002098,0.00000219,0.00004281,-0.00003378,0.00001397,-0.0000372
 2,0.00000135,-0.00003418,-0.00002518,-0.00000255,0.00001705,-0.0000305
 0,0.00000450,0.00000356,0.00000376,-0.00000399,-0.00000104,-0.00000331
 ,-0.00001153,0.00000077,-0.00000433,-0.00001144,0.00000254,-0.00000450
 ,-0.00000229,0.01131425,-0.00814109,-0.00100412,0.00229871,0.00294377,
 0.00422686,0.14362251,-0.25557520,0.05003790,-0.00093942,0.00033143,-0
 .00025292,0.00045922,-0.00061788,0.00001868,0.00582762,-0.00501028,0.0
 0655207,-0.16175767,0.26414658,-0.00189306,0.00080443,0.00090332,0.000
 19119,-0.00106459,-0.00056841,0.00023668,0.00006177,0.00016517,-0.0000
 0399,0.00000383,-0.00004090,-0.00009635,0.00014830,0.00003174,0.000072
 48,-0.00002468,0.00001054,0.00002692,-0.00002461,-0.00004799,-0.000020
 72,-0.00000271,-0.00003568,-0.00000478,-0.00007720,-0.00000668,-0.0000
 4255,-0.00003108,-0.00004449,-0.00001742,0.00000439,0.00000651,-0.0000
 2283,-0.00002691,-0.00000636,-0.00001582,-0.00001394,0.00000292,-0.000
 13701,-0.00035102,-0.00001188,0.00010900,-0.00006331,0.00014455,0.0000
 6350,0.00004040,0.00000563,-0.00002697,-0.00002304,0.00004422,-0.00001
 819,0.00000373,-0.00000272,-0.00000373,-0.00001864,0.00000583,-0.00004
 972,-0.00000049,-0.00001698,0.00000932,-0.00000370,0.00002548,-0.00000
 445,-0.00000575,0.00002418,0.00000552,0.00000688,0.00000900,-0.0000002
 9,-0.00000281,0.00001210,-0.01892344,0.02728097,-0.00095357,0.00251422
 ,0.00393443,-0.00495001,-0.02608681,0.04945115,-0.08083245,0.00033259,
 -0.00034780,-0.00109687,-0.00096936,0.00127918,-0.00012900,0.01683913,
 -0.02313776,0.00988690,0.02446279,-0.05571212,0.07933897,-0.00146058,0
 .00009794,-0.00070414,-0.00009111,-0.00045559,0.00017688,0.00013360,0.
 00014089,0.00098403,-0.00006372,-0.00020417,0.00003329,-0.00014784,0.0
 0010602,0.00006329,-0.00007985,-0.00002120,-0.00009171,0.00002456,-0.0
 0000712,0.00001264,0.00015596,-0.00011298,-0.00005548,-0.00000224,-0.0
 0007671,-0.00010032,-0.00008013,0.00009429,0.00004889,-0.00003243,0.00
 000831,-0.00001870,-0.00002318,-0.00002272,0.00000579,-0.00000160,-0.0
 0000974,-0.00000693,0.00001338,0.00026831,-0.00001138,0.00007880,0.000
 01948,0.00012807,-0.00002971,-0.00010215,-0.00008358,-0.00006177,-0.00
 000456,-0.00008602,-0.00001506,0.00000041,0.00000548,0.00002304,-0.000
 09213,0.00008931,-0.00005162,0.00001609,-0.00003855,0.00008464,0.00005
 857,0.00003037,-0.00000494,-0.00000160,0.00001755,0.00000625,0.0000156
 6,0.00003243,-0.00000134,0.00000148,0.00001116,-0.01348571,0.02123646,
 -0.02329955,0.02658576,-0.02951695,0.01540553,-0.02561357,0.02663485,0
 .03518254,-0.12039478,0.01697328,0.05295631,0.00236877,0.00542807,0.00
 475518,-0.18253620,0.13929810,-0.02723306,0.00328140,0.00459879,0.0050
 8336,0.46567077,0.00160783,-0.00118723,0.00007198,0.00031366,0.0008558
 7,-0.00040406,-0.00006604,0.00019459,-0.00121059,-0.00029024,0.0002929
 2,-0.00015842,0.00033069,0.00000411,-0.00027922,0.00022351,0.00018552,
 0.00021279,-0.00001324,0.00000589,-0.00000633,-0.00042629,0.00012956,0
 .00006239,0.00009572,0.00006096,0.00018096,0.00016757,-0.00028422,-0.0
 0013791,0.00002289,-0.00002085,0.00003817,0.00003454,0.00004723,-0.000
 02005,0.00000403,0.00000493,0.00000775,-0.00014259,-0.00051501,-0.0001
 2238,-0.00013453,0.00016141,-0.00037570,-0.00007573,0.00015452,0.00033
 851,0.00020937,0.00005218,0.00023437,0.00001174,-0.00000202,-0.0000151
 8,-0.00008571,0.00019630,-0.00032113,0.00004520,-0.00008031,0.00000765
 ,-0.00019590,-0.00023844,0.00001739,0.00000533,-0.00000621,-0.00000842
 ,0.00000455,0.00000525,-0.00000900,0.00000079,-0.00000641,0.00000456,0
 .01977527,-0.06069788,0.05024525,-0.05138089,0.06617601,0.01640158,0.0
 4796681,-0.01026197,-0.07810389,0.04592517,-0.17445186,0.06274900,0.00
 568043,0.00266208,-0.00118347,0.11037486,-0.26458252,0.07658233,0.0042
 5407,0.00373585,-0.00005462,-0.26800853,0.55444545,-0.00146563,0.00058
 503,0.00044408,-0.00004723,-0.00071711,-0.00010455,-0.00033757,-0.0002
 6176,0.00053843,0.00039636,0.00000348,0.00017802,0.00004998,-0.0001288
 6,0.00016479,-0.00014671,-0.00017378,-0.00013676,-0.00002051,0.0000024
 4,0.00000371,0.00031807,-0.00011640,-0.00007517,0.00002229,-0.00025192
 ,-0.00031470,-0.00002141,0.00022088,0.00011359,0.00002313,0.00001908,-
 0.00002627,0.00004887,0.00001833,0.00001702,0.00001817,-0.00000310,0.0
 0000005,0.00042046,0.00028044,0.00018741,0.00005097,-0.00024814,0.0002
 3765,0.00003437,-0.00006481,-0.00038876,-0.00019813,-0.00007326,-0.000
 19048,-0.00001871,-0.00001644,0.00002447,0.00005404,-0.00014531,0.0003
 2195,-0.00000496,0.00005801,0.00000848,0.00015001,0.00026179,-0.000097
 11,0.00000058,0.00001833,-0.00002447,-0.00001295,-0.00002622,-0.000022
 98,-0.00000263,0.00000029,-0.00002455,-0.02267737,0.04909271,-0.045111
 44,0.05663208,-0.03639647,-0.05659683,-0.00561521,-0.02464236,0.072131
 63,-0.00040581,0.12890463,-0.32253959,0.00469106,-0.00081889,-0.000808
 03,0.02550954,0.01002161,-0.16096549,0.00544587,-0.00065715,-0.0026445
 0,-0.18035916,-0.07836674,0.73870917,-0.00032809,0.00061029,-0.0004362
 8,-0.00023073,0.00010734,0.00021349,0.00013073,0.00016036,0.00011396,-
 0.00011141,-0.00005817,-0.00003577,-0.00011000,-0.00000406,0.00004949,
 -0.00000357,0.00000494,0.00000322,0.00001372,-0.00001461,-0.00001445,0
 .00001189,0.00000689,0.00001251,0.00003380,0.00006065,-0.00001298,-0.0
 0002563,-0.00000733,-0.00000472,-0.00001472,-0.00000071,0.00000089,-0.
 00002786,-0.00001449,-0.00001245,-0.00000993,-0.00000043,-0.00000437,-
 0.00005890,-0.00000379,-0.00025075,0.00005751,-0.00002279,0.00008954,0
 .00003524,-0.00000448,0.00000112,-0.00001078,-0.00001673,-0.00002386,-
 0.00001893,0.00001079,-0.00000602,-0.00000956,-0.00001806,0.00001696,-
 0.00001433,-0.00002357,-0.00000441,0.00003078,0.00000535,0.00002561,-0
 .00001081,-0.00000659,0.00002464,0.00000461,0.00000155,0.00000459,0.00
 000110,0.00000145,0.00001208,0.00321271,0.00397699,0.00523199,-0.00605
 758,0.01820035,-0.00699692,-0.00036106,-0.00091726,0.00030567,-0.15406
 052,0.14595151,-0.02673073,-0.00218574,-0.00296944,-0.00100932,0.00555
 054,0.00292769,0.00245659,-0.00071707,-0.00048340,-0.00034913,0.006057
 30,-0.00235435,0.00335436,0.15147630,-0.00006102,-0.00036617,0.0005886
 6,0.00010389,-0.00010000,-0.00007880,-0.00002577,-0.00006734,-0.000171
 06,0.00006139,0.00005016,0.00000022,0.00003067,0.00004878,0.00002023,0
 .00001928,-0.00000228,0.00001237,-0.00001207,0.00000149,0.00000031,-0.
 00001190,-0.00002110,-0.00001482,-0.00001035,-0.00003910,-0.00000020,0
 .00002158,-0.00000921,-0.00000596,0.00001682,-0.00000736,0.00000040,0.
 00000639,0.00000789,0.00000915,0.00001456,0.00000086,0.00000046,0.0001
 0443,-0.00001078,0.00009483,-0.00002504,-0.00003185,-0.00000077,-0.000
 01407,0.00000927,-0.00007668,-0.00003332,0.00000074,-0.00001746,-0.000
 00090,-0.00001140,0.00001198,-0.00000453,0.00000849,0.00004268,0.00002
 488,-0.00000160,0.00001653,-0.00000947,0.00004536,-0.00004636,0.000006
 87,0.00000414,-0.00001701,-0.00000787,-0.00002269,-0.00002369,0.000002
 93,-0.00000305,-0.00002050,0.00444990,0.00349017,-0.00072235,0.0055042
 6,-0.00481549,0.00644177,-0.00089838,0.00039134,-0.00042591,0.14581966
 ,-0.25803486,0.05056267,-0.00258919,-0.00095749,-0.00152000,0.00272102
 ,0.00322575,0.00433674,-0.00048925,-0.00053480,-0.00022885,0.01035677,
 -0.00660990,-0.00128552,-0.16250241,0.26595488,0.00036297,-0.00086747,
 0.00054532,0.00016220,-0.00016209,-0.00015407,-0.00001503,-0.00007636,
 -0.00010527,0.00005580,0.00001598,-0.00000661,0.00000706,0.00002521,0.
 00000686,0.00001105,-0.00000618,0.00000689,-0.00000627,0.00000809,-0.0
 0000045,0.00000335,0.00000682,0.00000801,0.00000754,0.00000543,0.00000
 637,0.00000928,-0.00000147,-0.00000079,0.00000680,-0.00000181,0.000001
 22,0.00000030,0.00000180,0.00000144,0.00000186,0.00000185,-0.00000066,
 -0.00001325,0.00002339,0.00016896,-0.00001752,0.00003257,0.00000680,-0
 .00002408,0.00000683,-0.00003200,-0.00001660,0.00001554,-0.00001758,0.
 00001395,-0.00000971,0.00000277,-0.00001268,-0.00000030,0.00001002,0.0
 0001296,-0.00000623,0.00000027,-0.00001791,0.00002067,-0.00003521,0.00
 000800,-0.00000303,-0.00001186,-0.00000014,-0.00000806,-0.00001009,0.0
 0000474,-0.00000461,-0.00000698,0.00519712,-0.00031605,-0.00271301,0.0
 1640536,-0.02285437,0.00987132,0.00032966,-0.00029495,-0.00125702,-0.0
 2668161,0.05076647,-0.08163019,-0.00186617,-0.00071234,0.00070650,0.00
 272801,0.00393051,-0.00469861,-0.00033412,-0.00023381,-0.00003468,-0.0
 2023068,0.02801517,0.00038660,0.02583217,-0.05683567,0.07860906,0.0001
 4489,-0.00057271,0.00072142,0.00007082,-0.00001989,-0.00005861,0.00005
 516,0.00004981,0.00009719,-0.00004894,-0.00001877,-0.00000073,-0.00004
 184,-0.00000146,-0.00002344,-0.00000200,0.00001102,-0.00001186,0.00000
 689,-0.00001166,0.00000485,-0.00001101,0.00001289,-0.00001596,0.000012
 75,-0.00000436,0.00003593,-0.00003005,-0.00000593,-0.00001385,-0.00000
 688,-0.00000247,0.00000327,-0.00001284,-0.00001754,0.00000595,-0.00000
 481,-0.00000403,0.00000643,-0.00032514,0.00006571,0.00013329,0.0000252
 5,0.00000495,0.00001762,0.00003436,0.00002863,0.00005247,0.00004231,-0
 .00000774,0.00002656,-0.00001567,0.00000578,0.00000426,-0.00000246,0.0
 0000186,-0.00005210,-0.00000131,-0.00000136,-0.00000316,-0.00002333,-0
 .00003855,0.00003177,0.00000084,-0.00000646,0.00000953,0.00000175,0.00
 000398,0.00000101,-0.00000072,0.00000050,0.00000474,0.00249547,0.00565
 824,0.00452280,-0.00106711,0.00020384,-0.00002979,0.00496073,-0.010682
 06,0.02102253,0.00249459,0.00695874,0.00149919,-0.00063809,-0.00062297
 ,-0.00026830,-0.05987239,0.00626850,0.01437953,-0.00224640,-0.00263230
 ,-0.00193354,0.00637364,0.00970745,-0.01991836,-0.00000539,0.00039460,
 -0.00091815,0.04972738,-0.00010352,0.00028832,-0.00059575,-0.00003120,
 -0.00004259,0.00003044,-0.00006072,0.00002074,0.00008498,0.00001321,-0
 .00003925,0.00001752,-0.00001853,-0.00000904,-0.00000716,-0.00000865,-
 0.00001001,-0.00001228,0.00000234,-0.00000278,-0.00000402,0.00001517,0
 .00002689,-0.00000523,0.00002382,-0.00000317,0.00002252,-0.00001978,0.
 00001084,0.00000175,-0.00000260,0.00000182,-0.00000273,-0.00000783,-0.
 00001498,0.00000475,-0.00000622,-0.00000114,0.00000356,0.00004016,-0.0
 0010956,0.00000315,-0.00001950,0.00003311,-0.00003018,0.00000118,0.000
 03779,0.00000836,0.00001009,0.00001736,0.00002323,0.00000768,-0.000004
 86,-0.00000356,-0.00001662,0.00001333,-0.00003240,0.00000451,-0.000018
 23,-0.00000351,-0.00002447,-0.00002405,-0.00000341,0.00000250,-0.00000
 469,-0.00000154,-0.00000016,0.00000063,-0.00000499,0.00000236,-0.00000
 332,0.00000151,0.00552699,0.00267625,-0.00080093,0.00020306,-0.0007019
 2,-0.00092199,0.00222534,0.01074405,-0.01435755,0.00711029,-0.00118322
 ,0.00157160,-0.00059624,-0.00041657,-0.00017084,0.00617275,-0.12463245
 ,0.12426411,-0.00300126,-0.00098944,-0.00074068,-0.00309176,-0.0060843
 0,0.02824978,-0.00012861,-0.00059200,0.00127599,-0.01181547,0.12185289
 ,-0.00040659,0.00078501,-0.00073725,0.00000958,-0.00005929,-0.00000144
 ,-0.00015253,-0.00009995,-0.00012529,0.00009993,0.00003321,0.00004430,
 0.00004615,0.00004199,0.00003778,0.00001677,-0.00001641,0.00000827,-0.
 00001572,0.00000688,-0.00001006,-0.00000098,-0.00002177,-0.00000728,-0
 .00002892,-0.00003849,-0.00002425,0.00003351,-0.00000520,0.00000773,0.
 00002297,-0.00000301,-0.00001008,0.00001205,0.00001975,-0.00000038,0.0
 0001850,0.00000363,-0.00000327,0.00032249,-0.00019342,-0.00000015,-0.0
 0006420,-0.00002114,-0.00009569,0.00000759,0.00004602,-0.00007341,-0.0
 0001481,0.00000466,0.00002283,-0.00000066,-0.00000364,0.00000697,0.000
 00893,0.00002463,0.00000941,0.00001228,0.00000504,0.00001575,-0.000014
 34,-0.00000183,-0.00003210,0.00000089,0.00001234,-0.00001700,-0.000018
 21,-0.00000601,-0.00001752,-0.00000443,0.00000149,-0.00001564,0.005082
 28,-0.00107844,-0.00057771,0.00010221,-0.00093646,0.00056771,-0.002438
 28,0.01515129,-0.01649330,0.00114085,0.00198184,0.00240958,-0.00032825
 ,-0.00016351,-0.00020783,0.01447588,0.12405411,-0.30948575,-0.00114395
 ,-0.00172017,0.00059256,0.00339807,-0.00107522,-0.00037575,0.00005063,
 0.00001490,-0.00024831,-0.01838279,-0.13615500,0.32430935,-0.00064638,
 -0.00046253,-0.00018448,0.00005103,-0.00014330,0.00001292,-0.00001340,
 0.00011072,0.00013297,-0.00005753,-0.00004163,-0.00002099,-0.00004715,
 -0.00001034,-0.00000551,-0.00001180,0.00000092,-0.00000721,0.00000772,
 -0.00000606,-0.00000429,0.00002111,0.00002797,0.00000830,0.00003414,0.
 00003400,0.00001954,-0.00002136,0.00000620,-0.00000004,-0.00001153,0.0
 0000176,0.00000137,-0.00001603,-0.00001731,-0.00000157,-0.00001191,-0.
 00000119,0.00000165,-0.00005714,0.00000015,0.00000276,0.00001706,0.000
 03010,0.00001299,-0.00001945,0.00002273,0.00002734,0.00000499,0.000005
 58,-0.00000916,0.00000177,-0.00000446,-0.00000531,-0.00001928,-0.00000
 657,-0.00001113,-0.00000120,-0.00001735,-0.00000496,0.00000459,-0.0000
 0612,0.00001233,-0.00000368,-0.00000592,0.00000931,0.00000713,0.000000
 45,0.00000052,0.00000330,-0.00000228,0.00000772,-0.00019063,-0.0003910
 6,-0.00099404,0.00561205,0.00336444,0.00158375,0.00344202,0.00645805,0
 .00026203,0.00436595,0.00227264,-0.00227327,-0.00006235,0.00001760,-0.
 00008340,-0.00596386,0.00465832,0.01683346,-0.00055401,0.00024972,0.00
 067344,-0.16668048,0.07641256,0.13403213,-0.00224361,-0.00296439,-0.00
 100596,-0.00209043,-0.00240828,-0.00184689,0.16515037,-0.00055592,-0.0
 0030839,-0.00021880,0.00003406,-0.00003176,0.00007043,-0.00008334,0.00
 006617,0.00001911,-0.00002630,0.00000785,-0.00000939,0.00000514,0.0000
 1786,-0.00001608,-0.00000118,0.00001349,0.00000395,-0.00000362,-0.0000
 0258,0.00000599,-0.00000946,-0.00000363,-0.00000518,0.00000931,-0.0000
 1122,0.00001742,0.00000416,-0.00000837,-0.00000092,0.00000393,-0.00000
 465,-0.00000144,-0.00000179,0.00000212,0.00000241,0.00000646,0.0000008
 2,0.00000092,0.00005250,0.00000925,0.00004439,-0.00002362,0.00002905,-
 0.00003869,-0.00003781,0.00001249,-0.00001896,-0.00000503,0.00000479,-
 0.00001435,0.00000183,-0.00000848,0.00000241,-0.00000228,0.00000343,0.
 00000465,0.00001390,0.00000019,0.00000973,0.00000417,0.00000284,-0.000
 00850,-0.00000130,0.00000263,-0.00000306,-0.00000330,-0.00000461,-0.00
 000767,-0.00000026,0.00000083,-0.00000437,-0.00029486,-0.00096933,0.00
 064538,0.00353296,0.00206982,0.00473670,0.00626694,-0.00118024,0.00355
 357,-0.01050976,0.01089460,0.01384909,-0.00049824,0.00025471,0.0005261
 7,0.01753270,-0.00410746,-0.02357517,0.00078663,-0.00052863,-0.0010631
 4,0.07637412,-0.10434147,-0.07334255,-0.00247488,-0.00100084,-0.001757
 81,-0.00291075,-0.00083646,-0.00058780,-0.08718513,0.09995517,-0.00034
 125,-0.00019819,-0.00000527,0.00006310,-0.00010502,-0.00001328,-0.0000
 6892,-0.00000171,-0.00000464,0.00001627,0.00001831,0.00000872,0.000016
 67,0.00004216,0.00002573,0.00000804,0.00000477,0.00000484,-0.00000614,
 0.00000055,-0.00000043,-0.00000756,-0.00002844,-0.00001565,-0.00002341
 ,-0.00003038,-0.00002386,0.00001373,-0.00000481,-0.00000261,0.00000990
 ,-0.00000461,-0.00000350,0.00000467,0.00000779,0.00000498,0.00001272,0
 .,-0.00000011,0.00005993,-0.00002856,0.00003856,-0.00001100,-0.0000547
 9,-0.00004818,0.00003506,0.00002465,-0.00001391,0.00001233,-0.00002084
 ,0.00003487,-0.00002327,0.00000387,0.00001231,0.00001466,0.00001905,0.
 00000349,0.00000476,0.00000839,0.00001350,-0.00001596,-0.00000293,-0.0
 0000391,0.00000136,0.00001039,-0.00000866,-0.00001092,-0.00000999,-0.0
 0001174,-0.00000432,0.00000137,-0.00001533,-0.00090363,0.00069194,-0.0
 0018085,0.00114427,0.00526386,-0.00343623,0.00064266,0.00303441,0.0016
 5895,0.02142502,-0.01548442,-0.01573015,0.00089125,-0.00064722,-0.0009
 5243,-0.00656434,0.00582981,0.00947956,-0.00026145,0.00016831,0.000213
 56,0.13389907,-0.07331752,-0.22301963,-0.00190737,-0.00066227,0.000625
 01,-0.00094966,-0.00170950,0.00052722,-0.14717629,0.07718159,0.2308390
 9||0.00001907,0.00000200,-0.00000697,-0.00000745,0.00000073,0.00000037
 ,-0.00002526,0.00004012,0.00001270,0.00004363,-0.00001124,-0.00000458,
 -0.00004165,-0.00004153,-0.00002375,-0.00003431,-0.00002807,-0.0000111
 8,-0.00000556,0.00000011,-0.00000045,0.00005568,-0.00001347,-0.0000036
 9,-0.00000361,0.00000511,0.00000523,-0.00000984,0.00004665,0.00001930,
 0.00000245,0.00000199,0.00000069,-0.00000414,0.00000245,0.00000044,0.0
 0000246,-0.00000278,-0.00000109,0.00001488,0.00003121,-0.00000166,-0.0
 0000288,-0.00002408,0.00004371,-0.00001737,-0.00001374,-0.00002457,-0.
 00002323,-0.00001403,-0.00003712,0.00000692,0.00000144,-0.00000006,0.0
 0000464,-0.00002394,0.00003119,0.00000275,0.00000039,0.00000352,0.0000
 2135,0.00003910,-0.00000274,0.00000196,0.00000183,0.00000240,-0.000000
 25,0.00000266,-0.00000428,-0.00000382,-0.00000311,-0.00000111,0.000001
 21,0.00000711,0.00000467,0.00001125,-0.00001691,-0.00000806,-0.0000041
 5,-0.00000209,0.00000059,-0.00000939,-0.00000283,0.00001429,-0.0000012
 9,0.00000369,-0.00000192,0.00000626,-0.00000004,-0.00000208,0.00000153
 ,-0.00000064,-0.00000024,-0.00000138,0.00001195,-0.00000318,0.00000217
 ,0.00000286,-0.00000149,-0.00000142,-0.00000165,-0.00000009,-0.0000011
 9,-0.00000126,0.00000120|||@


 Statistics are no substitute for judgment.
                            -- Henry Clay
 Job cpu time:  0 days  0 hours  6 minutes 32.0 seconds.
 File lengths (MBytes):  RWF=    350 Int=      0 D2E=      0 Chk=      7 Scr=      1
 Normal termination of Gaussian 09 at Mon Sep 06 16:23:16 2021.
