 Entering Link 1 = b:\programy\g09w\l1.exe PID=     18520.
  
 Copyright (c) 1988,1990,1992,1993,1995,1998,2003,2009, Gaussian, Inc.
                  All Rights Reserved.
  
 This is part of the Gaussian(R) 09 program.  It is based on
 the Gaussian(R) 03 system (copyright 2003, Gaussian, Inc.),
 the Gaussian(R) 98 system (copyright 1998, Gaussian, Inc.),
 the Gaussian(R) 94 system (copyright 1995, Gaussian, Inc.),
 the Gaussian 92(TM) system (copyright 1992, Gaussian, Inc.),
 the Gaussian 90(TM) system (copyright 1990, Gaussian, Inc.),
 the Gaussian 88(TM) system (copyright 1988, Gaussian, Inc.),
 the Gaussian 86(TM) system (copyright 1986, Carnegie Mellon
 University), and the Gaussian 82(TM) system (copyright 1983,
 Carnegie Mellon University). Gaussian is a federally registered
 trademark of Gaussian, Inc.
  
 This software contains proprietary and confidential information,
 including trade secrets, belonging to Gaussian, Inc.
  
 This software is provided under written license and may be
 used, copied, transmitted, or stored only in accord with that
 written license.
  
 The following legend is applicable only to US Government
 contracts under FAR:
  
                    RESTRICTED RIGHTS LEGEND
  
 Use, reproduction and disclosure by the US Government is
 subject to restrictions as set forth in subparagraphs (a)
 and (c) of the Commercial Computer Software - Restricted
 Rights clause in FAR 52.227-19.
  
 Gaussian, Inc.
 340 Quinnipiac St., Bldg. 40, Wallingford CT 06492
  
  
 ---------------------------------------------------------------
 Warning -- This program may not be used in any manner that
 competes with the business of Gaussian, Inc. or will provide
 assistance to any competitor of Gaussian, Inc.  The licensee
 of this program is prohibited from giving any competitor of
 Gaussian, Inc. access to this program.  By using this program,
 the user acknowledges that Gaussian, Inc. is engaged in the
 business of creating and licensing software in the field of
 computational chemistry and represents and warrants to the
 licensee that it is not a competitor of Gaussian, Inc. and that
 it will not use this program in any manner prohibited above.
 ---------------------------------------------------------------
  

 Cite this work as:
 Gaussian 09, Revision A.02,
 M. J. Frisch, G. W. Trucks, H. B. Schlegel, G. E. Scuseria, 
 M. A. Robb, J. R. Cheeseman, G. Scalmani, V. Barone, B. Mennucci, 
 G. A. Petersson, H. Nakatsuji, M. Caricato, X. Li, H. P. Hratchian, 
 A. F. Izmaylov, J. Bloino, G. Zheng, J. L. Sonnenberg, M. Hada, 
 M. Ehara, K. Toyota, R. Fukuda, J. Hasegawa, M. Ishida, T. Nakajima, 
 Y. Honda, O. Kitao, H. Nakai, T. Vreven, J. A. Montgomery, Jr., 
 J. E. Peralta, F. Ogliaro, M. Bearpark, J. J. Heyd, E. Brothers, 
 K. N. Kudin, V. N. Staroverov, R. Kobayashi, J. Normand, 
 K. Raghavachari, A. Rendell, J. C. Burant, S. S. Iyengar, J. Tomasi, 
 M. Cossi, N. Rega, J. M. Millam, M. Klene, J. E. Knox, J. B. Cross, 
 V. Bakken, C. Adamo, J. Jaramillo, R. Gomperts, R. E. Stratmann, 
 O. Yazyev, A. J. Austin, R. Cammi, C. Pomelli, J. W. Ochterski, 
 R. L. Martin, K. Morokuma, V. G. Zakrzewski, G. A. Voth, 
 P. Salvador, J. J. Dannenberg, S. Dapprich, A. D. Daniels, 
 O. Farkas, J. B. Foresman, J. V. Ortiz, J. Cioslowski, 
 and D. J. Fox, Gaussian, Inc., Wallingford CT, 2009.
 
 ******************************************
 Gaussian 09:  IA32W-G09RevA.02 11-Jun-2009
                06-Sep-2021 
 ******************************************
 %nprocshared=12
 Will use up to   12 processors via shared memory.
 ----------------------------------------------
 # opt freq=noraman hf/6-311g geom=connectivity
 ----------------------------------------------
 1/18=20,19=15,38=1,57=2/1,3;
 2/9=110,12=2,17=6,18=5,40=1/2;
 3/5=4,6=6,11=9,16=1,25=1,30=1,71=1/1,2,3;
 4//1;
 5/5=2,38=5/2;
 6/7=2,8=2,9=2,10=2,28=1/1;
 7//1,2,3,16;
 1/18=20,19=15/3(2);
 2/9=110/2;
 99//99;
 2/9=110/2;
 3/5=4,6=6,11=9,16=1,25=1,30=1,71=1/1,2,3;
 4/5=5,16=3/1;
 5/5=2,38=5/2;
 7//1,2,3,16;
 1/18=20,19=15/3(-5);
 2/9=110/2;
 6/7=2,8=2,9=2,10=2,19=2,28=1/1;
 99/9=1/99;
 -----
 M0001
 -----
 Symbolic Z-matrix:
 Charge =  0 Multiplicity = 1
 C                     0.        0.        0.79563 
 H                     0.        0.        1.91834 
 C                     0.98025  -1.05916   0.35536 
 C                     1.21792  -2.14946   1.19682 
 C                     1.65178  -0.98298  -0.86573 
 C                     2.11135  -3.14516   0.82002 
 H                     0.6964   -2.2236    2.15814 
 C                     2.5471   -1.97935  -1.23881 
 H                     1.47617  -0.12454  -1.52749 
 C                     2.77796  -3.06212  -0.39796 
 H                     2.2904   -3.9964    1.4849 
 H                     3.07138  -1.90802  -2.19731 
 H                     3.48269  -3.8462   -0.69259 
 C                    -1.40739  -0.31934   0.35536 
 C                    -1.67718  -0.939    -0.86573 
 C                    -2.47044   0.01998   1.19682 
 C                    -2.98772  -1.21618  -1.23881 
 H                    -0.84594  -1.21613  -1.52749 
 C                    -3.77946  -0.2559    0.82002 
 H                    -2.27389   0.5087    2.15814 
 C                    -4.04085  -0.87472  -0.39796 
 H                    -3.18808  -1.70588  -2.19731 
 H                    -4.60618   0.01465   1.4849 
 H                    -5.07225  -1.093    -0.69259 
 C                     0.42714   1.37851   0.35536 
 C                     1.25253   2.12948   1.19682 
 C                     0.02539   1.92198  -0.86573 
 C                     1.66811   3.40106   0.82002 
 H                     1.57749   1.7149    2.15814 
 C                     0.44062   3.19553  -1.23881 
 H                    -0.63023   1.34067  -1.52749 
 C                     1.26289   3.93684  -0.39796 
 H                     2.31578   3.98175   1.4849 
 H                     0.11671   3.6139   -2.19731 
 H                     1.58956   4.9392   -0.69259 
 

 GradGradGradGradGradGradGradGradGradGradGradGradGradGradGradGradGradGrad
 Berny optimization.
 Initialization pass.
                           ----------------------------
                           !    Initial Parameters    !
                           ! (Angstroms and Degrees)  !
 --------------------------                            --------------------------
 ! Name  Definition              Value          Derivative Info.                !
 --------------------------------------------------------------------------------
 ! R1    R(1,2)                  1.1227         estimate D2E/DX2                !
 ! R2    R(1,3)                  1.5088         estimate D2E/DX2                !
 ! R3    R(1,14)                 1.5088         estimate D2E/DX2                !
 ! R4    R(1,25)                 1.5088         estimate D2E/DX2                !
 ! R5    R(3,4)                  1.3976         estimate D2E/DX2                !
 ! R6    R(3,5)                  1.3956         estimate D2E/DX2                !
 ! R7    R(4,6)                  1.3898         estimate D2E/DX2                !
 ! R8    R(4,7)                  1.0962         estimate D2E/DX2                !
 ! R9    R(5,8)                  1.3905         estimate D2E/DX2                !
 ! R10   R(5,9)                  1.098          estimate D2E/DX2                !
 ! R11   R(6,10)                 1.3909         estimate D2E/DX2                !
 ! R12   R(6,11)                 1.0949         estimate D2E/DX2                !
 ! R13   R(8,10)                 1.3902         estimate D2E/DX2                !
 ! R14   R(8,12)                 1.0948         estimate D2E/DX2                !
 ! R15   R(10,13)                1.0946         estimate D2E/DX2                !
 ! R16   R(14,15)                1.3956         estimate D2E/DX2                !
 ! R17   R(14,16)                1.3976         estimate D2E/DX2                !
 ! R18   R(15,17)                1.3905         estimate D2E/DX2                !
 ! R19   R(15,18)                1.098          estimate D2E/DX2                !
 ! R20   R(16,19)                1.3898         estimate D2E/DX2                !
 ! R21   R(16,20)                1.0962         estimate D2E/DX2                !
 ! R22   R(17,21)                1.3902         estimate D2E/DX2                !
 ! R23   R(17,22)                1.0948         estimate D2E/DX2                !
 ! R24   R(19,21)                1.3909         estimate D2E/DX2                !
 ! R25   R(19,23)                1.0949         estimate D2E/DX2                !
 ! R26   R(21,24)                1.0946         estimate D2E/DX2                !
 ! R27   R(25,26)                1.3976         estimate D2E/DX2                !
 ! R28   R(25,27)                1.3956         estimate D2E/DX2                !
 ! R29   R(26,28)                1.3898         estimate D2E/DX2                !
 ! R30   R(26,29)                1.0962         estimate D2E/DX2                !
 ! R31   R(27,30)                1.3905         estimate D2E/DX2                !
 ! R32   R(27,31)                1.098          estimate D2E/DX2                !
 ! R33   R(28,32)                1.3909         estimate D2E/DX2                !
 ! R34   R(28,33)                1.0949         estimate D2E/DX2                !
 ! R35   R(30,32)                1.3902         estimate D2E/DX2                !
 ! R36   R(30,34)                1.0948         estimate D2E/DX2                !
 ! R37   R(32,35)                1.0946         estimate D2E/DX2                !
 ! A1    A(2,1,3)              106.9655         estimate D2E/DX2                !
 ! A2    A(2,1,14)             106.9655         estimate D2E/DX2                !
 ! A3    A(2,1,25)             106.9655         estimate D2E/DX2                !
 ! A4    A(3,1,14)             111.8564         estimate D2E/DX2                !
 ! A5    A(3,1,25)             111.8564         estimate D2E/DX2                !
 ! A6    A(14,1,25)            111.8564         estimate D2E/DX2                !
 ! A7    A(1,3,4)              118.8438         estimate D2E/DX2                !
 ! A8    A(1,3,5)              121.9774         estimate D2E/DX2                !
 ! A9    A(4,3,5)              119.1787         estimate D2E/DX2                !
 ! A10   A(3,4,6)              120.3299         estimate D2E/DX2                !
 ! A11   A(3,4,7)              119.9908         estimate D2E/DX2                !
 ! A12   A(6,4,7)              119.6791         estimate D2E/DX2                !
 ! A13   A(3,5,8)              120.3608         estimate D2E/DX2                !
 ! A14   A(3,5,9)              119.5394         estimate D2E/DX2                !
 ! A15   A(8,5,9)              120.0971         estimate D2E/DX2                !
 ! A16   A(4,6,10)             120.1796         estimate D2E/DX2                !
 ! A17   A(4,6,11)             119.8341         estimate D2E/DX2                !
 ! A18   A(10,6,11)            119.9863         estimate D2E/DX2                !
 ! A19   A(5,8,10)             120.18           estimate D2E/DX2                !
 ! A20   A(5,8,12)             119.7707         estimate D2E/DX2                !
 ! A21   A(10,8,12)            120.0493         estimate D2E/DX2                !
 ! A22   A(6,10,8)             119.7709         estimate D2E/DX2                !
 ! A23   A(6,10,13)            120.0972         estimate D2E/DX2                !
 ! A24   A(8,10,13)            120.1319         estimate D2E/DX2                !
 ! A25   A(1,14,15)            121.9774         estimate D2E/DX2                !
 ! A26   A(1,14,16)            118.8438         estimate D2E/DX2                !
 ! A27   A(15,14,16)           119.1787         estimate D2E/DX2                !
 ! A28   A(14,15,17)           120.3607         estimate D2E/DX2                !
 ! A29   A(14,15,18)           119.5394         estimate D2E/DX2                !
 ! A30   A(17,15,18)           120.0971         estimate D2E/DX2                !
 ! A31   A(14,16,19)           120.3299         estimate D2E/DX2                !
 ! A32   A(14,16,20)           119.9908         estimate D2E/DX2                !
 ! A33   A(19,16,20)           119.6791         estimate D2E/DX2                !
 ! A34   A(15,17,21)           120.18           estimate D2E/DX2                !
 ! A35   A(15,17,22)           119.7707         estimate D2E/DX2                !
 ! A36   A(21,17,22)           120.0493         estimate D2E/DX2                !
 ! A37   A(16,19,21)           120.1796         estimate D2E/DX2                !
 ! A38   A(16,19,23)           119.8341         estimate D2E/DX2                !
 ! A39   A(21,19,23)           119.9863         estimate D2E/DX2                !
 ! A40   A(17,21,19)           119.7709         estimate D2E/DX2                !
 ! A41   A(17,21,24)           120.1319         estimate D2E/DX2                !
 ! A42   A(19,21,24)           120.0972         estimate D2E/DX2                !
 ! A43   A(1,25,26)            118.8438         estimate D2E/DX2                !
 ! A44   A(1,25,27)            121.9774         estimate D2E/DX2                !
 ! A45   A(26,25,27)           119.1787         estimate D2E/DX2                !
 ! A46   A(25,26,28)           120.3299         estimate D2E/DX2                !
 ! A47   A(25,26,29)           119.9908         estimate D2E/DX2                !
 ! A48   A(28,26,29)           119.6791         estimate D2E/DX2                !
 ! A49   A(25,27,30)           120.3607         estimate D2E/DX2                !
 ! A50   A(25,27,31)           119.5394         estimate D2E/DX2                !
 ! A51   A(30,27,31)           120.0971         estimate D2E/DX2                !
 ! A52   A(26,28,32)           120.1796         estimate D2E/DX2                !
 ! A53   A(26,28,33)           119.8341         estimate D2E/DX2                !
 ! A54   A(32,28,33)           119.9863         estimate D2E/DX2                !
 ! A55   A(27,30,32)           120.18           estimate D2E/DX2                !
 ! A56   A(27,30,34)           119.7707         estimate D2E/DX2                !
 ! A57   A(32,30,34)           120.0493         estimate D2E/DX2                !
 ! A58   A(28,32,30)           119.7709         estimate D2E/DX2                !
 ! A59   A(28,32,35)           120.0972         estimate D2E/DX2                !
 ! A60   A(30,32,35)           120.1319         estimate D2E/DX2                !
 ! D1    D(2,1,3,4)             27.5458         estimate D2E/DX2                !
 ! D2    D(2,1,3,5)           -152.6119         estimate D2E/DX2                !
 ! D3    D(14,1,3,4)           -89.2665         estimate D2E/DX2                !
 ! D4    D(14,1,3,5)            90.5758         estimate D2E/DX2                !
 ! D5    D(25,1,3,4)           144.3581         estimate D2E/DX2                !
 ! D6    D(25,1,3,5)           -35.7996         estimate D2E/DX2                !
 ! D7    D(2,1,14,15)         -152.6119         estimate D2E/DX2                !
 ! D8    D(2,1,14,16)           27.5458         estimate D2E/DX2                !
 ! D9    D(3,1,14,15)          -35.7996         estimate D2E/DX2                !
 ! D10   D(3,1,14,16)          144.3581         estimate D2E/DX2                !
 ! D11   D(25,1,14,15)          90.5758         estimate D2E/DX2                !
 ! D12   D(25,1,14,16)         -89.2665         estimate D2E/DX2                !
 ! D13   D(2,1,25,26)           27.5458         estimate D2E/DX2                !
 ! D14   D(2,1,25,27)         -152.6119         estimate D2E/DX2                !
 ! D15   D(3,1,25,26)          -89.2665         estimate D2E/DX2                !
 ! D16   D(3,1,25,27)           90.5758         estimate D2E/DX2                !
 ! D17   D(14,1,25,26)         144.3581         estimate D2E/DX2                !
 ! D18   D(14,1,25,27)         -35.7996         estimate D2E/DX2                !
 ! D19   D(1,3,4,6)            179.7876         estimate D2E/DX2                !
 ! D20   D(1,3,4,7)             -0.045          estimate D2E/DX2                !
 ! D21   D(5,3,4,6)             -0.0592         estimate D2E/DX2                !
 ! D22   D(5,3,4,7)           -179.8918         estimate D2E/DX2                !
 ! D23   D(1,3,5,8)           -179.9118         estimate D2E/DX2                !
 ! D24   D(1,3,5,9)              0.6918         estimate D2E/DX2                !
 ! D25   D(4,3,5,8)             -0.07           estimate D2E/DX2                !
 ! D26   D(4,3,5,9)           -179.4664         estimate D2E/DX2                !
 ! D27   D(3,4,6,10)             0.1146         estimate D2E/DX2                !
 ! D28   D(3,4,6,11)          -179.9182         estimate D2E/DX2                !
 ! D29   D(7,4,6,10)           179.9477         estimate D2E/DX2                !
 ! D30   D(7,4,6,11)            -0.0851         estimate D2E/DX2                !
 ! D31   D(3,5,8,10)             0.1445         estimate D2E/DX2                !
 ! D32   D(3,5,8,12)          -179.7779         estimate D2E/DX2                !
 ! D33   D(9,5,8,10)           179.5376         estimate D2E/DX2                !
 ! D34   D(9,5,8,12)            -0.3848         estimate D2E/DX2                !
 ! D35   D(4,6,10,8)            -0.0402         estimate D2E/DX2                !
 ! D36   D(4,6,10,13)          179.8904         estimate D2E/DX2                !
 ! D37   D(11,6,10,8)          179.9926         estimate D2E/DX2                !
 ! D38   D(11,6,10,13)          -0.0768         estimate D2E/DX2                !
 ! D39   D(5,8,10,6)            -0.0889         estimate D2E/DX2                !
 ! D40   D(5,8,10,13)          179.9805         estimate D2E/DX2                !
 ! D41   D(12,8,10,6)          179.8332         estimate D2E/DX2                !
 ! D42   D(12,8,10,13)          -0.0973         estimate D2E/DX2                !
 ! D43   D(1,14,15,17)        -179.9118         estimate D2E/DX2                !
 ! D44   D(1,14,15,18)           0.6918         estimate D2E/DX2                !
 ! D45   D(16,14,15,17)         -0.07           estimate D2E/DX2                !
 ! D46   D(16,14,15,18)       -179.4664         estimate D2E/DX2                !
 ! D47   D(1,14,16,19)         179.7876         estimate D2E/DX2                !
 ! D48   D(1,14,16,20)          -0.045          estimate D2E/DX2                !
 ! D49   D(15,14,16,19)         -0.0592         estimate D2E/DX2                !
 ! D50   D(15,14,16,20)       -179.8918         estimate D2E/DX2                !
 ! D51   D(14,15,17,21)          0.1445         estimate D2E/DX2                !
 ! D52   D(14,15,17,22)       -179.7779         estimate D2E/DX2                !
 ! D53   D(18,15,17,21)        179.5376         estimate D2E/DX2                !
 ! D54   D(18,15,17,22)         -0.3848         estimate D2E/DX2                !
 ! D55   D(14,16,19,21)          0.1146         estimate D2E/DX2                !
 ! D56   D(14,16,19,23)       -179.9182         estimate D2E/DX2                !
 ! D57   D(20,16,19,21)        179.9477         estimate D2E/DX2                !
 ! D58   D(20,16,19,23)         -0.0851         estimate D2E/DX2                !
 ! D59   D(15,17,21,19)         -0.0889         estimate D2E/DX2                !
 ! D60   D(15,17,21,24)        179.9805         estimate D2E/DX2                !
 ! D61   D(22,17,21,19)        179.8332         estimate D2E/DX2                !
 ! D62   D(22,17,21,24)         -0.0973         estimate D2E/DX2                !
 ! D63   D(16,19,21,17)         -0.0402         estimate D2E/DX2                !
 ! D64   D(16,19,21,24)        179.8904         estimate D2E/DX2                !
 ! D65   D(23,19,21,17)        179.9926         estimate D2E/DX2                !
 ! D66   D(23,19,21,24)         -0.0768         estimate D2E/DX2                !
 ! D67   D(1,25,26,28)         179.7876         estimate D2E/DX2                !
 ! D68   D(1,25,26,29)          -0.045          estimate D2E/DX2                !
 ! D69   D(27,25,26,28)         -0.0592         estimate D2E/DX2                !
 ! D70   D(27,25,26,29)       -179.8918         estimate D2E/DX2                !
 ! D71   D(1,25,27,30)        -179.9118         estimate D2E/DX2                !
 ! D72   D(1,25,27,31)           0.6918         estimate D2E/DX2                !
 ! D73   D(26,25,27,30)         -0.07           estimate D2E/DX2                !
 ! D74   D(26,25,27,31)       -179.4664         estimate D2E/DX2                !
 ! D75   D(25,26,28,32)          0.1146         estimate D2E/DX2                !
 ! D76   D(25,26,28,33)       -179.9182         estimate D2E/DX2                !
 ! D77   D(29,26,28,32)        179.9477         estimate D2E/DX2                !
 ! D78   D(29,26,28,33)         -0.0851         estimate D2E/DX2                !
 ! D79   D(25,27,30,32)          0.1445         estimate D2E/DX2                !
 ! D80   D(25,27,30,34)       -179.7779         estimate D2E/DX2                !
 ! D81   D(31,27,30,32)        179.5376         estimate D2E/DX2                !
 ! D82   D(31,27,30,34)         -0.3848         estimate D2E/DX2                !
 ! D83   D(26,28,32,30)         -0.0402         estimate D2E/DX2                !
 ! D84   D(26,28,32,35)        179.8904         estimate D2E/DX2                !
 ! D85   D(33,28,32,30)        179.9926         estimate D2E/DX2                !
 ! D86   D(33,28,32,35)         -0.0768         estimate D2E/DX2                !
 ! D87   D(27,30,32,28)         -0.0889         estimate D2E/DX2                !
 ! D88   D(27,30,32,35)        179.9805         estimate D2E/DX2                !
 ! D89   D(34,30,32,28)        179.8332         estimate D2E/DX2                !
 ! D90   D(34,30,32,35)         -0.0974         estimate D2E/DX2                !
 --------------------------------------------------------------------------------
 Trust Radius=3.00D-01 FncErr=1.00D-07 GrdErr=1.00D-07
 Number of steps in this run= 197 maximum allowed number of steps= 210.
 GradGradGradGradGradGradGradGradGradGradGradGradGradGradGradGradGradGrad

                          Input orientation:                          
 ---------------------------------------------------------------------
 Center     Atomic      Atomic             Coordinates (Angstroms)
 Number     Number       Type             X           Y           Z
 ---------------------------------------------------------------------
      1          6           0        0.000000    0.000000    0.795631
      2          1           0        0.000000    0.000000    1.918340
      3          6           0        0.980254   -1.059164    0.355360
      4          6           0        1.217918   -2.149458    1.196818
      5          6           0        1.651785   -0.982980   -0.865728
      6          6           0        2.111348   -3.145158    0.820015
      7          1           0        0.696396   -2.223598    2.158137
      8          6           0        2.547105   -1.979354   -1.238813
      9          1           0        1.476171   -0.124543   -1.527492
     10          6           0        2.777960   -3.062121   -0.397959
     11          1           0        2.290403   -3.996399    1.484902
     12          1           0        3.071376   -1.908020   -2.197313
     13          1           0        3.482695   -3.846195   -0.692585
     14          6           0       -1.407389   -0.319343    0.355360
     15          6           0       -1.677178   -0.938998   -0.865728
     16          6           0       -2.470444    0.019981    1.196818
     17          6           0       -2.987724   -1.216180   -1.238813
     18          1           0       -0.845942   -1.216130   -1.527492
     19          6           0       -3.779461   -0.255902    0.820015
     20          1           0       -2.273890    0.508703    2.158137
     21          6           0       -4.040854   -0.874724   -0.397959
     22          1           0       -3.188082   -1.705880   -2.197313
     23          1           0       -4.606185    0.014652    1.484902
     24          1           0       -5.072250   -1.093005   -0.692585
     25          6           0        0.427136    1.378506    0.355360
     26          6           0        1.252526    2.129477    1.196818
     27          6           0        0.025393    1.921978   -0.865728
     28          6           0        1.668113    3.401060    0.820015
     29          1           0        1.577494    1.714895    2.158137
     30          6           0        0.440619    3.195535   -1.238813
     31          1           0       -0.630228    1.340672   -1.527492
     32          6           0        1.262894    3.936844   -0.397959
     33          1           0        2.315781    3.981747    1.484902
     34          1           0        0.116706    3.613900   -2.197313
     35          1           0        1.589555    4.939200   -0.692585
 ---------------------------------------------------------------------
                    Distance matrix (angstroms):
                    1          2          3          4          5
     1  C    0.000000
     2  H    1.122709   0.000000
     3  C    1.508828   2.127353   0.000000
     4  C    2.502887   2.573730   1.397597   0.000000
     5  C    2.540621   3.383146   1.395641   2.408943   0.000000
     6  C    3.788192   3.944126   2.417985   1.389826   2.779917
     7  H    2.699218   2.342404   2.164829   1.096182   3.405240
     8  C    3.813732   4.513669   2.417263   2.779923   1.390523
     9  H    2.755266   3.750780   2.159764   3.404238   1.098038
    10  C    4.303290   4.739081   2.794830   2.410394   2.410374
    11  H    4.657494   4.626556   3.408769   2.155089   3.874789
    12  H    4.693784   5.478366   3.407270   3.874755   2.155008
    13  H    5.397885   5.808555   3.889466   3.402643   3.402971
    14  C    1.508828   2.127353   2.499635   3.309019   3.360062
    15  C    2.540621   3.383146   2.927019   3.755115   3.329253
    16  C    2.502887   2.573730   3.712131   4.279074   4.717287
    17  C    3.813732   4.513669   4.279122   4.948811   4.660323
    18  H    2.755266   3.750780   2.627691   3.542948   2.594404
    19  C    3.788193   3.944126   4.849331   5.357362   5.733132
    20  H    2.699218   2.342404   4.037036   4.492513   5.174920
    21  C    4.303290   4.739081   5.080653   5.641183   5.712851
    22  H    4.693784   5.478366   4.930457   5.579402   5.071490
    23  H    4.657494   4.626556   5.799762   6.219850   6.758914
    24  H    5.397885   5.808555   6.142649   6.652229   6.727163
    25  C    1.508828   2.127353   2.499635   3.712131   2.927019
    26  C    2.502887   2.573730   3.309019   4.279074   3.755115
    27  C    2.540621   3.383146   3.360062   4.717287   3.329253
    28  C    3.788192   3.944126   4.536810   5.581478   4.696999
    29  H    2.699218   2.342404   3.361860   3.998331   4.053123
    30  C    3.813732   4.513669   4.575484   5.924984   4.366475
    31  H    2.755266   3.750780   3.449347   4.797762   3.323383
    32  C    4.303290   4.739081   5.060382   6.291932   4.957289
    33  H    4.657494   4.626556   5.335755   6.235380   5.533070
    34  H    4.693784   5.478366   5.394384   6.778575   5.026021
    35  H    5.397885   5.808555   6.119624   7.345544   5.925037
                    6          7          8          9         10
     6  C    0.000000
     7  H    2.154514   0.000000
     8  C    2.405775   3.876086   0.000000
     9  H    3.877932   4.312533   2.161149   0.000000
    10  C    1.390945   3.401420   1.390220   3.405857   0.000000
    11  H    1.094873   2.477282   3.398969   4.972802   2.157720
    12  H    3.399476   4.970922   1.094839   2.484780   2.157711
    13  H    2.158704   4.303824   2.158422   4.309745   1.094636
    14  C    4.536810   3.361860   4.575484   3.449347   5.060382
    15  C    4.696999   4.053123   4.366475   3.323383   4.957289
    16  C    5.581478   3.998331   5.924984   4.797761   6.291932
    17  C    5.827543   5.111447   5.587196   4.604493   6.112090
    18  H    4.239988   4.120395   3.489787   2.565886   4.220923
    19  C    6.561206   5.069091   6.872735   5.757578   7.235889
    20  H    5.862728   4.035847   6.400913   5.296018   6.693698
    21  C    6.669927   5.549290   6.732641   5.681213   7.161071
    22  H    6.265760   5.858937   5.821158   4.970366   6.377360
    23  H    7.453302   5.794857   7.909756   6.788883   8.218108
    24  H    7.622557   6.533156   7.690159   6.672091   8.098767
    25  C    4.849331   4.037036   4.279122   2.627691   5.080653
    26  C    5.357362   4.492513   4.948811   3.542948   5.641183
    27  C    5.733132   5.174920   4.660323   2.594404   5.712851
    28  C    6.561206   5.862728   5.827543   4.239988   6.669927
    29  H    5.069091   4.035847   5.111447   4.120395   5.549290
    30  C    6.872735   6.400913   5.587196   3.489787   6.732641
    31  H    5.757578   5.296018   4.604493   2.565886   5.681213
    32  C    7.235889   6.693698   6.112090   4.220923   7.161071
    33  H    7.160771   6.448407   6.557962   5.161499   7.305809
    34  H    7.666011   7.306323   6.173334   4.033950   7.408724
    35  H    8.241181   7.760800   7.005830   5.133362   8.094457
                   11         12         13         14         15
    11  H    0.000000
    12  H    4.304644   0.000000
    13  H    2.487081   2.487954   0.000000
    14  C    5.335755   5.394384   6.119624   0.000000
    15  C    5.533070   5.026021   5.925037   1.395641   0.000000
    16  C    6.235380   6.778575   7.345544   1.397597   2.408943
    17  C    6.557962   6.173334   7.005830   2.417263   1.390523
    18  H    5.161499   4.033950   5.133362   2.159764   1.098038
    19  C    7.160771   7.666011   8.241181   2.417985   2.779917
    20  H    6.448407   7.306323   7.760800   2.164829   3.405240
    21  C    7.305809   7.408724   8.094457   2.794830   2.410374
    22  H    6.987059   6.262721   7.165502   3.407270   2.155008
    23  H    7.978186   8.729279   9.223750   3.408769   3.874789
    24  H    8.208521   8.321484   8.987054   3.889466   3.402971
    25  C    5.799762   4.930457   6.142649   2.499635   3.360062
    26  C    6.219850   5.579402   6.652229   3.712131   4.717287
    27  C    6.758914   5.071490   6.727163   2.927019   3.329253
    28  C    7.453302   6.265760   7.622557   4.849331   5.733132
    29  H    5.794857   5.858937   6.533156   4.037036   5.174920
    30  C    7.909756   5.821158   7.690159   4.279122   4.660323
    31  H    6.788883   4.970366   6.672091   2.627691   2.594404
    32  C    8.218108   6.377360   8.098767   5.080653   5.712851
    33  H    7.978186   6.987059   8.208521   5.799762   6.758914
    34  H    8.729279   6.262721   8.321484   4.930457   5.071490
    35  H    9.223750   7.165502   8.987054   6.142649   6.727163
                   16         17         18         19         20
    16  C    0.000000
    17  C    2.779923   0.000000
    18  H    3.404238   2.161149   0.000000
    19  C    1.389826   2.405775   3.877932   0.000000
    20  H    1.096182   3.876086   4.312533   2.154514   0.000000
    21  C    2.410394   1.390220   3.405857   1.390945   3.401420
    22  H    3.874755   1.094839   2.484780   3.399476   4.970922
    23  H    2.155089   3.398969   4.972802   1.094873   2.477282
    24  H    3.402643   2.158422   4.309745   2.158704   4.303824
    25  C    3.309019   4.575484   3.449347   4.536810   3.361860
    26  C    4.279074   5.924984   4.797761   5.581478   3.998331
    27  C    3.755115   4.366475   3.323383   4.696999   4.053123
    28  C    5.357362   6.872735   5.757578   6.561206   5.069091
    29  H    4.492513   6.400913   5.296018   5.862728   4.035847
    30  C    4.948811   5.587196   4.604493   5.827543   5.111447
    31  H    3.542948   3.489787   2.565886   4.239988   4.120395
    32  C    5.641183   6.732641   5.681213   6.669927   5.549290
    33  H    6.219850   7.909756   6.788883   7.453303   5.794857
    34  H    5.579402   5.821158   4.970366   6.265760   5.858937
    35  H    6.652229   7.690159   6.672091   7.622557   6.533156
                   21         22         23         24         25
    21  C    0.000000
    22  H    2.157711   0.000000
    23  H    2.157720   4.304644   0.000000
    24  H    1.094636   2.487953   2.487081   0.000000
    25  C    5.060382   5.394384   5.335755   6.119624   0.000000
    26  C    6.291932   6.778575   6.235380   7.345544   1.397597
    27  C    4.957289   5.026021   5.533070   5.925037   1.395641
    28  C    7.235889   7.666011   7.160771   8.241181   2.417985
    29  H    6.693698   7.306323   6.448407   7.760800   2.164829
    30  C    6.112090   6.173334   6.557962   7.005830   2.417263
    31  H    4.220923   4.033950   5.161499   5.133362   2.159764
    32  C    7.161071   7.408724   7.305809   8.094457   2.794830
    33  H    8.218108   8.729279   7.978186   9.223750   3.408769
    34  H    6.377360   6.262721   6.987059   7.165502   3.407270
    35  H    8.098767   8.321484   8.208521   8.987054   3.889466
                   26         27         28         29         30
    26  C    0.000000
    27  C    2.408943   0.000000
    28  C    1.389826   2.779917   0.000000
    29  H    1.096182   3.405240   2.154514   0.000000
    30  C    2.779923   1.390523   2.405775   3.876086   0.000000
    31  H    3.404238   1.098038   3.877932   4.312532   2.161149
    32  C    2.410394   2.410374   1.390945   3.401420   1.390220
    33  H    2.155089   3.874789   1.094873   2.477282   3.398969
    34  H    3.874755   2.155008   3.399476   4.970922   1.094839
    35  H    3.402643   3.402971   2.158704   4.303824   2.158422
                   31         32         33         34         35
    31  H    0.000000
    32  C    3.405857   0.000000
    33  H    4.972802   2.157720   0.000000
    34  H    2.484780   2.157711   4.304644   0.000000
    35  H    4.309745   1.094636   2.487081   2.487953   0.000000
 Stoichiometry    C19H16
 Framework group  C3[C3(CH),X(C18H15)]
 Deg. of freedom    33
 Full point group                 C3      NOp   3
 Largest Abelian subgroup         C1      NOp   1
 Largest concise Abelian subgroup C1      NOp   1
                         Standard orientation:                         
 ---------------------------------------------------------------------
 Center     Atomic      Atomic             Coordinates (Angstroms)
 Number     Number       Type             X           Y           Z
 ---------------------------------------------------------------------
      1          6           0        0.000000    0.000000    0.780065
      2          1           0        0.000000    0.000000    1.902775
      3          6           0        0.000000    1.443165    0.339794
      4          6           0        0.566144    2.404781    1.181252
      5          6           0       -0.544595    1.843382   -0.881294
      6          6           0        0.586759    3.742395    0.804449
      7          1           0        0.999257    2.104956    2.142571
      8          6           0       -0.524910    3.182775   -1.254379
      9          1           0       -0.998793    1.094076   -1.543057
     10          6           0        0.041119    4.134242   -0.413525
     11          1           0        1.033543    4.488757    1.469337
     12          1           0       -0.958134    3.486527   -2.212879
     13          1           0        0.056476    5.188371   -0.708151
     14          6           0        1.249817   -0.721582    0.339794
     15          6           0        1.868714   -0.450058   -0.881294
     16          6           0        1.799529   -1.692686    1.181252
     17          6           0        3.018819   -1.136803   -1.254379
     18          1           0        1.446894    0.317942   -1.543057
     19          6           0        2.947630   -2.379346    0.804449
     20          1           0        1.323317   -1.917860    2.142571
     21          6           0        3.559799   -2.102731   -0.413525
     22          1           0        3.498488   -0.913495   -2.212879
     23          1           0        3.370606   -3.139453    1.469337
     24          1           0        4.465023   -2.643095   -0.708151
     25          6           0       -1.249817   -0.721582    0.339794
     26          6           0       -2.365674   -0.712095    1.181252
     27          6           0       -1.324118   -1.393324   -0.881294
     28          6           0       -3.534389   -1.363049    0.804449
     29          1           0       -2.322574   -0.187096    2.142571
     30          6           0       -2.493909   -2.045973   -1.254379
     31          1           0       -0.448102   -1.412018   -1.543057
     32          6           0       -3.600918   -2.031511   -0.413525
     33          1           0       -4.404149   -1.349304    1.469337
     34          1           0       -2.540354   -2.573032   -2.212879
     35          1           0       -4.521499   -2.545276   -0.708151
 ---------------------------------------------------------------------
 Rotational constants (GHZ):      0.3903967      0.3903967      0.2358934
 Standard basis: 6-311G (5D, 7F)
 There are   295 symmetry adapted basis functions of A   symmetry.
 Integral buffers will be    262144 words long.
 Raffenetti 1 integral format.
 Two-electron integral symmetry is turned on.
   295 basis functions,   574 primitive gaussians,   295 cartesian basis functions
    65 alpha electrons       65 beta electrons
       nuclear repulsion energy      1290.4147815853 Hartrees.
 NAtoms=   35 NActive=   35 NUniq=   13 SFac= 3.00D+00 NAtFMM=   80 NAOKFM=F Big=F
 One-electron integrals computed using PRISM.
 PrsmSu:  requested number of processors reduced to:  10 ShMem   1 Linda.
 NBasis=   295 RedAO= T  NBF=   295
 NBsUse=   295 1.00D-06 NBFU=   295
 Harris functional with IExCor=  205 diagonalized for initial guess.
 ExpMin= 1.03D-01 ExpMax= 4.56D+03 ExpMxC= 6.82D+02 IAcc=1 IRadAn=         1 AccDes= 0.00D+00
 HarFok:  IExCor=  205 AccDes= 0.00D+00 IRadAn=         1 IDoV= 1
 ScaDFX=  1.000000  1.000000  1.000000  1.000000
 FoFCou: FMM=F IPFlag=           0 FMFlag=      100000 FMFlg1=           0
         NFxFlg=           0 DoJE=T BraDBF=F KetDBF=T FulRan=T
         Omega=  0.000000  0.000000  1.000000  0.000000  0.000000 ICntrl=     500 IOpCl=  0
         NMat0=    1 NMatS0=    1 NMatT0=    0 NMatD0=    1 NMtDS0=    0 NMtDT0=    0
         I1Cent=           4 NGrid=           0.
 Petite list used in FoFCou.
 Initial guess orbital symmetries:
       Occupied  (E) (E) (A) (A) (E) (E) (A) (E) (E) (E) (E) (A)
                 (E) (E) (A) (E) (E) (A) (A) (A) (E) (E) (A) (A)
                 (E) (E) (E) (E) (A) (A) (E) (E) (E) (E) (A) (E)
                 (E) (A) (A) (E) (E) (E) (E) (A) (E) (E) (A) (E)
                 (E) (A) (E) (E) (A) (A) (E) (E) (E) (E) (A) (E)
                 (E) (A) (E) (E) (A)
       Virtual   (E) (E) (A) (E) (E) (A) (A) (A) (E) (E) (E) (E)
                 (A) (A) (E) (E) (E) (E) (A) (A) (E) (E) (E) (E)
                 (A) (A) (E) (E) (A) (E) (E) (A) (E) (E) (E) (E)
                 (A) (E) (E) (A) (E) (E) (A) (E) (E) (A) (A) (E)
                 (E) (E) (E) (A) (A) (E) (E) (A) (E) (E) (E) (E)
                 (A) (E) (E) (A) (E) (E) (A) (A) (E) (E) (E) (E)
                 (A) (A) (E) (E) (A) (A) (E) (E) (A) (E) (E) (A)
                 (E) (E) (A) (A) (E) (E) (E) (E) (A) (E) (E) (A)
                 (E) (E) (A) (E) (E) (A) (E) (E) (E) (E) (A) (E)
                 (E) (A) (E) (E) (E) (E) (A) (A) (E) (E) (A) (E)
                 (E) (A) (A) (E) (E) (E) (E) (A) (A) (E) (E) (A)
                 (E) (E) (A) (E) (E) (A) (E) (E) (A) (A) (E) (E)
                 (E) (E) (A) (A) (E) (E) (A) (E) (E) (A) (E) (E)
                 (A) (E) (E) (E) (E) (A) (A) (A) (E) (E) (A) (E)
                 (E) (A) (E) (E) (A) (E) (E) (A) (E) (E) (E) (E)
                 (A) (A) (E) (E) (E) (E) (A) (E) (E) (E) (E) (A)
                 (E) (E) (A) (A) (E) (E) (E) (E) (E) (E) (A) (A)
                 (E) (E) (A) (A) (E) (E) (A) (A) (E) (E) (E) (E)
                 (A) (A) (E) (E) (A) (E) (E) (A) (E) (E) (A) (A)
                 (E) (E)
 The electronic state of the initial guess is 1-A.
 Requested convergence on RMS density matrix=1.00D-08 within 128 cycles.
 Requested convergence on MAX density matrix=1.00D-06.
 Requested convergence on             energy=1.00D-06.
 No special actions if energy rises.
 Integral accuracy reduced to 1.0D-05 until final iterations.
 Initial convergence to 1.0D-05 achieved.  Increase integral accuracy.
 SCF Done:  E(RHF) =  -728.678094473     A.U. after   14 cycles
             Convg  =    0.6627D-08             -V/T =  2.0001

 **********************************************************************

            Population analysis using the SCF density.

 **********************************************************************

 Orbital symmetries:
       Occupied  (A) (E) (E) (A) (E) (E) (A) (A) (E) (E) (E) (E)
                 (A) (E) (E) (A) (E) (E) (A) (A) (E) (E) (A) (A)
                 (E) (E) (E) (E) (A) (A) (E) (E) (E) (E) (A) (E)
                 (E) (A) (A) (E) (E) (E) (E) (A) (A) (E) (E) (E)
                 (E) (A) (A) (E) (E) (A) (E) (E) (A) (E) (E) (E)
                 (E) (A) (E) (E) (A)
       Virtual   (E) (E) (A) (A) (E) (E) (A) (E) (E) (A) (A) (E)
                 (E) (E) (E) (A) (E) (E) (A) (E) (E) (A) (E) (E)
                 (A) (E) (E) (A) (A) (A) (E) (E) (E) (E) (E) (E)
                 (A) (A) (E) (E) (A) (E) (E) (E) (E) (A) (E) (E)
                 (A) (A) (E) (E) (A) (E) (E) (A) (E) (E) (A) (E)
                 (E) (E) (E) (A) (A) (E) (E) (A) (E) (E) (A) (E)
                 (E) (A) (E) (E) (A) (E) (E) (A) (A) (E) (E) (E)
                 (E) (A) (E) (E) (A) (E) (E) (A) (A) (E) (E) (A)
                 (E) (E) (A) (E) (E) (E) (E) (A) (E) (E) (A) (E)
                 (E) (A) (E) (E) (E) (E) (A) (A) (A) (E) (E) (A)
                 (E) (E) (A) (E) (E) (A) (E) (E) (A) (E) (E) (A)
                 (E) (E) (A) (E) (E) (A) (E) (E) (A) (E) (E) (A)
                 (E) (E) (A) (E) (E) (A) (A) (E) (E) (A) (A) (E)
                 (E) (E) (E) (A) (E) (E) (A) (A) (E) (E) (E) (E)
                 (A) (E) (E) (A) (A) (E) (E) (A) (E) (E) (E) (E)
                 (A) (A) (E) (E) (E) (E) (A) (E) (E) (A) (E) (E)
                 (A) (E) (E) (A) (E) (E) (E) (E) (E) (E) (A) (A)
                 (A) (E) (E) (A) (E) (E) (A) (A) (E) (E) (E) (E)
                 (A) (A) (E) (E) (A) (E) (E) (A) (E) (E) (A) (A)
                 (E) (E)
 The electronic state is 1-A.
 Alpha  occ. eigenvalues --  -11.25727 -11.25095 -11.25095 -11.25089 -11.24307
 Alpha  occ. eigenvalues --  -11.24307 -11.24307 -11.24285 -11.24285 -11.24285
 Alpha  occ. eigenvalues --  -11.24021 -11.24021 -11.24021 -11.23963 -11.23963
 Alpha  occ. eigenvalues --  -11.23963 -11.23818 -11.23818 -11.23818  -1.18574
 Alpha  occ. eigenvalues --   -1.15711  -1.15711  -1.09016  -1.02185  -1.02042
 Alpha  occ. eigenvalues --   -1.02042  -1.01365  -1.01365  -0.92879  -0.84074
 Alpha  occ. eigenvalues --   -0.82992  -0.82992  -0.81451  -0.81451  -0.77510
 Alpha  occ. eigenvalues --   -0.70622  -0.70622  -0.68783  -0.65633  -0.63790
 Alpha  occ. eigenvalues --   -0.63790  -0.61930  -0.61930  -0.61736  -0.59096
 Alpha  occ. eigenvalues --   -0.58735  -0.58735  -0.58054  -0.58054  -0.54344
 Alpha  occ. eigenvalues --   -0.51180  -0.50832  -0.50832  -0.49662  -0.49106
 Alpha  occ. eigenvalues --   -0.49106  -0.47442  -0.47174  -0.47174  -0.34451
 Alpha  occ. eigenvalues --   -0.34451  -0.34006  -0.33229  -0.33229  -0.31222
 Alpha virt. eigenvalues --    0.12205   0.12205   0.12393   0.14445   0.14463
 Alpha virt. eigenvalues --    0.14463   0.15132   0.16316   0.16316   0.17111
 Alpha virt. eigenvalues --    0.19072   0.19124   0.19124   0.21251   0.21251
 Alpha virt. eigenvalues --    0.21553   0.23843   0.23843   0.24466   0.26733
 Alpha virt. eigenvalues --    0.26733   0.28538   0.34012   0.34012   0.35091
 Alpha virt. eigenvalues --    0.39176   0.39176   0.39358   0.41081   0.43770
 Alpha virt. eigenvalues --    0.43875   0.43875   0.44967   0.44967   0.45560
 Alpha virt. eigenvalues --    0.45560   0.45806   0.48343   0.49754   0.49754
 Alpha virt. eigenvalues --    0.50691   0.50882   0.50882   0.55386   0.55386
 Alpha virt. eigenvalues --    0.57219   0.58696   0.58696   0.58774   0.59468
 Alpha virt. eigenvalues --    0.60068   0.60068   0.61453   0.61554   0.61554
 Alpha virt. eigenvalues --    0.61701   0.62242   0.62242   0.63511   0.63793
 Alpha virt. eigenvalues --    0.63793   0.65422   0.65422   0.66735   0.67103
 Alpha virt. eigenvalues --    0.67859   0.67859   0.69139   0.70643   0.70643
 Alpha virt. eigenvalues --    0.73048   0.74592   0.74592   0.74977   0.75566
 Alpha virt. eigenvalues --    0.75566   0.78111   0.80275   0.80275   0.80279
 Alpha virt. eigenvalues --    0.81936   0.82007   0.82007   0.82970   0.82970
 Alpha virt. eigenvalues --    0.83744   0.84372   0.84372   0.85137   0.86015
 Alpha virt. eigenvalues --    0.86015   0.86217   0.87292   0.87738   0.87738
 Alpha virt. eigenvalues --    0.88551   0.90863   0.90863   0.92771   0.94570
 Alpha virt. eigenvalues --    0.94570   0.97225   0.97225   0.97792   1.00032
 Alpha virt. eigenvalues --    1.00032   1.00717   1.04039   1.04039   1.06239
 Alpha virt. eigenvalues --    1.06992   1.06992   1.08773   1.08773   1.09878
 Alpha virt. eigenvalues --    1.11064   1.12245   1.12937   1.12937   1.14190
 Alpha virt. eigenvalues --    1.14653   1.14653   1.17904   1.20738   1.20738
 Alpha virt. eigenvalues --    1.26724   1.27469   1.27469   1.28640   1.30063
 Alpha virt. eigenvalues --    1.30063   1.39644   1.40620   1.40620   1.49138
 Alpha virt. eigenvalues --    1.52303   1.52303   1.54946   2.55830   2.55830
 Alpha virt. eigenvalues --    2.56438   2.61656   2.61656   2.61688   2.66492
 Alpha virt. eigenvalues --    2.66492   2.67963   2.70411   2.70411   2.70871
 Alpha virt. eigenvalues --    2.78479   2.84853   2.84853   2.88514   2.94548
 Alpha virt. eigenvalues --    2.94641   2.94641   2.97630   2.97630   2.97654
 Alpha virt. eigenvalues --    3.01468   3.01468   3.04383   3.06188   3.07551
 Alpha virt. eigenvalues --    3.07551   3.08647   3.08647   3.09322   3.15407
 Alpha virt. eigenvalues --    3.15407   3.15630   3.17429   3.18992   3.18992
 Alpha virt. eigenvalues --    3.23290   3.25373   3.25373   3.28837   3.28837
 Alpha virt. eigenvalues --    3.29669   3.33098   3.34950   3.34950   3.42269
 Alpha virt. eigenvalues --    3.42269   3.43258   3.48633   3.48633   3.53934
 Alpha virt. eigenvalues --    3.54083   3.54083   3.59926   3.60349   3.60349
 Alpha virt. eigenvalues --    3.63121   3.63598   3.63598   3.65832   3.65832
 Alpha virt. eigenvalues --    3.69786   3.69786   3.70453   3.70695   3.75185
 Alpha virt. eigenvalues --    3.75896   3.75896   3.84544   3.87414   3.87414
 Alpha virt. eigenvalues --    3.91493  24.25955  24.31581  24.31581  24.50731
 Alpha virt. eigenvalues --   24.50731  24.51249  24.54561  24.55836  24.55836
 Alpha virt. eigenvalues --   24.77629  24.79311  24.79311  24.79931  24.80797
 Alpha virt. eigenvalues --   24.80797  24.83350  25.05334  25.06151  25.06151
          Condensed to atoms (all electrons):
              1          2          3          4          5          6
     1  C    5.860236   0.483607   0.145033  -0.054917  -0.040943   0.007223
     2  H    0.483607   0.515259  -0.072053  -0.001094   0.005300   0.001482
     3  C    0.145033  -0.072053   5.357803   0.483839   0.479987  -0.065742
     4  C   -0.054917  -0.001094   0.483839   5.059012  -0.068631   0.463580
     5  C   -0.040943   0.005300   0.479987  -0.068631   5.114087  -0.029422
     6  C    0.007223   0.001482  -0.065742   0.463580  -0.029422   5.055147
     7  H    0.000507   0.001462  -0.048776   0.399256   0.004431  -0.036072
     8  C    0.004241  -0.000240  -0.067570  -0.031765   0.468927  -0.075877
     9  H   -0.000875  -0.000120  -0.042459   0.004186   0.392280  -0.000228
    10  C    0.001168  -0.000011  -0.016418  -0.087570  -0.093796   0.490268
    11  H   -0.000372  -0.000026   0.006678  -0.039639  -0.000533   0.397076
    12  H   -0.000337   0.000014   0.006122  -0.000380  -0.037817   0.005933
    13  H   -0.000017  -0.000001  -0.001541   0.007432   0.007818  -0.042927
    14  C    0.145033  -0.072053  -0.096929  -0.001147  -0.008114  -0.000632
    15  C   -0.040943   0.005300  -0.018646   0.000196  -0.005051   0.000384
    16  C   -0.054917  -0.001094   0.005754   0.000844  -0.000167   0.000003
    17  C    0.004241  -0.000240   0.000085  -0.000169  -0.000021  -0.000009
    18  H   -0.000875  -0.000120  -0.001918  -0.000879   0.001450  -0.000191
    19  C    0.007223   0.001482  -0.000776  -0.000034   0.000026   0.000002
    20  H    0.000507   0.001462   0.000485   0.000044  -0.000031   0.000001
    21  C    0.001168  -0.000011   0.000097  -0.000008  -0.000017   0.000000
    22  H   -0.000337   0.000014   0.000029   0.000007   0.000018   0.000001
    23  H   -0.000372  -0.000026   0.000011   0.000001   0.000000   0.000000
    24  H   -0.000017  -0.000001  -0.000001   0.000000   0.000000   0.000000
    25  C    0.145033  -0.072053  -0.096929   0.005754  -0.018646  -0.000776
    26  C   -0.054917  -0.001094  -0.001147   0.000844   0.000196  -0.000034
    27  C   -0.040943   0.005300  -0.008114  -0.000167  -0.005051   0.000026
    28  C    0.007223   0.001482  -0.000632   0.000003   0.000384   0.000002
    29  H    0.000507   0.001462   0.000952   0.000232   0.000223  -0.000005
    30  C    0.004241  -0.000240   0.000676   0.000021  -0.001057   0.000000
    31  H   -0.000875  -0.000120  -0.000778  -0.000016   0.000728   0.000003
    32  C    0.001168  -0.000011   0.000038  -0.000001   0.000068   0.000000
    33  H   -0.000372  -0.000026   0.000024   0.000000   0.000003   0.000000
    34  H   -0.000337   0.000014  -0.000003   0.000000   0.000016   0.000000
    35  H   -0.000017  -0.000001   0.000000   0.000000  -0.000001   0.000000
              7          8          9         10         11         12
     1  C    0.000507   0.004241  -0.000875   0.001168  -0.000372  -0.000337
     2  H    0.001462  -0.000240  -0.000120  -0.000011  -0.000026   0.000014
     3  C   -0.048776  -0.067570  -0.042459  -0.016418   0.006678   0.006122
     4  C    0.399256  -0.031765   0.004186  -0.087570  -0.039639  -0.000380
     5  C    0.004431   0.468927   0.392280  -0.093796  -0.000533  -0.037817
     6  C   -0.036072  -0.075877  -0.000228   0.490268   0.397076   0.005933
     7  H    0.507621  -0.000423  -0.000239   0.005356  -0.004229   0.000022
     8  C   -0.000423   5.051985  -0.029897   0.496618   0.006117   0.396196
     9  H   -0.000239  -0.029897   0.474230   0.004629   0.000018  -0.003312
    10  C    0.005356   0.496618   0.004629   5.033120  -0.040643  -0.040237
    11  H   -0.004229   0.006117   0.000018  -0.040643   0.517978  -0.000211
    12  H    0.000022   0.396196  -0.003312  -0.040237  -0.000211   0.515659
    13  H   -0.000179  -0.042463  -0.000174   0.399529  -0.004493  -0.004402
    14  C    0.000952   0.000676  -0.000778   0.000038   0.000024  -0.000003
    15  C    0.000223  -0.001057   0.000728   0.000068   0.000003   0.000016
    16  C    0.000232   0.000021  -0.000016  -0.000001   0.000000   0.000000
    17  C    0.000007  -0.000021   0.000042   0.000005   0.000000   0.000001
    18  H   -0.000038   0.000920   0.000212   0.000000   0.000003   0.000008
    19  C   -0.000005   0.000000   0.000003   0.000000   0.000000   0.000000
    20  H   -0.000001   0.000000   0.000000   0.000000   0.000000   0.000000
    21  C   -0.000009   0.000000   0.000000   0.000000   0.000000   0.000000
    22  H    0.000000   0.000000  -0.000007  -0.000001   0.000000   0.000000
    23  H    0.000000   0.000000   0.000000   0.000000   0.000000   0.000000
    24  H    0.000000   0.000000   0.000000   0.000000   0.000000   0.000000
    25  C    0.000485   0.000085  -0.001918   0.000097   0.000011   0.000029
    26  C    0.000044  -0.000169  -0.000879  -0.000008   0.000001   0.000007
    27  C   -0.000031  -0.000021   0.001450  -0.000017   0.000000   0.000018
    28  C    0.000001  -0.000009  -0.000191   0.000000   0.000000   0.000001
    29  H   -0.000001   0.000007  -0.000038  -0.000009   0.000000   0.000000
    30  C    0.000000  -0.000021   0.000920   0.000000   0.000000   0.000000
    31  H    0.000000   0.000042   0.000212   0.000000   0.000000  -0.000007
    32  C    0.000000   0.000005   0.000000   0.000000   0.000000  -0.000001
    33  H    0.000000   0.000000   0.000003   0.000000   0.000000   0.000000
    34  H    0.000000   0.000001   0.000008   0.000000   0.000000   0.000000
    35  H    0.000000   0.000000   0.000000   0.000000   0.000000   0.000000
             13         14         15         16         17         18
     1  C   -0.000017   0.145033  -0.040943  -0.054917   0.004241  -0.000875
     2  H   -0.000001  -0.072053   0.005300  -0.001094  -0.000240  -0.000120
     3  C   -0.001541  -0.096929  -0.018646   0.005754   0.000085  -0.001918
     4  C    0.007432  -0.001147   0.000196   0.000844  -0.000169  -0.000879
     5  C    0.007818  -0.008114  -0.005051  -0.000167  -0.000021   0.001450
     6  C   -0.042927  -0.000632   0.000384   0.000003  -0.000009  -0.000191
     7  H   -0.000179   0.000952   0.000223   0.000232   0.000007  -0.000038
     8  C   -0.042463   0.000676  -0.001057   0.000021  -0.000021   0.000920
     9  H   -0.000174  -0.000778   0.000728  -0.000016   0.000042   0.000212
    10  C    0.399529   0.000038   0.000068  -0.000001   0.000005   0.000000
    11  H   -0.004493   0.000024   0.000003   0.000000   0.000000   0.000003
    12  H   -0.004402  -0.000003   0.000016   0.000000   0.000001   0.000008
    13  H    0.517919   0.000000  -0.000001   0.000000   0.000000   0.000000
    14  C    0.000000   5.357803   0.479987   0.483839  -0.067570  -0.042459
    15  C   -0.000001   0.479987   5.114087  -0.068631   0.468927   0.392280
    16  C    0.000000   0.483839  -0.068631   5.059012  -0.031765   0.004186
    17  C    0.000000  -0.067570   0.468927  -0.031765   5.051985  -0.029897
    18  H    0.000000  -0.042459   0.392280   0.004186  -0.029897   0.474230
    19  C    0.000000  -0.065742  -0.029422   0.463580  -0.075877  -0.000228
    20  H    0.000000  -0.048776   0.004431   0.399256  -0.000423  -0.000239
    21  C    0.000000  -0.016418  -0.093796  -0.087570   0.496618   0.004629
    22  H    0.000000   0.006122  -0.037817  -0.000380   0.396196  -0.003312
    23  H    0.000000   0.006678  -0.000533  -0.039639   0.006117   0.000018
    24  H    0.000000  -0.001541   0.007818   0.007432  -0.042463  -0.000174
    25  C   -0.000001  -0.096929  -0.008114  -0.001147   0.000676  -0.000778
    26  C    0.000000   0.005754  -0.000167   0.000844   0.000021  -0.000016
    27  C    0.000000  -0.018646  -0.005051   0.000196  -0.001057   0.000728
    28  C    0.000000  -0.000776   0.000026  -0.000034   0.000000   0.000003
    29  H    0.000000   0.000485  -0.000031   0.000044   0.000000   0.000000
    30  C    0.000000   0.000085  -0.000021  -0.000169  -0.000021   0.000042
    31  H    0.000000  -0.001918   0.001450  -0.000879   0.000920   0.000212
    32  C    0.000000   0.000097  -0.000017  -0.000008   0.000000   0.000000
    33  H    0.000000   0.000011   0.000000   0.000001   0.000000   0.000000
    34  H    0.000000   0.000029   0.000018   0.000007   0.000000  -0.000007
    35  H    0.000000  -0.000001   0.000000   0.000000   0.000000   0.000000
             19         20         21         22         23         24
     1  C    0.007223   0.000507   0.001168  -0.000337  -0.000372  -0.000017
     2  H    0.001482   0.001462  -0.000011   0.000014  -0.000026  -0.000001
     3  C   -0.000776   0.000485   0.000097   0.000029   0.000011  -0.000001
     4  C   -0.000034   0.000044  -0.000008   0.000007   0.000001   0.000000
     5  C    0.000026  -0.000031  -0.000017   0.000018   0.000000   0.000000
     6  C    0.000002   0.000001   0.000000   0.000001   0.000000   0.000000
     7  H   -0.000005  -0.000001  -0.000009   0.000000   0.000000   0.000000
     8  C    0.000000   0.000000   0.000000   0.000000   0.000000   0.000000
     9  H    0.000003   0.000000   0.000000  -0.000007   0.000000   0.000000
    10  C    0.000000   0.000000   0.000000  -0.000001   0.000000   0.000000
    11  H    0.000000   0.000000   0.000000   0.000000   0.000000   0.000000
    12  H    0.000000   0.000000   0.000000   0.000000   0.000000   0.000000
    13  H    0.000000   0.000000   0.000000   0.000000   0.000000   0.000000
    14  C   -0.065742  -0.048776  -0.016418   0.006122   0.006678  -0.001541
    15  C   -0.029422   0.004431  -0.093796  -0.037817  -0.000533   0.007818
    16  C    0.463580   0.399256  -0.087570  -0.000380  -0.039639   0.007432
    17  C   -0.075877  -0.000423   0.496618   0.396196   0.006117  -0.042463
    18  H   -0.000228  -0.000239   0.004629  -0.003312   0.000018  -0.000174
    19  C    5.055147  -0.036072   0.490268   0.005933   0.397076  -0.042927
    20  H   -0.036072   0.507621   0.005356   0.000022  -0.004229  -0.000179
    21  C    0.490268   0.005356   5.033120  -0.040237  -0.040643   0.399529
    22  H    0.005933   0.000022  -0.040237   0.515659  -0.000211  -0.004402
    23  H    0.397076  -0.004229  -0.040643  -0.000211   0.517978  -0.004493
    24  H   -0.042927  -0.000179   0.399529  -0.004402  -0.004493   0.517919
    25  C   -0.000632   0.000952   0.000038  -0.000003   0.000024   0.000000
    26  C    0.000003   0.000232  -0.000001   0.000000   0.000000   0.000000
    27  C    0.000384   0.000223   0.000068   0.000016   0.000003  -0.000001
    28  C    0.000002  -0.000005   0.000000   0.000000   0.000000   0.000000
    29  H    0.000001  -0.000001   0.000000   0.000000   0.000000   0.000000
    30  C   -0.000009   0.000007   0.000005   0.000001   0.000000   0.000000
    31  H   -0.000191  -0.000038   0.000000   0.000008   0.000003   0.000000
    32  C    0.000000  -0.000009   0.000000   0.000000   0.000000   0.000000
    33  H    0.000000   0.000000   0.000000   0.000000   0.000000   0.000000
    34  H    0.000001   0.000000  -0.000001   0.000000   0.000000   0.000000
    35  H    0.000000   0.000000   0.000000   0.000000   0.000000   0.000000
             25         26         27         28         29         30
     1  C    0.145033  -0.054917  -0.040943   0.007223   0.000507   0.004241
     2  H   -0.072053  -0.001094   0.005300   0.001482   0.001462  -0.000240
     3  C   -0.096929  -0.001147  -0.008114  -0.000632   0.000952   0.000676
     4  C    0.005754   0.000844  -0.000167   0.000003   0.000232   0.000021
     5  C   -0.018646   0.000196  -0.005051   0.000384   0.000223  -0.001057
     6  C   -0.000776  -0.000034   0.000026   0.000002  -0.000005   0.000000
     7  H    0.000485   0.000044  -0.000031   0.000001  -0.000001   0.000000
     8  C    0.000085  -0.000169  -0.000021  -0.000009   0.000007  -0.000021
     9  H   -0.001918  -0.000879   0.001450  -0.000191  -0.000038   0.000920
    10  C    0.000097  -0.000008  -0.000017   0.000000  -0.000009   0.000000
    11  H    0.000011   0.000001   0.000000   0.000000   0.000000   0.000000
    12  H    0.000029   0.000007   0.000018   0.000001   0.000000   0.000000
    13  H   -0.000001   0.000000   0.000000   0.000000   0.000000   0.000000
    14  C   -0.096929   0.005754  -0.018646  -0.000776   0.000485   0.000085
    15  C   -0.008114  -0.000167  -0.005051   0.000026  -0.000031  -0.000021
    16  C   -0.001147   0.000844   0.000196  -0.000034   0.000044  -0.000169
    17  C    0.000676   0.000021  -0.001057   0.000000   0.000000  -0.000021
    18  H   -0.000778  -0.000016   0.000728   0.000003   0.000000   0.000042
    19  C   -0.000632   0.000003   0.000384   0.000002   0.000001  -0.000009
    20  H    0.000952   0.000232   0.000223  -0.000005  -0.000001   0.000007
    21  C    0.000038  -0.000001   0.000068   0.000000   0.000000   0.000005
    22  H   -0.000003   0.000000   0.000016   0.000000   0.000000   0.000001
    23  H    0.000024   0.000000   0.000003   0.000000   0.000000   0.000000
    24  H    0.000000   0.000000  -0.000001   0.000000   0.000000   0.000000
    25  C    5.357803   0.483839   0.479987  -0.065742  -0.048776  -0.067570
    26  C    0.483839   5.059012  -0.068631   0.463580   0.399256  -0.031765
    27  C    0.479987  -0.068631   5.114087  -0.029422   0.004431   0.468927
    28  C   -0.065742   0.463580  -0.029422   5.055147  -0.036072  -0.075877
    29  H   -0.048776   0.399256   0.004431  -0.036072   0.507621  -0.000423
    30  C   -0.067570  -0.031765   0.468927  -0.075877  -0.000423   5.051985
    31  H   -0.042459   0.004186   0.392280  -0.000228  -0.000239  -0.029897
    32  C   -0.016418  -0.087570  -0.093796   0.490268   0.005356   0.496618
    33  H    0.006678  -0.039639  -0.000533   0.397076  -0.004229   0.006117
    34  H    0.006122  -0.000380  -0.037817   0.005933   0.000022   0.396196
    35  H   -0.001541   0.007432   0.007818  -0.042927  -0.000179  -0.042463
             31         32         33         34         35
     1  C   -0.000875   0.001168  -0.000372  -0.000337  -0.000017
     2  H   -0.000120  -0.000011  -0.000026   0.000014  -0.000001
     3  C   -0.000778   0.000038   0.000024  -0.000003   0.000000
     4  C   -0.000016  -0.000001   0.000000   0.000000   0.000000
     5  C    0.000728   0.000068   0.000003   0.000016  -0.000001
     6  C    0.000003   0.000000   0.000000   0.000000   0.000000
     7  H    0.000000   0.000000   0.000000   0.000000   0.000000
     8  C    0.000042   0.000005   0.000000   0.000001   0.000000
     9  H    0.000212   0.000000   0.000003   0.000008   0.000000
    10  C    0.000000   0.000000   0.000000   0.000000   0.000000
    11  H    0.000000   0.000000   0.000000   0.000000   0.000000
    12  H   -0.000007  -0.000001   0.000000   0.000000   0.000000
    13  H    0.000000   0.000000   0.000000   0.000000   0.000000
    14  C   -0.001918   0.000097   0.000011   0.000029  -0.000001
    15  C    0.001450  -0.000017   0.000000   0.000018   0.000000
    16  C   -0.000879  -0.000008   0.000001   0.000007   0.000000
    17  C    0.000920   0.000000   0.000000   0.000000   0.000000
    18  H    0.000212   0.000000   0.000000  -0.000007   0.000000
    19  C   -0.000191   0.000000   0.000000   0.000001   0.000000
    20  H   -0.000038  -0.000009   0.000000   0.000000   0.000000
    21  C    0.000000   0.000000   0.000000  -0.000001   0.000000
    22  H    0.000008   0.000000   0.000000   0.000000   0.000000
    23  H    0.000003   0.000000   0.000000   0.000000   0.000000
    24  H    0.000000   0.000000   0.000000   0.000000   0.000000
    25  C   -0.042459  -0.016418   0.006678   0.006122  -0.001541
    26  C    0.004186  -0.087570  -0.039639  -0.000380   0.007432
    27  C    0.392280  -0.093796  -0.000533  -0.037817   0.007818
    28  C   -0.000228   0.490268   0.397076   0.005933  -0.042927
    29  H   -0.000239   0.005356  -0.004229   0.000022  -0.000179
    30  C   -0.029897   0.496618   0.006117   0.396196  -0.042463
    31  H    0.474230   0.004629   0.000018  -0.003312  -0.000174
    32  C    0.004629   5.033120  -0.040643  -0.040237   0.399529
    33  H    0.000018  -0.040643   0.517978  -0.000211  -0.004493
    34  H   -0.003312  -0.040237  -0.000211   0.515659  -0.004402
    35  H   -0.000174   0.399529  -0.004493  -0.004402   0.517919
 Mulliken atomic charges:
              1
     1  C   -0.525976
     2  H    0.196997
     3  C    0.052822
     4  C   -0.138836
     5  C   -0.166644
     6  C   -0.169219
     7  H    0.169404
     8  C   -0.176308
     9  H    0.202209
    10  C   -0.152186
    11  H    0.162237
    12  H    0.162681
    13  H    0.163500
    14  C    0.052822
    15  C   -0.166644
    16  C   -0.138836
    17  C   -0.176308
    18  H    0.202209
    19  C   -0.169219
    20  H    0.169404
    21  C   -0.152186
    22  H    0.162681
    23  H    0.162237
    24  H    0.163500
    25  C    0.052822
    26  C   -0.138836
    27  C   -0.166644
    28  C   -0.169219
    29  H    0.169404
    30  C   -0.176308
    31  H    0.202209
    32  C   -0.152186
    33  H    0.162237
    34  H    0.162681
    35  H    0.163500
 Sum of Mulliken atomic charges =   0.00000
 Mulliken charges with hydrogens summed into heavy atoms:
              1
     1  C   -0.328980
     3  C    0.052822
     4  C    0.030568
     5  C    0.035565
     6  C   -0.006982
     8  C   -0.013627
    10  C    0.011314
    14  C    0.052822
    15  C    0.035565
    16  C    0.030568
    17  C   -0.013627
    19  C   -0.006982
    21  C    0.011314
    25  C    0.052822
    26  C    0.030568
    27  C    0.035565
    28  C   -0.006982
    30  C   -0.013627
    32  C    0.011314
 Sum of Mulliken charges with hydrogens summed into heavy atoms =   0.00000
 Electronic spatial extent (au):  <R**2>=           4917.1710
 Charge=              0.0000 electrons
 Dipole moment (field-independent basis, Debye):
    X=              0.0000    Y=              0.0000    Z=              0.0240  Tot=              0.0240
 Quadrupole moment (field-independent basis, Debye-Ang):
   XX=           -111.4623   YY=           -111.4623   ZZ=           -104.7293
   XY=              0.0000   XZ=              0.0000   YZ=              0.0000
 Traceless Quadrupole moment (field-independent basis, Debye-Ang):
   XX=             -2.2444   YY=             -2.2444   ZZ=              4.4887
   XY=              0.0000   XZ=              0.0000   YZ=              0.0000
 Octapole moment (field-independent basis, Debye-Ang**2):
  XXX=            -13.8526  YYY=             39.4033  ZZZ=              0.7928  XYY=             13.8526
  XXY=            -39.4033  XXZ=             -3.6481  XZZ=              0.0000  YZZ=              0.0000
  YYZ=             -3.6481  XYZ=              0.0000
 Hexadecapole moment (field-independent basis, Debye-Ang**3):
 XXXX=          -2985.7145 YYYY=          -2985.7145 ZZZZ=           -745.7798 XXXY=              0.0000
 XXXZ=            -76.1837 YYYX=              0.0000 YYYZ=            -17.7121 ZZZX=              0.0000
 ZZZY=              0.0000 XXYY=           -995.2382 XXZZ=           -612.6890 YYZZ=           -612.6890
 XXYZ=             17.7121 YYXZ=             76.1837 ZZXY=              0.0000
 N-N= 1.290414781585D+03 E-N=-4.276929290620D+03  KE= 7.285935675327D+02
 PrsmSu:  requested number of processors reduced to:  10 ShMem   1 Linda.
 Calling FoFJK, ICntrl=      2127 FMM=F ISym2X=1 I1Cent= 0 IOpClX= 0 NMat=1 NMatS=1 NMatT=0.
 ***** Axes restored to original set *****
 -------------------------------------------------------------------
 Center     Atomic                   Forces (Hartrees/Bohr)
 Number     Number              X              Y              Z
 -------------------------------------------------------------------
      1        6           0.000000000    0.000000000    0.022415202
      2        1           0.000000000    0.000000000   -0.025905150
      3        6           0.010262733   -0.008483506    0.003140219
      4        6          -0.002369983   -0.001743365    0.005388830
      5        6          -0.000012995    0.008408745   -0.006166592
      6        6           0.001789858   -0.010386231    0.007741262
      7        1           0.007977887    0.001846731   -0.015273258
      8        6           0.005288673    0.000081827   -0.011145332
      9        1           0.005897323   -0.016949176    0.012027453
     10        6           0.008682518   -0.009779935   -0.003686354
     11        1          -0.002517855    0.013003434   -0.010115803
     12        1          -0.007925938   -0.001158202    0.014646294
     13        1          -0.010638640    0.012096552    0.004606596
     14        6          -0.012478298   -0.004646034    0.003140219
     15        6           0.007288684   -0.004193119   -0.006166592
     16        6          -0.000324807    0.002924148    0.005388830
     17        6          -0.002573473   -0.004621039   -0.011145332
     18        1          -0.017627078    0.003367356    0.012027453
     19        6          -0.009889669    0.003643053    0.007741262
     20        1          -0.002389628   -0.007832419   -0.015273258
     21        6          -0.012810931   -0.002629314   -0.003686354
     22        1           0.002959936    0.007443164    0.014646294
     23        1           0.012520231   -0.004321191   -0.010115803
     24        1           0.015795241    0.003165056    0.004606596
     25        6           0.002215566    0.013129540    0.003140219
     26        6           0.002694790   -0.001180783    0.005388830
     27        6          -0.007275689   -0.004215626   -0.006166592
     28        6           0.008099811    0.006743178    0.007741262
     29        1          -0.005588260    0.005985687   -0.015273258
     30        6          -0.002715201    0.004539212   -0.011145332
     31        1           0.011729755    0.013581820    0.012027453
     32        6           0.004128413    0.012409249   -0.003686354
     33        1          -0.010002377   -0.008682243   -0.010115803
     34        1           0.004966001   -0.006284962    0.014646294
     35        1          -0.005156601   -0.015261608    0.004606596
 -------------------------------------------------------------------
 Cartesian Forces:  Max     0.025905150 RMS     0.009002830

 GradGradGradGradGradGradGradGradGradGradGradGradGradGradGradGradGradGrad
 Berny optimization.
 Internal  Forces:  Max     0.025905150 RMS     0.006562307
 Search for a local minimum.
 Step number   1 out of a maximum of  197
 All quantities printed in internal units (Hartrees-Bohrs-Radians)
 Mixed Optimization -- RFO/linear search
 Second derivative matrix not updated -- first step.
     Eigenvalues ---    0.00649   0.00649   0.00649   0.01537   0.01537
     Eigenvalues ---    0.01537   0.02142   0.02142   0.02142   0.02171
     Eigenvalues ---    0.02171   0.02171   0.02181   0.02181   0.02181
     Eigenvalues ---    0.02201   0.02201   0.02201   0.02213   0.02213
     Eigenvalues ---    0.02213   0.02215   0.02215   0.02215   0.02216
     Eigenvalues ---    0.02216   0.02216   0.02217   0.02217   0.02217
     Eigenvalues ---    0.04655   0.06496   0.06496   0.15999   0.15999
     Eigenvalues ---    0.15999   0.16000   0.16000   0.16000   0.16000
     Eigenvalues ---    0.16000   0.16000   0.16000   0.16000   0.16000
     Eigenvalues ---    0.16000   0.16000   0.16000   0.19007   0.19007
     Eigenvalues ---    0.22000   0.22000   0.22000   0.22000   0.22000
     Eigenvalues ---    0.22000   0.23478   0.23478   0.23478   0.25000
     Eigenvalues ---    0.25000   0.25000   0.31291   0.31469   0.31469
     Eigenvalues ---    0.31469   0.33900   0.33900   0.33900   0.34108
     Eigenvalues ---    0.34108   0.34108   0.34255   0.34255   0.34255
     Eigenvalues ---    0.34259   0.34259   0.34259   0.34282   0.34282
     Eigenvalues ---    0.34282   0.42456   0.42456   0.42456   0.42570
     Eigenvalues ---    0.42570   0.42570   0.46391   0.46391   0.46391
     Eigenvalues ---    0.46766   0.46766   0.46766   0.47225   0.47225
     Eigenvalues ---    0.47225   0.47301   0.47301   0.473011000.00000
     Eigenvalues --- 1000.000001000.000001000.000001000.000001000.00000
     Eigenvalues --- 1000.000001000.000001000.000001000.000001000.00000
     Eigenvalues --- 1000.000001000.000001000.000001000.000001000.00000
     Eigenvalues --- 1000.000001000.000001000.000001000.000001000.00000
     Eigenvalues --- 1000.000001000.000001000.000001000.000001000.00000
     Eigenvalues --- 1000.000001000.000001000.000001000.000001000.00000
     Eigenvalues --- 1000.000001000.000001000.000001000.000001000.00000
     Eigenvalues --- 1000.000001000.000001000.000001000.000001000.00000
     Eigenvalues --- 1000.000001000.000001000.000001000.000001000.00000
     Eigenvalues --- 1000.000001000.000001000.000001000.000001000.00000
     Eigenvalues --- 1000.000001000.000001000.000001000.000001000.00000
     Eigenvalues --- 1000.000001000.000001000.000001000.000001000.00000
     Eigenvalues --- 1000.000001000.000001000.000001000.000001000.00000
     Eigenvalues --- 1000.000001000.000001000.000001000.000001000.00000
     Eigenvalues --- 1000.000001000.000001000.000001000.000001000.00000
     Eigenvalues --- 1000.000001000.000001000.000001000.000001000.00000
     Eigenvalues --- 1000.000001000.000001000.000001000.000001000.00000
     Eigenvalues --- 1000.000001000.00000
 RFO step:  Lambda=-2.70383905D-02 EMin= 6.49165108D-03
 Linear search not attempted -- first point.
 Maximum step size (   0.300) exceeded in Quadratic search.
    -- Step size scaled by   0.785
 Iteration  1 RMS(Cart)=  0.10407022 RMS(Int)=  0.00167431
 Iteration  2 RMS(Cart)=  0.00449897 RMS(Int)=  0.00032035
 Iteration  3 RMS(Cart)=  0.00000476 RMS(Int)=  0.00032034
 Iteration  4 RMS(Cart)=  0.00000000 RMS(Int)=  0.00032034
 ClnCor:  largest displacement from symmetrization is 1.01D-10 for atom    22.
 Variable       Old X    -DE/DX   Delta X   Delta X   Delta X     New X
                                 (Linear)    (Quad)   (Total)
    R1        2.12161  -0.02591   0.00000  -0.05982  -0.05982   2.06179
    R2        2.85127   0.01951   0.00000   0.04481   0.04481   2.89608
    R3        2.85127   0.01951   0.00000   0.04481   0.04481   2.89608
    R4        2.85127   0.01951   0.00000   0.04481   0.04481   2.89608
    R5        2.64108  -0.00445   0.00000  -0.00721  -0.00720   2.63388
    R6        2.63738  -0.00249   0.00000  -0.00393  -0.00392   2.63346
    R7        2.62639  -0.00374   0.00000  -0.00596  -0.00596   2.62044
    R8        2.07148  -0.01731   0.00000  -0.03692  -0.03692   2.03456
    R9        2.62771  -0.00301   0.00000  -0.00463  -0.00464   2.62307
   R10        2.07499  -0.02144   0.00000  -0.04599  -0.04599   2.02900
   R11        2.62851  -0.00629   0.00000  -0.00996  -0.00997   2.61854
   R12        2.06901  -0.01666   0.00000  -0.03540  -0.03540   2.03361
   R13        2.62714  -0.00582   0.00000  -0.00910  -0.00912   2.61802
   R14        2.06895  -0.01669   0.00000  -0.03545  -0.03545   2.03349
   R15        2.06856  -0.01675   0.00000  -0.03556  -0.03556   2.03300
   R16        2.63738  -0.00249   0.00000  -0.00393  -0.00392   2.63346
   R17        2.64108  -0.00445   0.00000  -0.00721  -0.00720   2.63388
   R18        2.62771  -0.00301   0.00000  -0.00463  -0.00464   2.62307
   R19        2.07499  -0.02144   0.00000  -0.04599  -0.04599   2.02900
   R20        2.62639  -0.00374   0.00000  -0.00596  -0.00596   2.62044
   R21        2.07148  -0.01731   0.00000  -0.03692  -0.03692   2.03456
   R22        2.62714  -0.00582   0.00000  -0.00910  -0.00912   2.61802
   R23        2.06895  -0.01669   0.00000  -0.03545  -0.03545   2.03349
   R24        2.62851  -0.00629   0.00000  -0.00996  -0.00997   2.61854
   R25        2.06901  -0.01666   0.00000  -0.03540  -0.03540   2.03361
   R26        2.06856  -0.01675   0.00000  -0.03556  -0.03556   2.03300
   R27        2.64108  -0.00445   0.00000  -0.00721  -0.00720   2.63388
   R28        2.63738  -0.00249   0.00000  -0.00393  -0.00392   2.63346
   R29        2.62639  -0.00374   0.00000  -0.00596  -0.00596   2.62044
   R30        2.07148  -0.01731   0.00000  -0.03692  -0.03692   2.03456
   R31        2.62771  -0.00301   0.00000  -0.00463  -0.00464   2.62307
   R32        2.07499  -0.02144   0.00000  -0.04599  -0.04599   2.02900
   R33        2.62851  -0.00629   0.00000  -0.00996  -0.00997   2.61854
   R34        2.06901  -0.01666   0.00000  -0.03540  -0.03540   2.03361
   R35        2.62714  -0.00582   0.00000  -0.00910  -0.00912   2.61802
   R36        2.06895  -0.01669   0.00000  -0.03545  -0.03545   2.03349
   R37        2.06856  -0.01675   0.00000  -0.03556  -0.03556   2.03300
    A1        1.86690  -0.00346   0.00000  -0.03694  -0.03622   1.83068
    A2        1.86690  -0.00346   0.00000  -0.03694  -0.03622   1.83068
    A3        1.86690  -0.00346   0.00000  -0.03694  -0.03622   1.83068
    A4        1.95226   0.00312   0.00000   0.03333   0.03109   1.98335
    A5        1.95226   0.00312   0.00000   0.03333   0.03109   1.98335
    A6        1.95226   0.00312   0.00000   0.03333   0.03109   1.98335
    A7        2.07421  -0.00220   0.00000  -0.00605  -0.00606   2.06815
    A8        2.12891   0.00989   0.00000   0.02820   0.02819   2.15709
    A9        2.08006  -0.00769   0.00000  -0.02214  -0.02212   2.05794
   A10        2.10015   0.00546   0.00000   0.01663   0.01664   2.11679
   A11        2.09423  -0.00348   0.00000  -0.01145  -0.01146   2.08277
   A12        2.08879  -0.00199   0.00000  -0.00518  -0.00519   2.08360
   A13        2.10069   0.00328   0.00000   0.01030   0.01029   2.11098
   A14        2.08636   0.00070   0.00000   0.00467   0.00467   2.09103
   A15        2.09609  -0.00398   0.00000  -0.01500  -0.01500   2.08109
   A16        2.09753  -0.00006   0.00000  -0.00097  -0.00098   2.09655
   A17        2.09150   0.00015   0.00000   0.00098   0.00098   2.09248
   A18        2.09416  -0.00009   0.00000  -0.00001  -0.00001   2.09415
   A19        2.09754   0.00127   0.00000   0.00389   0.00386   2.10140
   A20        2.09039  -0.00053   0.00000  -0.00152  -0.00151   2.08888
   A21        2.09526  -0.00074   0.00000  -0.00238  -0.00237   2.09289
   A22        2.09040  -0.00227   0.00000  -0.00769  -0.00772   2.08268
   A23        2.09609   0.00112   0.00000   0.00380   0.00381   2.09990
   A24        2.09670   0.00114   0.00000   0.00389   0.00390   2.10059
   A25        2.12891   0.00989   0.00000   0.02820   0.02819   2.15709
   A26        2.07421  -0.00220   0.00000  -0.00605  -0.00606   2.06815
   A27        2.08006  -0.00769   0.00000  -0.02214  -0.02212   2.05794
   A28        2.10069   0.00328   0.00000   0.01030   0.01029   2.11098
   A29        2.08636   0.00070   0.00000   0.00467   0.00467   2.09103
   A30        2.09609  -0.00398   0.00000  -0.01500  -0.01500   2.08109
   A31        2.10015   0.00546   0.00000   0.01663   0.01664   2.11679
   A32        2.09423  -0.00348   0.00000  -0.01145  -0.01146   2.08277
   A33        2.08879  -0.00199   0.00000  -0.00518  -0.00519   2.08360
   A34        2.09754   0.00127   0.00000   0.00389   0.00386   2.10140
   A35        2.09039  -0.00053   0.00000  -0.00152  -0.00151   2.08888
   A36        2.09526  -0.00074   0.00000  -0.00238  -0.00237   2.09289
   A37        2.09753  -0.00006   0.00000  -0.00097  -0.00098   2.09655
   A38        2.09150   0.00015   0.00000   0.00098   0.00098   2.09248
   A39        2.09416  -0.00009   0.00000  -0.00001  -0.00001   2.09415
   A40        2.09040  -0.00227   0.00000  -0.00769  -0.00772   2.08268
   A41        2.09670   0.00114   0.00000   0.00389   0.00390   2.10059
   A42        2.09609   0.00112   0.00000   0.00380   0.00381   2.09990
   A43        2.07421  -0.00220   0.00000  -0.00605  -0.00606   2.06815
   A44        2.12891   0.00989   0.00000   0.02820   0.02819   2.15709
   A45        2.08006  -0.00769   0.00000  -0.02214  -0.02212   2.05794
   A46        2.10015   0.00546   0.00000   0.01663   0.01664   2.11679
   A47        2.09423  -0.00348   0.00000  -0.01145  -0.01146   2.08277
   A48        2.08879  -0.00199   0.00000  -0.00518  -0.00519   2.08360
   A49        2.10069   0.00328   0.00000   0.01030   0.01029   2.11098
   A50        2.08636   0.00070   0.00000   0.00467   0.00467   2.09103
   A51        2.09609  -0.00398   0.00000  -0.01500  -0.01500   2.08109
   A52        2.09753  -0.00006   0.00000  -0.00097  -0.00098   2.09655
   A53        2.09150   0.00015   0.00000   0.00098   0.00098   2.09248
   A54        2.09416  -0.00009   0.00000  -0.00001  -0.00001   2.09415
   A55        2.09754   0.00127   0.00000   0.00389   0.00386   2.10140
[...]
 4,-0.00547497,0.00204703,-0.00057093,-0.00006397,-0.00005636,-0.000234
 91,0.00025338,0.00060488,-0.00081204,-0.00024436,0.00028862,0.00013873
 ,0.00012264,0.00022417,-0.00019944,0.00003039,-0.00000680,-0.00006550,
 -0.00002139,-0.00002465,0.00004892,-0.00005229,-0.00002268,0.00008995,
 -0.00009801,0.00003147,0.00008476,0.00000421,-0.00005384,0.00003973,-0
 .00000979,0.00000249,0.00001417,-0.00001502,0.00001604,-0.00000134,0.0
 0000767,-0.00002299,0.00000949,-0.00065352,-0.00082394,0.00043403,-0.0
 0010114,-0.00011402,0.00023252,0.00030759,-0.00005554,-0.00007522,0.00
 025799,0.00000129,0.00008995,-0.00002767,0.00012816,-0.00000667,-0.000
 09673,-0.00003144,-0.00014622,0.00001875,0.00003364,0.00000475,-0.0000
 2349,0.00012788,0.00010788,0.00000008,-0.00000756,-0.00001995,-0.00002
 111,-0.00000368,0.00003089,-0.00003647,-0.00001244,0.00000113,0.017006
 04,0.03549238,0.00682596,-0.00944730,-0.01587420,-0.00732566,-0.000470
 86,0.09477101,-0.14795687,-0.03257314,0.00505145,-0.03408792,0.0006331
 1,-0.00068777,0.00029798,0.26949459,-0.15953466,0.61509386,-0.00259635
 ,0.00071111,0.00230354,-0.00005438,-0.00038362,0.00015128,0.00036174,0
 .00052145,-0.00049814,-0.00015118,0.00016713,0.00013764,0.00019123,0.0
 0037855,-0.00017303,0.00001513,-0.00001970,-0.00004645,-0.00000476,-0.
 00001642,0.00001764,-0.00002699,-0.00004253,0.00012482,-0.00032603,-0.
 00021265,-0.00002650,-0.00001499,-0.00001809,0.00001399,-0.00001646,-0
 .00000069,0.00000738,-0.00001972,0.00001304,-0.00000348,0.00000326,-0.
 00002341,0.00000516,0.00019752,-0.00104260,0.00126516,-0.00016471,-0.0
 0077413,0.00037375,0.00049181,-0.00030154,0.00001791,0.00035927,-0.000
 14383,0.00002175,-0.00006993,0.00036051,-0.00001762,-0.00030097,0.0000
 1644,-0.00013332,0.00000510,0.00002938,0.00003866,-0.00022184,0.000230
 26,0.00015808,0.00001111,0.00001554,-0.00000172,-0.00002200,-0.0000166
 9,0.00001134,-0.00001417,0.00000094,0.00001163,-0.00485280,-0.00889405
 ,-0.00632835,0.00429323,-0.00036138,-0.00460954,-0.21243779,-0.1018208
 2,-0.12826068,-0.00003595,0.00055580,0.00077566,-0.00039985,-0.0003117
 4,-0.00028352,-0.00132765,-0.00137001,-0.00741210,0.21520973,0.0010132
 8,-0.00036408,-0.00148300,-0.00008419,0.00047166,-0.00022529,-0.000038
 91,-0.00030768,0.00016237,0.00004536,-0.00005443,-0.00003466,-0.000058
 37,-0.00001633,0.00005261,-0.00001532,0.00000881,0.00003952,0.00000269
 ,-0.00000335,-0.00000182,0.00002358,-0.00001843,-0.00004012,0.00008647
 ,0.00008829,0.00001323,0.00000441,0.00001961,-0.00001689,0.00000395,0.
 00000617,-0.00000428,-0.00000631,0.00000325,0.00000984,-0.00000631,0.0
 0001121,-0.00000018,-0.00035083,-0.00168905,0.00155273,-0.00028432,-0.
 00074982,0.00047451,-0.00011968,-0.00032179,0.00022888,-0.00033009,-0.
 00009332,-0.00010062,0.00006140,-0.00016781,-0.00001181,0.00030707,0.0
 0003845,0.00014601,0.00001346,0.00005180,-0.00016539,0.00006832,-0.000
 09854,-0.00017995,0.00000409,0.00002669,0.00000978,0.00004134,0.000008
 06,-0.00003687,0.00004430,0.00002102,-0.00002158,0.01273903,0.01302333
 ,0.01037688,-0.00077512,-0.00008852,0.00505597,-0.10175264,-0.12901073
 ,-0.06948504,0.00067446,-0.00068894,0.00058963,0.00071367,0.00039788,0
 .00053992,-0.02476818,-0.00890742,-0.02052269,0.11476289,0.13275674,0.
 00142494,-0.00191604,-0.00116863,0.00007236,0.00021168,0.00005923,-0.0
 0009013,-0.00026088,0.00032590,0.00007833,-0.00005846,-0.00005980,-0.0
 0000306,-0.00006834,0.00009839,0.00001666,0.00001087,0.00000220,-0.000
 01393,-0.00000200,-0.00003721,0.00001241,0.00005695,-0.00000667,-0.000
 00142,0.00002117,-0.00004281,0.00000004,-0.00001994,0.00000274,0.00000
 491,-0.00000469,-0.00000326,0.00001164,-0.00001022,-0.00001107,-0.0000
 0332,0.00000006,-0.00000887,-0.00020671,0.00048962,-0.00002265,0.00011
 355,-0.00000522,0.00063097,0.00053645,-0.00045683,-0.00016868,0.000243
 86,0.00008874,0.00008476,0.00000179,-0.00002956,-0.00004281,0.00015890
 ,-0.00010378,-0.00010841,-0.00005949,0.00006766,-0.00006019,-0.0001516
 0,0.00015269,0.00006631,-0.00002933,-0.00005787,-0.00003664,-0.0000292
 1,0.00002387,-0.00000064,-0.00004149,-0.00001613,-0.00000777,-0.020711
 15,-0.01492828,-0.00935970,-0.00500972,0.00511683,-0.00088905,-0.12643
 189,-0.06854399,-0.15563583,0.00077889,0.00075840,-0.00057565,-0.00089
 769,-0.00074577,-0.00074805,0.00779286,0.00727618,0.00992475,0.1416603
 6,0.07089705,0.15560015,-0.00100313,0.00162903,-0.00036089,-0.00011475
 ,-0.00003880,0.00077381,0.00061887,0.00064395,0.00024330,0.00027107,-0
 .00015531,0.00009085,0.00011393,0.00008639,0.00006729,-0.00021514,0.00
 003036,0.00012986,0.00000522,0.00000893,0.00000279,0.00008757,-0.00032
 872,0.00012250,-0.00025865,-0.00020900,0.00020803,0.00008258,0.0001220
 9,-0.00019622,-0.00002094,-0.00001653,-0.00002229,0.00003044,-0.000016
 69,-0.00000607,0.00000483,-0.00001468,0.00000648,0.00033270,-0.0001808
 5,-0.00033612,0.00022621,0.00004630,0.00020826,-0.00029126,-0.00020040
 ,0.00005499,-0.00026110,0.00004634,0.00004452,0.00000504,0.00002965,0.
 00001725,0.00026009,0.00009809,0.00018816,-0.00002293,0.00002220,-0.00
 005087,0.00005019,-0.00014079,-0.00024480,-0.00000952,-0.00000324,-0.0
 0001513,-0.00000669,0.00000338,0.00001289,-0.00001325,-0.00000509,-0.0
 0000213,-0.04852988,0.00076530,-0.05197379,0.05255995,0.05110383,0.016
 40987,-0.00313970,-0.07283643,0.03378973,-0.15258429,-0.01200232,-0.07
 749679,0.00426968,-0.00505026,-0.00245929,-0.22249577,-0.06339697,-0.1
 2822394,0.00479509,-0.00349558,-0.00249185,0.45945681,0.00103467,-0.00
 004626,-0.00003423,-0.00015332,-0.00019269,-0.00011874,-0.00073372,-0.
 00012843,0.00016922,0.00018679,-0.00014889,-0.00020601,0.00009373,-0.0
 0016802,0.00014876,0.00002339,-0.00000162,0.00005823,-0.00002512,0.000
 02342,-0.00000746,0.00001170,0.00001527,-0.00004360,-0.00004707,-0.000
 06173,0.00005495,0.00004523,-0.00005720,-0.00001233,0.00002756,-0.0000
 3205,-0.00000230,0.00003125,-0.00003656,-0.00003543,0.00001235,-0.0000
 0535,-0.00000667,0.00018004,-0.00012821,0.00012954,-0.00005460,0.00002
 037,0.00013159,-0.00006213,-0.00007833,-0.00008041,-0.00002524,0.00002
 126,0.00003056,0.00000716,-0.00000042,0.00001000,0.00005597,0.00003602
 ,-0.00001156,0.00005682,-0.00001677,-0.00000674,-0.00006392,-0.0000248
 2,-0.00007486,-0.00002043,-0.00001849,-0.00001415,-0.00004222,-0.00001
 464,0.00002205,-0.00001866,-0.00001184,-0.00000094,0.00125517,-0.00047
 266,-0.00222412,0.01085086,-0.02280712,0.03536925,-0.03224880,-0.02338
 869,-0.01715016,0.03975839,-0.19337029,0.12288546,-0.00470514,-0.00396
 215,0.00306355,-0.11575232,-0.19754666,-0.06690608,-0.00354474,-0.0038
 6415,0.00406492,0.18853871,0.74522085,-0.00082172,0.00156713,-0.001153
 47,0.00007556,0.00037030,0.00096818,0.00101402,0.00061593,0.00037606,0
 .00031069,-0.00021795,0.00028444,0.00007151,0.00041856,0.00007315,-0.0
 0033104,0.00005631,0.00018607,0.00000992,-0.00000525,0.00000557,0.0001
 7930,-0.00043226,0.00010788,-0.00023488,-0.00004693,0.00006631,0.00005
 757,0.00024943,-0.00027669,-0.00004179,-0.00000376,-0.00002641,-0.0000
 0012,0.00002995,0.00004701,-0.00000737,-0.00000302,0.00000409,0.000266
 09,-0.00002910,-0.00051961,0.00038980,0.00007848,0.00023180,-0.0002850
 0,-0.00028758,0.00010569,-0.00033975,0.00005055,0.00003973,0.00000763,
 0.00002056,0.00000274,0.00032869,0.00009238,0.00024532,-0.00002094,0.0
 0004242,-0.00008395,0.00010879,-0.00016377,-0.00027669,0.00000176,0.00
 000750,-0.00000760,-0.00000027,0.00000690,0.00000988,-0.00000676,-0.00
 000277,-0.00000719,-0.05209051,-0.00411899,-0.07029630,0.04549761,0.08
 548773,0.00650318,0.00558652,-0.06738139,0.06269361,-0.11224194,0.0583
 6492,-0.26231570,-0.00273835,0.00241830,0.00406002,-0.09389949,-0.0025
 3349,-0.19712747,-0.00233026,0.00448131,0.00329749,0.22553310,-0.14925
 426,0.55409460,-0.00034259,0.00011856,-0.00038347,-0.00000658,-0.00006
 000,0.00005737,-0.00009745,0.00005559,0.00005327,0.00006428,-0.0000265
 8,-0.00001236,0.00002563,0.00000117,-0.00003163,0.00000560,-0.00001137
 ,0.00000779,-0.00001014,0.00000435,0.00000049,-0.00001646,-0.00000435,
 0.00000737,-0.00001013,0.00000984,0.00003527,0.00000416,-0.00000965,0.
 00000611,0.00000230,-0.00001681,0.00000219,0.00000454,0.00000030,-0.00
 000543,0.00000765,-0.00000969,-0.00000116,0.00010234,-0.00005478,0.000
 13754,-0.00008414,-0.00000556,0.00000534,-0.00000874,-0.00003235,-0.00
 006148,0.00003577,0.00000944,0.00000274,0.00000192,0.00001130,0.000001
 61,-0.00001480,-0.00001404,-0.00002539,0.00001486,-0.00000208,-0.00000
 114,-0.00002450,0.00001448,0.00002415,-0.00000637,-0.00000540,-0.00000
 753,-0.00002007,0.00000389,0.00000167,-0.00001068,-0.00000216,-0.00000
 233,0.00507326,-0.00377403,-0.00240391,-0.00182031,-0.00175303,-0.0080
 6120,0.00000419,0.00053495,0.00078725,-0.20451134,-0.10235818,-0.12491
 777,-0.00205620,0.00138285,0.00295411,0.00444329,-0.00026113,-0.005078
 08,-0.00068165,0.00032805,0.00049347,-0.00387128,-0.00948498,-0.005245
 73,0.20618746,-0.00100460,-0.00017977,-0.00103637,0.00001021,0.0000737
 2,0.00002824,-0.00019720,0.00002774,0.00008143,0.00007649,-0.00006334,
 -0.00003032,0.00006580,-0.00002505,-0.00002047,0.00001477,-0.00000308,
 0.00002010,-0.00001485,0.00000773,-0.00001362,0.00001155,-0.00000588,0
 .00002012,-0.00004819,-0.00000381,0.00001336,0.00003595,-0.00002549,-0
 .00000322,0.00000271,-0.00001939,-0.00000245,0.00000684,-0.00001379,-0
 .00002481,0.00000200,-0.00001424,-0.00000658,0.00013850,-0.00045379,0.
 00013490,-0.00009016,0.00000987,0.00000616,-0.00008188,-0.00002315,-0.
 00001346,-0.00002853,0.00003248,-0.00000973,0.00000666,-0.00001222,0.0
 0000660,0.00004164,0.00002134,-0.00000769,0.00001356,-0.00000088,-0.00
 000100,-0.00002961,-0.00002849,-0.00003431,-0.00001350,-0.00000810,-0.
 00001354,-0.00001563,0.00000298,0.00000564,-0.00001102,-0.00000526,-0.
 00000145,-0.00322383,-0.00378211,0.00443132,-0.02476667,-0.00872352,-0
 .02120621,0.00066551,-0.00076455,0.00072523,-0.10226585,-0.13262584,-0
 .07069816,0.00216468,0.00032045,-0.00098437,-0.00061605,0.00021949,0.0
 0490387,0.00027161,-0.00015637,-0.00038905,0.01339289,0.01265989,0.011
 79545,0.11367617,0.13293775,0.00040379,0.00019525,0.00021795,-0.000004
 63,-0.00003540,-0.00004029,-0.00006821,-0.00009212,0.00002033,-0.00000
 588,-0.00000295,-0.00004488,0.00002577,-0.00001325,-0.00001369,0.00001
 785,-0.00000083,-0.00000618,-0.00000004,0.00000559,-0.00000358,-0.0000
 0606,0.00001187,0.00003089,-0.00003760,0.00000862,-0.00000064,0.000012
 65,-0.00002219,0.00000988,0.00000404,-0.00000427,0.00000196,0.00000253
 ,-0.00000904,-0.00001894,0.00000132,-0.00000932,-0.00000264,0.00000633
 ,-0.00000816,-0.00008308,0.00001745,-0.00000302,0.00003697,-0.00001988
 ,-0.00001246,0.00003059,-0.00002660,-0.00000169,0.00001417,0.00000002,
 0.00000853,-0.00000326,0.00003855,0.00000321,0.00001371,0.00000450,0.0
 0000735,-0.00001780,0.00001314,-0.00001815,-0.00002641,-0.00000162,0.0
 0000215,-0.00000640,0.00000103,0.00000312,0.00000196,-0.00000430,0.000
 00080,-0.00000373,-0.00251043,0.00412764,0.00329811,0.00728778,0.00747
 212,0.00975190,0.00078988,0.00070476,-0.00044109,-0.12502951,-0.070901
 42,-0.15683878,0.00241423,-0.00188730,-0.00090437,-0.00485329,0.005282
 33,-0.00093609,0.00047913,-0.00035828,-0.00042463,-0.02051564,-0.01667
 923,-0.00887109,0.13968845,0.07378281,0.15674858,0.00025244,-0.0000023
 3,0.00044358,-0.00001236,-0.00003364,0.00008098,-0.00000036,-0.0000664
 0,-0.00002548,-0.00002701,-0.00000706,0.00001179,0.00000210,0.00006398
 ,-0.00001613,0.00001164,-0.00000306,0.00000328,-0.00000625,-0.00000562
 ,0.00000001,0.00001547,0.00000040,-0.00000659,0.00001430,-0.00001738,-
 0.00003545,-0.00000600,0.00000121,0.00000561,0.00000052,0.00000143,0.0
 0000267,-0.00001236,0.00000888,0.00000579,-0.00000380,0.00000087,-0.00
 000159,-0.00000798,0.00003740,-0.00001349,0.00005437,0.00001809,-0.000
 00621,-0.00002757,-0.00001517,-0.00000777,-0.00003609,0.00000353,-0.00
 000639,0.00000042,-0.00000141,0.00000303,0.00000796,0.00002378,0.00001
 261,0.00000054,-0.00000650,0.00001770,-0.00001350,-0.00000868,-0.00002
 588,0.00000210,-0.00000053,0.00000596,-0.00000612,-0.00000645,0.000006
 56,0.00000164,-0.00000480,0.00000295,0.00411740,-0.00488190,-0.0023832
 4,-0.00081510,-0.00057199,0.00059769,0.00927449,-0.00741536,0.00957897
 ,0.00152456,-0.00528937,-0.00560406,-0.00062228,0.00041355,0.00049891,
 -0.10950572,0.04772847,-0.10624874,-0.00185218,0.00219245,0.00239162,-
 0.00357277,0.01405047,-0.02058552,-0.00047759,0.00062134,-0.00092947,0
 .10367306,0.00077339,-0.00010721,0.00107328,-0.00008127,-0.00040803,0.
 00013982,-0.00022132,-0.00000906,0.00016534,0.00009746,-0.00008793,-0.
 00006454,0.00002592,-0.00009990,-0.00003041,0.00000729,-0.00000866,0.0
 0000739,0.00000244,0.00002159,-0.00001446,-0.00001190,0.00000331,0.000
 00371,-0.00000593,0.00002350,0.00005434,0.00001840,-0.00002201,-0.0000
 0527,0.00000953,-0.00001499,0.00000033,0.00002438,-0.00001228,-0.00001
 342,0.00000880,-0.00000711,-0.00000152,0.00028939,0.00012354,0.0000207
 9,-0.00008981,0.00001554,-0.00003890,-0.00004509,0.00002370,-0.0000094
 8,0.00000716,0.00000979,-0.00002103,0.00001794,-0.00001689,0.00001519,
 -0.00000199,-0.00000134,-0.00001628,0.00001763,-0.00001339,-0.00001639
 ,-0.00005662,0.00000738,-0.00001508,-0.00001603,-0.00002674,-0.0000084
 0,-0.00001299,-0.00000313,0.00000671,-0.00001261,-0.00001060,0.0000019
 3,-0.00487542,-0.00396637,0.00236572,-0.00055326,-0.00077968,-0.000780
 88,0.01556253,-0.00866118,0.02855932,-0.00502679,0.00021301,-0.0003671
 4,0.00042778,-0.00015275,-0.00020792,0.04774792,-0.13008754,0.11295804
 ,0.00135219,0.00031113,-0.00188373,-0.00910186,0.01266400,-0.01584501,
 -0.00033206,0.00035706,-0.00072587,-0.04814161,0.13047907,-0.00033267,
 -0.00034329,-0.00029390,0.00000773,0.00009542,-0.00006467,0.00014027,0
 .00007154,-0.00003217,-0.00002973,0.00003676,0.00004700,-0.00003470,0.
 00000448,0.00004326,-0.00001915,0.00000860,-0.00000190,0.00000602,-0.0
 0000869,-0.00000059,0.00002060,0.00000057,-0.00001995,0.00000933,-0.00
 000340,-0.00003664,-0.00000468,0.00002018,-0.00000760,-0.00000796,0.00
 001329,-0.00000640,-0.00001025,-0.00000096,0.00000611,-0.00000783,0.00
 001128,0.00000119,-0.00010653,0.00005397,-0.00001648,0.00001176,-0.000
 01437,-0.00003752,0.00006473,0.00002995,0.00001639,0.00003090,-0.00001
 745,-0.00000134,-0.00000679,-0.00000793,-0.00001107,-0.00003375,-0.000
 02606,0.00000236,-0.00002558,0.00001033,-0.00000283,0.00003372,0.00001
 246,0.00004701,0.00000872,0.00001172,0.00000611,0.00002420,0.00000771,
 -0.00001894,0.00001470,0.00001239,0.00000003,-0.00229894,0.00298547,0.
 00384422,0.00069863,-0.00069723,0.00036802,-0.00571135,0.00018002,-0.0
 0161174,-0.00580699,-0.00078073,0.00233475,0.00049940,-0.00021693,-0.0
 0051145,-0.10599734,0.11295131,-0.25411264,0.00277532,-0.00105999,-0.0
 0089875,-0.00532240,0.01256772,-0.00926246,-0.00025521,0.00047361,-0.0
 0072525,0.11932471,-0.12447093,0.26187014,-0.00050673,0.00045879,0.000
 45318,0.00003342,-0.00008623,0.00016330,0.00002469,0.00010395,-0.00005
 174,-0.00001536,0.00001324,0.00000701,0.00001056,0.00002197,-0.0000281
 2,0.00000086,0.00000063,-0.00000543,-0.00000275,-0.00000050,0.00000281
 ,-0.00000574,-0.00000949,0.00000746,-0.00000737,-0.00000487,0.00000677
 ,-0.00000191,-0.00000146,0.00000098,-0.00000091,-0.00000348,0.00000284
 ,0.,0.00000575,0.00000338,0.00000321,-0.00000347,0.00000048,0.00004180
 ,-0.00000177,0.00002624,-0.00003324,-0.00002073,0.00002254,0.00001265,
 -0.00000870,-0.00003413,0.00002496,0.00000032,0.00001608,-0.00000364,0
 .00001942,0.00000161,-0.00000047,-0.00000149,-0.00001288,0.00001001,0.
 00000106,0.00000333,-0.00000381,0.00000969,0.00000629,-0.00000210,0.00
 000011,-0.00000585,-0.00001209,-0.00000171,0.00000741,-0.00000846,-0.0
 0000326,-0.00000097,-0.00099481,0.00042342,-0.00032656,0.00355302,-0.0
 0084106,-0.00582116,0.00146437,-0.00380678,-0.00672457,0.00927454,0.01
 508420,-0.00483556,0.00015472,0.00065682,-0.00015662,-0.00134986,-0.02
 454348,0.00825764,-0.00034189,-0.00104439,0.00037897,-0.08675920,-0.08
 923788,0.01178286,-0.00190623,0.00118870,0.00280473,-0.00194801,0.0021
 9641,0.00234109,0.07929579,0.00029058,-0.00015662,-0.00024443,-0.00000
 711,0.00000499,-0.00006092,-0.00011894,-0.00004014,0.00007391,0.000050
 76,-0.00002928,-0.00004494,0.00004321,-0.00002854,-0.00003302,0.000015
 46,-0.00000655,-0.00000271,-0.00000180,0.00001116,-0.00000413,-0.00002
 861,0.00000645,0.00003780,-0.00004823,0.00001421,0.00004400,0.00001211
 ,-0.00002318,0.00000724,0.00000538,-0.00001504,0.00000333,0.00001356,-
 0.00000896,-0.00001892,0.00000848,-0.00001524,-0.00000202,0.00006461,-
 0.00006067,0.00001334,-0.00005037,-0.00000822,0.00004720,-0.00001037,-
 0.00004390,-0.00000080,0.00002064,0.00001014,0.00001814,0.00000232,0.0
 0001812,-0.00000290,0.00002394,-0.00001200,-0.00001562,0.00001456,0.00
 000443,-0.00001762,-0.00001734,0.00000330,-0.00000487,-0.00000782,-0.0
 0000881,-0.00001242,-0.00001340,0.00000551,0.00000580,-0.00001521,-0.0
 0000357,-0.00000432,0.00052338,0.00079096,-0.00047883,-0.00046389,0.00
 173297,0.00408098,-0.00424375,0.00169919,-0.00038182,-0.00786753,-0.00
 902913,-0.00035543,-0.00026028,-0.00065790,0.00008593,-0.00128914,-0.0
 0933522,0.00807891,-0.00008823,-0.00064334,0.00026410,-0.08937391,-0.3
 2407707,0.07417143,0.00206727,0.00026763,-0.00083120,0.00131343,0.0002
 4417,-0.00191079,0.09943626,0.33939015,0.00050441,-0.00029935,-0.00029
 649,-0.00007365,-0.00001235,-0.00003243,0.00001405,-0.00008362,0.00006
 363,0.00002580,-0.00001991,0.00000368,0.00001466,0.00000995,0.00001432
 ,-0.00000200,-0.00000520,0.00001222,-0.00000327,-0.00000491,-0.0000036
 8,0.00000636,-0.00000483,0.00000113,-0.00002450,0.00000072,-0.00000777
 ,0.00000025,0.00000231,-0.00000719,-0.00000009,0.00000275,-0.00000373,
 0.00000019,-0.00000352,0.00000003,-0.00000326,0.00000300,0.00000083,-0
 .00005700,0.00001298,0.00000975,0.00003541,-0.00000454,0.00003937,0.00
 003573,-0.00002829,0.00001033,0.00001864,0.00000409,0.00000949,-0.0000
 0242,0.00000456,-0.00000887,-0.00000052,-0.00000618,0.00000010,-0.0000
 1355,0.00000701,-0.00000195,0.00000254,0.00000895,0.00000409,0.0000021
 1,-0.00000062,0.00000119,0.00000628,0.00000228,-0.00000264,0.00000151,
 0.00000143,0.00000083,-0.00032768,-0.00038006,-0.00113695,-0.00611389,
 0.00360879,-0.00136008,-0.00642066,0.00008259,0.00107651,0.01044642,0.
 02823586,-0.00083326,0.00048966,0.00127751,-0.00036583,-0.00698635,-0.
 02042148,0.01020941,-0.00022552,-0.00088178,0.00022489,0.01181454,0.07
 416349,-0.08317817,0.00222763,-0.00193200,-0.00076415,0.00290157,-0.00
 083526,-0.00091232,-0.00829341,-0.08250441,0.07723371||0.,0.,-0.000041
 90,0.,0.,-0.00001860,0.00000304,-0.00002773,0.00006886,-0.00001527,0.0
 0005210,-0.00001362,0.00004802,-0.00004310,-0.00004563,0.00003772,-0.0
 0002207,-0.00003816,-0.00000784,-0.00000814,0.00001120,-0.00004198,0.0
 0005610,-0.00000515,-0.00000287,0.00001248,-0.00000596,-0.00001998,-0.
 00002356,0.00005262,-0.00000561,-0.00000510,0.00000754,0.00001047,-0.0
 0000047,-0.00000419,0.00001151,-0.00000397,-0.00000735,-0.00002554,0.0
 0001124,0.00006886,-0.00006134,-0.00002003,-0.00004563,0.00005275,-0.0
 0001282,-0.00001362,0.00006957,0.00000831,-0.00000515,0.00001224,-0.00
 000376,-0.00000596,-0.00003797,-0.00002163,-0.00003816,-0.00000313,0.0
 0001086,0.00001120,-0.00001042,0.00002909,0.00005262,-0.00000564,-0.00
 000883,-0.00000419,-0.00000161,0.00000741,0.00000754,-0.00000919,-0.00
 000799,-0.00000735,0.00002250,0.00001650,0.00006886,-0.00003748,-0.000
 03927,-0.00001362,0.00001332,0.00006313,-0.00004563,0.00000025,0.00004
 370,-0.00003816,0.00001097,-0.00000272,0.00001120,-0.00002760,-0.00006
 441,-0.00000515,-0.00000938,-0.00000873,-0.00000596,0.00003040,-0.0000
 0552,0.00005262,0.00000722,-0.00000231,0.00000754,-0.00000483,0.000009
 30,-0.00000419,-0.00000232,0.00001195,-0.00000735|||@


 THE LENGTH OF A MEETING IS PROPORTIONAL TO THE
 SQUARE OF THE PARTICIPANTS.
 Job cpu time:  0 days  0 hours  3 minutes 23.0 seconds.
 File lengths (MBytes):  RWF=    178 Int=      0 D2E=      0 Chk=      7 Scr=      1
 Normal termination of Gaussian 09 at Mon Sep 06 13:16:33 2021.
