 Entering Link 1 = b:\programy\g09w\l1.exe PID=     22132.
  
 Copyright (c) 1988,1990,1992,1993,1995,1998,2003,2009, Gaussian, Inc.
                  All Rights Reserved.
  
 This is part of the Gaussian(R) 09 program.  It is based on
 the Gaussian(R) 03 system (copyright 2003, Gaussian, Inc.),
 the Gaussian(R) 98 system (copyright 1998, Gaussian, Inc.),
 the Gaussian(R) 94 system (copyright 1995, Gaussian, Inc.),
 the Gaussian 92(TM) system (copyright 1992, Gaussian, Inc.),
 the Gaussian 90(TM) system (copyright 1990, Gaussian, Inc.),
 the Gaussian 88(TM) system (copyright 1988, Gaussian, Inc.),
 the Gaussian 86(TM) system (copyright 1986, Carnegie Mellon
 University), and the Gaussian 82(TM) system (copyright 1983,
 Carnegie Mellon University). Gaussian is a federally registered
 trademark of Gaussian, Inc.
  
 This software contains proprietary and confidential information,
 including trade secrets, belonging to Gaussian, Inc.
  
 This software is provided under written license and may be
 used, copied, transmitted, or stored only in accord with that
 written license.
  
 The following legend is applicable only to US Government
 contracts under FAR:
  
                    RESTRICTED RIGHTS LEGEND
  
 Use, reproduction and disclosure by the US Government is
 subject to restrictions as set forth in subparagraphs (a)
 and (c) of the Commercial Computer Software - Restricted
 Rights clause in FAR 52.227-19.
  
 Gaussian, Inc.
 340 Quinnipiac St., Bldg. 40, Wallingford CT 06492
  
  
 ---------------------------------------------------------------
 Warning -- This program may not be used in any manner that
 competes with the business of Gaussian, Inc. or will provide
 assistance to any competitor of Gaussian, Inc.  The licensee
 of this program is prohibited from giving any competitor of
 Gaussian, Inc. access to this program.  By using this program,
 the user acknowledges that Gaussian, Inc. is engaged in the
 business of creating and licensing software in the field of
 computational chemistry and represents and warrants to the
 licensee that it is not a competitor of Gaussian, Inc. and that
 it will not use this program in any manner prohibited above.
 ---------------------------------------------------------------
  

 Cite this work as:
 Gaussian 09, Revision A.02,
 M. J. Frisch, G. W. Trucks, H. B. Schlegel, G. E. Scuseria, 
 M. A. Robb, J. R. Cheeseman, G. Scalmani, V. Barone, B. Mennucci, 
 G. A. Petersson, H. Nakatsuji, M. Caricato, X. Li, H. P. Hratchian, 
 A. F. Izmaylov, J. Bloino, G. Zheng, J. L. Sonnenberg, M. Hada, 
 M. Ehara, K. Toyota, R. Fukuda, J. Hasegawa, M. Ishida, T. Nakajima, 
 Y. Honda, O. Kitao, H. Nakai, T. Vreven, J. A. Montgomery, Jr., 
 J. E. Peralta, F. Ogliaro, M. Bearpark, J. J. Heyd, E. Brothers, 
 K. N. Kudin, V. N. Staroverov, R. Kobayashi, J. Normand, 
 K. Raghavachari, A. Rendell, J. C. Burant, S. S. Iyengar, J. Tomasi, 
 M. Cossi, N. Rega, J. M. Millam, M. Klene, J. E. Knox, J. B. Cross, 
 V. Bakken, C. Adamo, J. Jaramillo, R. Gomperts, R. E. Stratmann, 
 O. Yazyev, A. J. Austin, R. Cammi, C. Pomelli, J. W. Ochterski, 
 R. L. Martin, K. Morokuma, V. G. Zakrzewski, G. A. Voth, 
 P. Salvador, J. J. Dannenberg, S. Dapprich, A. D. Daniels, 
 O. Farkas, J. B. Foresman, J. V. Ortiz, J. Cioslowski, 
 and D. J. Fox, Gaussian, Inc., Wallingford CT, 2009.
 
 ******************************************
 Gaussian 09:  IA32W-G09RevA.02 11-Jun-2009
                06-Sep-2021 
 ******************************************
 %nprocshared=12
 Will use up to   12 processors via shared memory.
 ----------------------------------------------
 # opt freq=noraman hf/6-311g geom=connectivity
 ----------------------------------------------
 1/18=20,19=15,38=1,57=2/1,3;
 2/9=110,12=2,17=6,18=5,40=1/2;
 3/5=4,6=6,11=9,16=1,25=1,30=1,71=1/1,2,3;
 4//1;
 5/5=2,38=5/2;
 6/7=2,8=2,9=2,10=2,28=1/1;
 7//1,2,3,16;
 1/18=20,19=15/3(2);
 2/9=110/2;
 99//99;
 2/9=110/2;
 3/5=4,6=6,11=9,16=1,25=1,30=1,71=1/1,2,3;
 4/5=5,16=3/1;
 5/5=2,38=5/2;
 7//1,2,3,16;
 1/18=20,19=15/3(-5);
 2/9=110/2;
 6/7=2,8=2,9=2,10=2,19=2,28=1/1;
 99/9=1/99;
 -----
 M0001
 -----
 Symbolic Z-matrix:
 Charge =  0 Multiplicity = 1
 C                     0.06388   0.7599    0.09162 
 H                     0.19782   1.87276   0.17506 
 C                     1.44268   0.17603  -0.10362 
 C                     2.40277   0.94872  -0.76516 
 C                     1.78951  -1.09946   0.34098 
 C                     3.68242   0.45154  -0.97738 
 H                     2.14523   1.95247  -1.1231 
 C                     3.07201  -1.59449   0.12922 
 H                     1.0502   -1.71446   0.86983 
 C                     4.02035  -0.82186  -0.53036 
 H                     4.42593   1.06419  -1.49758 
 H                     3.33288  -2.59651   0.4852 
 H                     5.0291   -1.2127   -0.69694 
 C                    -0.59019   0.31446   1.3759 
 C                    -0.53523   1.16982   2.48059 
 C                    -1.24212  -0.91296   1.50512 
 C                    -1.12176   0.80353   3.68605 
 H                    -0.0254    2.13721   2.39936 
 C                    -1.83046  -1.27685   2.71102 
 H                    -1.29575  -1.59264   0.63951 
 C                    -1.77154  -0.42034   3.80415 
 H                    -1.0724    1.48174   4.54396 
 H                    -2.34193  -2.24105   2.79706 
 H                    -2.23506  -0.70734   4.75332 
 C                    -0.78888   0.50832  -1.12782 
 C                    -1.03362  -0.781    -1.60319 
 C                    -1.33149   1.59838  -1.81269 
 C                    -1.79769  -0.9785   -2.747 
 H                    -0.62971  -1.63986  -1.04584 
 C                    -2.09854   1.39928  -2.95516 
 H                    -1.1527    2.61764  -1.45039 
 C                    -2.33008   0.11177  -3.42659 
 H                    -1.98008  -1.99458  -3.11146 
 H                    -2.5195    2.25992  -3.48513 
 H                    -2.93067  -0.04309  -4.32857 
 

 GradGradGradGradGradGradGradGradGradGradGradGradGradGradGradGradGradGrad
 Berny optimization.
 Initialization pass.
                           ----------------------------
                           !    Initial Parameters    !
                           ! (Angstroms and Degrees)  !
 --------------------------                            --------------------------
 ! Name  Definition              Value          Derivative Info.                !
 --------------------------------------------------------------------------------
 ! R1    R(1,2)                  1.124          estimate D2E/DX2                !
 ! R2    R(1,3)                  1.51           estimate D2E/DX2                !
 ! R3    R(1,14)                 1.5085         estimate D2E/DX2                !
 ! R4    R(1,25)                 1.5091         estimate D2E/DX2                !
 ! R5    R(3,4)                  1.3987         estimate D2E/DX2                !
 ! R6    R(3,5)                  1.3946         estimate D2E/DX2                !
 ! R7    R(4,6)                  1.3891         estimate D2E/DX2                !
 ! R8    R(4,7)                  1.0963         estimate D2E/DX2                !
 ! R9    R(5,8)                  1.3909         estimate D2E/DX2                !
 ! R10   R(5,9)                  1.0975         estimate D2E/DX2                !
 ! R11   R(6,10)                 1.3912         estimate D2E/DX2                !
 ! R12   R(6,11)                 1.0949         estimate D2E/DX2                !
 ! R13   R(8,10)                 1.3897         estimate D2E/DX2                !
 ! R14   R(8,12)                 1.0949         estimate D2E/DX2                !
 ! R15   R(10,13)                1.0946         estimate D2E/DX2                !
 ! R16   R(14,15)                1.3982         estimate D2E/DX2                !
 ! R17   R(14,16)                1.3958         estimate D2E/DX2                !
 ! R18   R(15,17)                1.3897         estimate D2E/DX2                !
 ! R19   R(15,18)                1.0965         estimate D2E/DX2                !
 ! R20   R(16,19)                1.3902         estimate D2E/DX2                !
 ! R21   R(16,20)                1.1019         estimate D2E/DX2                !
 ! R22   R(17,21)                1.3907         estimate D2E/DX2                !
 ! R23   R(17,22)                1.0947         estimate D2E/DX2                !
 ! R24   R(19,21)                1.39           estimate D2E/DX2                !
 ! R25   R(19,23)                1.0948         estimate D2E/DX2                !
 ! R26   R(21,24)                1.0946         estimate D2E/DX2                !
 ! R27   R(25,26)                1.3958         estimate D2E/DX2                !
 ! R28   R(25,27)                1.397          estimate D2E/DX2                !
 ! R29   R(26,28)                1.3896         estimate D2E/DX2                !
 ! R30   R(26,29)                1.1006         estimate D2E/DX2                !
 ! R31   R(27,30)                1.3904         estimate D2E/DX2                !
 ! R32   R(27,31)                1.0964         estimate D2E/DX2                !
 ! R33   R(28,32)                1.3907         estimate D2E/DX2                !
 ! R34   R(28,33)                1.0948         estimate D2E/DX2                !
 ! R35   R(30,32)                1.3905         estimate D2E/DX2                !
 ! R36   R(30,34)                1.0949         estimate D2E/DX2                !
 ! R37   R(32,35)                1.0946         estimate D2E/DX2                !
 ! A1    A(2,1,3)              106.4769         estimate D2E/DX2                !
 ! A2    A(2,1,14)             106.3098         estimate D2E/DX2                !
 ! A3    A(2,1,25)             106.9999         estimate D2E/DX2                !
 ! A4    A(3,1,14)             113.0677         estimate D2E/DX2                !
 ! A5    A(3,1,25)             110.3055         estimate D2E/DX2                !
 ! A6    A(14,1,25)            113.1842         estimate D2E/DX2                !
 ! A7    A(1,3,4)              118.3142         estimate D2E/DX2                !
 ! A8    A(1,3,5)              122.651          estimate D2E/DX2                !
 ! A9    A(4,3,5)              119.0337         estimate D2E/DX2                !
 ! A10   A(3,4,6)              120.4532         estimate D2E/DX2                !
 ! A11   A(3,4,7)              119.9298         estimate D2E/DX2                !
 ! A12   A(6,4,7)              119.6166         estimate D2E/DX2                !
 ! A13   A(3,5,8)              120.4166         estimate D2E/DX2                !
 ! A14   A(3,5,9)              119.9078         estimate D2E/DX2                !
 ! A15   A(8,5,9)              119.673          estimate D2E/DX2                !
 ! A16   A(4,6,10)             120.149          estimate D2E/DX2                !
 ! A17   A(4,6,11)             119.8587         estimate D2E/DX2                !
 ! A18   A(10,6,11)            119.9923         estimate D2E/DX2                !
 ! A19   A(5,8,10)             120.2374         estimate D2E/DX2                !
 ! A20   A(5,8,12)             119.7289         estimate D2E/DX2                !
 ! A21   A(10,8,12)            120.0336         estimate D2E/DX2                !
 ! A22   A(6,10,8)             119.71           estimate D2E/DX2                !
 ! A23   A(6,10,13)            120.1179         estimate D2E/DX2                !
 ! A24   A(8,10,13)            120.1721         estimate D2E/DX2                !
 ! A25   A(1,14,15)            118.3559         estimate D2E/DX2                !
 ! A26   A(1,14,16)            122.7513         estimate D2E/DX2                !
 ! A27   A(15,14,16)           118.8926         estimate D2E/DX2                !
 ! A28   A(14,15,17)           120.4965         estimate D2E/DX2                !
 ! A29   A(14,15,18)           119.9636         estimate D2E/DX2                !
 ! A30   A(17,15,18)           119.5399         estimate D2E/DX2                !
 ! A31   A(14,16,19)           120.5394         estimate D2E/DX2                !
 ! A32   A(14,16,20)           119.5009         estimate D2E/DX2                !
 ! A33   A(19,16,20)           119.9578         estimate D2E/DX2                !
 ! A34   A(15,17,21)           120.1866         estimate D2E/DX2                !
 ! A35   A(15,17,22)           119.8314         estimate D2E/DX2                !
 ! A36   A(21,17,22)           119.9819         estimate D2E/DX2                !
 ! A37   A(16,19,21)           120.1946         estimate D2E/DX2                !
 ! A38   A(16,19,23)           119.7609         estimate D2E/DX2                !
 ! A39   A(21,19,23)           120.0445         estimate D2E/DX2                !
 ! A40   A(17,21,19)           119.6899         estimate D2E/DX2                !
 ! A41   A(17,21,24)           120.1485         estimate D2E/DX2                !
 ! A42   A(19,21,24)           120.1616         estimate D2E/DX2                !
 ! A43   A(1,25,26)            121.8884         estimate D2E/DX2                !
 ! A44   A(1,25,27)            119.0462         estimate D2E/DX2                !
 ! A45   A(26,25,27)           119.0576         estimate D2E/DX2                !
 ! A46   A(25,26,28)           120.5318         estimate D2E/DX2                !
 ! A47   A(25,26,29)           118.9464         estimate D2E/DX2                !
 ! A48   A(28,26,29)           120.5093         estimate D2E/DX2                !
 ! A49   A(25,27,30)           120.3545         estimate D2E/DX2                !
 ! A50   A(25,27,31)           120.0024         estimate D2E/DX2                !
 ! A51   A(30,27,31)           119.6431         estimate D2E/DX2                !
 ! A52   A(26,28,32)           120.0859         estimate D2E/DX2                !
 ! A53   A(26,28,33)           119.8362         estimate D2E/DX2                !
 ! A54   A(32,28,33)           120.0779         estimate D2E/DX2                !
 ! A55   A(27,30,32)           120.2007         estimate D2E/DX2                !
 ! A56   A(27,30,34)           119.8197         estimate D2E/DX2                !
 ! A57   A(32,30,34)           119.9796         estimate D2E/DX2                !
 ! A58   A(28,32,30)           119.7674         estimate D2E/DX2                !
 ! A59   A(28,32,35)           120.1189         estimate D2E/DX2                !
 ! A60   A(30,32,35)           120.1135         estimate D2E/DX2                !
 ! D1    D(2,1,3,4)            -30.3975         estimate D2E/DX2                !
 ! D2    D(2,1,3,5)            150.0005         estimate D2E/DX2                !
 ! D3    D(14,1,3,4)          -146.7743         estimate D2E/DX2                !
 ! D4    D(14,1,3,5)            33.6238         estimate D2E/DX2                !
 ! D5    D(25,1,3,4)            85.3583         estimate D2E/DX2                !
 ! D6    D(25,1,3,5)           -94.2437         estimate D2E/DX2                !
 ! D7    D(2,1,14,15)          -18.1876         estimate D2E/DX2                !
 ! D8    D(2,1,14,16)          161.9627         estimate D2E/DX2                !
 ! D9    D(3,1,14,15)           98.2881         estimate D2E/DX2                !
 ! D10   D(3,1,14,16)          -81.5617         estimate D2E/DX2                !
 ! D11   D(25,1,14,15)        -135.3624         estimate D2E/DX2                !
 ! D12   D(25,1,14,16)          44.7879         estimate D2E/DX2                !
 ! D13   D(2,1,25,26)          173.2201         estimate D2E/DX2                !
 ! D14   D(2,1,25,27)           -5.7527         estimate D2E/DX2                !
 ! D15   D(3,1,25,26)           57.7927         estimate D2E/DX2                !
 ! D16   D(3,1,25,27)         -121.1801         estimate D2E/DX2                !
 ! D17   D(14,1,25,26)         -70.0107         estimate D2E/DX2                !
 ! D18   D(14,1,25,27)         111.0165         estimate D2E/DX2                !
 ! D19   D(1,3,4,6)           -179.5357         estimate D2E/DX2                !
 ! D20   D(1,3,4,7)              0.2305         estimate D2E/DX2                !
 ! D21   D(5,3,4,6)              0.081          estimate D2E/DX2                !
 ! D22   D(5,3,4,7)            179.8472         estimate D2E/DX2                !
 ! D23   D(1,3,5,8)            179.6174         estimate D2E/DX2                !
 ! D24   D(1,3,5,9)             -0.9613         estimate D2E/DX2                !
 ! D25   D(4,3,5,8)              0.0181         estimate D2E/DX2                !
 ! D26   D(4,3,5,9)            179.4394         estimate D2E/DX2                !
 ! D27   D(3,4,6,10)            -0.0969         estimate D2E/DX2                !
 ! D28   D(3,4,6,11)           179.9142         estimate D2E/DX2                !
 ! D29   D(7,4,6,10)          -179.8638         estimate D2E/DX2                !
 ! D30   D(7,4,6,11)             0.1473         estimate D2E/DX2                !
 ! D31   D(3,5,8,10)            -0.1018         estimate D2E/DX2                !
 ! D32   D(3,5,8,12)           179.8509         estimate D2E/DX2                !
 ! D33   D(9,5,8,10)          -179.5245         estimate D2E/DX2                !
 ! D34   D(9,5,8,12)             0.4283         estimate D2E/DX2                !
 ! D35   D(4,6,10,8)             0.0129         estimate D2E/DX2                !
 ! D36   D(4,6,10,13)         -179.937          estimate D2E/DX2                !
 ! D37   D(11,6,10,8)         -179.9983         estimate D2E/DX2                !
 ! D38   D(11,6,10,13)           0.0519         estimate D2E/DX2                !
 ! D39   D(5,8,10,6)             0.0861         estimate D2E/DX2                !
 ! D40   D(5,8,10,13)         -179.9641         estimate D2E/DX2                !
 ! D41   D(12,8,10,6)         -179.8665         estimate D2E/DX2                !
 ! D42   D(12,8,10,13)           0.0833         estimate D2E/DX2                !
 ! D43   D(1,14,15,17)        -179.9352         estimate D2E/DX2                !
 ! D44   D(1,14,15,18)          -0.0064         estimate D2E/DX2                !
 ! D45   D(16,14,15,17)         -0.0796         estimate D2E/DX2                !
 ! D46   D(16,14,15,18)        179.8493         estimate D2E/DX2                !
 ! D47   D(1,14,16,19)        -179.9539         estimate D2E/DX2                !
 ! D48   D(1,14,16,20)          -0.4529         estimate D2E/DX2                !
 ! D49   D(15,14,16,19)          0.1971         estimate D2E/DX2                !
 ! D50   D(15,14,16,20)        179.6981         estimate D2E/DX2                !
 ! D51   D(14,15,17,21)         -0.0566         estimate D2E/DX2                !
 ! D52   D(14,15,17,22)       -179.9865         estimate D2E/DX2                !
 ! D53   D(18,15,17,21)       -179.9857         estimate D2E/DX2                !
 ! D54   D(18,15,17,22)          0.0844         estimate D2E/DX2                !
 ! D55   D(14,16,19,21)         -0.1792         estimate D2E/DX2                !
 ! D56   D(14,16,19,23)        179.7629         estimate D2E/DX2                !
 ! D57   D(20,16,19,21)       -179.6779         estimate D2E/DX2                !
 ! D58   D(20,16,19,23)          0.2642         estimate D2E/DX2                !
 ! D59   D(15,17,21,19)          0.0766         estimate D2E/DX2                !
 ! D60   D(15,17,21,24)       -179.8754         estimate D2E/DX2                !
 ! D61   D(22,17,21,19)       -179.9936         estimate D2E/DX2                !
 ! D62   D(22,17,21,24)          0.0543         estimate D2E/DX2                !
 ! D63   D(16,19,21,17)          0.0406         estimate D2E/DX2                !
 ! D64   D(16,19,21,24)        179.9926         estimate D2E/DX2                !
 ! D65   D(23,19,21,17)       -179.9013         estimate D2E/DX2                !
 ! D66   D(23,19,21,24)          0.0507         estimate D2E/DX2                !
 ! D67   D(1,25,26,28)        -178.4977         estimate D2E/DX2                !
 ! D68   D(1,25,26,29)           2.7803         estimate D2E/DX2                !
 ! D69   D(27,25,26,28)          0.475          estimate D2E/DX2                !
 ! D70   D(27,25,26,29)       -178.247          estimate D2E/DX2                !
 ! D71   D(1,25,27,30)         178.6858         estimate D2E/DX2                !
 ! D72   D(1,25,27,31)          -1.2645         estimate D2E/DX2                !
 ! D73   D(26,25,27,30)         -0.3165         estimate D2E/DX2                !
 ! D74   D(26,25,27,31)        179.7333         estimate D2E/DX2                !
 ! D75   D(25,26,28,32)         -0.2203         estimate D2E/DX2                !
 ! D76   D(25,26,28,33)        179.8208         estimate D2E/DX2                !
 ! D77   D(29,26,28,32)        178.4816         estimate D2E/DX2                !
 ! D78   D(29,26,28,33)         -1.4773         estimate D2E/DX2                !
 ! D79   D(25,27,30,32)         -0.0966         estimate D2E/DX2                !
 ! D80   D(25,27,30,34)       -179.995          estimate D2E/DX2                !
 ! D81   D(31,27,30,32)        179.8538         estimate D2E/DX2                !
 ! D82   D(31,27,30,34)         -0.0446         estimate D2E/DX2                !
 ! D83   D(26,28,32,30)         -0.1979         estimate D2E/DX2                !
 ! D84   D(26,28,32,35)        179.9002         estimate D2E/DX2                !
 ! D85   D(33,28,32,30)        179.7608         estimate D2E/DX2                !
 ! D86   D(33,28,32,35)         -0.141          estimate D2E/DX2                !
 ! D87   D(27,30,32,28)          0.3556         estimate D2E/DX2                !
 ! D88   D(27,30,32,35)       -179.7425         estimate D2E/DX2                !
 ! D89   D(34,30,32,28)       -179.7461         estimate D2E/DX2                !
 ! D90   D(34,30,32,35)          0.1558         estimate D2E/DX2                !
 --------------------------------------------------------------------------------
 Trust Radius=3.00D-01 FncErr=1.00D-07 GrdErr=1.00D-07
 Number of steps in this run= 197 maximum allowed number of steps= 210.
 GradGradGradGradGradGradGradGradGradGradGradGradGradGradGradGradGradGrad

                          Input orientation:                          
 ---------------------------------------------------------------------
 Center     Atomic      Atomic             Coordinates (Angstroms)
 Number     Number       Type             X           Y           Z
 ---------------------------------------------------------------------
      1          6           0        0.063884    0.759901    0.091623
      2          1           0        0.197820    1.872761    0.175056
      3          6           0        1.442683    0.176032   -0.103616
      4          6           0        2.402770    0.948718   -0.765163
      5          6           0        1.789512   -1.099459    0.340978
      6          6           0        3.682418    0.451537   -0.977382
      7          1           0        2.145232    1.952470   -1.123095
      8          6           0        3.072007   -1.594487    0.129225
      9          1           0        1.050197   -1.714459    0.869828
     10          6           0        4.020347   -0.821858   -0.530359
     11          1           0        4.425926    1.064195   -1.497579
     12          1           0        3.332885   -2.596510    0.485204
     13          1           0        5.029098   -1.212703   -0.696940
     14          6           0       -0.590195    0.314462    1.375899
     15          6           0       -0.535231    1.169822    2.480592
     16          6           0       -1.242115   -0.912957    1.505119
     17          6           0       -1.121755    0.803526    3.686050
     18          1           0       -0.025400    2.137206    2.399356
     19          6           0       -1.830457   -1.276847    2.711022
     20          1           0       -1.295754   -1.592639    0.639506
     21          6           0       -1.771542   -0.420340    3.804152
     22          1           0       -1.072399    1.481741    4.543961
     23          1           0       -2.341928   -2.241048    2.797065
     24          1           0       -2.235060   -0.707340    4.753321
     25          6           0       -0.788877    0.508315   -1.127818
     26          6           0       -1.033621   -0.781004   -1.603187
     27          6           0       -1.331488    1.598382   -1.812687
     28          6           0       -1.797691   -0.978503   -2.747000
     29          1           0       -0.629708   -1.639858   -1.045841
     30          6           0       -2.098536    1.399281   -2.955155
     31          1           0       -1.152697    2.617638   -1.450391
     32          6           0       -2.330085    0.111772   -3.426593
     33          1           0       -1.980076   -1.994580   -3.111455
     34          1           0       -2.519496    2.259922   -3.485126
     35          1           0       -2.930670   -0.043088   -4.328571
 ---------------------------------------------------------------------
                    Distance matrix (angstroms):
                    1          2          3          4          5
     1  C    0.000000
     2  H    1.123991   0.000000
     3  C    1.510003   2.122789   0.000000
     4  C    2.498023   2.568982   1.398733   0.000000
     5  C    2.548959   3.375664   1.394572   2.407211   0.000000
     6  C    3.785717   3.935787   2.419873   1.389146   2.779705
     7  H    2.688823   2.341787   2.165328   1.096340   3.403575
     8  C    3.820126   4.503872   2.417364   2.777714   1.390930
     9  H    2.775045   3.751986   2.162312   3.405166   1.097494
    10  C    4.306091   4.729725   2.796827   2.409694   2.410999
    11  H    4.652479   4.618265   3.410528   2.154746   3.874580
    12  H    4.701783   5.468017   3.406840   3.872618   2.154985
    13  H    5.400587   5.798423   3.891399   3.402057   3.403677
    14  C    1.508510   2.119266   2.518078   3.734201   2.955205
    15  C    2.496828   2.519322   3.402631   4.383567   3.889989
    16  C    2.549915   3.406275   3.313921   4.680299   3.252810
    17  C    3.785176   3.900208   4.618622   5.679494   4.825592
    18  H    2.688973   2.251059   3.502334   4.162054   4.243445
    19  C    3.820750   4.523833   4.554832   5.912462   4.330445
    20  H    2.771866   3.802036   3.343571   4.702198   3.138664
    21  C    4.306348   4.723032   5.094855   6.338598   5.013569
    22  H    4.651399   4.566583   5.443390   6.367708   5.702473
    23  H    4.702451   5.499879   5.345980   6.736187   4.940079
    24  H    5.400868   5.791057   6.155971   7.396327   5.984957
    25  C    1.509149   2.129029   2.477753   3.242233   3.374965
    26  C    2.539938   3.423604   3.049051   3.937385   3.442568
    27  C    2.505296   2.522933   3.555282   3.932436   4.653737
    28  C    3.813829   4.544248   4.338255   5.028492   4.734794
    29  H    2.744765   3.809709   2.912052   3.996926   2.840409
    30  C    3.790478   3.910966   4.708274   5.026015   5.676717
    31  H    2.703528   2.240718   3.809362   3.987001   5.067782
    32  C    4.304532   4.739542   5.027930   5.493960   5.712508
    33  H    4.693042   5.522745   5.047170   5.777319   5.189444
    34  H    4.660155   4.575001   5.610354   5.774613   6.670237
    35  H    5.399098   5.808665   6.084774   6.490542   6.723149
                    6          7          8          9         10
     6  C    0.000000
     7  H    2.153364   0.000000
     8  C    2.404868   3.874032   0.000000
     9  H    3.877152   4.314767   2.156525   0.000000
    10  C    1.391244   3.400631   1.389731   3.402800   0.000000
    11  H    1.094878   2.476053   3.398260   4.972029   2.158055
    12  H    3.398811   4.968940   1.094910   2.477218   2.157165
    13  H    2.159140   4.303093   2.158358   4.305597   1.094572
    14  C    4.879748   4.051000   4.313931   2.657727   5.116848
    15  C    5.501099   4.558945   5.116884   3.664317   5.812564
    16  C    5.681170   5.156773   4.579216   2.510119   5.643136
    17  C    6.704594   5.926311   5.999093   4.357606   6.845524
    18  H    5.290724   4.141671   5.354714   4.281552   5.805804
    19  C    6.854447   6.398051   5.549841   3.446690   6.704139
    20  H    5.619180   5.245469   4.397468   2.360376   5.497601
    21  C    7.305404   6.726746   6.192227   4.271676   7.245356
    22  H    7.358997   6.533779   6.791846   5.312284   7.549262
    23  H    7.601921   7.286141   6.070099   3.936756   7.318769
    24  H    8.318685   7.797039   7.094665   5.185434   8.189048
    25  C    4.474185   3.270260   4.572565   3.509061   5.025430
    26  C    4.914450   4.219891   4.529811   3.365923   5.166742
    27  C    5.210782   3.562092   5.775483   4.882953   6.011993
    28  C    5.933647   5.174390   5.689119   4.661926   6.227969
    29  H    4.793021   4.539942   3.884010   2.549007   4.749510
    30  C    6.182980   4.655323   6.723880   5.851530   6.946497
    31  H    5.319217   3.380222   6.171329   5.385464   6.279886
    32  C    6.501097   5.359359   6.688629   5.763736   7.041861
    33  H    6.526989   6.045737   6.015449   5.011151   6.636445
    34  H    6.929847   5.237690   7.693173   6.892317   7.810093
    35  H    7.430213   6.326303   7.636159   6.757525   7.959242
                   11         12         13         14         15
    11  H    0.000000
    12  H    4.304291   0.000000
    13  H    2.487790   2.487875   0.000000
    14  C    5.829274   4.965647   6.181047   0.000000
    15  C    6.360037   5.755793   6.836292   1.398217   0.000000
    16  C    6.712080   4.980482   6.653347   1.395799   2.406076
    17  C    7.597021   6.453641   7.817210   2.420443   1.389717
    18  H    6.012633   6.111475   6.808589   2.165376   1.096520
    19  C    7.895260   5.775455   7.659753   2.419312   2.777931
    20  H    6.660594   4.738761   6.475661   2.162665   3.405758
    21  C    8.289801   6.465779   8.193678   2.798558   2.410164
    22  H    8.179617   7.246528   8.482649   3.410525   2.154840
    23  H    8.670204   6.137960   8.221775   3.408652   3.872770
    24  H    9.304882   7.265521   9.095534   3.893154   3.402713
    25  C    5.257365   5.406542   6.082465   2.519057   3.677302
    26  C    5.763902   5.169508   6.145259   3.204937   4.553171
    27  C    5.790723   6.680853   7.043021   3.516397   4.387475
    28  C    6.668364   6.275978   7.131806   4.486435   5.791100
    29  H    5.751121   4.354471   5.685620   3.112193   4.509874
    30  C    6.693685   7.569858   7.919922   4.712744   5.660736
    31  H    5.791066   7.145230   7.311210   3.689030   4.234391
    32  C    7.090267   7.396362   7.960076   5.111968   6.263849
    33  H    7.279942   6.444053   7.454511   5.234480   6.585743
    34  H    7.322499   8.578975   8.764381   5.580016   6.380864
    35  H    7.959906   8.302079   8.826928   6.176297   7.319426
                   16         17         18         19         20
    16  C    0.000000
    17  C    2.777996   0.000000
    18  H    3.403461   2.153202   0.000000
    19  C    1.390239   2.404348   3.874419   0.000000
    20  H    1.101876   3.879860   4.315393   2.162593   0.000000
    21  C    2.410086   1.390690   3.400515   1.389967   3.408173
    22  H    3.872718   1.094725   2.474908   3.397665   4.974582
    23  H    2.154654   3.398315   4.969263   1.094847   2.483943
    24  H    3.402798   2.158988   4.302928   2.158478   4.311557
    25  C    3.026186   4.834386   3.959436   4.359861   2.791840
    26  C    3.118084   5.522185   5.054979   4.415111   2.399403
    27  C    4.162049   5.559847   4.442692   5.383294   4.024568
    28  C    4.288762   6.709445   6.271654   5.466268   3.478151
    29  H    2.722283   5.348180   5.147891   3.960757   1.812800
    30  C    5.096465   6.739038   5.789060   6.272088   4.745276
    31  H    4.605230   5.447476   4.040070   5.739663   4.702614
    32  C    5.153206   7.247639   6.584499   6.312543   4.528578
    33  H    4.798672   7.400824   7.159710   5.868455   3.834001
    34  H    6.049910   7.449868   6.392394   7.167689   5.775151
    35  H    6.135132   8.259727   7.645867   7.231079   5.454893
                   21         22         23         24         25
    21  C    0.000000
    22  H    2.157320   0.000000
    23  H    2.157439   4.303779   0.000000
    24  H    1.094596   2.487507   2.488096   0.000000
    25  C    5.113937   5.761686   5.037427   6.177140   0.000000
    26  C    5.469361   6.550492   4.817220   6.469472   1.395787
    27  C    5.984795   6.362996   6.083751   7.017497   1.397039
    28  C    6.574939   7.728970   5.711993   7.517955   2.418695
    29  H    5.129663   6.417651   4.249830   6.089091   2.155621
    30  C    7.007580   7.569445   6.811701   7.992315   2.418303
    31  H    6.101025   6.101555   6.562163   7.121309   2.164639
    32  C    7.271780   8.184639   6.653556   8.221372   2.795878
    33  H    7.095585   8.456600   5.924718   7.973500   3.408556
    34  H    7.802359   8.195480   7.730212   8.761139   3.408823
    35  H    8.223569   9.192394   7.480129   9.132682   3.890520
                   26         27         28         29         30
    26  C    0.000000
    27  C    2.407092   0.000000
    28  C    1.389647   2.780399   0.000000
    29  H    1.100640   3.400991   2.166915   0.000000
    30  C    2.777680   1.390409   2.405763   3.878054   0.000000
    31  H    3.404159   1.096408   3.876783   4.308532   2.154837
    32  C    2.408875   2.410787   1.390679   3.409907   1.390521
    33  H    2.154858   3.875156   1.094762   2.493207   3.399523
    34  H    3.872564   2.155469   3.399004   4.972896   1.094888
    35  H    3.401623   3.403157   2.158705   4.315138   2.158506
                   31         32         33         34         35
    31  H    0.000000
    32  C    3.401615   0.000000
    33  H    4.971544   2.158364   0.000000
    34  H    2.477145   2.157279   4.304810   0.000000
    35  H    4.304019   1.094646   2.488639   2.486830   0.000000
 Stoichiometry    C19H16
 Framework group  C1[X(C19H16)]
 Deg. of freedom    99
 Full point group                 C1      NOp   1
 Largest Abelian subgroup         C1      NOp   1
 Largest concise Abelian subgroup C1      NOp   1
                         Standard orientation:                         
 ---------------------------------------------------------------------
 Center     Atomic      Atomic             Coordinates (Angstroms)
 Number     Number       Type             X           Y           Z
 ---------------------------------------------------------------------
      1          6           0       -0.023327   -0.012497   -0.753692
      2          1           0       -0.000831   -0.006438   -1.877442
      3          6           0        0.493651    1.334328   -0.307708
      4          6           0        1.430967    1.985983   -1.115940
      5          6           0        0.080125    1.944619    0.876088
      6          6           0        1.943335    3.222280   -0.743415
      7          1           0        1.768219    1.518416   -2.048465
      8          6           0        0.592927    3.183485    1.246129
      9          1           0       -0.661564    1.450346    1.516466
     10          6           0        1.525245    3.824390    0.439050
     11          1           0        2.677661    3.723080   -1.382729
     12          1           0        0.258543    3.653532    2.176759
     13          1           0        1.928526    4.799010    0.731574
     14          6           0       -1.459343   -0.254318   -0.360015
     15          6           0       -2.456315   -0.030278   -1.314407
     16          6           0       -1.830370   -0.687747    0.913850
     17          6           0       -3.793818   -0.237671   -0.999148
     18          1           0       -2.184780    0.312772   -2.319863
     19          6           0       -3.168635   -0.897080    1.226883
     20          1           0       -1.052530   -0.872211    1.672184
     21          6           0       -4.153363   -0.672350    0.271993
     22          1           0       -4.565465   -0.059086   -1.754854
     23          1           0       -3.445037   -1.240886    2.228925
     24          1           0       -5.206865   -0.837456    0.519005
     25          6           0        0.909805   -1.108213   -0.299596
     26          6           0        1.224585   -1.297645    1.046974
     27          6           0        1.491628   -1.943474   -1.256434
     28          6           0        2.111640   -2.296061    1.430923
     29          1           0        0.742855   -0.657646    1.801789
     30          6           0        2.376504   -2.944194   -0.870699
     31          1           0        1.251895   -1.811240   -2.318108
     32          6           0        2.691097   -3.120211    0.472282
     33          1           0        2.352694   -2.432699    2.490039
     34          1           0        2.827488   -3.593777   -1.627953
     35          1           0        3.391170   -3.905790    0.773970
 ---------------------------------------------------------------------
 Rotational constants (GHZ):      0.4000456      0.3718613      0.2369178
 Standard basis: 6-311G (5D, 7F)
 There are   295 symmetry adapted basis functions of A   symmetry.
 Integral buffers will be    262144 words long.
 Raffenetti 1 integral format.
 Two-electron integral symmetry is turned on.
   295 basis functions,   574 primitive gaussians,   295 cartesian basis functions
    65 alpha electrons       65 beta electrons
       nuclear repulsion energy      1288.3229250260 Hartrees.
 NAtoms=   35 NActive=   35 NUniq=   35 SFac= 7.50D-01 NAtFMM=   80 NAOKFM=F Big=F
 One-electron integrals computed using PRISM.
 PrsmSu:  requested number of processors reduced to:  10 ShMem   1 Linda.
 NBasis=   295 RedAO= T  NBF=   295
 NBsUse=   295 1.00D-06 NBFU=   295
 Harris functional with IExCor=  205 diagonalized for initial guess.
 ExpMin= 1.03D-01 ExpMax= 4.56D+03 ExpMxC= 6.82D+02 IAcc=1 IRadAn=         1 AccDes= 0.00D+00
 HarFok:  IExCor=  205 AccDes= 0.00D+00 IRadAn=         1 IDoV= 1
 ScaDFX=  1.000000  1.000000  1.000000  1.000000
 FoFCou: FMM=F IPFlag=           0 FMFlag=      100000 FMFlg1=           0
         NFxFlg=           0 DoJE=T BraDBF=F KetDBF=T FulRan=T
         Omega=  0.000000  0.000000  1.000000  0.000000  0.000000 ICntrl=     500 IOpCl=  0
         NMat0=    1 NMatS0=    1 NMatT0=    0 NMatD0=    1 NMtDS0=    0 NMtDT0=    0
         I1Cent=           4 NGrid=           0.
 Petite list used in FoFCou.
 Initial guess orbital symmetries:
       Occupied  (A) (A) (A) (A) (A) (A) (A) (A) (A) (A) (A) (A)
                 (A) (A) (A) (A) (A) (A) (A) (A) (A) (A) (A) (A)
                 (A) (A) (A) (A) (A) (A) (A) (A) (A) (A) (A) (A)
                 (A) (A) (A) (A) (A) (A) (A) (A) (A) (A) (A) (A)
                 (A) (A) (A) (A) (A) (A) (A) (A) (A) (A) (A) (A)
                 (A) (A) (A) (A) (A)
       Virtual   (A) (A) (A) (A) (A) (A) (A) (A) (A) (A) (A) (A)
                 (A) (A) (A) (A) (A) (A) (A) (A) (A) (A) (A) (A)
                 (A) (A) (A) (A) (A) (A) (A) (A) (A) (A) (A) (A)
                 (A) (A) (A) (A) (A) (A) (A) (A) (A) (A) (A) (A)
                 (A) (A) (A) (A) (A) (A) (A) (A) (A) (A) (A) (A)
                 (A) (A) (A) (A) (A) (A) (A) (A) (A) (A) (A) (A)
                 (A) (A) (A) (A) (A) (A) (A) (A) (A) (A) (A) (A)
                 (A) (A) (A) (A) (A) (A) (A) (A) (A) (A) (A) (A)
                 (A) (A) (A) (A) (A) (A) (A) (A) (A) (A) (A) (A)
                 (A) (A) (A) (A) (A) (A) (A) (A) (A) (A) (A) (A)
                 (A) (A) (A) (A) (A) (A) (A) (A) (A) (A) (A) (A)
                 (A) (A) (A) (A) (A) (A) (A) (A) (A) (A) (A) (A)
                 (A) (A) (A) (A) (A) (A) (A) (A) (A) (A) (A) (A)
                 (A) (A) (A) (A) (A) (A) (A) (A) (A) (A) (A) (A)
                 (A) (A) (A) (A) (A) (A) (A) (A) (A) (A) (A) (A)
                 (A) (A) (A) (A) (A) (A) (A) (A) (A) (A) (A) (A)
                 (A) (A) (A) (A) (A) (A) (A) (A) (A) (A) (A) (A)
                 (A) (A) (A) (A) (A) (A) (A) (A) (A) (A) (A) (A)
                 (A) (A) (A) (A) (A) (A) (A) (A) (A) (A) (A) (A)
                 (A) (A)
 The electronic state of the initial guess is 1-A.
 Requested convergence on RMS density matrix=1.00D-08 within 128 cycles.
 Requested convergence on MAX density matrix=1.00D-06.
 Requested convergence on             energy=1.00D-06.
 No special actions if energy rises.
 Integral accuracy reduced to 1.0D-05 until final iterations.
 Initial convergence to 1.0D-05 achieved.  Increase integral accuracy.
 SCF Done:  E(RHF) =  -728.671684101     A.U. after   14 cycles
             Convg  =    0.6171D-08             -V/T =  2.0001

 **********************************************************************

            Population analysis using the SCF density.

 **********************************************************************

 Orbital symmetries:
       Occupied  (A) (A) (A) (A) (A) (A) (A) (A) (A) (A) (A) (A)
                 (A) (A) (A) (A) (A) (A) (A) (A) (A) (A) (A) (A)
                 (A) (A) (A) (A) (A) (A) (A) (A) (A) (A) (A) (A)
                 (A) (A) (A) (A) (A) (A) (A) (A) (A) (A) (A) (A)
                 (A) (A) (A) (A) (A) (A) (A) (A) (A) (A) (A) (A)
                 (A) (A) (A) (A) (A)
       Virtual   (A) (A) (A) (A) (A) (A) (A) (A) (A) (A) (A) (A)
                 (A) (A) (A) (A) (A) (A) (A) (A) (A) (A) (A) (A)
                 (A) (A) (A) (A) (A) (A) (A) (A) (A) (A) (A) (A)
                 (A) (A) (A) (A) (A) (A) (A) (A) (A) (A) (A) (A)
                 (A) (A) (A) (A) (A) (A) (A) (A) (A) (A) (A) (A)
                 (A) (A) (A) (A) (A) (A) (A) (A) (A) (A) (A) (A)
                 (A) (A) (A) (A) (A) (A) (A) (A) (A) (A) (A) (A)
                 (A) (A) (A) (A) (A) (A) (A) (A) (A) (A) (A) (A)
                 (A) (A) (A) (A) (A) (A) (A) (A) (A) (A) (A) (A)
                 (A) (A) (A) (A) (A) (A) (A) (A) (A) (A) (A) (A)
                 (A) (A) (A) (A) (A) (A) (A) (A) (A) (A) (A) (A)
                 (A) (A) (A) (A) (A) (A) (A) (A) (A) (A) (A) (A)
                 (A) (A) (A) (A) (A) (A) (A) (A) (A) (A) (A) (A)
                 (A) (A) (A) (A) (A) (A) (A) (A) (A) (A) (A) (A)
                 (A) (A) (A) (A) (A) (A) (A) (A) (A) (A) (A) (A)
                 (A) (A) (A) (A) (A) (A) (A) (A) (A) (A) (A) (A)
                 (A) (A) (A) (A) (A) (A) (A) (A) (A) (A) (A) (A)
                 (A) (A) (A) (A) (A) (A) (A) (A) (A) (A) (A) (A)
                 (A) (A) (A) (A) (A) (A) (A) (A) (A) (A) (A) (A)
                 (A) (A)
 The electronic state is 1-A.
 Alpha  occ. eigenvalues --  -11.25834 -11.25274 -11.25263 -11.25137 -11.24447
 Alpha  occ. eigenvalues --  -11.24430 -11.24353 -11.24350 -11.24212 -11.24193
 Alpha  occ. eigenvalues --  -11.24127 -11.24116 -11.24111 -11.24051 -11.24026
 Alpha  occ. eigenvalues --  -11.24018 -11.23917 -11.23836 -11.23743  -1.18590
 Alpha  occ. eigenvalues --   -1.15827  -1.15681  -1.09037  -1.02411  -1.02115
 Alpha  occ. eigenvalues --   -1.01888  -1.01497  -1.01393  -0.92964  -0.84541
 Alpha  occ. eigenvalues --   -0.82935  -0.82540  -0.81712  -0.81567  -0.77738
 Alpha  occ. eigenvalues --   -0.70730  -0.70449  -0.69112  -0.66003  -0.63612
 Alpha  occ. eigenvalues --   -0.63497  -0.62373  -0.62038  -0.61906  -0.59571
 Alpha  occ. eigenvalues --   -0.58771  -0.58519  -0.58431  -0.57619  -0.53906
 Alpha  occ. eigenvalues --   -0.51744  -0.51086  -0.50858  -0.49670  -0.49163
 Alpha  occ. eigenvalues --   -0.48682  -0.47796  -0.47472  -0.46765  -0.34690
 Alpha  occ. eigenvalues --   -0.34245  -0.33695  -0.33591  -0.33283  -0.31180
 Alpha virt. eigenvalues --    0.11654   0.12009   0.13597   0.13738   0.14040
 Alpha virt. eigenvalues --    0.14935   0.15137   0.16275   0.16374   0.16876
 Alpha virt. eigenvalues --    0.18803   0.19134   0.19285   0.21288   0.21418
 Alpha virt. eigenvalues --    0.21511   0.23646   0.24241   0.24984   0.27186
 Alpha virt. eigenvalues --    0.28524   0.29509   0.34028   0.34190   0.35884
 Alpha virt. eigenvalues --    0.37433   0.38517   0.39673   0.40943   0.43683
 Alpha virt. eigenvalues --    0.44103   0.44381   0.45040   0.45400   0.45579
 Alpha virt. eigenvalues --    0.45876   0.46411   0.48419   0.49913   0.50386
 Alpha virt. eigenvalues --    0.50792   0.51012   0.51453   0.54988   0.55772
 Alpha virt. eigenvalues --    0.56813   0.57908   0.58954   0.59064   0.59605
 Alpha virt. eigenvalues --    0.59677   0.60660   0.61060   0.61503   0.61698
 Alpha virt. eigenvalues --    0.61856   0.62380   0.62471   0.63286   0.63458
 Alpha virt. eigenvalues --    0.64121   0.64992   0.65156   0.65419   0.66896
 Alpha virt. eigenvalues --    0.67404   0.68208   0.68448   0.70093   0.71377
 Alpha virt. eigenvalues --    0.72341   0.73802   0.74448   0.75073   0.76222
 Alpha virt. eigenvalues --    0.77286   0.78308   0.78644   0.80475   0.81192
 Alpha virt. eigenvalues --    0.81863   0.82192   0.82341   0.82820   0.82904
 Alpha virt. eigenvalues --    0.83522   0.83911   0.84050   0.84773   0.85605
 Alpha virt. eigenvalues --    0.86044   0.86385   0.86915   0.87463   0.88064
 Alpha virt. eigenvalues --    0.89651   0.90560   0.91260   0.92975   0.94437
 Alpha virt. eigenvalues --    0.96095   0.96854   0.97671   0.98113   0.98934
 Alpha virt. eigenvalues --    0.99321   1.00286   1.02788   1.05776   1.06243
 Alpha virt. eigenvalues --    1.06805   1.07138   1.08006   1.08382   1.10480
 Alpha virt. eigenvalues --    1.11088   1.12216   1.12487   1.12967   1.14251
 Alpha virt. eigenvalues --    1.14651   1.15365   1.18579   1.19566   1.21711
 Alpha virt. eigenvalues --    1.25322   1.26733   1.27660   1.28229   1.28884
 Alpha virt. eigenvalues --    1.30330   1.35165   1.39544   1.45201   1.46593
 Alpha virt. eigenvalues --    1.51636   1.52281   1.56484   2.54607   2.55618
 Alpha virt. eigenvalues --    2.56164   2.59176   2.61959   2.62499   2.64459
 Alpha virt. eigenvalues --    2.67002   2.67704   2.68441   2.72323   2.76799
 Alpha virt. eigenvalues --    2.77793   2.83485   2.87966   2.88648   2.94126
 Alpha virt. eigenvalues --    2.94269   2.94416   2.97073   2.97449   2.98032
 Alpha virt. eigenvalues --    3.00352   3.00753   3.04041   3.05732   3.07133
 Alpha virt. eigenvalues --    3.08140   3.08434   3.08987   3.09974   3.14320
 Alpha virt. eigenvalues --    3.14757   3.16347   3.16831   3.17583   3.18791
 Alpha virt. eigenvalues --    3.22654   3.25638   3.25822   3.28296   3.28912
 Alpha virt. eigenvalues --    3.30936   3.33386   3.34269   3.35138   3.42641
 Alpha virt. eigenvalues --    3.43061   3.44435   3.46968   3.49478   3.52225
 Alpha virt. eigenvalues --    3.53446   3.54442   3.59266   3.60637   3.60662
 Alpha virt. eigenvalues --    3.63132   3.63477   3.63791   3.65978   3.66663
 Alpha virt. eigenvalues --    3.68377   3.70294   3.70448   3.71435   3.73498
 Alpha virt. eigenvalues --    3.74172   3.75563   3.80864   3.85844   3.86646
 Alpha virt. eigenvalues --    3.93058  24.24817  24.30682  24.31549  24.50539
 Alpha virt. eigenvalues --   24.50832  24.51119  24.53985  24.54666  24.56091
 Alpha virt. eigenvalues --   24.77286  24.78602  24.79132  24.79609  24.80642
 Alpha virt. eigenvalues --   24.81852  24.83225  25.05541  25.05811  25.06128
          Condensed to atoms (all electrons):
              1          2          3          4          5          6
     1  C    5.828371   0.463443   0.158657  -0.049667  -0.040340   0.006275
     2  H    0.463443   0.512403  -0.059872  -0.003198   0.004920   0.001554
     3  C    0.158657  -0.059872   5.366480   0.473481   0.485323  -0.065478
     4  C   -0.049667  -0.003198   0.473481   5.071408  -0.071823   0.466275
     5  C   -0.040340   0.004920   0.485323  -0.071823   5.087429  -0.027897
     6  C    0.006275   0.001554  -0.065478   0.466275  -0.027897   5.050255
     7  H    0.001763   0.001086  -0.050610   0.399533   0.004143  -0.035563
     8  C    0.004779  -0.000249  -0.064499  -0.031570   0.471723  -0.076919
     9  H   -0.001574  -0.000065  -0.042777   0.004182   0.390122  -0.000180
    10  C    0.000990   0.000009  -0.018506  -0.086124  -0.093496   0.489058
    11  H   -0.000351  -0.000027   0.006710  -0.039637  -0.000523   0.397070
    12  H   -0.000325   0.000013   0.006177  -0.000424  -0.037585   0.005996
    13  H   -0.000012  -0.000002  -0.001479   0.007373   0.007827  -0.042943
    14  C    0.171484  -0.073697  -0.104399   0.006267  -0.014188  -0.000756
    15  C   -0.045069   0.002811  -0.001427   0.000452   0.001932  -0.000017
    16  C   -0.045908   0.005111  -0.005935  -0.000176  -0.007341   0.000025
    17  C    0.008279   0.001520  -0.000716   0.000003   0.000220   0.000001
    18  H   -0.000728   0.002695   0.000478   0.000121   0.000181  -0.000008
    19  C    0.003558  -0.000276   0.000881   0.000023  -0.001495   0.000000
    20  H   -0.000283  -0.000139  -0.000503  -0.000030   0.000331   0.000006
    21  C    0.001135  -0.000016   0.000024  -0.000001   0.000081   0.000000
    22  H   -0.000389  -0.000029   0.000021   0.000000  -0.000001   0.000000
    23  H   -0.000294   0.000014  -0.000007  -0.000001   0.000013   0.000000
    24  H   -0.000019  -0.000002   0.000001   0.000000   0.000000   0.000000
    25  C    0.185550  -0.074211  -0.154807   0.000669  -0.014095  -0.000421
    26  C   -0.054411   0.005540  -0.007608   0.000811  -0.000109   0.000193
    27  C   -0.026124   0.002098  -0.005744   0.002044  -0.000314  -0.000037
    28  C    0.001401  -0.000283   0.000759  -0.000063  -0.000034   0.000002
    29  H    0.003108   0.000067  -0.001903  -0.000266   0.004810  -0.000097
    30  C    0.007677   0.001758  -0.000462  -0.000098   0.000048   0.000006
    31  H   -0.000484   0.002427   0.000150   0.000251  -0.000048  -0.000006
    32  C    0.001272  -0.000012   0.000096  -0.000014  -0.000004   0.000000
    33  H   -0.000319   0.000012   0.000018   0.000006  -0.000002   0.000001
    34  H   -0.000368  -0.000037   0.000011   0.000003   0.000000   0.000000
    35  H   -0.000013  -0.000001  -0.000002   0.000000   0.000000   0.000000
              7          8          9         10         11         12
     1  C    0.001763   0.004779  -0.001574   0.000990  -0.000351  -0.000325
     2  H    0.001086  -0.000249  -0.000065   0.000009  -0.000027   0.000013
     3  C   -0.050610  -0.064499  -0.042777  -0.018506   0.006710   0.006177
     4  C    0.399533  -0.031570   0.004182  -0.086124  -0.039637  -0.000424
     5  C    0.004143   0.471723   0.390122  -0.093496  -0.000523  -0.037585
     6  C   -0.035563  -0.076919  -0.000180   0.489058   0.397070   0.005996
     7  H    0.510036  -0.000333  -0.000249   0.005343  -0.004289   0.000024
     8  C   -0.000333   5.050172  -0.029870   0.499279   0.006122   0.395900
     9  H   -0.000249  -0.029870   0.481764   0.004711   0.000020  -0.003337
    10  C    0.005343   0.499279   0.004711   5.033308  -0.040718  -0.040234
    11  H   -0.004289   0.006122   0.000020  -0.040718   0.518575  -0.000213
    12  H    0.000024   0.395900  -0.003337  -0.040234  -0.000213   0.516801
    13  H   -0.000185  -0.042207  -0.000183   0.399178  -0.004485  -0.004442
    14  C    0.000690   0.000542  -0.003180   0.000044   0.000011   0.000037
    15  C    0.000013  -0.000085  -0.000870  -0.000013   0.000001   0.000007
    16  C   -0.000037   0.000018   0.001175  -0.000019   0.000000   0.000028
    17  C    0.000001  -0.000003  -0.000135   0.000000   0.000000   0.000001
    18  H    0.000004   0.000009  -0.000037  -0.000004   0.000000   0.000000
    19  C    0.000000  -0.000031   0.000954   0.000000   0.000000  -0.000001
    20  H    0.000007   0.000054   0.000163   0.000001   0.000000  -0.000017
    21  C    0.000000   0.000004   0.000048   0.000000   0.000000  -0.000001
    22  H    0.000000   0.000000   0.000001   0.000000   0.000000   0.000000
    23  H    0.000000   0.000001  -0.000004   0.000000   0.000000   0.000000
    24  H    0.000000   0.000000   0.000000   0.000000   0.000000   0.000000
    25  C    0.000540   0.000649  -0.001048   0.000074   0.000012   0.000005
    26  C   -0.000052  -0.000665   0.000488   0.000028   0.000003   0.000014
    27  C    0.001426   0.000028  -0.000083  -0.000003  -0.000001   0.000000
    28  C   -0.000017  -0.000017   0.000064   0.000003   0.000000   0.000000
    29  H   -0.000037   0.000448   0.001055  -0.000011   0.000001  -0.000001
    30  C    0.000030  -0.000001   0.000002   0.000000   0.000000   0.000000
    31  H    0.000256   0.000000   0.000000   0.000000  -0.000001   0.000000
    32  C   -0.000011   0.000000   0.000002   0.000000   0.000000   0.000000
    33  H    0.000000  -0.000001  -0.000009   0.000000   0.000000   0.000000
    34  H   -0.000003   0.000000   0.000000   0.000000   0.000000   0.000000
    35  H    0.000000   0.000000   0.000000   0.000000   0.000000   0.000000
             13         14         15         16         17         18
     1  C   -0.000012   0.171484  -0.045069  -0.045908   0.008279  -0.000728
     2  H   -0.000002  -0.073697   0.002811   0.005111   0.001520   0.002695
     3  C   -0.001479  -0.104399  -0.001427  -0.005935  -0.000716   0.000478
     4  C    0.007373   0.006267   0.000452  -0.000176   0.000003   0.000121
     5  C    0.007827  -0.014188   0.001932  -0.007341   0.000220   0.000181
     6  C   -0.042943  -0.000756  -0.000017   0.000025   0.000001  -0.000008
     7  H   -0.000185   0.000690   0.000013  -0.000037   0.000001   0.000004
     8  C   -0.042207   0.000542  -0.000085   0.000018  -0.000003   0.000009
     9  H   -0.000183  -0.003180  -0.000870   0.001175  -0.000135  -0.000037
    10  C    0.399178   0.000044  -0.000013  -0.000019   0.000000  -0.000004
    11  H   -0.004485   0.000011   0.000001   0.000000   0.000000   0.000000
    12  H   -0.004442   0.000037   0.000007   0.000028   0.000001   0.000000
    13  H    0.518521  -0.000001   0.000000   0.000001   0.000000   0.000000
    14  C   -0.000001   5.366372   0.495081   0.449967  -0.071587  -0.045653
    15  C    0.000000   0.495081   5.041067  -0.061490   0.471762   0.394429
    16  C    0.000001   0.449967  -0.061490   5.121692  -0.031239   0.004755
    17  C    0.000000  -0.071587   0.471762  -0.031239   5.044418  -0.034672
    18  H    0.000000  -0.045653   0.394429   0.004755  -0.034672   0.507718
    19  C    0.000000  -0.064269  -0.036196   0.473442  -0.075140  -0.000399
    20  H    0.000000  -0.053116   0.004503   0.386550  -0.000211  -0.000243
    21  C    0.000000  -0.017805  -0.086667  -0.094846   0.494674   0.005349
    22  H    0.000000   0.007159  -0.039682  -0.000601   0.396683  -0.004220
    23  H    0.000000   0.006024  -0.000393  -0.036756   0.005899   0.000022
    24  H    0.000000  -0.001593   0.007486   0.008126  -0.042949  -0.000183
    25  C   -0.000001  -0.112680   0.001911  -0.004538  -0.000680   0.000364
    26  C   -0.000001  -0.006262   0.000223  -0.017190   0.000029  -0.000026
    27  C    0.000000  -0.000349   0.000196   0.001478  -0.000004  -0.000022
    28  C    0.000000   0.001782   0.000028  -0.001727  -0.000001   0.000002
    29  H   -0.000001  -0.003201  -0.000199   0.000280   0.000016  -0.000007
    30  C    0.000000  -0.000601  -0.000009   0.000124   0.000001   0.000001
    31  H    0.000000   0.000558   0.000136   0.000001   0.000003  -0.000025
    32  C    0.000000  -0.000036  -0.000001   0.000044   0.000000   0.000000
    33  H    0.000000   0.000008   0.000000   0.000016   0.000000   0.000000
    34  H    0.000000   0.000020   0.000000  -0.000001   0.000000   0.000000
    35  H    0.000000  -0.000001   0.000000   0.000001   0.000000   0.000000
             19         20         21         22         23         24
     1  C    0.003558  -0.000283   0.001135  -0.000389  -0.000294  -0.000019
     2  H   -0.000276  -0.000139  -0.000016  -0.000029   0.000014  -0.000002
     3  C    0.000881  -0.000503   0.000024   0.000021  -0.000007   0.000001
     4  C    0.000023  -0.000030  -0.000001   0.000000  -0.000001   0.000000
     5  C   -0.001495   0.000331   0.000081  -0.000001   0.000013   0.000000
     6  C    0.000000   0.000006   0.000000   0.000000   0.000000   0.000000
     7  H    0.000000   0.000007   0.000000   0.000000   0.000000   0.000000
     8  C   -0.000031   0.000054   0.000004   0.000000   0.000001   0.000000
     9  H    0.000954   0.000163   0.000048   0.000001  -0.000004   0.000000
    10  C    0.000000   0.000001   0.000000   0.000000   0.000000   0.000000
    11  H    0.000000   0.000000   0.000000   0.000000   0.000000   0.000000
    12  H   -0.000001  -0.000017  -0.000001   0.000000   0.000000   0.000000
    13  H    0.000000   0.000000   0.000000   0.000000   0.000000   0.000000
    14  C   -0.064269  -0.053116  -0.017805   0.007159   0.006024  -0.001593
    15  C   -0.036196   0.004503  -0.086667  -0.039682  -0.000393   0.007486
    16  C    0.473442   0.386550  -0.094846  -0.000601  -0.036756   0.008126
    17  C   -0.075140  -0.000211   0.494674   0.396683   0.005899  -0.042949
    18  H   -0.000399  -0.000243   0.005349  -0.004220   0.000022  -0.000183
    19  C    5.056498  -0.025324   0.495858   0.006237   0.395575  -0.042542
    20  H   -0.025324   0.498603   0.004797   0.000020  -0.003437  -0.000183
    21  C    0.495858   0.004797   5.030254  -0.041084  -0.039637   0.399170
    22  H    0.006237   0.000020  -0.041084   0.517976  -0.000212  -0.004551
    23  H    0.395575  -0.003437  -0.039637  -0.000212   0.515472  -0.004357
    24  H   -0.042542  -0.000183   0.399170  -0.004551  -0.004357   0.517626
    25  C    0.001543  -0.003001   0.000020   0.000014   0.000011  -0.000002
    26  C   -0.000014   0.002902  -0.000004   0.000000   0.000031   0.000001
    27  C    0.000042  -0.000259  -0.000011   0.000001   0.000002   0.000000
    28  C   -0.000089   0.001161   0.000001   0.000000   0.000000   0.000000
    29  H    0.000867   0.003438  -0.000012   0.000000  -0.000053   0.000000
    30  C    0.000000  -0.000137   0.000000   0.000000   0.000000   0.000000
    31  H    0.000003  -0.000004  -0.000001   0.000000   0.000000   0.000000
    32  C    0.000003   0.000077   0.000000   0.000000  -0.000001   0.000000
    33  H    0.000001  -0.000105   0.000000   0.000000   0.000001   0.000000
    34  H    0.000000   0.000000   0.000000   0.000000   0.000000   0.000000
    35  H    0.000000   0.000000   0.000000   0.000000   0.000000   0.000000
             25         26         27         28         29         30
     1  C    0.185550  -0.054411  -0.026124   0.001401   0.003108   0.007677
     2  H   -0.074211   0.005540   0.002098  -0.000283   0.000067   0.001758
     3  C   -0.154807  -0.007608  -0.005744   0.000759  -0.001903  -0.000462
     4  C    0.000669   0.000811   0.002044  -0.000063  -0.000266  -0.000098
     5  C   -0.014095  -0.000109  -0.000314  -0.000034   0.004810   0.000048
     6  C   -0.000421   0.000193  -0.000037   0.000002  -0.000097   0.000006
     7  H    0.000540  -0.000052   0.001426  -0.000017  -0.000037   0.000030
     8  C    0.000649  -0.000665   0.000028  -0.000017   0.000448  -0.000001
     9  H   -0.001048   0.000488  -0.000083   0.000064   0.001055   0.000002
    10  C    0.000074   0.000028  -0.000003   0.000003  -0.000011   0.000000
    11  H    0.000012   0.000003  -0.000001   0.000000   0.000001   0.000000
    12  H    0.000005   0.000014   0.000000   0.000000  -0.000001   0.000000
    13  H   -0.000001  -0.000001   0.000000   0.000000  -0.000001   0.000000
    14  C   -0.112680  -0.006262  -0.000349   0.001782  -0.003201  -0.000601
    15  C    0.001911   0.000223   0.000196   0.000028  -0.000199  -0.000009
    16  C   -0.004538  -0.017190   0.001478  -0.001727   0.000280   0.000124
    17  C   -0.000680   0.000029  -0.000004  -0.000001   0.000016   0.000001
    18  H    0.000364  -0.000026  -0.000022   0.000002  -0.000007   0.000001
    19  C    0.001543  -0.000014   0.000042  -0.000089   0.000867   0.000000
    20  H   -0.003001   0.002902  -0.000259   0.001161   0.003438  -0.000137
    21  C    0.000020  -0.000004  -0.000011   0.000001  -0.000012   0.000000
    22  H    0.000014   0.000000   0.000001   0.000000   0.000000   0.000000
    23  H    0.000011   0.000031   0.000002   0.000000  -0.000053   0.000000
    24  H   -0.000002   0.000001   0.000000   0.000000   0.000000   0.000000
    25  C    5.375165   0.438832   0.503739  -0.061674  -0.048516  -0.072825
    26  C    0.438832   5.094940  -0.065378   0.479250   0.388520  -0.029621
    27  C    0.503739  -0.065378   5.069844  -0.033491   0.004050   0.459925
    28  C   -0.061674   0.479250  -0.033491   5.036118  -0.027225  -0.076847
    29  H   -0.048516   0.388520   0.004050  -0.027225   0.495471  -0.000169
    30  C   -0.072825  -0.029621   0.459925  -0.076847  -0.000169   5.054825
    31  H   -0.046625   0.004634   0.395695  -0.000237  -0.000260  -0.035023
    32  C   -0.017889  -0.092094  -0.086321   0.494356   0.004559   0.496995
    33  H    0.006071  -0.039051  -0.000449   0.396671  -0.003435   0.006001
    34  H    0.007060  -0.000618  -0.039699   0.006225   0.000021   0.396767
    35  H   -0.001593   0.008018   0.007534  -0.042911  -0.000169  -0.042749
             31         32         33         34         35
     1  C   -0.000484   0.001272  -0.000319  -0.000368  -0.000013
     2  H    0.002427  -0.000012   0.000012  -0.000037  -0.000001
     3  C    0.000150   0.000096   0.000018   0.000011  -0.000002
     4  C    0.000251  -0.000014   0.000006   0.000003   0.000000
     5  C   -0.000048  -0.000004  -0.000002   0.000000   0.000000
     6  C   -0.000006   0.000000   0.000001   0.000000   0.000000
     7  H    0.000256  -0.000011   0.000000  -0.000003   0.000000
     8  C    0.000000   0.000000  -0.000001   0.000000   0.000000
     9  H    0.000000   0.000002  -0.000009   0.000000   0.000000
    10  C    0.000000   0.000000   0.000000   0.000000   0.000000
    11  H   -0.000001   0.000000   0.000000   0.000000   0.000000
    12  H    0.000000   0.000000   0.000000   0.000000   0.000000
    13  H    0.000000   0.000000   0.000000   0.000000   0.000000
    14  C    0.000558  -0.000036   0.000008   0.000020  -0.000001
    15  C    0.000136  -0.000001   0.000000   0.000000   0.000000
    16  C    0.000001   0.000044   0.000016  -0.000001   0.000001
    17  C    0.000003   0.000000   0.000000   0.000000   0.000000
    18  H   -0.000025   0.000000   0.000000   0.000000   0.000000
    19  C    0.000003   0.000003   0.000001   0.000000   0.000000
    20  H   -0.000004   0.000077  -0.000105   0.000000   0.000000
    21  C   -0.000001   0.000000   0.000000   0.000000   0.000000
    22  H    0.000000   0.000000   0.000000   0.000000   0.000000
    23  H    0.000000  -0.000001   0.000001   0.000000   0.000000
    24  H    0.000000   0.000000   0.000000   0.000000   0.000000
    25  C   -0.046625  -0.017889   0.006071   0.007060  -0.001593
    26  C    0.004634  -0.092094  -0.039051  -0.000618   0.008018
    27  C    0.395695  -0.086321  -0.000449  -0.039699   0.007534
    28  C   -0.000237   0.494356   0.396671   0.006225  -0.042911
    29  H   -0.000260   0.004559  -0.003435   0.000021  -0.000169
    30  C   -0.035023   0.496995   0.006001   0.396767  -0.042749
    31  H    0.510887   0.005163   0.000024  -0.004172  -0.000186
    32  C    0.005163   5.031004  -0.039552  -0.040779   0.399610
    33  H    0.000024  -0.039552   0.515398  -0.000211  -0.004454
    34  H   -0.004172  -0.040779  -0.000211   0.518282  -0.004581
    35  H   -0.000186   0.399610  -0.004454  -0.004581   0.517472
 Mulliken atomic charges:
              1
     1  C   -0.581066
     2  H    0.204635
     3  C    0.087468
     4  C   -0.149809
     5  C   -0.149808
     6  C   -0.166397
     7  H    0.166493
     8  C   -0.183275
     9  H    0.198847
    10  C   -0.152899
    11  H    0.161720
    12  H    0.161578
    13  H    0.163040
    14  C    0.067326
    15  C   -0.149918
    16  C   -0.145031
    17  C   -0.166172
    18  H    0.170098
    19  C   -0.189709
    20  H    0.184378
    21  C   -0.151332
    22  H    0.162657
    23  H    0.162085
    24  H    0.163972
    25  C    0.092373
    26  C   -0.111353
    27  C   -0.189811
    28  C   -0.173207
    29  H    0.178850
    30  C   -0.165619
    31  H    0.166884
    32  C   -0.156465
    33  H    0.163359
    34  H    0.162080
    35  H    0.164027
 Sum of Mulliken atomic charges =   0.00000
 Mulliken charges with hydrogens summed into heavy atoms:
              1
     1  C   -0.376431
     3  C    0.087468
     4  C    0.016684
     5  C    0.049038
     6  C   -0.004677
     8  C   -0.021697
    10  C    0.010141
    14  C    0.067326
    15  C    0.020179
    16  C    0.039347
    17  C   -0.003515
    19  C   -0.027624
    21  C    0.012641
    25  C    0.092373
    26  C    0.067497
    27  C   -0.022927
    28  C   -0.009848
    30  C   -0.003539
    32  C    0.007562
 Sum of Mulliken charges with hydrogens summed into heavy atoms =   0.00000
 Electronic spatial extent (au):  <R**2>=           4940.2663
 Charge=              0.0000 electrons
 Dipole moment (field-independent basis, Debye):
    X=              0.0133    Y=             -0.0665    Z=             -0.0431  Tot=              0.0804
 Quadrupole moment (field-independent basis, Debye-Ang):
   XX=           -110.6376   YY=           -114.0761   ZZ=           -102.8077
   XY=             -0.7893   XZ=             -2.2713   YZ=             -0.1533
 Traceless Quadrupole moment (field-independent basis, Debye-Ang):
   XX=             -1.4638   YY=             -4.9023   ZZ=              6.3661
   XY=             -0.7893   XZ=             -2.2713   YZ=             -0.1533
 Octapole moment (field-independent basis, Debye-Ang**2):
  XXX=            -40.1870  YYY=             17.7978  ZZZ=             -0.1714  XYY=             44.9312
  XXY=            -13.8857  XXZ=             -6.5202  XZZ=             -0.7268  YZZ=             -4.7302
  YYZ=             10.3337  XYZ=             -0.0366
 Hexadecapole moment (field-independent basis, Debye-Ang**3):
 XXXX=          -3092.1941 YYYY=          -2907.2011 ZZZZ=           -787.8479 XXXY=              6.2552
 XXXZ=             -1.5623 YYYX=             -2.9172 YYYZ=             58.3433 ZZZX=             -6.3861
 ZZZY=             -3.9637 XXYY=           -972.9154 XXZZ=           -631.6918 YYZZ=           -601.0373
 XXYZ=            -49.7763 YYXZ=            -21.5879 ZZXY=            -15.4485
 N-N= 1.288322925026D+03 E-N=-4.272653881157D+03  KE= 7.285913364182D+02
 PrsmSu:  requested number of processors reduced to:  10 ShMem   1 Linda.
 Calling FoFJK, ICntrl=      2127 FMM=F ISym2X=0 I1Cent= 0 IOpClX= 0 NMat=1 NMatS=1 NMatT=0.
 ***** Axes restored to original set *****
 -------------------------------------------------------------------
 Center     Atomic                   Forces (Hartrees/Bohr)
 Number     Number              X              Y              Z
 -------------------------------------------------------------------
      1        6           0.001661715    0.023801963    0.002224425
      2        1          -0.003704570   -0.027131674   -0.002742919
      3        6           0.014615953    0.000210575    0.000290329
      4        6           0.000091168    0.005792051   -0.002727741
      5        6          -0.006764132   -0.006741889    0.005752877
      6        6           0.008281759    0.007226711   -0.006516049
      7        1           0.003560374   -0.015950894    0.006052072
      8        6           0.003545349   -0.011290260    0.002651637
      9        1           0.016576402    0.011362703   -0.008928237
     10        6           0.012326665   -0.005260597   -0.001838958
     11        1          -0.011233423   -0.009307854    0.008073176
     12        1          -0.003911369    0.015353223   -0.005403889
     13        1          -0.015360904    0.006036413    0.002710717
     14        6          -0.005201733    0.004097526    0.011591008
     15        6           0.002984333    0.005587546    0.000499118
     16        6          -0.003021364   -0.009251634   -0.009385843
     17        6           0.000411109    0.007261133    0.010843318
     18        1          -0.008211364   -0.015726166    0.000609282
     19        6          -0.005118846   -0.011042069    0.000720415
     20        1          -0.002987512    0.014971601    0.026380710
     21        6          -0.005442950   -0.002864773    0.012013738
     22        1          -0.000886522   -0.010272846   -0.013017788
     23        1           0.007793980    0.014728320   -0.001271617
     24        1           0.006994656    0.004471225   -0.014582313
     25        6          -0.007253017    0.007121521   -0.009989599
     26        6           0.003934212   -0.010330718    0.004020368
     27        6           0.000810875    0.005690372    0.001808220
     28        6          -0.001243455   -0.012196582   -0.002023832
     29        1          -0.005511965    0.016540998   -0.020849763
     30        6          -0.005905944    0.009123032   -0.007647610
     31        1          -0.002581727   -0.016657072   -0.005415792
     32        6          -0.007635693   -0.000075787   -0.011215125
     33        1           0.002695005    0.015538271    0.005522331
     34        1           0.006411597   -0.013190009    0.007949272
     35        1           0.009281339    0.002375637    0.013844063
 -------------------------------------------------------------------
 Cartesian Forces:  Max     0.027131674 RMS     0.009561176

 GradGradGradGradGradGradGradGradGradGradGradGradGradGradGradGradGradGrad
 Berny optimization.
 Internal  Forces:  Max     0.029813854 RMS     0.007839943
 Search for a local minimum.
 Step number   1 out of a maximum of  197
 All quantities printed in internal units (Hartrees-Bohrs-Radians)
 Mixed Optimization -- RFO/linear search
 Second derivative matrix not updated -- first step.
     Eigenvalues ---    0.00634   0.00645   0.00653   0.01529   0.01533
     Eigenvalues ---    0.01536   0.02138   0.02139   0.02146   0.02168
     Eigenvalues ---    0.02170   0.02171   0.02181   0.02184   0.02186
     Eigenvalues ---    0.02202   0.02202   0.02202   0.02212   0.02213
     Eigenvalues ---    0.02215   0.02215   0.02216   0.02216   0.02217
     Eigenvalues ---    0.02218   0.02219   0.02220   0.02220   0.02222
     Eigenvalues ---    0.04516   0.06373   0.06675   0.15996   0.15999
     Eigenvalues ---    0.15999   0.16000   0.16000   0.16000   0.16000
     Eigenvalues ---    0.16000   0.16000   0.16000   0.16000   0.16000
     Eigenvalues ---    0.16000   0.16000   0.16000   0.18941   0.19368
     Eigenvalues ---    0.22000   0.22000   0.22000   0.22000   0.22000
     Eigenvalues ---    0.22000   0.23476   0.23476   0.23477   0.24996
     Eigenvalues ---    0.24999   0.25000   0.31162   0.31350   0.31436
     Eigenvalues ---    0.31501   0.33475   0.33611   0.33961   0.34070
     Eigenvalues ---    0.34083   0.34090   0.34251   0.34254   0.34255
     Eigenvalues ---    0.34259   0.34268   0.34272   0.34281   0.34287
     Eigenvalues ---    0.34290   0.42409   0.42435   0.42483   0.42575
     Eigenvalues ---    0.42579   0.42614   0.46348   0.46348   0.46427
     Eigenvalues ---    0.46774   0.46775   0.46817   0.47219   0.47225
     Eigenvalues ---    0.47270   0.47326   0.47331   0.473701000.00000
     Eigenvalues --- 1000.000001000.000001000.000001000.000001000.00000
     Eigenvalues --- 1000.000001000.000001000.000001000.000001000.00000
     Eigenvalues --- 1000.000001000.000001000.000001000.000001000.00000
     Eigenvalues --- 1000.000001000.000001000.000001000.000001000.00000
     Eigenvalues --- 1000.000001000.000001000.000001000.000001000.00000
     Eigenvalues --- 1000.000001000.000001000.000001000.000001000.00000
     Eigenvalues --- 1000.000001000.000001000.000001000.000001000.00000
     Eigenvalues --- 1000.000001000.000001000.000001000.000001000.00000
     Eigenvalues --- 1000.000001000.000001000.000001000.000001000.00000
     Eigenvalues --- 1000.000001000.000001000.000001000.000001000.00000
     Eigenvalues --- 1000.000001000.000001000.000001000.000001000.00000
     Eigenvalues --- 1000.000001000.000001000.000001000.000001000.00000
     Eigenvalues --- 1000.000001000.000001000.000001000.000001000.00000
     Eigenvalues --- 1000.000001000.000001000.000001000.000001000.00000
     Eigenvalues --- 1000.000001000.000001000.000001000.000001000.00000
     Eigenvalues --- 1000.000001000.000001000.000001000.000001000.00000
     Eigenvalues --- 1000.000001000.000001000.000001000.000001000.00000
     Eigenvalues --- 1000.000001000.00000
 RFO step:  Lambda=-4.29274428D-02 EMin= 6.33630058D-03
 Linear search not attempted -- first point.
 Maximum step size (   0.300) exceeded in Quadratic search.
    -- Step size scaled by   0.575
 Iteration  1 RMS(Cart)=  0.12610567 RMS(Int)=  0.00285049
 Iteration  2 RMS(Cart)=  0.00586426 RMS(Int)=  0.00028978
 Iteration  3 RMS(Cart)=  0.00000908 RMS(Int)=  0.00028974
 Iteration  4 RMS(Cart)=  0.00000000 RMS(Int)=  0.00028974
 Variable       Old X    -DE/DX   Delta X   Delta X   Delta X     New X
                                 (Linear)    (Quad)   (Total)
    R1        2.12404  -0.02751   0.00000  -0.04461  -0.04461   2.07943
    R2        2.85349   0.02082   0.00000   0.03358   0.03358   2.88708
    R3        2.85067   0.02570   0.00000   0.04128   0.04128   2.89195
    R4        2.85188   0.02269   0.00000   0.03651   0.03651   2.88839
    R5        2.64322  -0.00437   0.00000  -0.00503  -0.00502   2.63820
    R6        2.63536  -0.00256   0.00000  -0.00284  -0.00284   2.63252
    R7        2.62511  -0.00407   0.00000  -0.00460  -0.00459   2.62051
    R8        2.07178  -0.01742   0.00000  -0.02609  -0.02609   2.04569
    R9        2.62848  -0.00272   0.00000  -0.00297  -0.00297   2.62551
   R10        2.07396  -0.02184   0.00000  -0.03282  -0.03282   2.04114
   R11        2.62907  -0.00611   0.00000  -0.00690  -0.00690   2.62217
   R12        2.06902  -0.01667   0.00000  -0.02487  -0.02487   2.04415
   R13        2.62621  -0.00630   0.00000  -0.00700  -0.00700   2.61921
   R14        2.06908  -0.01674   0.00000  -0.02497  -0.02497   2.04411
   R15        2.06844  -0.01672   0.00000  -0.02492  -0.02492   2.04352
   R16        2.64225  -0.00348   0.00000  -0.00392  -0.00390   2.63834
   R17        2.63768   0.00080   0.00000   0.00110   0.00111   2.63879
   R18        2.62618  -0.00359   0.00000  -0.00412  -0.00411   2.62207
   R19        2.07212  -0.01774   0.00000  -0.02658  -0.02658   2.04554
   R20        2.62717  -0.00319   0.00000  -0.00344  -0.00344   2.62373
   R21        2.08224  -0.02981   0.00000  -0.04539  -0.04539   2.03686
   R22        2.62802  -0.00838   0.00000  -0.00954  -0.00955   2.61847
   R23        2.06873  -0.01661   0.00000  -0.02476  -0.02476   2.04397
   R24        2.62666  -0.00664   0.00000  -0.00745  -0.00747   2.61918
   R25        2.06896  -0.01671   0.00000  -0.02493  -0.02493   2.04404
   R26        2.06849  -0.01678   0.00000  -0.02501  -0.02501   2.04348
   R27        2.63765   0.00077   0.00000   0.00103   0.00105   2.63870
   R28        2.64002  -0.00424   0.00000  -0.00477  -0.00475   2.63527
   R29        2.62605  -0.00460   0.00000  -0.00505  -0.00504   2.62101
   R30        2.07991  -0.02549   0.00000  -0.03866  -0.03866   2.04125
   R31        2.62749  -0.00289   0.00000  -0.00330  -0.00331   2.62418
   R32        2.07191  -0.01770   0.00000  -0.02651  -0.02651   2.04540
   R33        2.62800  -0.00552   0.00000  -0.00624  -0.00625   2.62175
   R34        2.06880  -0.01671   0.00000  -0.02491  -0.02491   2.04389
   R35        2.62770  -0.00836   0.00000  -0.00948  -0.00950   2.61821
   R36        2.06904  -0.01668   0.00000  -0.02488  -0.02488   2.04416
   R37        2.06858  -0.01684   0.00000  -0.02510  -0.02510   2.04349
    A1        1.85837  -0.00029   0.00000  -0.01910  -0.01893   1.83944
    A2        1.85546  -0.00922   0.00000  -0.04549  -0.04455   1.81091
    A3        1.86750  -0.00594   0.00000  -0.03545  -0.03470   1.83280
    A4        1.97340   0.00297   0.00000   0.02533   0.02341   1.99682
    A5        1.92519  -0.00402   0.00000   0.00967   0.00732   1.93252
    A6        1.97544   0.01477   0.00000   0.05386   0.05268   2.02812
    A7        2.06497  -0.00201   0.00000  -0.00385  -0.00385   2.06112
    A8        2.14066   0.00958   0.00000   0.01890   0.01890   2.15956
    A9        2.07753  -0.00758   0.00000  -0.01506  -0.01505   2.06248
   A10        2.10230   0.00531   0.00000   0.01115   0.01115   2.11346
   A11        2.09317  -0.00330   0.00000  -0.00741  -0.00741   2.08576
   A12        2.08770  -0.00201   0.00000  -0.00375  -0.00375   2.08395
   A13        2.10167   0.00315   0.00000   0.00687   0.00687   2.10853
   A14        2.09279   0.00055   0.00000   0.00257   0.00257   2.09536
   A15        2.08869  -0.00370   0.00000  -0.00947  -0.00947   2.07922
   A16        2.09700   0.00010   0.00000  -0.00033  -0.00033   2.09666
   A17        2.09193   0.00001   0.00000   0.00034   0.00034   2.09227
   A18        2.09426  -0.00011   0.00000  -0.00001   0.00000   2.09426
   A19        2.09854   0.00133   0.00000   0.00280   0.00279   2.10133
   A20        2.08966  -0.00060   0.00000  -0.00122  -0.00122   2.08844
   A21        2.09498  -0.00073   0.00000  -0.00158  -0.00158   2.09340
   A22        2.08933  -0.00231   0.00000  -0.00543  -0.00544   2.08389
   A23        2.09645   0.00117   0.00000   0.00274   0.00274   2.09919
   A24        2.09740   0.00115   0.00000   0.00269   0.00269   2.10009
   A25        2.06570  -0.01298   0.00000  -0.02550  -0.02552   2.04018
   A26        2.14241   0.02508   0.00000   0.04921   0.04919   2.19160
   A27        2.07507  -0.01210   0.00000  -0.02370  -0.02367   2.05140
   A28        2.10306   0.00831   0.00000   0.01762   0.01764   2.12070
   A29        2.09376  -0.00488   0.00000  -0.01085  -0.01086   2.08290
   A30        2.08636  -0.00344   0.00000  -0.00676  -0.00678   2.07959
   A31        2.10381   0.00438   0.00000   0.00973   0.00973   2.11354
   A32        2.08568   0.00422   0.00000   0.01328   0.01328   2.09896
   A33        2.09366  -0.00860   0.00000  -0.02304  -0.02304   2.07062
   A34        2.09765   0.00000   0.00000  -0.00105  -0.00105   2.09660
   A35        2.09145   0.00006   0.00000   0.00070   0.00070   2.09215
   A36        2.09408  -0.00006   0.00000   0.00035   0.00035   2.09443
   A37        2.09779   0.00244   0.00000   0.00500   0.00497   2.10276
   A38        2.09022  -0.00117   0.00000  -0.00237  -0.00235   2.08787
   A39        2.09517  -0.00127   0.00000  -0.00263  -0.00262   2.09255
   A40        2.08898  -0.00303   0.00000  -0.00758  -0.00761   2.08137
   A41        2.09699   0.00150   0.00000   0.00374   0.00376   2.10074
   A42        2.09722   0.00153   0.00000   0.00384   0.00385   2.10107
   A43        2.12735   0.01655   0.00000   0.03238   0.03230   2.15965
   A44        2.07775  -0.00637   0.00000  -0.01262  -0.01268   2.06507
   A45        2.07795  -0.01021   0.00000  -0.02006  -0.02007   2.05788
   A46        2.10368   0.00377   0.00000   0.00841   0.00835   2.11202
   A47        2.07601   0.00415   0.00000   0.01308   0.01296   2.08897
   A48        2.10328  -0.00787   0.00000  -0.02098  -0.02110   2.08219
   A49        2.10058   0.00695   0.00000   0.01484   0.01484   2.11542
   A50        2.09444  -0.00406   0.00000  -0.00908  -0.00909   2.08534
   A51        2.08817  -0.00289   0.00000  -0.00575  -0.00576   2.08240
   A52        2.09589   0.00211   0.00000   0.00423   0.00423   2.10012
   A53        2.09154  -0.00096   0.00000  -0.00185  -0.00186   2.08967
   A54        2.09575  -0.00114   0.00000  -0.00237  -0.00238   2.09337
   A55        2.09790  -0.00009   0.00000  -0.00099  -0.00101   2.09688
   A56        2.09125   0.00018   0.00000   0.00088   0.00090   2.09214
   A57        2.09404  -0.00009   0.00000   0.00010   0.00012   2.09415
[...]
 ,-0.00003369,0.00038699,-0.00033914,0.00002438,-0.00002573,0.00005946,
 0.00005964,-0.00033469,0.00000322,0.00018394,0.00001145,-0.00001642,0.
 00002348,0.00007098,0.00034297,-0.00020818,-0.00001785,-0.00001581,0.0
 0000374,-0.00000831,0.00002136,0.00001052,-0.00001610,0.00000349,-0.00
 000258,0.00164456,-0.00047032,0.00068522,0.00012936,-0.00035529,-0.000
 20302,0.00011094,-0.00026192,0.00027411,-0.00033774,-0.00009855,0.0002
 2277,0.00003160,-0.00000879,-0.00000328,0.00004739,-0.00008275,-0.0004
 8208,-0.00029927,0.00006505,0.00004880,0.00018127,0.00026826,0.0002281
 0,-0.00004099,0.00003374,0.00001894,0.00001372,-0.00004454,0.00001205,
 -0.00000652,-0.00000411,0.00000351,-0.06145285,0.07828388,0.01143881,-
 0.02167939,-0.04511539,-0.07102414,-0.10111479,-0.07635656,-0.26915563
 ,0.06782555,-0.02708076,0.06102952,0.00015645,-0.00049140,-0.00101501,
 0.22008202,0.15239711,0.56331428,-0.00033096,-0.00009917,0.00283518,-0
 .00058970,-0.00101458,-0.00051723,-0.00015025,-0.00030655,-0.00002215,
 0.00001017,0.00009931,-0.00006325,0.00011198,-0.00008482,-0.00007211,0
 .00000093,-0.00003125,0.00001658,-0.00003272,-0.00001325,0.00004124,0.
 00002221,-0.00002691,0.00004527,-0.00000719,-0.00000933,0.00001336,0.0
 0001772,-0.00000432,-0.00000653,0.00000358,0.00000457,-0.00000135,0.00
 001658,-0.00000981,0.00001049,0.00000865,-0.00000720,0.00000257,0.0003
 4473,0.00007914,-0.00005279,-0.00009082,0.00005997,0.00011569,-0.00002
 435,0.00013592,0.00008259,0.00005498,0.00001152,-0.00005332,-0.0000370
 0,-0.00002079,-0.00004246,-0.00008647,0.00000096,0.00005953,0.00001035
 ,-0.00009735,-0.00004511,-0.00006968,-0.00004619,0.00001098,0.00000142
 ,-0.00000472,0.00001568,-0.00001145,-0.00002542,0.00001841,-0.00000039
 ,-0.00001523,0.00000821,0.00132685,0.02197729,0.01553592,-0.00050528,0
 .00586346,-0.00426557,-0.06904289,0.04157226,0.01613223,-0.00105885,-0
 .00021057,-0.00029419,-0.00006943,0.00096265,0.00085684,0.00829206,-0.
 01883534,-0.01460284,0.06241023,-0.00244286,-0.00062990,0.00084597,0.0
 0064155,0.00042056,0.00038866,0.00008257,0.00036681,-0.00023424,-0.000
 02416,0.00006161,0.00004471,-0.00016566,0.00008908,0.00006002,-0.00001
 610,-0.00002055,0.00002886,0.00000819,-0.00003054,-0.00002820,-0.00002
 754,0.00005611,-0.00001203,-0.00000184,-0.00003608,-0.00002077,-0.0000
 0920,0.00000766,-0.00000359,-0.00001475,-0.00000229,-0.00000309,-0.000
 01641,0.00000291,-0.00000432,-0.00000520,-0.00000222,-0.00000406,0.000
 28544,0.00029413,0.00039432,-0.00013693,0.00009419,0.00036004,-0.00023
 977,-0.00005427,-0.00016291,0.00008620,0.00011969,0.00003659,0.0000302
 2,-0.00003225,0.00000107,-0.00011719,0.00001380,0.00016966,0.00013154,
 -0.00006318,-0.00009590,-0.00003461,-0.00007308,-0.00004479,-0.0000027
 3,-0.00001738,-0.00000464,0.00002542,-0.00000236,-0.00000267,0.0000142
 7,-0.00000133,-0.00001258,0.00029877,-0.01346315,-0.01713526,0.0060275
 4,0.00060655,-0.00015666,0.04191574,-0.25552709,-0.14416282,-0.0001447
 1,0.00030101,0.00102281,0.00002166,-0.00087987,-0.00075098,0.00400540,
 0.00091694,0.00002271,-0.04929437,0.26486489,0.00083820,0.00158617,-0.
 00119284,-0.00005285,0.00070884,0.00055007,0.00012623,0.00014706,0.000
 20569,0.00006450,-0.00014646,0.00006054,0.00001311,0.00003543,0.000027
 97,-0.00001927,0.00001734,-0.00002067,0.00001284,0.00002492,-0.0000086
 4,0.00000383,0.00001864,-0.00004323,-0.00000137,0.00001222,-0.00000207
 ,0.00002623,-0.00001447,0.00000884,0.00001762,-0.00000093,-0.00000724,
 0.00000166,-0.00000785,-0.00000473,0.00000468,0.00000150,-0.00000171,-
 0.00006867,0.00011518,-0.00012078,0.00004703,-0.00007309,-0.00009171,0
 .00000050,-0.00003883,-0.00000573,-0.00002338,-0.00001508,-0.00004258,
 -0.00000420,0.00000327,-0.00000273,0.00004619,0.00003224,-0.00000812,-
 0.00000738,0.00000737,0.00004909,-0.00001565,0.00001598,0.00001894,0.0
 0000151,0.00000728,0.00001215,-0.00000493,-0.00000900,-0.00000192,-0.0
 0000325,-0.00000408,0.00001419,-0.00333549,0.00726650,0.00840746,-0.00
 412578,-0.00063168,0.00286499,0.01601526,-0.14513126,-0.16461033,-0.00
 025101,0.00091316,-0.00039723,-0.00006070,0.00041312,0.00019935,0.0067
 1051,-0.02503820,-0.01039970,-0.01185897,0.16040668,0.16706343,-0.0000
 8149,0.00016457,0.00143096,-0.00027118,-0.00053800,-0.00010535,0.00028
 232,0.00018762,-0.00028984,-0.00029747,0.00002749,-0.00008909,0.000124
 63,-0.00022396,-0.00001455,0.00021722,-0.00017295,0.00001475,0.0000064
 0,0.00003838,0.00001199,-0.00019196,-0.00002533,0.00010419,0.00001071,
 -0.00002131,0.00002160,0.00000604,0.00022330,-0.00011020,-0.00002077,-
 0.00001509,0.00000319,-0.00001510,0.00001984,-0.00000378,-0.00001853,0
 .00000387,-0.00000229,0.00033889,-0.00029256,0.00038808,0.00021043,-0.
 00000682,-0.00023829,0.00010080,-0.00011092,-0.00006368,-0.00015429,-0
 .00009948,0.00006305,0.00000125,-0.00000040,0.00001655,-0.00002649,-0.
 00007695,-0.00026094,-0.00030555,-0.00016131,-0.00013748,0.00011937,0.
 00013809,0.00004281,-0.00001093,0.00002078,-0.00002099,0.00002989,0.00
 002008,-0.00003997,0.00000368,-0.00000345,-0.00001730,-0.03113127,0.04
 466567,0.01436715,-0.03512302,-0.01222259,-0.06052611,0.05041141,-0.03
 251327,0.01373811,-0.24099954,0.14964509,-0.03765827,0.00225947,0.0014
 9348,-0.00589028,-0.13410872,0.02149672,-0.03682083,0.00119259,0.00203
 680,-0.00681044,0.55009869,0.00013374,-0.00114615,-0.00194896,-0.00001
 925,0.00105906,-0.00027976,-0.00035036,-0.00050685,0.00013137,0.000409
 00,0.00004534,0.00020357,-0.00037683,0.00031167,0.00005351,-0.00033657
 ,0.00030876,0.00001899,-0.00000643,-0.00008747,-0.00005020,0.00033653,
 0.00000907,-0.00016465,-0.00001458,0.00000806,-0.00001975,-0.00008874,
 -0.00030497,0.00019331,0.00000369,0.00001271,-0.00000664,-0.00000228,-
 0.00000985,-0.00000607,0.00000931,-0.00000874,0.00000079,-0.00111153,0
 .00057249,-0.00031450,-0.00022402,0.00029664,0.00034964,-0.00019771,0.
 00013142,-0.00036176,0.00033971,0.00016620,-0.00015631,-0.00000672,0.0
 0000595,0.00000516,-0.00002469,0.00010352,0.00050263,0.00028476,0.0000
 5579,-0.00000761,-0.00018085,-0.00026764,-0.00023352,0.00003820,-0.000
 03393,-0.00000625,-0.00000720,0.00004547,-0.00002070,0.00000768,0.0000
 0310,0.00000310,0.04533904,-0.08161291,-0.01624924,0.02853616,0.058835
 47,0.07604223,-0.07409076,0.02298079,-0.06825101,0.09915284,-0.2285694
 1,-0.02339812,0.00121317,0.00330055,-0.00408999,0.07245386,-0.26820025
 ,-0.08780609,0.00248996,0.00376293,-0.00212017,-0.17874026,0.58538464,
 0.00105425,-0.00022277,-0.00097610,-0.00011336,0.00040637,-0.00012768,
 0.00000566,-0.00024396,-0.00008971,0.00004955,0.00009186,-0.00001184,-
 0.00013372,-0.00003806,0.00004154,-0.00002555,0.00008070,0.00001531,0.
 00004958,-0.00001717,-0.00004235,0.00006368,-0.00002188,-0.00001716,0.
 00000114,-0.00000388,-0.00001138,-0.00006984,-0.00000616,0.00004800,-0
 .00004271,-0.00001114,-0.00000341,-0.00001962,0.00001158,-0.00001068,-
 0.00001560,0.00000219,-0.00000503,-0.00098377,0.00005539,-0.00004469,0
 .00008363,0.00022870,-0.00009985,-0.00002639,-0.00010812,-0.00021109,0
 .00008901,-0.00001940,-0.00004302,-0.00001742,0.00000950,0.00002696,0.
 00002876,0.00007488,0.00013327,0.00004392,0.00000803,-0.00000629,-0.00
 002256,-0.00005174,-0.00010243,0.00002397,-0.00000750,-0.00003469,0.00
 001444,0.00003317,-0.00003428,0.00001093,0.00000721,-0.00000339,0.0146
 4999,-0.01807043,-0.00655087,-0.02386384,0.03177158,0.01245260,-0.0226
 7404,-0.02439762,-0.03713617,-0.08485044,0.03392313,-0.14781703,-0.005
 90463,-0.00374080,-0.00133722,0.00979794,-0.14506623,-0.20577548,-0.00
 652049,-0.00268925,-0.00058279,0.25537071,0.17717976,0.62334208,0.0003
 8786,-0.00082921,-0.00017508,-0.00010088,-0.00010927,-0.00015123,0.000
 10790,-0.00001083,0.00003404,-0.00004697,0.00001834,0.00000453,0.00003
 051,0.00000833,0.00001586,0.00001736,-0.00000981,0.00002052,0.00000357
 ,-0.00001225,-0.00001413,-0.00002986,0.00001548,0.00001952,0.00000354,
 -0.00000911,-0.00000744,-0.00002993,0.00003906,0.00000444,-0.00001585,
 -0.00000853,-0.00000411,-0.00000701,-0.00000114,-0.00000841,-0.0000071
 1,-0.00000220,-0.00000772,-0.00010622,-0.00001435,-0.00004643,-0.00000
 243,0.00001611,-0.00003765,0.00002639,0.00002574,0.00002526,0.00001209
 ,-0.00000676,-0.00001130,-0.00000439,0.00000468,0.00000413,0.00000868,
 0.00000151,-0.00000122,0.00000883,0.00001198,-0.00001129,-0.00000263,-
 0.00000415,-0.00000795,0.00000224,-0.00000356,-0.00000607,-0.00000155,
 -0.00000068,0.00000553,-0.00000050,0.00000229,-0.00000256,0.00099169,0
 .00216339,-0.00664739,0.00821952,-0.01853075,-0.01411240,-0.00121258,-
 0.00011680,-0.00034816,-0.06963055,0.04277438,0.01643244,-0.00115373,-
 0.00177319,0.00264599,-0.00006565,0.00593425,-0.00461079,-0.00044543,-
 0.00043947,0.00049870,0.00246184,0.02229312,0.01717645,0.06202694,0.00
 031490,-0.00021512,0.00025054,-0.00002439,-0.00003996,-0.00005975,0.00
 005890,-0.00002097,-0.00009011,-0.00006160,0.00002322,-0.00001006,-0.0
 0001252,-0.00003984,0.00001252,0.00003817,-0.00000283,0.00001226,0.000
 01988,-0.00000406,-0.00001553,-0.00002122,-0.00000168,0.00002356,0.000
 00662,-0.00001073,0.00000682,-0.00002433,0.00004619,-0.00000132,-0.000
 02541,-0.00001439,-0.00000015,-0.00000938,0.00000763,-0.00000658,-0.00
 001631,0.00000284,-0.00000620,-0.00013794,-0.00000420,-0.00002307,0.00
 002087,0.00004216,-0.00003404,0.00003434,0.00003518,-0.00001259,0.0000
 1382,-0.00000233,-0.00001253,-0.00000306,-0.00000158,0.00000891,-0.000
 02302,-0.00001761,0.00000501,-0.00001351,-0.00003510,0.00000540,-0.000
 00276,-0.00000633,-0.00001912,0.00000231,-0.00000587,-0.00001405,0.000
 01023,0.00000451,-0.00000197,0.00000403,0.00000082,-0.00001252,0.00189
 514,0.00359159,-0.00255433,0.00388553,0.00104921,0.00020554,-0.0002406
 7,0.00037531,0.00095592,0.04253989,-0.25815634,-0.14641394,-0.00236031
 ,-0.00051440,0.00152494,0.00624324,0.00088640,-0.00047797,-0.00043782,
 -0.00042418,0.00029426,-0.00010367,-0.01213811,-0.01660071,-0.04989633
 ,0.26696258,0.00049234,-0.00095585,-0.00032169,-0.00019796,-0.00007358
 ,-0.00034398,0.00029414,-0.00006343,0.00001235,-0.00002598,0.00000940,
 0.00003626,-0.00008966,0.00004429,0.00004180,-0.00000278,0.00002016,-0
 .00000558,0.00001592,0.00001956,-0.00001517,0.00002087,0.00001531,0.00
 000394,0.00000986,-0.00001461,-0.00002038,-0.00004436,0.00001305,0.000
 02467,-0.00001176,-0.00000363,0.00000207,-0.00002172,0.00001363,-0.000
 01915,-0.00001514,0.00000119,-0.00000468,-0.00022240,-0.00014145,0.000
 06855,0.00008039,0.00006068,-0.00010759,-0.00000718,0.00003107,-0.0001
 1593,0.00000072,-0.00000596,-0.00000874,0.00001233,0.00001148,0.000020
 73,-0.00001579,-0.00000457,0.00000773,-0.00000967,-0.00006419,0.000027
 33,0.00001269,0.00000585,-0.00002668,0.00000418,0.00000036,-0.00001723
 ,0.00002347,0.00001259,-0.00002149,0.00000718,0.00000042,-0.00001004,-
 0.00657953,-0.00199450,-0.00059338,0.00659683,-0.02500875,-0.01027046,
 -0.00032600,0.00100340,-0.00038946,0.01643753,-0.14649340,-0.16593875,
 0.00187814,0.00229746,-0.00076862,-0.00438270,-0.00084390,0.00325691,0
 .00051195,0.00028397,-0.00041693,-0.00370587,0.00867120,0.00951028,-0.
 01332064,0.16141447,0.16705078,-0.00053939,0.00076766,0.00026324,-0.00
 002022,-0.00006480,-0.00003036,0.00005070,-0.00018141,-0.00022578,-0.0
 0003071,0.00007153,-0.00002264,-0.00010372,0.00001025,0.00003131,-0.00
 000476,0.00002912,-0.00000396,0.00001550,-0.00000266,-0.00000841,0.000
 03312,-0.00000250,0.00000925,0.00000487,-0.00000474,0.00000434,-0.0000
 3171,-0.00001263,0.00001690,-0.00002163,-0.00000062,0.00001113,-0.0000
 1031,0.00001193,-0.00000405,-0.00001298,0.00000384,0.00000046,-0.00012
 214,-0.00006093,0.00011018,0.00006869,0.00000853,-0.00006682,0.0000414
 8,0.00002983,-0.00001556,0.00000170,-0.00001402,-0.00001381,-0.0000111
 3,0.00000427,0.00000984,-0.00001409,-0.00000716,-0.00000390,-0.0000208
 8,-0.00003545,0.00001125,0.00000774,-0.00000397,-0.00001735,-0.0000041
 4,0.00000021,-0.00002091,0.00000619,0.00000956,-0.00000402,0.00000394,
 0.00000274,-0.00001389,0.00254215,0.00127760,-0.00619946,0.00002053,-0
 .00103439,0.00010946,-0.00912292,0.01658782,-0.00135842,0.00454254,0.0
 0272848,-0.00212281,-0.00055021,-0.00035384,0.00047114,-0.21935501,0.1
 5052207,-0.05340683,-0.00136463,-0.00253294,0.00196638,0.00194712,0.00
 017761,-0.00379084,-0.00017148,0.00003097,-0.00006339,0.22350167,-0.00
 031851,0.00014347,-0.00009251,0.00001116,-0.00003432,0.00003214,-0.000
 01958,-0.00005704,0.00005138,0.00003336,0.00001798,0.00000943,0.000004
 42,0.00003730,0.00000451,-0.00003707,0.00001480,0.00000943,-0.00001110
 ,-0.00001636,-0.00000512,0.00002438,0.00001091,-0.00000864,-0.00000364
 ,-0.00000183,-0.00000827,-0.00000554,-0.00002619,0.00001913,0.00000144
 ,0.00000252,-0.00000419,0.00000178,-0.00000839,-0.00000220,0.00000534,
 -0.00000471,-0.00000222,0.00011667,0.00001527,0.00005182,-0.00000961,-
 0.00004768,0.00001037,-0.00002939,-0.00001573,0.00002372,-0.00001813,-
 0.00000177,0.00000802,-0.00000043,-0.00000421,-0.00000712,0.00000768,0
 .00003263,-0.00001132,0.00003743,0.00000018,-0.00002161,-0.00000597,0.
 00001007,0.00002887,-0.00000172,0.00000194,0.00000858,-0.00000310,-0.0
 0002133,0.00000978,0.00000080,-0.00000376,0.00001139,0.00144999,0.0033
 0026,-0.00377223,-0.00103518,-0.00015029,-0.00042567,-0.00597356,0.008
 22184,-0.00440545,0.00241137,-0.00123915,-0.00634003,-0.00034758,-0.00
 036764,0.00042764,0.15068939,-0.19684197,0.03361429,-0.00177033,-0.000
 49672,0.00229844,0.02260524,-0.01186783,0.00950930,0.00100600,-0.00086
 326,0.00038556,-0.16639698,0.20064834,-0.00076970,0.00098096,0.0000918
 7,0.00003668,-0.00001851,0.00008133,-0.00004063,-0.00006954,-0.0004284
 9,-0.00007463,0.00000438,0.00001147,-0.00005435,0.00000310,0.00002909,
 0.00004780,-0.00000659,0.00001024,0.00000761,-0.00000091,-0.00000294,-
 0.00002538,0.00001261,0.00003847,0.00000007,-0.00000537,-0.00001661,-0
 .00002417,0.00004341,-0.00002157,-0.00000845,-0.00000387,0.00000397,-0
 .00001075,0.00001193,-0.00000215,-0.00000793,0.00000164,-0.00000198,-0
 .00015088,-0.00004346,0.00005747,0.00003785,0.00002113,-0.00006491,0.0
 0004519,0.00000488,-0.00003884,0.00000906,-0.00001813,-0.00000368,-0.0
 0000698,0.00001368,0.00000939,0.00001188,-0.00001714,-0.00000995,-0.00
 004158,0.00000329,0.00000604,0.00002523,0.00000306,-0.00002929,-0.0000
 0189,0.00000381,-0.00001293,0.00000366,0.00002149,-0.00001306,-0.00000
 277,0.00000656,-0.00000940,-0.00567958,-0.00409978,-0.00124842,0.00023
 750,-0.00046092,-0.00107156,-0.02208032,0.02107730,0.00011255,-0.00244
 907,-0.00600435,0.00041758,0.00041965,0.00046851,-0.00034464,-0.053328
 54,0.03344572,-0.07779372,0.00267974,0.00150562,-0.00078192,0.01681061
 ,-0.01578918,0.00983431,0.00079666,-0.00066907,0.00018903,0.06184620,-
 0.03274043,0.07173970,-0.00035558,-0.00036999,0.00053033,-0.00000474,-
 0.00013768,-0.00009157,0.00005256,-0.00003323,-0.00004161,0.00000315,0
 .00003437,-0.00001698,-0.00005862,-0.00002282,-0.00000595,0.00000729,0
 .00001627,-0.00000546,0.00001537,0.,-0.00000333,0.00002427,-0.00002254
 ,-0.00000639,0.00000440,-0.00000319,0.00002276,-0.00000644,-0.00000360
 ,0.00001123,-0.00001662,-0.00000716,0.00000440,-0.00000386,0.00001001,
 -0.00000059,-0.00001305,0.00000404,-0.00000015,0.00002021,0.00002921,0
 .00009787,0.00000032,0.00000705,0.00000713,0.00002814,0.00003479,0.000
 00533,0.00000618,0.00000688,-0.00000216,-0.00000178,-0.00000182,0.0000
 0409,-0.00001826,-0.00001591,-0.00000217,-0.00002001,-0.00001826,0.000
 00443,-0.00000143,-0.00000357,-0.00000891,-0.00000225,-0.00000361,-0.0
 0000813,0.00000508,0.00000176,0.00000191,0.00000323,0.00000018,-0.0000
 0965,-0.00045628,0.00033508,0.00088994,0.00081257,0.00667406,-0.003004
 34,0.00409221,0.00367644,-0.00178417,-0.00886184,-0.00704888,-0.022322
 17,-0.00067474,-0.00029158,-0.00093122,0.00775577,0.00338867,0.0061580
 5,0.00009246,0.00005511,0.00024836,-0.16706645,-0.01743961,-0.14943877
 ,-0.00127421,-0.00170460,0.00264399,-0.00127587,-0.00241903,0.00174217
 ,0.16718882,-0.00039601,-0.00022560,0.00037705,0.00007003,-0.00002751,
 -0.00000157,0.00004377,0.00000868,-0.00002165,-0.00002362,0.00000799,0
 .00004186,-0.00001817,0.00004720,0.00001714,0.00000067,-0.00000283,0.0
 0000709,0.00000805,-0.00000354,-0.00001056,-0.00002133,0.00001531,0.00
 000278,-0.00000104,-0.00000846,-0.00000873,-0.00000326,0.00000517,-0.0
 0000928,-0.00000460,-0.00000074,-0.00000121,-0.00000089,-0.00000033,0.
 00000157,0.00000034,0.00000039,-0.00000091,0.00002276,0.00005768,0.000
 07530,-0.00001983,0.00000273,0.00002793,-0.00001977,0.00001152,-0.0000
 0362,0.00000388,0.00001073,0.00000543,0.00000422,-0.00000432,0.0000026
 5,-0.00000118,0.00000466,0.00000642,0.00002625,-0.00000687,-0.00001004
 ,-0.00000186,-0.00000633,-0.00000039,-0.00000096,-0.00000300,-0.000001
 22,-0.00000021,-0.00000109,0.00000366,0.00000178,0.00000058,-0.0000020
 7,0.00030450,-0.00125244,0.00009501,0.00625767,-0.00045472,-0.00177137
 ,0.00408594,-0.00206279,-0.00523498,0.01534916,0.00900713,0.02072576,0
 .00060030,0.00017662,0.00091490,-0.01908808,0.00193663,-0.02434390,-0.
 00089171,-0.00022242,-0.00109451,-0.01745869,-0.07264554,-0.04207652,-
 0.00253627,-0.00050874,0.00135271,-0.00156499,-0.00038732,0.00231416,0
 .01527314,0.06653156,0.00035428,0.00033176,-0.00037886,0.00000961,0.00
 010507,0.00003823,0.00003014,-0.00000572,-0.00007057,-0.00002679,-0.00
 000472,-0.00003202,-0.00004200,-0.00003185,0.00000935,0.00001990,0.000
 00901,-0.00001683,0.00001403,0.00001602,0.00000065,0.00001199,-0.00001
 387,0.00000507,0.00000693,0.00000172,0.00000966,-0.00001376,0.00000840
 ,0.00000480,-0.00000750,-0.00000269,0.00000813,-0.00000771,0.00001136,
 -0.00000553,-0.00001153,0.00000532,0.00000146,-0.00014541,-0.00006478,
 -0.00002976,0.00004578,0.00004109,-0.00004400,0.00002810,0.00002144,-0
 .00004320,0.00001201,0.00000015,-0.00001038,0.00000316,0.00000389,0.00
 001080,-0.00002593,-0.00003116,0.00001543,-0.00004120,-0.00003606,0.00
 002594,0.00000406,-0.00000654,-0.00002458,0.00000080,-0.00000203,-0.00
 001443,0.00001163,0.00001816,-0.00001294,0.00000302,0.00000226,-0.0000
 1501,0.00099957,0.00017650,0.00036791,-0.00340994,-0.00136942,0.003887
 77,-0.00144159,-0.00564225,0.00189135,-0.00134697,-0.00464790,-0.00061
 487,-0.00006753,-0.00011051,-0.00026196,-0.01450659,0.00106529,-0.0102
 8416,-0.00057414,-0.00004294,-0.00073911,-0.14957821,-0.04207478,-0.25
 432971,0.00184790,0.00231547,-0.00083648,0.00253212,0.00133318,-0.0007
 3648,0.16531175,0.04862113,0.26222434||0.00000117,-0.00000445,0.000019
 97,0.00000131,-0.00000030,-0.00000759,-0.00001002,-0.00003169,0.000011
 59,0.00003143,0.00000793,-0.00000930,-0.00003523,0.00003514,-0.0000113
 6,-0.00002525,0.00003149,-0.00000062,-0.00000423,0.00000035,0.00000182
 ,0.00004526,0.00000527,-0.00001169,-0.00000225,-0.00000169,0.00000661,
 -0.00001254,-0.00004029,0.00001718,0.00000349,-0.00000380,0.00000057,-
 0.00000326,-0.00000124,0.00000105,0.00000283,0.00000299,-0.00000311,-0
 .00001517,-0.00003619,-0.00003274,-0.00000494,0.00000811,0.00004615,0.
 00004439,0.00003740,-0.00003075,0.00002721,0.00002688,-0.00002812,0.00
 000188,-0.00000006,-0.00000544,-0.00000878,0.00000991,0.00005807,-0.00
 000516,-0.00000354,-0.00000537,-0.00002714,-0.00004127,-0.00002018,-0.
 00000182,-0.00000201,0.00000201,0.00000016,-0.00000207,-0.00000451,0.0
 0000106,0.00000244,0.00000298,-0.00000638,-0.00000568,-0.00000074,0.00
 000856,0.00001399,0.00001514,0.00000099,0.00000236,-0.00000384,-0.0000
 1022,0.00000687,-0.00001261,0.00000134,-0.00000406,-0.00000116,0.00000
 038,-0.00000067,0.00000646,0.00000002,0.00000046,0.00000158,0.00000043
 ,-0.00001251,-0.00000182,0.00000013,-0.00000325,0.00000218,0.00000089,
 0.00000162,-0.00000113,-0.00000051,0.00000154,-0.00000126|||@


 TO SEE A WORLD IN A GRAIN OF SAND
 AND A HEAVEN IN A WILD FLOWER
 HOLD INFINITY IN THE PALM OF YOUR HAND
 AND ETERNITY IN AN HOUR

                       -- WILLIAM BLAKE
 Job cpu time:  0 days  0 hours  6 minutes 55.0 seconds.
 File lengths (MBytes):  RWF=    350 Int=      0 D2E=      0 Chk=      7 Scr=      1
 Normal termination of Gaussian 09 at Mon Sep 06 20:10:39 2021.
