 Entering Link 1 = b:\programy\g09w\l1.exe PID=      1840.
  
 Copyright (c) 1988,1990,1992,1993,1995,1998,2003,2009, Gaussian, Inc.
                  All Rights Reserved.
  
 This is part of the Gaussian(R) 09 program.  It is based on
 the Gaussian(R) 03 system (copyright 2003, Gaussian, Inc.),
 the Gaussian(R) 98 system (copyright 1998, Gaussian, Inc.),
 the Gaussian(R) 94 system (copyright 1995, Gaussian, Inc.),
 the Gaussian 92(TM) system (copyright 1992, Gaussian, Inc.),
 the Gaussian 90(TM) system (copyright 1990, Gaussian, Inc.),
 the Gaussian 88(TM) system (copyright 1988, Gaussian, Inc.),
 the Gaussian 86(TM) system (copyright 1986, Carnegie Mellon
 University), and the Gaussian 82(TM) system (copyright 1983,
 Carnegie Mellon University). Gaussian is a federally registered
 trademark of Gaussian, Inc.
  
 This software contains proprietary and confidential information,
 including trade secrets, belonging to Gaussian, Inc.
  
 This software is provided under written license and may be
 used, copied, transmitted, or stored only in accord with that
 written license.
  
 The following legend is applicable only to US Government
 contracts under FAR:
  
                    RESTRICTED RIGHTS LEGEND
  
 Use, reproduction and disclosure by the US Government is
 subject to restrictions as set forth in subparagraphs (a)
 and (c) of the Commercial Computer Software - Restricted
 Rights clause in FAR 52.227-19.
  
 Gaussian, Inc.
 340 Quinnipiac St., Bldg. 40, Wallingford CT 06492
  
  
 ---------------------------------------------------------------
 Warning -- This program may not be used in any manner that
 competes with the business of Gaussian, Inc. or will provide
 assistance to any competitor of Gaussian, Inc.  The licensee
 of this program is prohibited from giving any competitor of
 Gaussian, Inc. access to this program.  By using this program,
 the user acknowledges that Gaussian, Inc. is engaged in the
 business of creating and licensing software in the field of
 computational chemistry and represents and warrants to the
 licensee that it is not a competitor of Gaussian, Inc. and that
 it will not use this program in any manner prohibited above.
 ---------------------------------------------------------------
  

 Cite this work as:
 Gaussian 09, Revision A.02,
 M. J. Frisch, G. W. Trucks, H. B. Schlegel, G. E. Scuseria, 
 M. A. Robb, J. R. Cheeseman, G. Scalmani, V. Barone, B. Mennucci, 
 G. A. Petersson, H. Nakatsuji, M. Caricato, X. Li, H. P. Hratchian, 
 A. F. Izmaylov, J. Bloino, G. Zheng, J. L. Sonnenberg, M. Hada, 
 M. Ehara, K. Toyota, R. Fukuda, J. Hasegawa, M. Ishida, T. Nakajima, 
 Y. Honda, O. Kitao, H. Nakai, T. Vreven, J. A. Montgomery, Jr., 
 J. E. Peralta, F. Ogliaro, M. Bearpark, J. J. Heyd, E. Brothers, 
 K. N. Kudin, V. N. Staroverov, R. Kobayashi, J. Normand, 
 K. Raghavachari, A. Rendell, J. C. Burant, S. S. Iyengar, J. Tomasi, 
 M. Cossi, N. Rega, J. M. Millam, M. Klene, J. E. Knox, J. B. Cross, 
 V. Bakken, C. Adamo, J. Jaramillo, R. Gomperts, R. E. Stratmann, 
 O. Yazyev, A. J. Austin, R. Cammi, C. Pomelli, J. W. Ochterski, 
 R. L. Martin, K. Morokuma, V. G. Zakrzewski, G. A. Voth, 
 P. Salvador, J. J. Dannenberg, S. Dapprich, A. D. Daniels, 
 O. Farkas, J. B. Foresman, J. V. Ortiz, J. Cioslowski, 
 and D. J. Fox, Gaussian, Inc., Wallingford CT, 2009.
 
 ******************************************
 Gaussian 09:  IA32W-G09RevA.02 11-Jun-2009
                06-Sep-2021 
 ******************************************
 %nprocshared=12
 Will use up to   12 processors via shared memory.
 ----------------------------------------------
 # opt freq=noraman hf/6-311g geom=connectivity
 ----------------------------------------------
 1/18=20,19=15,38=1,57=2/1,3;
 2/9=110,12=2,17=6,18=5,40=1/2;
 3/5=4,6=6,11=9,16=1,25=1,30=1,71=1/1,2,3;
 4//1;
 5/5=2,38=5/2;
 6/7=2,8=2,9=2,10=2,28=1/1;
 7//1,2,3,16;
 1/18=20,19=15/3(2);
 2/9=110/2;
 99//99;
 2/9=110/2;
 3/5=4,6=6,11=9,16=1,25=1,30=1,71=1/1,2,3;
 4/5=5,16=3/1;
 5/5=2,38=5/2;
 7//1,2,3,16;
 1/18=20,19=15/3(-5);
 2/9=110/2;
 6/7=2,8=2,9=2,10=2,19=2,28=1/1;
 99/9=1/99;
 -----
 M0001
 -----
 Symbolic Z-matrix:
 Charge =  0 Multiplicity = 1
 C                     0.15551  -0.07388  -0.74897 
 H                     0.44353  -0.20005  -1.82804 
 C                    -1.3506    0.00459  -0.7189 
 C                    -2.05806   0.52254   0.36719 
 C                    -2.06239  -0.4661   -1.8266 
 C                    -3.44718   0.57418   0.34547 
 H                    -1.50688   0.89962   1.24374 
 C                    -3.45115  -0.41686  -1.84537 
 H                    -1.52435  -0.87901  -2.68823 
 C                    -4.14701   0.10438  -0.7599 
 H                    -3.98903   0.98731   1.20246 
 H                    -3.9975   -0.78907  -2.71814 
 H                    -5.24069   0.14506  -0.77636 
 C                     0.69951  -1.27714  -0.01681 
 C                     1.87019  -1.87289  -0.4975 
 C                     0.08652  -1.80771   1.11779 
 C                     2.4145   -2.97644   0.14714 
 H                     2.36562  -1.46552  -1.38664 
 C                     0.63199  -2.91418   1.76034 
 H                    -0.83711  -1.35639   1.50207 
 C                     1.79627  -3.50017   1.27803 
 H                     3.33203  -3.4343   -0.23664 
 H                     0.13995  -3.32352   2.64865 
 H                     2.2249   -4.37058   1.78485 
 C                     0.82643   1.18529  -0.25726 
 C                     1.52041   1.98457  -1.16883 
 C                     0.79166   1.56256   1.08617 
 C                     2.17124   3.13596  -0.74042 
 H                     1.55469   1.70448  -2.22829 
 C                     1.44606   2.71137   1.51398 
 H                     0.22013   0.94723   1.79757 
 C                     2.13859   3.49978   0.60132 
 H                     2.71221   3.75634  -1.46267 
 H                     1.41498   2.99417   2.57109 
 H                     2.65505   4.40439   0.93772 
 

 GradGradGradGradGradGradGradGradGradGradGradGradGradGradGradGradGradGrad
 Berny optimization.
 Initialization pass.
                           ----------------------------
                           !    Initial Parameters    !
                           ! (Angstroms and Degrees)  !
 --------------------------                            --------------------------
 ! Name  Definition              Value          Derivative Info.                !
 --------------------------------------------------------------------------------
 ! R1    R(1,2)                  1.124          estimate D2E/DX2                !
 ! R2    R(1,3)                  1.5085         estimate D2E/DX2                !
 ! R3    R(1,14)                 1.5099         estimate D2E/DX2                !
 ! R4    R(1,25)                 1.5091         estimate D2E/DX2                !
 ! R5    R(3,4)                  1.3958         estimate D2E/DX2                !
 ! R6    R(3,5)                  1.3983         estimate D2E/DX2                !
 ! R7    R(4,6)                  1.3902         estimate D2E/DX2                !
 ! R8    R(4,7)                  1.102          estimate D2E/DX2                !
 ! R9    R(5,8)                  1.3898         estimate D2E/DX2                !
 ! R10   R(5,9)                  1.0965         estimate D2E/DX2                !
 ! R11   R(6,10)                 1.3901         estimate D2E/DX2                !
 ! R12   R(6,11)                 1.0949         estimate D2E/DX2                !
 ! R13   R(8,10)                 1.3907         estimate D2E/DX2                !
 ! R14   R(8,12)                 1.0949         estimate D2E/DX2                !
 ! R15   R(10,13)                1.0946         estimate D2E/DX2                !
 ! R16   R(14,15)                1.3987         estimate D2E/DX2                !
 ! R17   R(14,16)                1.3945         estimate D2E/DX2                !
 ! R18   R(15,17)                1.3891         estimate D2E/DX2                !
 ! R19   R(15,18)                1.0964         estimate D2E/DX2                !
 ! R20   R(16,19)                1.3909         estimate D2E/DX2                !
 ! R21   R(16,20)                1.0975         estimate D2E/DX2                !
 ! R22   R(17,21)                1.3912         estimate D2E/DX2                !
 ! R23   R(17,22)                1.0949         estimate D2E/DX2                !
 ! R24   R(19,21)                1.3898         estimate D2E/DX2                !
 ! R25   R(19,23)                1.0949         estimate D2E/DX2                !
 ! R26   R(21,24)                1.0946         estimate D2E/DX2                !
 ! R27   R(25,26)                1.3969         estimate D2E/DX2                !
 ! R28   R(25,27)                1.3958         estimate D2E/DX2                !
 ! R29   R(26,28)                1.3903         estimate D2E/DX2                !
 ! R30   R(26,29)                1.0964         estimate D2E/DX2                !
 ! R31   R(27,30)                1.3896         estimate D2E/DX2                !
 ! R32   R(27,31)                1.1006         estimate D2E/DX2                !
 ! R33   R(28,32)                1.3906         estimate D2E/DX2                !
 ! R34   R(28,33)                1.0951         estimate D2E/DX2                !
 ! R35   R(30,32)                1.3907         estimate D2E/DX2                !
 ! R36   R(30,34)                1.0947         estimate D2E/DX2                !
 ! R37   R(32,35)                1.0946         estimate D2E/DX2                !
 ! A1    A(2,1,3)              106.3102         estimate D2E/DX2                !
 ! A2    A(2,1,14)             106.4843         estimate D2E/DX2                !
 ! A3    A(2,1,25)             107.0107         estimate D2E/DX2                !
 ! A4    A(3,1,14)             113.049          estimate D2E/DX2                !
 ! A5    A(3,1,25)             113.2029         estimate D2E/DX2                !
 ! A6    A(14,1,25)            110.2889         estimate D2E/DX2                !
 ! A7    A(1,3,4)              122.7424         estimate D2E/DX2                !
 ! A8    A(1,3,5)              118.3565         estimate D2E/DX2                !
 ! A9    A(4,3,5)              118.9009         estimate D2E/DX2                !
 ! A10   A(3,4,6)              120.5341         estimate D2E/DX2                !
 ! A11   A(3,4,7)              119.498          estimate D2E/DX2                !
 ! A12   A(6,4,7)              119.9662         estimate D2E/DX2                !
 ! A13   A(3,5,8)              120.4947         estimate D2E/DX2                !
 ! A14   A(3,5,9)              119.9644         estimate D2E/DX2                !
 ! A15   A(8,5,9)              119.5409         estimate D2E/DX2                !
 ! A16   A(4,6,10)             120.1925         estimate D2E/DX2                !
 ! A17   A(4,6,11)             119.7549         estimate D2E/DX2                !
 ! A18   A(10,6,11)            120.0526         estimate D2E/DX2                !
 ! A19   A(5,8,10)             120.1802         estimate D2E/DX2                !
 ! A20   A(5,8,12)             119.826          estimate D2E/DX2                !
 ! A21   A(10,8,12)            119.9938         estimate D2E/DX2                !
 ! A22   A(6,10,8)             119.697          estimate D2E/DX2                !
 ! A23   A(6,10,13)            120.1615         estimate D2E/DX2                !
 ! A24   A(8,10,13)            120.1415         estimate D2E/DX2                !
 ! A25   A(1,14,15)            118.3154         estimate D2E/DX2                !
 ! A26   A(1,14,16)            122.6403         estimate D2E/DX2                !
 ! A27   A(15,14,16)           119.0432         estimate D2E/DX2                !
 ! A28   A(14,15,17)           120.4529         estimate D2E/DX2                !
 ! A29   A(14,15,18)           119.9115         estimate D2E/DX2                !
 ! A30   A(17,15,18)           119.6352         estimate D2E/DX2                !
 ! A31   A(14,16,19)           120.407          estimate D2E/DX2                !
 ! A32   A(14,16,20)           119.8923         estimate D2E/DX2                !
 ! A33   A(19,16,20)           119.6983         estimate D2E/DX2                !
 ! A34   A(15,17,21)           120.1442         estimate D2E/DX2                !
 ! A35   A(15,17,22)           119.8616         estimate D2E/DX2                !
 ! A36   A(21,17,22)           119.9942         estimate D2E/DX2                !
 ! A37   A(16,19,21)           120.2398         estimate D2E/DX2                !
 ! A38   A(16,19,23)           119.7332         estimate D2E/DX2                !
 ! A39   A(21,19,23)           120.027          estimate D2E/DX2                !
 ! A40   A(17,21,19)           119.7128         estimate D2E/DX2                !
 ! A41   A(17,21,24)           120.1135         estimate D2E/DX2                !
 ! A42   A(19,21,24)           120.1736         estimate D2E/DX2                !
 ! A43   A(1,25,26)            119.055          estimate D2E/DX2                !
 ! A44   A(1,25,27)            121.8732         estimate D2E/DX2                !
 ! A45   A(26,25,27)           119.0635         estimate D2E/DX2                !
 ! A46   A(25,26,28)           120.3544         estimate D2E/DX2                !
 ! A47   A(25,26,29)           119.9957         estimate D2E/DX2                !
 ! A48   A(28,26,29)           119.6499         estimate D2E/DX2                !
 ! A49   A(25,27,30)           120.5323         estimate D2E/DX2                !
 ! A50   A(25,27,31)           118.942          estimate D2E/DX2                !
 ! A51   A(30,27,31)           120.5133         estimate D2E/DX2                !
 ! A52   A(26,28,32)           120.1994         estimate D2E/DX2                !
 ! A53   A(26,28,33)           119.8159         estimate D2E/DX2                !
 ! A54   A(32,28,33)           119.9847         estimate D2E/DX2                !
 ! A55   A(27,30,32)           120.0751         estimate D2E/DX2                !
 ! A56   A(27,30,34)           119.8332         estimate D2E/DX2                !
 ! A57   A(32,30,34)           120.0917         estimate D2E/DX2                !
 ! A58   A(28,32,30)           119.7733         estimate D2E/DX2                !
 ! A59   A(28,32,35)           120.1098         estimate D2E/DX2                !
 ! A60   A(30,32,35)           120.1168         estimate D2E/DX2                !
 ! D1    D(2,1,3,4)           -161.7514         estimate D2E/DX2                !
 ! D2    D(2,1,3,5)             18.4298         estimate D2E/DX2                !
 ! D3    D(14,1,3,4)            81.7738         estimate D2E/DX2                !
 ! D4    D(14,1,3,5)           -98.045          estimate D2E/DX2                !
 ! D5    D(25,1,3,4)           -44.5529         estimate D2E/DX2                !
 ! D6    D(25,1,3,5)           135.6283         estimate D2E/DX2                !
 ! D7    D(2,1,14,15)           30.5725         estimate D2E/DX2                !
 ! D8    D(2,1,14,16)         -149.8236         estimate D2E/DX2                !
 ! D9    D(3,1,14,15)          146.9441         estimate D2E/DX2                !
 ! D10   D(3,1,14,16)          -33.452          estimate D2E/DX2                !
 ! D11   D(25,1,14,15)         -85.1918         estimate D2E/DX2                !
 ! D12   D(25,1,14,16)          94.4121         estimate D2E/DX2                !
 ! D13   D(2,1,25,26)            5.7876         estimate D2E/DX2                !
 ! D14   D(2,1,25,27)         -173.1504         estimate D2E/DX2                !
 ! D15   D(3,1,25,26)         -110.9994         estimate D2E/DX2                !
 ! D16   D(3,1,25,27)           70.0626         estimate D2E/DX2                !
 ! D17   D(14,1,25,26)         121.2212         estimate D2E/DX2                !
 ! D18   D(14,1,25,27)         -57.7168         estimate D2E/DX2                !
 ! D19   D(1,3,4,6)            179.9365         estimate D2E/DX2                !
 ! D20   D(1,3,4,7)              0.4069         estimate D2E/DX2                !
 ! D21   D(5,3,4,6)             -0.2457         estimate D2E/DX2                !
 ! D22   D(5,3,4,7)           -179.7752         estimate D2E/DX2                !
 ! D23   D(1,3,5,8)            179.9094         estimate D2E/DX2                !
 ! D24   D(1,3,5,9)             -0.0129         estimate D2E/DX2                !
 ! D25   D(4,3,5,8)              0.0834         estimate D2E/DX2                !
 ! D26   D(4,3,5,9)           -179.8388         estimate D2E/DX2                !
 ! D27   D(3,4,6,10)             0.2341         estimate D2E/DX2                !
 ! D28   D(3,4,6,11)          -179.7165         estimate D2E/DX2                !
 ! D29   D(7,4,6,10)           179.7615         estimate D2E/DX2                !
 ! D30   D(7,4,6,11)            -0.1892         estimate D2E/DX2                !
 ! D31   D(3,5,8,10)             0.0912         estimate D2E/DX2                !
 ! D32   D(3,5,8,12)          -179.9591         estimate D2E/DX2                !
 ! D33   D(9,5,8,10)          -179.9862         estimate D2E/DX2                !
 ! D34   D(9,5,8,12)            -0.0365         estimate D2E/DX2                !
 ! D35   D(4,6,10,8)            -0.0565         estimate D2E/DX2                !
 ! D36   D(4,6,10,13)          179.9856         estimate D2E/DX2                !
 ! D37   D(11,6,10,8)          179.8939         estimate D2E/DX2                !
 ! D38   D(11,6,10,13)          -0.0639         estimate D2E/DX2                !
 ! D39   D(5,8,10,6)            -0.1052         estimate D2E/DX2                !
 ! D40   D(5,8,10,13)          179.8527         estimate D2E/DX2                !
 ! D41   D(12,8,10,6)          179.9452         estimate D2E/DX2                !
 ! D42   D(12,8,10,13)          -0.0969         estimate D2E/DX2                !
 ! D43   D(1,14,15,17)         179.564          estimate D2E/DX2                !
 ! D44   D(1,14,15,18)          -0.1932         estimate D2E/DX2                !
 ! D45   D(16,14,15,17)         -0.0545         estimate D2E/DX2                !
 ! D46   D(16,14,15,18)       -179.8117         estimate D2E/DX2                !
 ! D47   D(1,14,16,19)        -179.6591         estimate D2E/DX2                !
 ! D48   D(1,14,16,20)           0.9065         estimate D2E/DX2                !
 ! D49   D(15,14,16,19)         -0.0579         estimate D2E/DX2                !
 ! D50   D(15,14,16,20)       -179.4923         estimate D2E/DX2                !
 ! D51   D(14,15,17,21)          0.0958         estimate D2E/DX2                !
 ! D52   D(14,15,17,22)       -179.9133         estimate D2E/DX2                !
 ! D53   D(18,15,17,21)        179.8537         estimate D2E/DX2                !
 ! D54   D(18,15,17,22)         -0.1554         estimate D2E/DX2                !
 ! D55   D(14,16,19,21)          0.1296         estimate D2E/DX2                !
 ! D56   D(14,16,19,23)       -179.8221         estimate D2E/DX2                !
 ! D57   D(20,16,19,21)        179.5652         estimate D2E/DX2                !
 ! D58   D(20,16,19,23)         -0.3866         estimate D2E/DX2                !
 ! D59   D(15,17,21,19)         -0.0242         estimate D2E/DX2                !
 ! D60   D(15,17,21,24)        179.9199         estimate D2E/DX2                !
 ! D61   D(22,17,21,19)        179.9849         estimate D2E/DX2                !
 ! D62   D(22,17,21,24)         -0.0711         estimate D2E/DX2                !
 ! D63   D(16,19,21,17)         -0.0881         estimate D2E/DX2                !
 ! D64   D(16,19,21,24)        179.9679         estimate D2E/DX2                !
 ! D65   D(23,19,21,17)        179.8635         estimate D2E/DX2                !
 ! D66   D(23,19,21,24)         -0.0805         estimate D2E/DX2                !
 ! D67   D(1,25,26,28)        -178.6944         estimate D2E/DX2                !
 ! D68   D(1,25,26,29)           1.2432         estimate D2E/DX2                !
 ! D69   D(27,25,26,28)          0.2738         estimate D2E/DX2                !
 ! D70   D(27,25,26,29)       -179.7886         estimate D2E/DX2                !
 ! D71   D(1,25,27,30)         178.4607         estimate D2E/DX2                !
 ! D72   D(1,25,27,31)          -2.809          estimate D2E/DX2                !
 ! D73   D(26,25,27,30)         -0.4772         estimate D2E/DX2                !
 ! D74   D(26,25,27,31)        178.2531         estimate D2E/DX2                !
 ! D75   D(25,26,28,32)          0.1331         estimate D2E/DX2                !
 ! D76   D(25,26,28,33)       -179.9682         estimate D2E/DX2                !
 ! D77   D(29,26,28,32)       -179.8048         estimate D2E/DX2                !
 ! D78   D(29,26,28,33)          0.0939         estimate D2E/DX2                !
 ! D79   D(25,27,30,32)          0.2738         estimate D2E/DX2                !
 ! D80   D(25,27,30,34)       -179.732          estimate D2E/DX2                !
 ! D81   D(31,27,30,32)       -178.4365         estimate D2E/DX2                !
 ! D82   D(31,27,30,34)          1.5578         estimate D2E/DX2                !
 ! D83   D(26,28,32,30)         -0.3406         estimate D2E/DX2                !
 ! D84   D(26,28,32,35)        179.7441         estimate D2E/DX2                !
 ! D85   D(33,28,32,30)        179.7609         estimate D2E/DX2                !
 ! D86   D(33,28,32,35)         -0.1544         estimate D2E/DX2                !
 ! D87   D(27,30,32,28)          0.1381         estimate D2E/DX2                !
 ! D88   D(27,30,32,35)       -179.9466         estimate D2E/DX2                !
 ! D89   D(34,30,32,28)       -179.8561         estimate D2E/DX2                !
 ! D90   D(34,30,32,35)          0.0592         estimate D2E/DX2                !
 --------------------------------------------------------------------------------
 Trust Radius=3.00D-01 FncErr=1.00D-07 GrdErr=1.00D-07
 Number of steps in this run= 197 maximum allowed number of steps= 210.
 GradGradGradGradGradGradGradGradGradGradGradGradGradGradGradGradGradGrad

                          Input orientation:                          
 ---------------------------------------------------------------------
 Center     Atomic      Atomic             Coordinates (Angstroms)
 Number     Number       Type             X           Y           Z
 ---------------------------------------------------------------------
      1          6           0        0.155510   -0.073880   -0.748966
      2          1           0        0.443535   -0.200049   -1.828041
      3          6           0       -1.350603    0.004591   -0.718899
      4          6           0       -2.058064    0.522540    0.367189
      5          6           0       -2.062394   -0.466096   -1.826597
      6          6           0       -3.447182    0.574178    0.345468
      7          1           0       -1.506884    0.899622    1.243739
      8          6           0       -3.451154   -0.416865   -1.845371
      9          1           0       -1.524350   -0.879006   -2.688234
     10          6           0       -4.147009    0.104379   -0.759899
     11          1           0       -3.989033    0.987305    1.202457
     12          1           0       -3.997500   -0.789072   -2.718145
     13          1           0       -5.240690    0.145063   -0.776363
     14          6           0        0.699511   -1.277141   -0.016811
     15          6           0        1.870188   -1.872893   -0.497499
     16          6           0        0.086518   -1.807714    1.117795
     17          6           0        2.414495   -2.976440    0.147145
     18          1           0        2.365625   -1.465517   -1.386642
     19          6           0        0.631992   -2.914184    1.760336
     20          1           0       -0.837114   -1.356386    1.502070
     21          6           0        1.796272   -3.500165    1.278027
     22          1           0        3.332026   -3.434296   -0.236638
     23          1           0        0.139951   -3.323520    2.648646
     24          1           0        2.224900   -4.370579    1.784846
     25          6           0        0.826426    1.185286   -0.257258
     26          6           0        1.520410    1.984566   -1.168827
     27          6           0        0.791660    1.562556    1.086166
     28          6           0        2.171245    3.135963   -0.740422
     29          1           0        1.554693    1.704476   -2.228292
     30          6           0        1.446065    2.711365    1.513980
     31          1           0        0.220129    0.947229    1.797569
     32          6           0        2.138589    3.499781    0.601324
     33          1           0        2.712210    3.756342   -1.462668
     34          1           0        1.414978    2.994166    2.571094
     35          1           0        2.655050    4.404392    0.937723
 ---------------------------------------------------------------------
                    Distance matrix (angstroms):
                    1          2          3          4          5
     1  C    0.000000
     2  H    1.123957   0.000000
     3  C    1.508455   2.119199   0.000000
     4  C    2.549790   3.405754   1.395836   0.000000
     5  C    2.496842   2.520012   1.398281   2.406266   0.000000
     6  C    3.820623   4.523411   2.419287   1.390247   2.778071
     7  H    2.771666   3.801216   2.162742   1.101967   3.405986
     8  C    3.785204   3.900757   2.420512   2.778237   1.389759
     9  H    2.689037   2.252440   2.165459   3.403644   1.096542
    10  C    4.306224   4.722996   2.798486   2.410161   2.410167
    11  H    4.702276   5.499217   3.408614   2.154605   3.872917
    12  H    4.651522   4.567496   3.410711   3.873115   2.154949
    13  H    5.400709   5.790987   3.893046   3.402838   3.402657
    14  C    1.509909   2.122782   2.517683   3.315196   3.400182
    15  C    2.497960   2.569842   3.734630   4.681554   4.383011
    16  C    2.548673   3.374906   2.953508   3.254647   3.884226
    17  C    3.785616   3.936292   4.879810   5.682875   5.499093
    18  H    2.688474   2.343218   4.051845   5.157259   4.560675
    19  C    3.819811   4.503165   4.312370   4.581302   5.110670
    20  H    2.774398   3.750575   2.654926   2.511779   3.657042
    21  C    4.305837   4.729516   5.116038   5.645147   5.808061
    22  H    4.652433   4.619123   5.829711   6.713734   6.359084
    23  H    4.701507   5.467079   4.963711   4.982819   5.748304
    24  H    5.400389   5.798236   6.180216   6.655535   6.831428
    25  C    1.509107   2.129112   2.519248   3.024806   3.679018
    26  C    2.505281   2.523245   3.516454   4.159608   4.390318
    27  C    2.539747   3.423531   3.205433   3.117609   4.554694
    28  C    3.790297   3.911122   4.712681   5.093509   5.663771
    29  H    2.703455   2.241002   3.688987   4.602772   4.237459
    30  C    3.813666   4.544282   4.487062   4.287774   5.793531
    31  H    2.744390   3.809357   3.112615   2.723327   4.510208
    32  C    4.304293   4.739596   5.112123   5.150794   6.266677
    33  H    4.660116   4.575305   5.579899   6.046600   6.384220
    34  H    4.692756   5.522599   5.235461   4.798766   6.588263
    35  H    5.398846   5.808712   6.176399   6.132515   7.322390
                    6          7          8          9         10
     6  C    0.000000
     7  H    2.162767   0.000000
     8  C    2.404571   3.880197   0.000000
     9  H    3.874581   4.315581   2.153269   0.000000
    10  C    1.390074   3.408407   1.390740   3.400568   0.000000
    11  H    1.094854   2.484040   3.398568   4.969433   2.157628
    12  H    3.398091   4.975076   1.094882   2.474965   2.157622
    13  H    2.158544   4.311783   2.158931   4.302924   1.094561
    14  C    4.555622   3.345962   4.616462   3.498653   5.094068
    15  C    5.913812   4.703548   5.679213   4.160532   6.339173
    16  C    4.330928   3.143956   4.819745   4.235948   5.010448
    17  C    6.856055   5.621707   6.702790   5.287070   7.305307
    18  H    6.399163   5.244913   5.928324   4.143675   6.728431
    19  C    5.550692   4.403042   5.992479   5.346170   6.188874
    20  H    3.446340   2.367466   4.349858   4.273036   4.266819
    21  C    6.705502   5.501831   6.840895   5.798986   7.243512
    22  H    7.897112   6.662538   7.596344   6.010343   8.290475
    23  H    5.776175   4.745603   6.445220   6.101462   6.461168
    24  H    7.661263   6.480280   7.812037   6.801207   8.191593
    25  C    4.358952   2.789074   4.835978   3.961956   5.114300
    26  C    5.381381   4.020210   5.562466   4.447382   5.985145
    27  C    4.415122   2.397418   5.523901   5.056800   5.470345
    28  C    6.269659   4.739911   6.742022   5.794080   7.007939
    29  H    5.737646   4.698516   5.450250   4.045545   6.101303
    30  C    5.465973   3.474961   6.712214   6.274770   6.576426
    31  H    3.961935   1.814268   5.348839   5.147890   5.130587
    32  C    6.310741   4.523605   7.250632   6.588785   7.272580
    33  H    7.164749   5.769423   7.453132   6.398195   7.802538
    34  H    5.869443   3.832266   7.404022   7.162517   7.098034
    35  H    7.229007   5.449657   8.262921   7.650441   8.224356
                   11         12         13         14         15
    11  H    0.000000
    12  H    4.304266   0.000000
    13  H    2.488322   2.487699   0.000000
    14  C    5.347595   5.440342   6.155125   0.000000
    15  C    6.738030   6.366765   7.396925   1.398738   0.000000
    16  C    4.942612   5.694846   5.981665   1.394488   2.407259
    17  C    7.604613   7.355824   8.318564   2.419850   1.389119
    18  H    7.287074   6.536041   7.798874   2.165147   1.096353
    19  C    6.073444   6.782705   7.090996   2.417172   2.777630
    20  H    3.939194   5.302838   5.180452   2.162058   3.405076
    21  C    7.322080   7.542361   8.187004   2.796664   2.409558
    22  H    8.672915   8.177838   9.305620   3.410539   2.154762
    23  H    6.141920   7.234941   7.260375   3.406675   3.872501
    24  H    8.225513   8.474809   9.093176   3.891291   3.401963
    25  C    5.035734   5.764054   6.177494   2.477391   3.240311
    26  C    6.080418   6.367165   7.017854   3.555242   3.931032
    27  C    4.816582   6.552784   6.470513   3.047774   3.933640
    28  C    6.807388   7.574345   7.992718   4.707982   5.023772
    29  H    6.558756   6.106111   7.121594   3.809465   3.986572
    30  C    5.710492   7.732809   7.519592   4.336916   5.024077
    31  H    4.251212   6.418318   6.090085   2.910258   3.992883
    32  C    6.649936   8.189305   8.222281   5.027128   5.490454
    33  H    7.725096   8.201050   8.761333   5.610473   5.773114
    34  H    5.924862   8.460724   7.976263   5.045117   5.771632
    35  H    7.475989   9.197492   9.133602   6.084002   6.486924
                   16         17         18         19         20
    16  C    0.000000
    17  C    2.779849   0.000000
    18  H    3.403473   2.153550   0.000000
    19  C    1.390927   2.404907   3.873963   0.000000
    20  H    1.097480   3.877288   4.314407   2.156782   0.000000
    21  C    2.411084   1.391180   3.400650   1.389800   3.403044
    22  H    3.874736   1.094889   2.476395   3.398323   4.972177
    23  H    2.155001   3.398754   4.968838   1.094877   2.477682
    24  H    3.403808   2.159083   4.303200   2.158481   4.305956
    25  C    3.375838   4.472748   3.266711   4.573199   3.510370
    26  C    4.654682   5.209870   3.558778   5.776420   4.884011
    27  C    3.443391   4.910992   4.214424   4.530033   3.368397
    28  C    5.677939   6.181296   4.650699   6.725129   5.853221
    29  H    5.068265   5.319111   3.378586   6.171917   5.385650
    30  C    4.735758   5.929353   5.167741   5.689483   4.664724
    31  H    2.840714   4.788980   4.534721   3.883495   2.551808
    32  C    5.713776   6.497988   5.353293   6.689701   5.766152
    33  H    6.671713   6.928960   5.233901   7.694867   6.894009
    34  H    5.189887   6.520943   6.037895   6.014898   5.014183
    35  H    6.724585   7.426949   6.319990   7.637474   6.760197
                   21         22         23         24         25
    21  C    0.000000
    22  H    2.158028   0.000000
    23  H    2.157128   4.304239   0.000000
    24  H    1.094627   2.487720   2.487870   0.000000
    25  C    5.025053   5.255378   5.407851   6.082233   0.000000
    26  C    6.012110   5.789213   6.682405   7.043320   1.396932
    27  C    5.164998   5.759497   5.171054   6.143649   1.395826
    28  C    6.946433   6.691003   7.572110   7.920103   2.418083
    29  H    6.280201   5.790733   7.146101   7.311686   2.164464
    30  C    6.225868   6.662632   6.277996   7.129789   2.418709
    31  H    4.746943   5.746274   4.355463   5.683164   2.155593
    32  C    7.040906   7.085754   7.398886   7.959318   2.795679
    33  H    7.810713   7.320697   8.581600   8.765311   3.408742
    34  H    6.632778   7.272108   6.445530   7.450746   3.408521
    35  H    7.958350   7.955027   8.305035   8.826255   3.890307
                   26         27         28         29         30
    26  C    0.000000
    27  C    2.407107   0.000000
    28  C    1.390263   2.777641   0.000000
    29  H    1.096399   3.404114   2.154773   0.000000
    30  C    2.780507   1.389617   2.405930   3.876884   0.000000
    31  H    3.400926   1.100622   3.877990   4.308369   2.166914
    32  C    2.410697   2.408762   1.390580   3.401585   1.390730
    33  H    2.155440   3.872695   1.095058   2.477131   3.399343
    34  H    3.875231   2.154772   3.399733   4.971612   1.094729
    35  H    3.403017   3.401514   2.158507   4.303950   2.158717
                   31         32         33         34         35
    31  H    0.000000
    32  C    3.409840   0.000000
    33  H    4.972999   2.157528   0.000000
    34  H    2.493182   2.158530   4.305224   0.000000
    35  H    4.315108   1.094631   2.486988   2.488859   0.000000
 Stoichiometry    C19H16
 Framework group  C1[X(C19H16)]
 Deg. of freedom    99
 Full point group                 C1      NOp   1
 Largest Abelian subgroup         C1      NOp   1
 Largest concise Abelian subgroup C1      NOp   1
                         Standard orientation:                         
 ---------------------------------------------------------------------
 Center     Atomic      Atomic             Coordinates (Angstroms)
 Number     Number       Type             X           Y           Z
 ---------------------------------------------------------------------
      1          6           0        0.023286   -0.013081   -0.754090
      2          1           0        0.000862   -0.006540   -1.877804
      3          6           0        1.457925   -0.262671   -0.360448
      4          6           0        1.826027   -0.702604    0.912076
      5          6           0        2.456594   -0.038702   -1.313173
      6          6           0        3.163116   -0.919351    1.225126
      7          1           0        1.046728   -0.885791    1.669353
      8          6           0        3.793044   -0.252628   -0.997627
      9          1           0        2.187248    0.309558   -2.317450
     10          6           0        4.149604   -0.694526    0.271920
     11          1           0        3.437124   -1.268924    2.225838
     12          1           0        4.566137   -0.073137   -1.751866
     13          1           0        5.202177   -0.865114    0.519008
     14          6           0       -0.486046    1.336362   -0.307538
     15          6           0       -1.422479    1.991997   -1.113581
     16          6           0       -0.066230    1.945167    0.874709
     17          6           0       -1.927489    3.231173   -0.740675
     18          1           0       -1.764766    1.524938   -2.044540
     19          6           0       -0.571476    3.187060    1.244989
     20          1           0        0.674224    1.446983    1.513459
     21          6           0       -1.502812    3.832110    0.439963
     22          1           0       -2.661210    3.735129   -1.378222
     23          1           0       -0.231993    3.656326    2.174126
     24          1           0       -1.900109    4.809190    0.732672
     25          6           0       -0.916132   -1.103400   -0.300104
     26          6           0       -1.502374   -1.935615   -1.256743
     27          6           0       -1.232787   -1.290043    1.046455
     28          6           0       -2.392747   -2.931212   -0.870926
     29          1           0       -1.261823   -1.804761   -2.318395
     30          6           0       -2.126096   -2.282760    1.430575
     31          1           0       -0.747637   -0.652382    1.801032
     32          6           0       -2.709101   -3.104618    0.472043
     33          1           0       -2.846773   -3.578946   -1.628192
     34          1           0       -2.369610   -2.416234    2.489498
     35          1           0       -3.413537   -3.886247    0.773777
 ---------------------------------------------------------------------
 Rotational constants (GHZ):      0.4002625      0.3718893      0.2369103
 Standard basis: 6-311G (5D, 7F)
 There are   295 symmetry adapted basis functions of A   symmetry.
 Integral buffers will be    262144 words long.
 Raffenetti 1 integral format.
 Two-electron integral symmetry is turned on.
   295 basis functions,   574 primitive gaussians,   295 cartesian basis functions
    65 alpha electrons       65 beta electrons
       nuclear repulsion energy      1288.3905076754 Hartrees.
 NAtoms=   35 NActive=   35 NUniq=   35 SFac= 7.50D-01 NAtFMM=   80 NAOKFM=F Big=F
 One-electron integrals computed using PRISM.
 PrsmSu:  requested number of processors reduced to:  10 ShMem   1 Linda.
 NBasis=   295 RedAO= T  NBF=   295
 NBsUse=   295 1.00D-06 NBFU=   295
 Harris functional with IExCor=  205 diagonalized for initial guess.
 ExpMin= 1.03D-01 ExpMax= 4.56D+03 ExpMxC= 6.82D+02 IAcc=1 IRadAn=         1 AccDes= 0.00D+00
 HarFok:  IExCor=  205 AccDes= 0.00D+00 IRadAn=         1 IDoV= 1
 ScaDFX=  1.000000  1.000000  1.000000  1.000000
 FoFCou: FMM=F IPFlag=           0 FMFlag=      100000 FMFlg1=           0
         NFxFlg=           0 DoJE=T BraDBF=F KetDBF=T FulRan=T
         Omega=  0.000000  0.000000  1.000000  0.000000  0.000000 ICntrl=     500 IOpCl=  0
         NMat0=    1 NMatS0=    1 NMatT0=    0 NMatD0=    1 NMtDS0=    0 NMtDT0=    0
         I1Cent=           4 NGrid=           0.
 Petite list used in FoFCou.
 Initial guess orbital symmetries:
       Occupied  (A) (A) (A) (A) (A) (A) (A) (A) (A) (A) (A) (A)
                 (A) (A) (A) (A) (A) (A) (A) (A) (A) (A) (A) (A)
                 (A) (A) (A) (A) (A) (A) (A) (A) (A) (A) (A) (A)
                 (A) (A) (A) (A) (A) (A) (A) (A) (A) (A) (A) (A)
                 (A) (A) (A) (A) (A) (A) (A) (A) (A) (A) (A) (A)
                 (A) (A) (A) (A) (A)
       Virtual   (A) (A) (A) (A) (A) (A) (A) (A) (A) (A) (A) (A)
                 (A) (A) (A) (A) (A) (A) (A) (A) (A) (A) (A) (A)
                 (A) (A) (A) (A) (A) (A) (A) (A) (A) (A) (A) (A)
                 (A) (A) (A) (A) (A) (A) (A) (A) (A) (A) (A) (A)
                 (A) (A) (A) (A) (A) (A) (A) (A) (A) (A) (A) (A)
                 (A) (A) (A) (A) (A) (A) (A) (A) (A) (A) (A) (A)
                 (A) (A) (A) (A) (A) (A) (A) (A) (A) (A) (A) (A)
                 (A) (A) (A) (A) (A) (A) (A) (A) (A) (A) (A) (A)
                 (A) (A) (A) (A) (A) (A) (A) (A) (A) (A) (A) (A)
                 (A) (A) (A) (A) (A) (A) (A) (A) (A) (A) (A) (A)
                 (A) (A) (A) (A) (A) (A) (A) (A) (A) (A) (A) (A)
                 (A) (A) (A) (A) (A) (A) (A) (A) (A) (A) (A) (A)
                 (A) (A) (A) (A) (A) (A) (A) (A) (A) (A) (A) (A)
                 (A) (A) (A) (A) (A) (A) (A) (A) (A) (A) (A) (A)
                 (A) (A) (A) (A) (A) (A) (A) (A) (A) (A) (A) (A)
                 (A) (A) (A) (A) (A) (A) (A) (A) (A) (A) (A) (A)
                 (A) (A) (A) (A) (A) (A) (A) (A) (A) (A) (A) (A)
                 (A) (A) (A) (A) (A) (A) (A) (A) (A) (A) (A) (A)
                 (A) (A) (A) (A) (A) (A) (A) (A) (A) (A) (A) (A)
                 (A) (A)
 The electronic state of the initial guess is 1-A.
 Requested convergence on RMS density matrix=1.00D-08 within 128 cycles.
 Requested convergence on MAX density matrix=1.00D-06.
 Requested convergence on             energy=1.00D-06.
 No special actions if energy rises.
 Integral accuracy reduced to 1.0D-05 until final iterations.
 Initial convergence to 1.0D-05 achieved.  Increase integral accuracy.
 SCF Done:  E(RHF) =  -728.671701366     A.U. after   14 cycles
             Convg  =    0.6172D-08             -V/T =  2.0001

 **********************************************************************

            Population analysis using the SCF density.

 **********************************************************************

 Orbital symmetries:
       Occupied  (A) (A) (A) (A) (A) (A) (A) (A) (A) (A) (A) (A)
                 (A) (A) (A) (A) (A) (A) (A) (A) (A) (A) (A) (A)
                 (A) (A) (A) (A) (A) (A) (A) (A) (A) (A) (A) (A)
                 (A) (A) (A) (A) (A) (A) (A) (A) (A) (A) (A) (A)
                 (A) (A) (A) (A) (A) (A) (A) (A) (A) (A) (A) (A)
                 (A) (A) (A) (A) (A)
       Virtual   (A) (A) (A) (A) (A) (A) (A) (A) (A) (A) (A) (A)
                 (A) (A) (A) (A) (A) (A) (A) (A) (A) (A) (A) (A)
                 (A) (A) (A) (A) (A) (A) (A) (A) (A) (A) (A) (A)
                 (A) (A) (A) (A) (A) (A) (A) (A) (A) (A) (A) (A)
                 (A) (A) (A) (A) (A) (A) (A) (A) (A) (A) (A) (A)
                 (A) (A) (A) (A) (A) (A) (A) (A) (A) (A) (A) (A)
                 (A) (A) (A) (A) (A) (A) (A) (A) (A) (A) (A) (A)
                 (A) (A) (A) (A) (A) (A) (A) (A) (A) (A) (A) (A)
                 (A) (A) (A) (A) (A) (A) (A) (A) (A) (A) (A) (A)
                 (A) (A) (A) (A) (A) (A) (A) (A) (A) (A) (A) (A)
                 (A) (A) (A) (A) (A) (A) (A) (A) (A) (A) (A) (A)
                 (A) (A) (A) (A) (A) (A) (A) (A) (A) (A) (A) (A)
                 (A) (A) (A) (A) (A) (A) (A) (A) (A) (A) (A) (A)
                 (A) (A) (A) (A) (A) (A) (A) (A) (A) (A) (A) (A)
                 (A) (A) (A) (A) (A) (A) (A) (A) (A) (A) (A) (A)
                 (A) (A) (A) (A) (A) (A) (A) (A) (A) (A) (A) (A)
                 (A) (A) (A) (A) (A) (A) (A) (A) (A) (A) (A) (A)
                 (A) (A) (A) (A) (A) (A) (A) (A) (A) (A) (A) (A)
                 (A) (A) (A) (A) (A) (A) (A) (A) (A) (A) (A) (A)
                 (A) (A)
 The electronic state is 1-A.
 Alpha  occ. eigenvalues --  -11.25830 -11.25272 -11.25261 -11.25132 -11.24448
 Alpha  occ. eigenvalues --  -11.24431 -11.24356 -11.24351 -11.24211 -11.24192
 Alpha  occ. eigenvalues --  -11.24127 -11.24117 -11.24110 -11.24052 -11.24025
 Alpha  occ. eigenvalues --  -11.24021 -11.23915 -11.23836 -11.23739  -1.18592
 Alpha  occ. eigenvalues --   -1.15826  -1.15681  -1.09038  -1.02411  -1.02115
 Alpha  occ. eigenvalues --   -1.01889  -1.01495  -1.01391  -0.92962  -0.84537
 Alpha  occ. eigenvalues --   -0.82941  -0.82541  -0.81708  -0.81565  -0.77734
 Alpha  occ. eigenvalues --   -0.70730  -0.70449  -0.69109  -0.65999  -0.63617
 Alpha  occ. eigenvalues --   -0.63500  -0.62368  -0.62036  -0.61901  -0.59569
 Alpha  occ. eigenvalues --   -0.58774  -0.58516  -0.58431  -0.57617  -0.53915
 Alpha  occ. eigenvalues --   -0.51741  -0.51080  -0.50854  -0.49675  -0.49165
 Alpha  occ. eigenvalues --   -0.48681  -0.47793  -0.47469  -0.46765  -0.34693
 Alpha  occ. eigenvalues --   -0.34245  -0.33699  -0.33588  -0.33279  -0.31178
 Alpha virt. eigenvalues --    0.11655   0.12010   0.13584   0.13743   0.14050
 Alpha virt. eigenvalues --    0.14933   0.15136   0.16274   0.16375   0.16880
 Alpha virt. eigenvalues --    0.18807   0.19132   0.19284   0.21284   0.21419
 Alpha virt. eigenvalues --    0.21512   0.23639   0.24242   0.24983   0.27168
 Alpha virt. eigenvalues --    0.28522   0.29483   0.34031   0.34189   0.35875
 Alpha virt. eigenvalues --    0.37461   0.38512   0.39682   0.40948   0.43680
 Alpha virt. eigenvalues --    0.44098   0.44376   0.45029   0.45398   0.45574
 Alpha virt. eigenvalues --    0.45869   0.46405   0.48413   0.49908   0.50384
 Alpha virt. eigenvalues --    0.50795   0.51011   0.51449   0.54977   0.55782
 Alpha virt. eigenvalues --    0.56806   0.57907   0.58956   0.59054   0.59612
 Alpha virt. eigenvalues --    0.59686   0.60669   0.61065   0.61495   0.61697
 Alpha virt. eigenvalues --    0.61851   0.62379   0.62469   0.63284   0.63462
 Alpha virt. eigenvalues --    0.64126   0.64997   0.65162   0.65425   0.66900
 Alpha virt. eigenvalues --    0.67412   0.68215   0.68437   0.70113   0.71382
 Alpha virt. eigenvalues --    0.72348   0.73799   0.74458   0.75071   0.76208
 Alpha virt. eigenvalues --    0.77287   0.78315   0.78630   0.80473   0.81199
 Alpha virt. eigenvalues --    0.81861   0.82193   0.82347   0.82824   0.82912
 Alpha virt. eigenvalues --    0.83522   0.83919   0.84055   0.84783   0.85603
 Alpha virt. eigenvalues --    0.86041   0.86383   0.86905   0.87459   0.88062
 Alpha virt. eigenvalues --    0.89660   0.90561   0.91264   0.92980   0.94412
 Alpha virt. eigenvalues --    0.96090   0.96854   0.97679   0.98132   0.98942
 Alpha virt. eigenvalues --    0.99335   1.00295   1.02784   1.05756   1.06225
 Alpha virt. eigenvalues --    1.06807   1.07138   1.08013   1.08380   1.10509
 Alpha virt. eigenvalues --    1.11089   1.12217   1.12490   1.12977   1.14261
 Alpha virt. eigenvalues --    1.14643   1.15374   1.18588   1.19509   1.21733
 Alpha virt. eigenvalues --    1.25356   1.26739   1.27684   1.28213   1.28850
 Alpha virt. eigenvalues --    1.30333   1.35141   1.39563   1.45221   1.46597
 Alpha virt. eigenvalues --    1.51660   1.52261   1.56498   2.54623   2.55622
 Alpha virt. eigenvalues --    2.56172   2.59206   2.61961   2.62494   2.64473
 Alpha virt. eigenvalues --    2.67005   2.67714   2.68454   2.72296   2.76759
 Alpha virt. eigenvalues --    2.77764   2.83502   2.87916   2.88635   2.94129
 Alpha virt. eigenvalues --    2.94273   2.94422   2.97076   2.97452   2.98031
 Alpha virt. eigenvalues --    3.00373   3.00771   3.04045   3.05738   3.07123
 Alpha virt. eigenvalues --    3.08137   3.08436   3.08986   3.09969   3.14336
 Alpha virt. eigenvalues --    3.14771   3.16347   3.16828   3.17576   3.18826
 Alpha virt. eigenvalues --    3.22649   3.25647   3.25824   3.28288   3.28904
 Alpha virt. eigenvalues --    3.30915   3.33383   3.34271   3.35146   3.42628
 Alpha virt. eigenvalues --    3.43068   3.44422   3.46957   3.49482   3.52248
 Alpha virt. eigenvalues --    3.53431   3.54471   3.59252   3.60658   3.60665
 Alpha virt. eigenvalues --    3.63135   3.63491   3.63780   3.65968   3.66657
 Alpha virt. eigenvalues --    3.68380   3.70283   3.70457   3.71432   3.73491
 Alpha virt. eigenvalues --    3.74202   3.75559   3.80867   3.85860   3.86655
 Alpha virt. eigenvalues --    3.93021  24.24832  24.30691  24.31556  24.50537
 Alpha virt. eigenvalues --   24.50832  24.51117  24.53993  24.54675  24.56101
 Alpha virt. eigenvalues --   24.77288  24.78604  24.79141  24.79615  24.80639
 Alpha virt. eigenvalues --   24.81839  24.83248  25.05546  25.05808  25.06126
          Condensed to atoms (all electrons):
              1          2          3          4          5          6
     1  C    5.829693   0.463793   0.170701  -0.045783  -0.045386   0.003591
     2  H    0.463793   0.512427  -0.073737   0.005108   0.002789  -0.000276
     3  C    0.170701  -0.073737   5.366450   0.450387   0.495031  -0.064431
     4  C   -0.045783   0.005108   0.450387   5.121668  -0.061524   0.473367
     5  C   -0.045386   0.002789   0.495031  -0.061524   5.041064  -0.036123
     6  C    0.003591  -0.000276  -0.064431   0.473367  -0.036123   5.056520
     7  H   -0.000332  -0.000141  -0.053047   0.386612   0.004508  -0.025347
     8  C    0.008262   0.001515  -0.071548  -0.031228   0.471729  -0.075101
     9  H   -0.000702   0.002682  -0.045676   0.004749   0.394480  -0.000401
    10  C    0.001136  -0.000016  -0.017758  -0.094855  -0.086725   0.495867
    11  H   -0.000295   0.000014   0.006030  -0.036751  -0.000392   0.395566
    12  H   -0.000389  -0.000029   0.007149  -0.000598  -0.039668   0.006226
    13  H   -0.000019  -0.000001  -0.001593   0.008123   0.007487  -0.042540
    14  C    0.158152  -0.059840  -0.104124  -0.005885  -0.001460   0.000875
    15  C   -0.049888  -0.003274   0.006349  -0.000179   0.000459   0.000023
    16  C   -0.040210   0.004924  -0.014434  -0.007302   0.001906  -0.001482
    17  C    0.006264   0.001551  -0.000758   0.000025  -0.000017   0.000000
    18  H    0.001773   0.001067   0.000693  -0.000038   0.000014   0.000000
    19  C    0.004805  -0.000248   0.000517   0.000017  -0.000090  -0.000030
    20  H   -0.001610  -0.000065  -0.003154   0.001120  -0.000883   0.000952
    21  C    0.000992   0.000009   0.000046  -0.000019  -0.000013   0.000000
    22  H   -0.000351  -0.000027   0.000011   0.000000   0.000001   0.000000
    23  H   -0.000325   0.000013   0.000037   0.000028   0.000007  -0.000001
    24  H   -0.000012  -0.000002  -0.000001   0.000001   0.000000   0.000000
    25  C    0.185330  -0.074372  -0.112052  -0.004622   0.001998   0.001539
    26  C   -0.026197   0.002095  -0.000330   0.001498   0.000191   0.000042
    27  C   -0.054416   0.005547  -0.006266  -0.017232   0.000220  -0.000012
    28  C    0.007690   0.001758  -0.000603   0.000125  -0.000009   0.000000
    29  H   -0.000496   0.002420   0.000560   0.000003   0.000134   0.000003
    30  C    0.001398  -0.000282   0.001774  -0.001740   0.000028  -0.000089
    31  H    0.003113   0.000066  -0.003176   0.000309  -0.000195   0.000860
    32  C    0.001273  -0.000013  -0.000035   0.000045  -0.000001   0.000003
    33  H   -0.000368  -0.000037   0.000020  -0.000001   0.000000   0.000000
    34  H   -0.000319   0.000012   0.000008   0.000015   0.000000   0.000001
    35  H   -0.000013  -0.000001  -0.000001   0.000001   0.000000   0.000000
              7          8          9         10         11         12
     1  C   -0.000332   0.008262  -0.000702   0.001136  -0.000295  -0.000389
     2  H   -0.000141   0.001515   0.002682  -0.000016   0.000014  -0.000029
     3  C   -0.053047  -0.071548  -0.045676  -0.017758   0.006030   0.007149
     4  C    0.386612  -0.031228   0.004749  -0.094855  -0.036751  -0.000598
     5  C    0.004508   0.471729   0.394480  -0.086725  -0.000392  -0.039668
     6  C   -0.025347  -0.075101  -0.000401   0.495867   0.395566   0.006226
     7  H    0.498446  -0.000213  -0.000243   0.004799  -0.003440   0.000020
     8  C   -0.000213   5.044554  -0.034684   0.494580   0.005895   0.396658
     9  H   -0.000243  -0.034684   0.507667   0.005349   0.000022  -0.004217
    10  C    0.004799   0.494580   0.005349   5.030326  -0.039652  -0.041061
    11  H   -0.003440   0.005895   0.000022  -0.039652   0.515469  -0.000212
    12  H    0.000020   0.396658  -0.004217  -0.041061  -0.000212   0.517939
    13  H   -0.000183  -0.042961  -0.000183   0.399174  -0.004354  -0.004548
    14  C   -0.000493  -0.000714   0.000478   0.000023  -0.000007   0.000021
    15  C   -0.000029   0.000003   0.000121  -0.000001  -0.000001   0.000000
    16  C    0.000333   0.000225   0.000186   0.000081   0.000013  -0.000001
    17  C    0.000006   0.000001  -0.000008   0.000000   0.000000   0.000000
    18  H    0.000007   0.000001   0.000004   0.000000   0.000000   0.000000
    19  C    0.000051  -0.000003   0.000009   0.000004   0.000001   0.000000
    20  H    0.000141  -0.000135  -0.000037   0.000046  -0.000002   0.000001
    21  C    0.000001   0.000000  -0.000004   0.000000   0.000000   0.000000
    22  H    0.000000   0.000000   0.000000   0.000000   0.000000   0.000000
    23  H   -0.000017   0.000001   0.000000  -0.000001   0.000000   0.000000
    24  H    0.000000   0.000000   0.000000   0.000000   0.000000   0.000000
    25  C   -0.003013  -0.000680   0.000365   0.000021   0.000011   0.000014
    26  C   -0.000257  -0.000004  -0.000022  -0.000011   0.000002   0.000001
    27  C    0.002842   0.000029  -0.000026  -0.000005   0.000031   0.000000
    28  C   -0.000139   0.000001   0.000001   0.000000   0.000000   0.000000
    29  H   -0.000004   0.000003  -0.000025  -0.000001   0.000000   0.000000
    30  C    0.001158  -0.000001   0.000002   0.000001   0.000000   0.000000
    31  H    0.003450   0.000016  -0.000007  -0.000011  -0.000053   0.000000
    32  C    0.000079   0.000000   0.000000   0.000000  -0.000001   0.000000
    33  H    0.000000   0.000000   0.000000   0.000000   0.000000   0.000000
    34  H   -0.000105   0.000000   0.000000   0.000000   0.000001   0.000000
    35  H    0.000000   0.000000   0.000000   0.000000   0.000000   0.000000
             13         14         15         16         17         18
     1  C   -0.000019   0.158152  -0.049888  -0.040210   0.006264   0.001773
     2  H   -0.000001  -0.059840  -0.003274   0.004924   0.001551   0.001067
     3  C   -0.001593  -0.104124   0.006349  -0.014434  -0.000758   0.000693
     4  C    0.008123  -0.005885  -0.000179  -0.007302   0.000025  -0.000038
     5  C    0.007487  -0.001460   0.000459   0.001906  -0.000017   0.000014
     6  C   -0.042540   0.000875   0.000023  -0.001482   0.000000   0.000000
     7  H   -0.000183  -0.000493  -0.000029   0.000333   0.000006   0.000007
     8  C   -0.042961  -0.000714   0.000003   0.000225   0.000001   0.000001
     9  H   -0.000183   0.000478   0.000121   0.000186  -0.000008   0.000004
    10  C    0.399174   0.000023  -0.000001   0.000081   0.000000   0.000000
    11  H   -0.004354  -0.000007  -0.000001   0.000013   0.000000   0.000000
    12  H   -0.004548   0.000021   0.000000  -0.000001   0.000000   0.000000
    13  H    0.517650   0.000001   0.000000   0.000000   0.000000   0.000000
    14  C    0.000001   5.366651   0.473246   0.485667  -0.065351  -0.050649
    15  C    0.000000   0.473246   5.071630  -0.071941   0.466210   0.399567
    16  C    0.000000   0.485667  -0.071941   5.087497  -0.027881   0.004143
    17  C    0.000000  -0.065351   0.466210  -0.027881   5.050291  -0.035572
    18  H    0.000000  -0.050649   0.399567   0.004143  -0.035572   0.509988
    19  C    0.000000  -0.064542  -0.031559   0.471579  -0.076898  -0.000334
    20  H    0.000000  -0.042696   0.004182   0.390171  -0.000181  -0.000249
    21  C    0.000000  -0.018509  -0.086143  -0.093479   0.488957   0.005341
    22  H    0.000000   0.006704  -0.039638  -0.000523   0.397073  -0.004287
    23  H    0.000000   0.006181  -0.000424  -0.037599   0.005998   0.000024
    24  H    0.000000  -0.001480   0.007376   0.007825  -0.042957  -0.000185
    25  C   -0.000002  -0.154569   0.000699  -0.014095  -0.000423   0.000556
    26  C    0.000000  -0.005745   0.002048  -0.000315  -0.000036   0.001435
    27  C    0.000001  -0.007674   0.000800  -0.000088   0.000194  -0.000051
    28  C    0.000000  -0.000463  -0.000099   0.000048   0.000007   0.000030
    29  H    0.000000   0.000149   0.000253  -0.000048  -0.000006   0.000256
    30  C    0.000000   0.000752  -0.000065  -0.000032   0.000002  -0.000018
    31  H    0.000000  -0.001897  -0.000266   0.004782  -0.000098  -0.000037
    32  C    0.000000   0.000096  -0.000014  -0.000004   0.000000  -0.000011
    33  H    0.000000   0.000011   0.000003   0.000000   0.000000  -0.000003
    34  H    0.000000   0.000018   0.000006  -0.000002   0.000001   0.000000
    35  H    0.000000  -0.000002   0.000000   0.000000   0.000000   0.000000
             19         20         21         22         23         24
     1  C    0.004805  -0.001610   0.000992  -0.000351  -0.000325  -0.000012
     2  H   -0.000248  -0.000065   0.000009  -0.000027   0.000013  -0.000002
     3  C    0.000517  -0.003154   0.000046   0.000011   0.000037  -0.000001
     4  C    0.000017   0.001120  -0.000019   0.000000   0.000028   0.000001
     5  C   -0.000090  -0.000883  -0.000013   0.000001   0.000007   0.000000
     6  C   -0.000030   0.000952   0.000000   0.000000  -0.000001   0.000000
     7  H    0.000051   0.000141   0.000001   0.000000  -0.000017   0.000000
     8  C   -0.000003  -0.000135   0.000000   0.000000   0.000001   0.000000
     9  H    0.000009  -0.000037  -0.000004   0.000000   0.000000   0.000000
    10  C    0.000004   0.000046   0.000000   0.000000  -0.000001   0.000000
    11  H    0.000001  -0.000002   0.000000   0.000000   0.000000   0.000000
    12  H    0.000000   0.000001   0.000000   0.000000   0.000000   0.000000
    13  H    0.000000   0.000000   0.000000   0.000000   0.000000   0.000000
    14  C   -0.064542  -0.042696  -0.018509   0.006704   0.006181  -0.001480
    15  C   -0.031559   0.004182  -0.086143  -0.039638  -0.000424   0.007376
    16  C    0.471579   0.390171  -0.093479  -0.000523  -0.037599   0.007825
    17  C   -0.076898  -0.000181   0.488957   0.397073   0.005998  -0.042957
    18  H   -0.000334  -0.000249   0.005341  -0.004287   0.000024  -0.000185
    19  C    5.050263  -0.029910   0.499320   0.006120   0.395912  -0.042206
    20  H   -0.029910   0.481566   0.004706   0.000020  -0.003333  -0.000182
    21  C    0.499320   0.004706   5.033421  -0.040711  -0.040250   0.399192
    22  H    0.006120   0.000020  -0.040711   0.518556  -0.000213  -0.004486
    23  H    0.395912  -0.003333  -0.040250  -0.000213   0.516817  -0.004443
    24  H   -0.042206  -0.000182   0.399192  -0.004486  -0.004443   0.518535
    25  C    0.000642  -0.001044   0.000075   0.000012   0.000005  -0.000001
    26  C    0.000028  -0.000083  -0.000003  -0.000001   0.000000   0.000000
    27  C   -0.000664   0.000499   0.000029   0.000003   0.000014  -0.000001
    28  C   -0.000001   0.000002   0.000000   0.000000   0.000000   0.000000
    29  H    0.000000   0.000000   0.000000  -0.000001   0.000000   0.000000
    30  C   -0.000017   0.000064   0.000003   0.000000   0.000000   0.000000
    31  H    0.000447   0.001046  -0.000011   0.000001  -0.000001  -0.000001
    32  C    0.000000   0.000002   0.000000   0.000000   0.000000   0.000000
    33  H    0.000000   0.000000   0.000000   0.000000   0.000000   0.000000
    34  H   -0.000001  -0.000009   0.000000   0.000000   0.000000   0.000000
    35  H    0.000000   0.000000   0.000000   0.000000   0.000000   0.000000
             25         26         27         28         29         30
     1  C    0.185330  -0.026197  -0.054416   0.007690  -0.000496   0.001398
     2  H   -0.074372   0.002095   0.005547   0.001758   0.002420  -0.000282
     3  C   -0.112052  -0.000330  -0.006266  -0.000603   0.000560   0.001774
     4  C   -0.004622   0.001498  -0.017232   0.000125   0.000003  -0.001740
     5  C    0.001998   0.000191   0.000220  -0.000009   0.000134   0.000028
     6  C    0.001539   0.000042  -0.000012   0.000000   0.000003  -0.000089
     7  H   -0.003013  -0.000257   0.002842  -0.000139  -0.000004   0.001158
     8  C   -0.000680  -0.000004   0.000029   0.000001   0.000003  -0.000001
     9  H    0.000365  -0.000022  -0.000026   0.000001  -0.000025   0.000002
    10  C    0.000021  -0.000011  -0.000005   0.000000  -0.000001   0.000001
    11  H    0.000011   0.000002   0.000031   0.000000   0.000000   0.000000
    12  H    0.000014   0.000001   0.000000   0.000000   0.000000   0.000000
    13  H   -0.000002   0.000000   0.000001   0.000000   0.000000   0.000000
    14  C   -0.154569  -0.005745  -0.007674  -0.000463   0.000149   0.000752
    15  C    0.000699   0.002048   0.000800  -0.000099   0.000253  -0.000065
    16  C   -0.014095  -0.000315  -0.000088   0.000048  -0.000048  -0.000032
    17  C   -0.000423  -0.000036   0.000194   0.000007  -0.000006   0.000002
    18  H    0.000556   0.001435  -0.000051   0.000030   0.000256  -0.000018
    19  C    0.000642   0.000028  -0.000664  -0.000001   0.000000  -0.000017
    20  H   -0.001044  -0.000083   0.000499   0.000002   0.000000   0.000064
    21  C    0.000075  -0.000003   0.000029   0.000000   0.000000   0.000003
    22  H    0.000012  -0.000001   0.000003   0.000000  -0.000001   0.000000
    23  H    0.000005   0.000000   0.000014   0.000000   0.000000   0.000000
    24  H   -0.000001   0.000000  -0.000001   0.000000   0.000000   0.000000
    25  C    5.374692   0.503717   0.438861  -0.072805  -0.046626  -0.061746
    26  C    0.503717   5.069993  -0.065377   0.459763   0.395712  -0.033477
    27  C    0.438861  -0.065377   5.095531  -0.029638   0.004635   0.479269
    28  C   -0.072805   0.459763  -0.029638   5.054946  -0.035034  -0.076819
    29  H   -0.046626   0.395712   0.004635  -0.035034   0.510857  -0.000237
    30  C   -0.061746  -0.033477   0.479269  -0.076819  -0.000237   5.035999
    31  H   -0.048518   0.004044   0.388575  -0.000168  -0.000260  -0.027206
    32  C   -0.017852  -0.086348  -0.092124   0.497024   0.005163   0.494344
    33  H    0.007062  -0.039705  -0.000618   0.396763  -0.004175   0.006220
    34  H    0.006071  -0.000449  -0.039051   0.005994   0.000024   0.396669
    35  H   -0.001594   0.007539   0.008020  -0.042754  -0.000186  -0.042923
             31         32         33         34         35
     1  C    0.003113   0.001273  -0.000368  -0.000319  -0.000013
     2  H    0.000066  -0.000013  -0.000037   0.000012  -0.000001
     3  C   -0.003176  -0.000035   0.000020   0.000008  -0.000001
     4  C    0.000309   0.000045  -0.000001   0.000015   0.000001
     5  C   -0.000195  -0.000001   0.000000   0.000000   0.000000
     6  C    0.000860   0.000003   0.000000   0.000001   0.000000
     7  H    0.003450   0.000079   0.000000  -0.000105   0.000000
     8  C    0.000016   0.000000   0.000000   0.000000   0.000000
     9  H   -0.000007   0.000000   0.000000   0.000000   0.000000
    10  C   -0.000011   0.000000   0.000000   0.000000   0.000000
    11  H   -0.000053  -0.000001   0.000000   0.000001   0.000000
    12  H    0.000000   0.000000   0.000000   0.000000   0.000000
    13  H    0.000000   0.000000   0.000000   0.000000   0.000000
    14  C   -0.001897   0.000096   0.000011   0.000018  -0.000002
    15  C   -0.000266  -0.000014   0.000003   0.000006   0.000000
    16  C    0.004782  -0.000004   0.000000  -0.000002   0.000000
    17  C   -0.000098   0.000000   0.000000   0.000001   0.000000
    18  H   -0.000037  -0.000011  -0.000003   0.000000   0.000000
    19  C    0.000447   0.000000   0.000000  -0.000001   0.000000
    20  H    0.001046   0.000002   0.000000  -0.000009   0.000000
    21  C   -0.000011   0.000000   0.000000   0.000000   0.000000
    22  H    0.000001   0.000000   0.000000   0.000000   0.000000
    23  H   -0.000001   0.000000   0.000000   0.000000   0.000000
    24  H   -0.000001   0.000000   0.000000   0.000000   0.000000
    25  C   -0.048518  -0.017852   0.007062   0.006071  -0.001594
    26  C    0.004044  -0.086348  -0.039705  -0.000449   0.007539
    27  C    0.388575  -0.092124  -0.000618  -0.039051   0.008020
    28  C   -0.000168   0.497024   0.396763   0.005994  -0.042754
    29  H   -0.000260   0.005163  -0.004175   0.000024  -0.000186
    30  C   -0.027206   0.494344   0.006220   0.396669  -0.042923
    31  H    0.495295   0.004558   0.000021  -0.003437  -0.000169
    32  C    0.004558   5.031001  -0.040772  -0.039540   0.399616
    33  H    0.000021  -0.040772   0.518272  -0.000211  -0.004580
    34  H   -0.003437  -0.039540  -0.000211   0.515342  -0.004451
    35  H   -0.000169   0.399616  -0.004580  -0.004451   0.517487
 Mulliken atomic charges:
              1
     1  C   -0.580857
     2  H    0.204569
     3  C    0.066961
     4  C   -0.145443
     5  C   -0.149559
     6  C   -0.189602
     7  H    0.184548
     8  C   -0.166201
     9  H    0.170119
    10  C   -0.151313
    11  H    0.162102
    12  H    0.162694
    13  H    0.163949
    14  C    0.087074
    15  C   -0.149453
    16  C   -0.149942
    17  C   -0.166393
    18  H    0.166535
    19  C   -0.183212
    20  H    0.199055
    21  C   -0.152949
    22  H    0.161735
    23  H    0.161570
    24  H    0.163028
    25  C    0.092343
    26  C   -0.189746
    27  C   -0.111857
    28  C   -0.165619
    29  H    0.166929
    30  C   -0.173031
    31  H    0.178930
    32  C   -0.156489
    33  H    0.162099
    34  H    0.163411
    35  H    0.164013
 Sum of Mulliken atomic charges =   0.00000
 Mulliken charges with hydrogens summed into heavy atoms:
              1
     1  C   -0.376288
     3  C    0.066961
     4  C    0.039105
     5  C    0.020560
     6  C   -0.027500
     8  C   -0.003507
    10  C    0.012636
    14  C    0.087074
    15  C    0.017081
    16  C    0.049114
    17  C   -0.004658
    19  C   -0.021641
    21  C    0.010079
    25  C    0.092343
    26  C   -0.022817
    27  C    0.067073
    28  C   -0.003520
    30  C   -0.009620
    32  C    0.007524
 Sum of Mulliken charges with hydrogens summed into heavy atoms =   0.00000
 Electronic spatial extent (au):  <R**2>=           4939.5708
 Charge=              0.0000 electrons
 Dipole moment (field-independent basis, Debye):
    X=             -0.0150    Y=             -0.0648    Z=             -0.0425  Tot=              0.0789
 Quadrupole moment (field-independent basis, Debye-Ang):
   XX=           -110.6068   YY=           -114.0747   ZZ=           -102.8486
   XY=              0.7938   XZ=              2.2727   YZ=             -0.1828
 Traceless Quadrupole moment (field-independent basis, Debye-Ang):
   XX=             -1.4301   YY=             -4.8980   ZZ=              6.3281
   XY=              0.7938   XZ=              2.2727   YZ=             -0.1828
 Octapole moment (field-independent basis, Debye-Ang**2):
  XXX=             39.8692  YYY=             18.5157  ZZZ=             -0.1775  XYY=            -44.5689
  XXY=            -14.4734  XXZ=             -6.5016  XZZ=              0.6543  YZZ=             -4.7657
  YYZ=             10.3733  XYZ=              0.0458
 Hexadecapole moment (field-independent basis, Debye-Ang**3):
 XXXX=          -3093.0744 YYYY=          -2906.5762 ZZZZ=           -786.9766 XXXY=             -5.7241
 XXXZ=              0.7047 YYYX=              2.2992 YYYZ=             58.2573 ZZZX=              6.3172
 ZZZY=             -4.0838 XXYY=           -972.7394 XXZZ=           -631.6452 YYZZ=           -600.9857
 XXYZ=            -49.9700 YYXZ=             22.6002 ZZXY=             15.5890
 N-N= 1.288390507675D+03 E-N=-4.272789820115D+03  KE= 7.285911641571D+02
 PrsmSu:  requested number of processors reduced to:  10 ShMem   1 Linda.
 Calling FoFJK, ICntrl=      2127 FMM=F ISym2X=0 I1Cent= 0 IOpClX= 0 NMat=1 NMatS=1 NMatT=0.
 ***** Axes restored to original set *****
 -------------------------------------------------------------------
 Center     Atomic                   Forces (Hartrees/Bohr)
 Number     Number              X              Y              Z
 -------------------------------------------------------------------
      1        6           0.005320922   -0.001737959   -0.023301653
      2        1          -0.006551361    0.003765201    0.026425559
      3        6          -0.011127024    0.000290082   -0.007443065
      4        6           0.004543821    0.006264231    0.011067481
      5        6           0.002265668   -0.002775107   -0.005193688
      6        6          -0.005716141    0.004103965    0.009882710
      7        1          -0.020204360   -0.007342920   -0.021679692
      8        6          -0.007320910   -0.004565644   -0.009801608
      9        1          -0.008091359    0.006920543    0.014216780
     10        6          -0.013425951    0.000168166   -0.000873541
     11        1           0.008213887   -0.006338491   -0.013110218
     12        1           0.008274082    0.005849486    0.013289831
     13        1           0.016745679   -0.000503601    0.000192055
     14        6           0.005529814   -0.013540746    0.000975467
     15        6           0.004023401    0.001207147   -0.004845654
     16        6          -0.009544139    0.003710895    0.004336976
     17        6           0.011004539   -0.004763057   -0.004522341
     18        1          -0.008383548   -0.006170860    0.013983694
     19        6          -0.004055857   -0.004664706    0.010442847
     20        1           0.017414320   -0.011377596   -0.007056333
     21        6           0.004851993   -0.010768970    0.006678205
     22        1          -0.014072332    0.006833302    0.005790873
     23        1           0.007521103    0.006178614   -0.013589873
     24        1          -0.006675990    0.013219324   -0.007848962
     25        6           0.007902230    0.010752016   -0.004727430
     26        6           0.000271643   -0.001386079   -0.005960174
     27        6          -0.004852189   -0.005511791    0.009155667
     28        6           0.007040968    0.008886311   -0.007224410
     29        1          -0.000892419    0.004090326    0.017194516
     30        6          -0.002047218    0.001594414    0.012062642
     31        1           0.020768932    0.013728672   -0.010798748
     32        6           0.006902878    0.011442312    0.002392674
     33        1          -0.008193736   -0.009457283    0.011200121
     34        1           0.000437622   -0.004155513   -0.016161201
     35        1          -0.007878967   -0.013944684   -0.005149507
 -------------------------------------------------------------------
 Cartesian Forces:  Max     0.026425559 RMS     0.009563654

 GradGradGradGradGradGradGradGradGradGradGradGradGradGradGradGradGradGrad
 Berny optimization.
 Internal  Forces:  Max     0.029863390 RMS     0.007842567
 Search for a local minimum.
 Step number   1 out of a maximum of  197
 All quantities printed in internal units (Hartrees-Bohrs-Radians)
 Mixed Optimization -- RFO/linear search
 Second derivative matrix not updated -- first step.
     Eigenvalues ---    0.00635   0.00645   0.00654   0.01530   0.01533
     Eigenvalues ---    0.01536   0.02137   0.02140   0.02146   0.02167
     Eigenvalues ---    0.02170   0.02172   0.02181   0.02185   0.02186
     Eigenvalues ---    0.02202   0.02203   0.02203   0.02212   0.02212
     Eigenvalues ---    0.02215   0.02215   0.02216   0.02216   0.02217
     Eigenvalues ---    0.02217   0.02219   0.02219   0.02220   0.02222
     Eigenvalues ---    0.04519   0.06372   0.06676   0.15996   0.15999
     Eigenvalues ---    0.15999   0.16000   0.16000   0.16000   0.16000
     Eigenvalues ---    0.16000   0.16000   0.16000   0.16000   0.16000
     Eigenvalues ---    0.16000   0.16000   0.16000   0.18937   0.19367
     Eigenvalues ---    0.22000   0.22000   0.22000   0.22000   0.22000
     Eigenvalues ---    0.22000   0.23476   0.23476   0.23477   0.24996
     Eigenvalues ---    0.24999   0.25000   0.31166   0.31360   0.31440
     Eigenvalues ---    0.31506   0.33466   0.33613   0.33962   0.34067
     Eigenvalues ---    0.34083   0.34089   0.34235   0.34254   0.34255
     Eigenvalues ---    0.34255   0.34258   0.34272   0.34283   0.34283
     Eigenvalues ---    0.34291   0.42407   0.42426   0.42486   0.42570
     Eigenvalues ---    0.42583   0.42621   0.46339   0.46349   0.46435
     Eigenvalues ---    0.46764   0.46769   0.46827   0.47217   0.47225
     Eigenvalues ---    0.47260   0.47325   0.47337   0.473721000.00000
     Eigenvalues --- 1000.000001000.000001000.000001000.000001000.00000
     Eigenvalues --- 1000.000001000.000001000.000001000.000001000.00000
     Eigenvalues --- 1000.000001000.000001000.000001000.000001000.00000
     Eigenvalues --- 1000.000001000.000001000.000001000.000001000.00000
     Eigenvalues --- 1000.000001000.000001000.000001000.000001000.00000
     Eigenvalues --- 1000.000001000.000001000.000001000.000001000.00000
     Eigenvalues --- 1000.000001000.000001000.000001000.000001000.00000
     Eigenvalues --- 1000.000001000.000001000.000001000.000001000.00000
     Eigenvalues --- 1000.000001000.000001000.000001000.000001000.00000
     Eigenvalues --- 1000.000001000.000001000.000001000.000001000.00000
     Eigenvalues --- 1000.000001000.000001000.000001000.000001000.00000
     Eigenvalues --- 1000.000001000.000001000.000001000.000001000.00000
     Eigenvalues --- 1000.000001000.000001000.000001000.000001000.00000
     Eigenvalues --- 1000.000001000.000001000.000001000.000001000.00000
     Eigenvalues --- 1000.000001000.000001000.000001000.000001000.00000
     Eigenvalues --- 1000.000001000.000001000.000001000.000001000.00000
     Eigenvalues --- 1000.000001000.000001000.000001000.000001000.00000
     Eigenvalues --- 1000.000001000.00000
 RFO step:  Lambda=-4.29344767D-02 EMin= 6.34874267D-03
 Linear search not attempted -- first point.
 Maximum step size (   0.300) exceeded in Quadratic search.
    -- Step size scaled by   0.575
 Iteration  1 RMS(Cart)=  0.12593268 RMS(Int)=  0.00284355
 Iteration  2 RMS(Cart)=  0.00585065 RMS(Int)=  0.00028881
 Iteration  3 RMS(Cart)=  0.00000906 RMS(Int)=  0.00028876
 Iteration  4 RMS(Cart)=  0.00000000 RMS(Int)=  0.00028876
 Variable       Old X    -DE/DX   Delta X   Delta X   Delta X     New X
                                 (Linear)    (Quad)   (Total)
    R1        2.12397  -0.02747   0.00000  -0.04455  -0.04455   2.07942
    R2        2.85057   0.02572   0.00000   0.04132   0.04132   2.89188
    R3        2.85331   0.02090   0.00000   0.03371   0.03371   2.88702
    R4        2.85180   0.02268   0.00000   0.03650   0.03650   2.88830
    R5        2.63775   0.00074   0.00000   0.00104   0.00105   2.63880
    R6        2.64237  -0.00356   0.00000  -0.00402  -0.00400   2.63837
    R7        2.62719  -0.00318   0.00000  -0.00343  -0.00343   2.62375
    R8        2.08242  -0.02986   0.00000  -0.04548  -0.04548   2.03694
    R9        2.62626  -0.00363   0.00000  -0.00416  -0.00416   2.62211
   R10        2.07216  -0.01775   0.00000  -0.02660  -0.02660   2.04556
   R11        2.62686  -0.00675   0.00000  -0.00759  -0.00761   2.61925
   R12        2.06898  -0.01672   0.00000  -0.02494  -0.02494   2.04404
   R13        2.62812  -0.00842   0.00000  -0.00959  -0.00961   2.61851
   R14        2.06903  -0.01671   0.00000  -0.02493  -0.02493   2.04410
   R15        2.06842  -0.01675   0.00000  -0.02497  -0.02497   2.04345
   R16        2.64323  -0.00437   0.00000  -0.00503  -0.00502   2.63821
   R17        2.63520  -0.00248   0.00000  -0.00274  -0.00274   2.63246
   R18        2.62505  -0.00406   0.00000  -0.00458  -0.00458   2.62047
   R19        2.07181  -0.01742   0.00000  -0.02610  -0.02610   2.04570
   R20        2.62847  -0.00271   0.00000  -0.00296  -0.00296   2.62551
   R21        2.07394  -0.02181   0.00000  -0.03278  -0.03278   2.04116
   R22        2.62895  -0.00603   0.00000  -0.00680  -0.00681   2.62214
   R23        2.06904  -0.01668   0.00000  -0.02488  -0.02488   2.04416
   R24        2.62634  -0.00637   0.00000  -0.00708  -0.00709   2.61925
   R25        2.06902  -0.01672   0.00000  -0.02494  -0.02494   2.04408
   R26        2.06855  -0.01676   0.00000  -0.02498  -0.02498   2.04356
   R27        2.63982  -0.00416   0.00000  -0.00467  -0.00466   2.63516
   R28        2.63773   0.00074   0.00000   0.00099   0.00101   2.63874
   R29        2.62722  -0.00275   0.00000  -0.00313  -0.00314   2.62408
   R30        2.07189  -0.01769   0.00000  -0.02650  -0.02650   2.04539
   R31        2.62600  -0.00456   0.00000  -0.00501  -0.00500   2.62100
   R32        2.07987  -0.02544   0.00000  -0.03859  -0.03859   2.04128
   R33        2.62782  -0.00842   0.00000  -0.00955  -0.00957   2.61825
   R34        2.06936  -0.01679   0.00000  -0.02506  -0.02506   2.04430
   R35        2.62810  -0.00555   0.00000  -0.00628  -0.00629   2.62181
   R36        2.06874  -0.01669   0.00000  -0.02489  -0.02489   2.04385
   R37        2.06855  -0.01682   0.00000  -0.02508  -0.02508   2.04347
    A1        1.85546  -0.00920   0.00000  -0.04543  -0.04449   1.81097
    A2        1.85850  -0.00029   0.00000  -0.01904  -0.01887   1.83963
    A3        1.86769  -0.00593   0.00000  -0.03541  -0.03466   1.83303
    A4        1.97308   0.00296   0.00000   0.02528   0.02337   1.99645
    A5        1.97576   0.01474   0.00000   0.05376   0.05259   2.02835
    A6        1.92491  -0.00399   0.00000   0.00970   0.00736   1.93227
    A7        2.14226   0.02510   0.00000   0.04925   0.04923   2.19149
    A8        2.06571  -0.01298   0.00000  -0.02550  -0.02552   2.04019
    A9        2.07521  -0.01212   0.00000  -0.02374  -0.02371   2.05150
   A10        2.10372   0.00439   0.00000   0.00976   0.00976   2.11348
   A11        2.08563   0.00421   0.00000   0.01326   0.01326   2.09889
   A12        2.09381  -0.00860   0.00000  -0.02305  -0.02305   2.07075
   A13        2.10303   0.00831   0.00000   0.01760   0.01763   2.12066
   A14        2.09377  -0.00488   0.00000  -0.01087  -0.01088   2.08289
   A15        2.08638  -0.00343   0.00000  -0.00674  -0.00675   2.07963
   A16        2.09775   0.00244   0.00000   0.00501   0.00498   2.10274
   A17        2.09012  -0.00115   0.00000  -0.00231  -0.00229   2.08783
   A18        2.09531  -0.00129   0.00000  -0.00271  -0.00270   2.09262
   A19        2.09754   0.00004   0.00000  -0.00097  -0.00098   2.09656
   A20        2.09136   0.00006   0.00000   0.00073   0.00073   2.09209
   A21        2.09429  -0.00011   0.00000   0.00024   0.00025   2.09453
   A22        2.08911  -0.00306   0.00000  -0.00765  -0.00768   2.08143
   A23        2.09721   0.00154   0.00000   0.00384   0.00385   2.10107
   A24        2.09686   0.00153   0.00000   0.00381   0.00382   2.10069
   A25        2.06499  -0.00197   0.00000  -0.00378  -0.00378   2.06121
   A26        2.14048   0.00957   0.00000   0.01887   0.01887   2.15934
   A27        2.07769  -0.00760   0.00000  -0.01510  -0.01509   2.06261
   A28        2.10230   0.00529   0.00000   0.01111   0.01111   2.11341
   A29        2.09285  -0.00325   0.00000  -0.00727  -0.00727   2.08558
   A30        2.08803  -0.00204   0.00000  -0.00384  -0.00385   2.08418
   A31        2.10150   0.00319   0.00000   0.00694   0.00694   2.10844
   A32        2.09252   0.00056   0.00000   0.00263   0.00263   2.09515
   A33        2.08913  -0.00375   0.00000  -0.00960  -0.00960   2.07953
   A34        2.09691   0.00012   0.00000  -0.00028  -0.00028   2.09663
   A35        2.09198   0.00000   0.00000   0.00031   0.00031   2.09229
   A36        2.09429  -0.00012   0.00000  -0.00003  -0.00003   2.09427
   A37        2.09858   0.00131   0.00000   0.00276   0.00274   2.10132
   A38        2.08974  -0.00060   0.00000  -0.00122  -0.00122   2.08852
   A39        2.09487  -0.00071   0.00000  -0.00154  -0.00153   2.09333
   A40        2.08938  -0.00231   0.00000  -0.00542  -0.00543   2.08395
   A41        2.09638   0.00118   0.00000   0.00277   0.00278   2.09915
   A42        2.09743   0.00113   0.00000   0.00265   0.00265   2.10008
   A43        2.07790  -0.00632   0.00000  -0.01253  -0.01260   2.06530
   A44        2.12709   0.01652   0.00000   0.03233   0.03225   2.15933
   A45        2.07805  -0.01023   0.00000  -0.02009  -0.02010   2.05795
   A46        2.10058   0.00693   0.00000   0.01482   0.01482   2.11540
   A47        2.09432  -0.00404   0.00000  -0.00903  -0.00904   2.08528
   A48        2.08828  -0.00289   0.00000  -0.00578  -0.00579   2.08250
   A49        2.10369   0.00377   0.00000   0.00840   0.00833   2.11202
   A50        2.07593   0.00414   0.00000   0.01304   0.01292   2.08885
   A51        2.10335  -0.00785   0.00000  -0.02093  -0.02105   2.08231
   A52        2.09787  -0.00008   0.00000  -0.00097  -0.00099   2.09689
   A53        2.09118   0.00020   0.00000   0.00093   0.00094   2.09212
   A54        2.09413  -0.00012   0.00000   0.00003   0.00004   2.09417
   A55        2.09571   0.00216   0.00000   0.00433   0.00433   2.10003
   A56        2.09148  -0.00096   0.00000  -0.00183  -0.00184   2.08964
   A57        2.09600  -0.00120   0.00000  -0.00250  -0.00251   2.09349
[...]
 .00015806,-0.00030490,-0.00003299,-0.00002768,-0.00006132,0.00007060,0
 .00006374,-0.00015196,0.00002925,0.00006341,0.00005986,-0.00002413,-0.
 00001873,-0.00000965,0.00005718,0.00004550,0.00003546,0.00004731,0.000
 06163,-0.00001483,0.00000004,-0.00001168,-0.00000112,0.00000634,0.0000
 1254,0.00002044,0.00000901,0.00001618,0.00007649,0.00126448,0.00040366
 ,0.00035421,-0.00019164,0.00006899,-0.00004916,0.00020140,0.00031201,0
 .00002956,0.00008313,-0.00016390,-0.00002602,-0.00004728,-0.00002656,0
 .00014697,-0.00023359,0.00018040,-0.00011314,-0.00006795,-0.00004711,-
 0.00016425,-0.00006052,0.00008345,-0.00002264,0.00001726,0.00002173,0.
 00001624,0.00000550,-0.00002152,-0.00001611,0.00003973,-0.00000932,-0.
 01855393,-0.04221737,0.00437555,0.00708741,0.01954103,-0.00728677,-0.0
 6096897,-0.08213449,-0.17291367,-0.01183093,0.01988626,-0.04961035,0.0
 0061044,0.00012650,0.00077745,0.17998902,-0.05636078,0.78042576,-0.003
 42791,0.00152607,0.00175366,0.00041076,0.00044017,0.00033198,-0.000141
 01,-0.00066541,-0.00051438,-0.00004575,-0.00030845,-0.00016079,-0.0002
 4432,0.00002074,0.00005503,-0.00003309,0.00005799,0.00009584,-0.000004
 46,0.00032458,-0.00005193,0.00004256,-0.00000386,-0.00004757,-0.000002
 16,0.00000748,0.00002262,0.00000110,0.00002429,0.00001896,-0.00001092,
 0.00000181,-0.00001004,-0.00000853,0.00001397,0.00000482,0.00001948,0.
 00000960,0.00001111,0.00002419,-0.00068134,-0.00031570,0.00002914,-0.0
 0030710,-0.00007132,0.00007222,-0.00014982,-0.00028866,-0.00023852,0.0
 0031738,-0.00027461,-0.00001177,0.00003588,0.00016458,0.00024985,-0.00
 025704,0.00017233,-0.00031636,-0.00016206,-0.00006886,-0.00027010,0.00
 001790,0.00013464,-0.00001436,0.00004522,0.00002666,0.00000175,-0.0000
 1336,0.00000465,-0.00001749,0.00003126,0.00001775,0.00665416,0.0107147
 1,-0.00833903,0.00588365,-0.00305647,-0.00443736,-0.05546356,-0.021418
 03,0.00595408,-0.00097452,0.00017520,-0.00010940,-0.00000723,0.0005143
 7,-0.00042885,0.00423417,-0.01295887,0.01094928,0.04263700,0.00149340,
 -0.00084358,-0.00036941,0.00004957,-0.00007426,0.00006600,-0.00008208,
 0.00036489,0.00025149,0.00011252,0.00027307,0.00011498,0.00015203,-0.0
 0001540,-0.00004247,-0.00001308,-0.00004424,-0.00007050,0.00003412,-0.
 00020774,0.00004112,-0.00000998,-0.00000589,0.00000732,-0.00000566,-0.
 00001126,-0.00001723,0.00000583,-0.00000532,0.00000323,0.00002322,-0.0
 0000715,0.00000274,0.00001008,-0.00000539,0.00000050,-0.00000535,-0.00
 000816,-0.00000565,-0.00082133,-0.00152169,-0.00215787,-0.00037577,-0.
 00009763,-0.00029626,-0.00044479,-0.00099788,-0.00057954,0.00006313,-0
 .00000037,0.00001240,0.00000320,0.00005379,0.00007176,-0.00016640,-0.0
 0008932,0.00001999,0.00012417,0.00009957,0.00004482,0.00013052,-0.0000
 1831,0.00004893,-0.00002006,0.00000547,0.00000953,0.00002021,0.0000326
 5,-0.00000686,-0.00000312,0.00002809,0.00000072,-0.00072977,0.00707451
 ,-0.00420009,-0.00261688,0.00186474,-0.00096028,-0.02201829,-0.2462383
 1,0.15226410,0.00001761,0.00006653,-0.00108370,-0.00001553,0.00024154,
 -0.00026287,-0.00064728,-0.01636667,0.02269114,0.02863263,0.25959590,0
 .00153614,0.00063137,0.00013782,-0.00001594,-0.00005187,0.00014017,0.0
 0001051,0.00004034,0.00015608,-0.00000591,-0.00006507,0.00004639,0.000
 02153,-0.00002007,-0.00000590,-0.00004305,-0.00002677,0.00002496,-0.00
 000948,0.00010513,-0.00006756,0.00001562,-0.00002088,-0.00001034,0.000
 00422,0.00001174,-0.00003197,0.00001436,0.00002201,0.00001147,0.000012
 84,-0.00000202,-0.00000949,0.00000402,0.00000393,0.00000034,0.00000722
 ,0.00000544,-0.00000575,-0.00040724,-0.00021852,-0.00002124,0.00080031
 ,-0.00021219,0.00007028,-0.00004735,0.00004914,0.00063985,0.00013476,0
 .00003225,-0.00013235,-0.00007593,-0.00000119,-0.00004527,0.00015561,-
 0.00031385,0.00019084,-0.00007428,-0.00004706,-0.00006375,-0.00033441,
 0.00002949,0.00003408,-0.00003921,0.00001993,-0.00000573,0.00003615,0.
 00005117,-0.00003326,-0.00001648,0.00004957,-0.00001151,0.00349731,0.0
 2811157,-0.01491279,-0.00478728,-0.00082283,-0.00442840,0.00644782,0.1
 5036007,-0.19541739,-0.00022034,-0.00115225,-0.00039269,0.00024145,0.0
 0127087,-0.00098426,-0.00240237,-0.01225930,0.01181940,-0.00329033,-0.
 16323921,0.20137428,-0.00113881,0.00049781,-0.00025445,-0.00007400,0.0
 0000539,0.00026118,0.00017569,-0.00067076,0.00003529,-0.00002540,-0.00
 002818,-0.00010034,-0.00013600,0.00000974,0.00008696,0.00003394,0.0000
 6828,0.00008136,-0.00000142,0.00008986,0.00005846,-0.00002654,0.000033
 19,-0.00003247,0.00001741,-0.00000668,0.00001199,-0.00002362,-0.000030
 40,-0.00003330,-0.00001140,-0.00000090,0.00000574,-0.00002234,0.000005
 43,-0.00001175,-0.00000172,0.00000649,0.00000678,0.00004086,-0.0000037
 7,-0.00014050,-0.00006203,0.00002703,0.00004260,0.00005688,-0.00004427
 ,-0.00001938,-0.00000727,-0.00001244,0.00005183,-0.00003958,0.00002842
 ,-0.00001656,-0.00001948,0.00003024,-0.00001722,-0.00001240,-0.0000043
 5,-0.00000100,0.00004452,-0.00002326,0.00000474,0.00001182,-0.00002873
 ,-0.00000516,-0.00000275,-0.00001247,0.00000428,-0.00000056,-0.0000099
 2,0.00000254,-0.00784920,0.00890063,-0.01296714,-0.00511746,-0.0244367
 6,-0.01800939,0.01305800,-0.00918950,0.02049568,-0.12354176,-0.0175860
 0,-0.10001978,0.00622989,-0.00512581,-0.00271204,-0.10204622,-0.052010
 45,0.00578249,0.00579060,-0.00485480,-0.00344052,0.31005013,0.00070141
 ,0.00069735,0.00031967,0.00009127,-0.00031493,-0.00035804,0.00039674,0
 .00009902,-0.00015487,-0.00010905,0.00003151,-0.00018505,-0.00034653,0
 .00010489,-0.00001776,-0.00015883,-0.00008940,-0.00009399,0.00003283,-
 0.00029526,-0.00015110,0.00011303,-0.00008522,-0.00007734,0.00002389,0
 .00000500,0.00001044,-0.00006814,0.00009563,0.00010096,-0.00006507,0.0
 0001006,0.00001306,-0.00003300,-0.00001490,0.00000772,-0.00001801,0.00
 000003,-0.00000562,-0.00039775,0.00012498,-0.00001916,0.00000497,-0.00
 028050,0.00005659,0.00003750,0.00007228,-0.00022555,-0.00002257,0.0001
 9301,-0.00014170,-0.00002245,0.00002100,0.00002610,0.00015286,-0.00010
 886,0.00000777,0.00001570,0.00001665,-0.00001717,-0.00012756,-0.000058
 39,0.00018075,0.00002072,-0.00003194,-0.00001426,-0.00000468,-0.000023
 41,0.00002201,0.00000418,-0.00002327,0.00000541,0.00896603,-0.01857951
 ,0.03956970,-0.00432920,0.03695675,-0.04201654,-0.02971852,-0.05982964
 ,-0.01046588,-0.04383729,-0.15515464,-0.04894939,-0.00523440,-0.003997
 50,-0.00089722,-0.02509035,-0.27713136,0.14840124,-0.00494580,-0.00258
 258,-0.00171508,0.21243060,0.75257110,-0.00181602,-0.00048204,-0.00176
 230,-0.00057401,-0.00017073,0.00104914,0.00005744,-0.00139970,0.000591
 93,-0.00029967,-0.00034935,0.00001499,0.00027551,-0.00007214,0.0004383
 3,0.00044539,0.00019849,0.00026579,-0.00013771,0.00028525,0.00004066,-
 0.00033304,0.00026269,0.00008067,0.00001142,-0.00000625,0.00001175,-0.
 00007182,-0.00026801,-0.00032275,-0.00003432,-0.00001668,0.00004242,-0
 .00001872,0.00003602,-0.00004231,-0.00000216,0.00001042,0.00000507,0.0
 0040940,-0.00026408,-0.00048004,-0.00000996,0.00047374,0.00007857,0.00
 012844,-0.00035748,0.00034869,0.00006119,-0.00032061,0.00035555,-0.000
 03008,-0.00001564,-0.00010486,-0.00029068,0.00025906,-0.00007172,-0.00
 001767,-0.00002312,0.00000315,0.00031048,-0.00000481,-0.00023704,-0.00
 000725,-0.00000879,0.00000864,-0.00000271,-0.00000868,-0.00000947,-0.0
 0000055,0.00000595,-0.00000848,-0.01157071,0.04094677,-0.09286626,-0.0
 4078009,-0.10569403,0.00441677,0.04396737,0.05272377,0.08293659,-0.068
 94154,0.03101102,-0.32938734,-0.00237737,-0.00019759,0.00214037,-0.025
 52094,0.06866606,-0.23820925,-0.00364937,-0.00210083,0.00101478,0.1605
 1226,-0.03140429,0.69620417,0.00000482,-0.00035951,0.00053733,0.000045
 82,0.00006291,0.00003421,0.00004501,-0.00011008,-0.00000960,-0.0000420
 0,0.00001548,-0.00001476,-0.00004140,-0.00000573,0.00001754,-0.0000029
 8,0.00001159,-0.00002279,0.00001656,-0.00003333,0.00002115,-0.00000210
 ,0.00001156,-0.00001070,0.00000309,0.00000068,0.00001292,-0.00003224,0
 .00000834,-0.00000762,-0.00001762,-0.00000404,0.00001676,-0.00000587,-
 0.00000192,0.00000109,-0.00000528,-0.00000639,0.00000428,-0.00025404,-
 0.00016676,-0.00005205,0.00004673,-0.00005053,-0.00001797,0.00001731,-
 0.00000288,-0.00000718,-0.00000817,0.00005340,-0.00002297,-0.00000094,
 0.00000416,0.00000483,0.00004242,-0.00002578,0.00002096,-0.00001131,-0
 .00000622,-0.00000592,-0.00003822,-0.00002036,0.00004078,0.00000114,0.
 00000076,-0.00000366,0.00000029,-0.00000555,0.00000845,-0.00000017,-0.
 00000368,0.00000116,0.00594276,-0.00478481,-0.00363568,0.00441117,-0.0
 1255642,0.01113188,-0.00096083,0.00010397,-0.00023576,-0.05580907,-0.0
 2665963,0.00990036,-0.00382591,0.00220400,0.00149822,0.00604119,-0.002
 87515,-0.00456807,-0.00097583,0.00036568,0.00040571,0.00652278,0.01033
 649,-0.00890502,0.04247774,0.00025049,-0.00064434,0.00118956,0.0000231
 1,-0.00000078,-0.00006194,0.00019603,-0.00011004,-0.00002286,-0.000056
 94,0.00003927,0.00001556,-0.00011199,0.00003673,-0.00001322,0.00000088
 ,-0.00001021,-0.00001486,0.00003460,-0.00002752,-0.00002327,-0.0000092
 3,0.00000001,-0.00002351,0.00001378,-0.00000702,0.00001365,-0.00003083
 ,0.00000469,-0.00001161,-0.00001580,0.00000251,0.00001410,-0.00002028,
 -0.00001391,-0.00000454,-0.00001716,-0.00000451,0.00000034,-0.00029103
 ,-0.00011665,-0.00028809,-0.00001032,-0.00006216,0.00006495,0.00007794
 ,-0.00009155,0.00003007,-0.00001249,0.00001374,0.00002146,-0.00001384,
 0.00001269,-0.00000611,0.00001277,0.00002750,0.00000698,-0.00000209,0.
 00000344,-0.00000721,0.00001885,-0.00003298,0.00001114,0.00002008,-0.0
 0001654,0.00000309,-0.00000305,-0.00001485,0.00001527,0.00000444,-0.00
 001418,0.00000537,-0.00520970,-0.00236130,-0.00213999,-0.00086691,-0.0
 1662585,0.02361775,-0.00001610,0.00003498,-0.00117844,-0.02667567,-0.2
 4400815,0.14862095,0.00179051,0.00048409,-0.00125242,-0.00267530,0.002
 22987,-0.00055199,0.00041324,-0.00018577,-0.00001977,-0.00128900,0.007
 42576,-0.00619046,0.03240127,0.25347925,0.00001085,-0.00046869,0.00033
 548,0.00004877,0.00004310,-0.00001825,0.00001436,0.00009753,0.00001564
 ,0.00002439,-0.00001226,-0.00001036,0.00001207,-0.00000421,-0.00003922
 ,-0.00002375,0.00000482,0.00002178,-0.00002919,0.00001641,-0.00000371,
 0.00001431,-0.00001062,-0.00000166,-0.00000385,-0.00000323,-0.00000201
 ,0.00001572,0.00000849,0.00001607,0.00001083,0.00000057,-0.00001310,0.
 00000572,0.00000091,0.00000465,0.00000918,0.00000360,0.00000057,-0.000
 01024,-0.00004746,-0.00006415,0.00000319,0.00001891,0.00001417,-0.0000
 0128,0.00000167,0.00003690,0.00001661,-0.00001609,0.00001471,0.0000038
 9,-0.00001071,-0.00001554,-0.00000827,0.00001272,0.00001258,-0.0000089
 0,-0.00000856,-0.00000570,0.00001678,-0.00000348,-0.00000827,-0.000004
 26,-0.00000067,0.00000026,-0.00000030,-0.00000099,-0.00000629,-0.00000
 275,0.00000286,-0.00000532,-0.00341744,-0.00171678,0.00101256,-0.00274
 586,-0.01185825,0.01142615,-0.00020650,-0.00112984,-0.00027547,0.00998
 659,0.14885518,-0.19417330,0.00190406,-0.00007627,0.00069853,-0.004741
 55,-0.00105163,-0.00455012,0.00036710,-0.00004446,-0.00010089,0.004859
 90,0.02906299,-0.01403495,-0.00764535,-0.16168357,0.19993255,-0.000197
 89,0.00007789,-0.00053249,-0.00014664,-0.00020720,-0.00005985,0.000152
 04,-0.00006956,-0.00008031,-0.00008700,-0.00006706,-0.00001925,-0.0000
 9726,0.00003145,0.00000950,0.00000928,-0.00000762,0.00000279,0.0000410
 6,0.00000455,-0.00004139,0.00000378,-0.00000712,-0.00000115,0.00000480
 ,0.00001766,0.00001096,-0.00002060,0.00000568,0.00000305,-0.00002793,0
 .00000846,0.00000263,-0.00000956,-0.00000163,0.00000065,-0.00000570,0.
 00000324,-0.00000234,-0.00004501,0.00019392,-0.00005524,0.00002553,0.0
 0002471,0.00000255,0.00004460,-0.00007045,0.00005967,-0.00001283,-0.00
 002522,0.00001882,-0.00001226,0.00000448,0.00002060,-0.00002548,0.0000
 2843,0.00000165,-0.00001522,-0.00000154,-0.00001103,0.00003045,-0.0000
 1039,-0.00000869,0.00000077,0.00000391,0.00000463,-0.00000784,-0.00001
 755,0.00000797,0.00000256,-0.00000531,0.00000175,0.00602844,-0.0049471
 9,-0.00213113,-0.00074188,0.00002063,0.00064235,0.00043339,0.00037290,
 -0.01556610,0.00727693,-0.00311800,-0.00140559,-0.00100237,0.00041413,
 0.00028147,-0.08897747,-0.01506658,-0.10274978,-0.00372979,0.00160777,
 0.00193218,0.00651468,-0.00139719,0.00429197,-0.00001544,0.00001410,0.
 00019235,0.07837269,-0.00015423,0.00041133,-0.00121459,-0.00013857,-0.
 00026150,-0.00018114,0.00007686,-0.00017103,-0.00005453,-0.00003742,0.
 00000891,0.00002586,-0.00008885,-0.00000458,0.00001342,0.00000069,0.00
 000284,0.00000032,0.00000227,0.00000475,-0.00001330,-0.00001376,0.0000
 0498,-0.00001271,0.00000751,0.00000530,0.00001159,-0.00001594,-0.00000
 438,-0.00000611,-0.00000712,0.00000552,0.00000252,-0.00001116,-0.00000
 134,-0.00000636,-0.00000678,-0.00000035,0.00000036,-0.00003961,0.00021
 268,-0.00004154,0.00003107,-0.00004056,0.00002864,0.00002256,0.0000048
 7,0.00003404,0.00000921,0.00001916,0.00000224,-0.00001889,0.00000104,-
 0.00000896,0.00001811,-0.00001009,0.00002613,-0.00001211,0.00000079,-0
 .00001793,0.00001837,-0.00003630,0.00004575,0.00000707,-0.00001794,-0.
 00000770,-0.00000872,-0.00001969,0.00000126,-0.00000256,-0.00001453,-0
 .00000283,-0.00513222,-0.00412186,-0.00045831,-0.00003765,-0.00133929,
 0.00024434,-0.01136639,0.00319074,-0.03127511,-0.00322316,-0.00310029,
 0.00427748,0.00040275,-0.00005767,-0.00017575,-0.01512682,-0.07194405,
 -0.01885110,0.00212196,0.00061497,-0.00009903,0.01050843,0.00800404,0.
 02849190,0.00048927,0.00012926,0.00129005,0.02005867,0.06802891,0.0001
 0272,0.00044444,-0.00036238,-0.00007959,-0.00011419,-0.00007667,0.0000
 8203,-0.00016615,-0.00002289,-0.00006184,0.00000745,0.00002373,-0.0000
 8245,0.00001369,0.00003398,0.00002170,-0.00002157,-0.00001333,0.000032
 53,-0.00000825,-0.00004474,-0.00001566,0.00000617,-0.00000773,0.000011
 45,0.00000606,0.00000466,-0.00002097,-0.00000883,-0.00001065,-0.000015
 53,0.00001145,0.00000388,-0.00001518,-0.00000394,-0.00000996,-0.000015
 16,-0.00000042,-0.00000368,-0.00011433,0.00008175,-0.00006839,0.000017
 21,-0.00005764,0.00002754,0.00004161,-0.00002596,-0.00001701,-0.000006
 85,0.00003485,0.00000262,-0.00002515,0.00001402,-0.00000444,0.00002375
 ,-0.00000254,0.00000796,0.00000193,0.00000901,-0.00001314,0.00000458,-
 0.00002910,0.00004679,0.00001472,-0.00002331,-0.00001100,-0.00000695,-
 0.00001752,0.00000900,0.00000077,-0.00002016,0.00000303,-0.00254016,-0
 .00089236,0.00208328,0.00064733,0.00012325,0.00085444,-0.00187681,0.00
 396568,-0.00462589,-0.00119850,0.00475442,-0.00009895,0.00028990,-0.00
 016663,-0.00022650,-0.10258398,-0.01902487,-0.33280399,0.00147678,-0.0
 0112827,0.00067809,-0.00945332,-0.00680231,-0.01468473,-0.00036555,-0.
 00021514,-0.00095952,0.11379757,0.01928499,0.34963861,-0.00092102,0.00
 024469,0.00025845,0.00002202,0.00001506,0.00016656,0.00000378,-0.00016
 173,-0.00009121,-0.00004235,0.00000214,-0.00000999,-0.00007000,0.00002
 148,0.00001428,0.00002331,-0.00000850,-0.00001692,0.00004114,-0.000022
 71,-0.00001234,-0.00000982,0.00000276,-0.00000852,0.00000393,0.0000048
 1,0.00000682,-0.00001692,-0.00000283,-0.00000769,-0.00001909,0.0000020
 0,0.00001075,-0.00000891,-0.00000196,-0.00000216,-0.00000863,-0.000002
 73,-0.00000075,-0.00003417,-0.00002154,-0.00000481,-0.00001662,-0.0000
 2934,-0.00002616,0.00001756,-0.00000520,-0.00002866,-0.00001915,0.0000
 0741,-0.00000286,-0.00000157,0.00000529,0.00001538,0.00000482,0.000009
 12,-0.00000637,-0.00000140,0.00000498,0.00000504,0.00000347,-0.0000071
 9,0.00000846,0.00000446,0.00000331,0.00000203,-0.00000422,-0.00000679,
 0.00000504,0.00000257,-0.00000418,0.00000375,-0.00052308,0.00086141,0.
 00026140,0.00651301,-0.00199514,-0.00421994,0.00743911,-0.00252466,-0.
 00173340,0.00021918,-0.01140620,-0.00120950,-0.00027514,-0.00044335,-0
 .00008918,0.00392357,-0.00081162,-0.00290045,-0.00011296,-0.00001552,-
 0.00006764,-0.10838724,-0.11740182,-0.04507946,-0.00356942,0.00205562,
 0.00133284,-0.00376281,0.00166720,0.00191141,0.09958258,0.00041076,-0.
 00002588,-0.00009193,-0.00003619,-0.00002726,-0.00009864,0.00008231,-0
 .00000632,0.00002322,-0.00003638,0.00002851,0.00003204,-0.00002393,0.0
 0001218,0.00001705,0.00002149,-0.00002249,-0.00002261,0.00003518,-0.00
 002586,-0.00002268,-0.00001119,0.00000684,0.00000328,0.00000719,0.0000
 0271,0.00000214,-0.00001429,-0.00000663,-0.00001027,-0.00000912,0.0000
 0690,0.00000677,-0.00000977,-0.00000669,-0.00000722,-0.00001486,-0.000
 00210,-0.00000327,-0.00007135,0.00002901,-0.00005423,-0.00003128,-0.00
 001897,0.00002108,0.00003490,-0.00006414,-0.00002795,-0.00002126,0.000
 00816,0.00001342,-0.00001155,0.00001668,0.00000383,-0.00000676,0.00002
 447,-0.00002897,0.00001984,0.00001620,0.00000410,0.00001535,-0.0000054
 1,0.00000419,0.00001555,-0.00001351,-0.00000380,-0.00000370,-0.0000075
 0,0.00001299,0.00000522,-0.00001516,0.00000714,0.00074093,0.00034209,0
 .00065218,-0.00217995,0.00249223,0.00067726,-0.00228077,-0.00132294,0.
 00512717,0.00025728,0.00250529,0.00376884,0.00000353,-0.00012465,0.000
 03866,-0.01279728,-0.01654078,-0.01307526,-0.00051881,-0.00098882,-0.0
 0050705,-0.11727311,-0.28782775,-0.07401584,0.00160923,0.00042453,-0.0
 0127203,0.00212703,0.00049538,-0.00002808,0.12996577,0.30064170,0.0003
 1503,-0.00014619,-0.00001314,-0.00001640,0.00007064,0.00001123,0.00004
 639,0.00000422,0.00005068,-0.00001195,-0.00001929,0.00001030,0.0000118
 3,-0.00000093,0.00001686,0.00001236,-0.00000170,0.00000101,-0.00000491
 ,0.00001382,-0.00001623,-0.00000286,0.00000665,0.00000951,0.00000330,0
 .00000672,-0.00000193,-0.00000307,-0.00000277,-0.00000879,-0.00000204,
 0.00000212,0.00000325,-0.00000272,-0.00000210,-0.00000408,-0.00000570,
 -0.00000002,-0.00000047,-0.00005189,0.00002721,-0.00000417,0.00003984,
 -0.00001452,0.00001472,0.00001541,-0.00001489,0.00004450,0.00000090,0.
 00000602,-0.00000138,-0.00001267,0.00000542,-0.00000263,0.00000794,-0.
 00001634,0.00001536,-0.00000497,-0.00000247,-0.00000920,-0.00000723,-0
 .00000932,0.00000546,0.00000269,-0.00000429,-0.00000017,0.00000056,-0.
 00000237,0.00000201,-0.00000020,-0.00000169,0.00000139,0.00019584,0.00
 062420,-0.00115982,-0.00401787,0.00129040,-0.00508452,-0.00192620,0.00
 449250,-0.00187051,-0.01505488,-0.03158829,-0.00331622,-0.00065645,-0.
 00143010,-0.00046928,0.01093526,0.02228533,0.01214761,0.00049633,0.000
 91475,0.00034170,-0.04506975,-0.07407209,-0.09782653,0.00187302,0.0000
 7877,0.00074524,0.00137924,-0.00135386,0.00064798,0.05151582,0.0788544
 8,0.09572028||-0.00001851,-0.00000877,-0.00000093,0.00000706,0.0000015
 6,0.00000236,0.00001302,0.00002549,0.00004065,0.00005316,-0.00002728,-
 0.00002309,-0.00003919,-0.00001326,-0.00001973,-0.00005036,-0.00001436
 ,-0.00002513,0.00000170,0.00000672,0.00000428,0.00004165,-0.00001279,-
 0.00001545,0.00000544,0.00000037,0.00000154,-0.00000417,0.00003116,0.0
 0004144,0.00000332,0.00000157,0.00000317,-0.00000298,0.00000081,0.0000
 0111,-0.00000160,-0.00000207,-0.00000290,-0.00002246,0.00000355,0.0000
 2623,0.00002204,-0.00002456,-0.00000250,0.00000612,0.00003732,-0.00003
 327,-0.00000043,0.00002400,-0.00003168,-0.00000299,0.00000314,-0.00000
 122,0.00002884,-0.00003617,0.00000183,-0.00000715,-0.00000063,-0.00000
 029,-0.00003074,0.00000354,0.00003252,-0.00000015,-0.00000350,0.000003
 69,-0.00000256,0.00000249,0.00000065,0.00000462,-0.00000133,-0.0000017
 4,-0.00000335,0.00000576,0.00000542,0.00000466,0.00000074,-0.00000120,
 -0.00000595,-0.00001328,-0.00001669,-0.00000587,-0.00000293,-0.0000010
 3,-0.00000134,-0.00000060,-0.00000088,0.00000895,0.00001451,-0.0000041
 9,0.00000045,-0.00000084,0.00000429,-0.00000171,-0.00000010,0.00001252
 ,0.00000181,-0.00000026,-0.00000121,-0.00000276,-0.00000104,0.00000258
 ,0.00000144,0.00000103,-0.00000119|||@


 IT'S WHAT A FELLER THINKS HE KNOWS THAT HURTS HIM...
                    ------
           KIN HUBBARD
 Job cpu time:  0 days  0 hours  6 minutes 26.0 seconds.
 File lengths (MBytes):  RWF=    350 Int=      0 D2E=      0 Chk=      7 Scr=      1
 Normal termination of Gaussian 09 at Mon Sep 06 18:52:08 2021.
