 Entering Link 1 = b:\programy\g09w\l1.exe PID=      3708.
  
 Copyright (c) 1988,1990,1992,1993,1995,1998,2003,2009, Gaussian, Inc.
                  All Rights Reserved.
  
 This is part of the Gaussian(R) 09 program.  It is based on
 the Gaussian(R) 03 system (copyright 2003, Gaussian, Inc.),
 the Gaussian(R) 98 system (copyright 1998, Gaussian, Inc.),
 the Gaussian(R) 94 system (copyright 1995, Gaussian, Inc.),
 the Gaussian 92(TM) system (copyright 1992, Gaussian, Inc.),
 the Gaussian 90(TM) system (copyright 1990, Gaussian, Inc.),
 the Gaussian 88(TM) system (copyright 1988, Gaussian, Inc.),
 the Gaussian 86(TM) system (copyright 1986, Carnegie Mellon
 University), and the Gaussian 82(TM) system (copyright 1983,
 Carnegie Mellon University). Gaussian is a federally registered
 trademark of Gaussian, Inc.
  
 This software contains proprietary and confidential information,
 including trade secrets, belonging to Gaussian, Inc.
  
 This software is provided under written license and may be
 used, copied, transmitted, or stored only in accord with that
 written license.
  
 The following legend is applicable only to US Government
 contracts under FAR:
  
                    RESTRICTED RIGHTS LEGEND
  
 Use, reproduction and disclosure by the US Government is
 subject to restrictions as set forth in subparagraphs (a)
 and (c) of the Commercial Computer Software - Restricted
 Rights clause in FAR 52.227-19.
  
 Gaussian, Inc.
 340 Quinnipiac St., Bldg. 40, Wallingford CT 06492
  
  
 ---------------------------------------------------------------
 Warning -- This program may not be used in any manner that
 competes with the business of Gaussian, Inc. or will provide
 assistance to any competitor of Gaussian, Inc.  The licensee
 of this program is prohibited from giving any competitor of
 Gaussian, Inc. access to this program.  By using this program,
 the user acknowledges that Gaussian, Inc. is engaged in the
 business of creating and licensing software in the field of
 computational chemistry and represents and warrants to the
 licensee that it is not a competitor of Gaussian, Inc. and that
 it will not use this program in any manner prohibited above.
 ---------------------------------------------------------------
  

 Cite this work as:
 Gaussian 09, Revision A.02,
 M. J. Frisch, G. W. Trucks, H. B. Schlegel, G. E. Scuseria, 
 M. A. Robb, J. R. Cheeseman, G. Scalmani, V. Barone, B. Mennucci, 
 G. A. Petersson, H. Nakatsuji, M. Caricato, X. Li, H. P. Hratchian, 
 A. F. Izmaylov, J. Bloino, G. Zheng, J. L. Sonnenberg, M. Hada, 
 M. Ehara, K. Toyota, R. Fukuda, J. Hasegawa, M. Ishida, T. Nakajima, 
 Y. Honda, O. Kitao, H. Nakai, T. Vreven, J. A. Montgomery, Jr., 
 J. E. Peralta, F. Ogliaro, M. Bearpark, J. J. Heyd, E. Brothers, 
 K. N. Kudin, V. N. Staroverov, R. Kobayashi, J. Normand, 
 K. Raghavachari, A. Rendell, J. C. Burant, S. S. Iyengar, J. Tomasi, 
 M. Cossi, N. Rega, J. M. Millam, M. Klene, J. E. Knox, J. B. Cross, 
 V. Bakken, C. Adamo, J. Jaramillo, R. Gomperts, R. E. Stratmann, 
 O. Yazyev, A. J. Austin, R. Cammi, C. Pomelli, J. W. Ochterski, 
 R. L. Martin, K. Morokuma, V. G. Zakrzewski, G. A. Voth, 
 P. Salvador, J. J. Dannenberg, S. Dapprich, A. D. Daniels, 
 O. Farkas, J. B. Foresman, J. V. Ortiz, J. Cioslowski, 
 and D. J. Fox, Gaussian, Inc., Wallingford CT, 2009.
 
 ******************************************
 Gaussian 09:  IA32W-G09RevA.02 11-Jun-2009
                06-Sep-2021 
 ******************************************
 %nprocshared=12
 Will use up to   12 processors via shared memory.
 ----------------------------------------------
 # opt freq=noraman hf/6-311g geom=connectivity
 ----------------------------------------------
 1/18=20,19=15,38=1,57=2/1,3;
 2/9=110,12=2,17=6,18=5,40=1/2;
 3/5=4,6=6,11=9,16=1,25=1,30=1,71=1/1,2,3;
 4//1;
 5/5=2,38=5/2;
 6/7=2,8=2,9=2,10=2,28=1/1;
 7//1,2,3,16;
 1/18=20,19=15/3(2);
 2/9=110/2;
 99//99;
 2/9=110/2;
 3/5=4,6=6,11=9,16=1,25=1,30=1,71=1/1,2,3;
 4/5=5,16=3/1;
 5/5=2,38=5/2;
 7//1,2,3,16;
 1/18=20,19=15/3(-5);
 2/9=110/2;
 6/7=2,8=2,9=2,10=2,19=2,28=1/1;
 99/9=1/99;
 -----
 M0001
 -----
 Symbolic Z-matrix:
 Charge =  0 Multiplicity = 1
 C                     0.        0.       -0.79582 
 H                     0.        0.       -1.91852 
 C                    -0.00798   1.44296  -0.35545 
 C                    -0.55357   1.83945   0.86634 
 C                     0.55084   2.40826  -1.19749 
 C                    -0.5421    3.17888   1.23952 
 H                    -1.00195   1.08701   1.52843 
 C                     0.56314   3.74592  -0.82063 
 H                     0.98472   2.11124  -2.15934 
 C                     0.01654   4.13407   0.39801 
 H                    -0.97599   3.47981   2.19859 
 H                     1.00408   4.49524  -1.48599 
 H                     0.02535   5.18824   0.69278 
 C                    -1.24565  -0.72839  -0.35545 
 C                    -2.36103  -0.72709  -1.19749 
 C                    -1.31622  -1.39914   0.86634 
 C                    -3.52563  -1.38527  -0.82063 
 H                    -2.32075  -0.20283  -2.15934 
 C                    -2.48194  -2.05892   1.23952 
 H                    -0.4404   -1.41122   1.52843 
 C                    -3.58849  -2.05271   0.39801 
 H                    -4.39503  -1.37806  -1.48599 
 H                    -2.52561  -2.58514   2.19859 
 H                    -4.50582  -2.57216   0.69278 
 C                     1.25363  -0.71457  -0.35545 
 C                     1.8698   -0.44032   0.86634 
 C                     1.8102   -1.68117  -1.19749 
 C                     3.02404  -1.11997   1.23952 
 H                     1.44235   0.32421   1.52843 
 C                     2.96249  -2.36065  -0.82063 
 H                     1.33603  -1.90841  -2.15934 
 C                     3.57194  -2.08137   0.39801 
 H                     3.5016   -0.89467   2.19859 
 H                     3.39095  -3.11718  -1.48599 
 H                     4.48047  -2.61608   0.69278 
 

 GradGradGradGradGradGradGradGradGradGradGradGradGradGradGradGradGradGrad
 Berny optimization.
 Initialization pass.
                           ----------------------------
                           !    Initial Parameters    !
                           ! (Angstroms and Degrees)  !
 --------------------------                            --------------------------
 ! Name  Definition              Value          Derivative Info.                !
 --------------------------------------------------------------------------------
 ! R1    R(1,2)                  1.1227         estimate D2E/DX2                !
 ! R2    R(1,3)                  1.5087         estimate D2E/DX2                !
 ! R3    R(1,14)                 1.5087         estimate D2E/DX2                !
 ! R4    R(1,25)                 1.5087         estimate D2E/DX2                !
 ! R5    R(3,4)                  1.3956         estimate D2E/DX2                !
 ! R6    R(3,5)                  1.3975         estimate D2E/DX2                !
 ! R7    R(4,6)                  1.3905         estimate D2E/DX2                !
 ! R8    R(4,7)                  1.098          estimate D2E/DX2                !
 ! R9    R(5,8)                  1.3898         estimate D2E/DX2                !
 ! R10   R(5,9)                  1.0962         estimate D2E/DX2                !
 ! R11   R(6,10)                 1.3902         estimate D2E/DX2                !
 ! R12   R(6,11)                 1.0948         estimate D2E/DX2                !
 ! R13   R(8,10)                 1.3909         estimate D2E/DX2                !
 ! R14   R(8,12)                 1.0948         estimate D2E/DX2                !
 ! R15   R(10,13)                1.0946         estimate D2E/DX2                !
 ! R16   R(14,15)                1.3975         estimate D2E/DX2                !
 ! R17   R(14,16)                1.3956         estimate D2E/DX2                !
 ! R18   R(15,17)                1.3898         estimate D2E/DX2                !
 ! R19   R(15,18)                1.0962         estimate D2E/DX2                !
 ! R20   R(16,19)                1.3905         estimate D2E/DX2                !
 ! R21   R(16,20)                1.098          estimate D2E/DX2                !
 ! R22   R(17,21)                1.3909         estimate D2E/DX2                !
 ! R23   R(17,22)                1.0948         estimate D2E/DX2                !
 ! R24   R(19,21)                1.3902         estimate D2E/DX2                !
 ! R25   R(19,23)                1.0948         estimate D2E/DX2                !
 ! R26   R(21,24)                1.0946         estimate D2E/DX2                !
 ! R27   R(25,26)                1.3956         estimate D2E/DX2                !
 ! R28   R(25,27)                1.3975         estimate D2E/DX2                !
 ! R29   R(26,28)                1.3905         estimate D2E/DX2                !
 ! R30   R(26,29)                1.098          estimate D2E/DX2                !
 ! R31   R(27,30)                1.3898         estimate D2E/DX2                !
 ! R32   R(27,31)                1.0962         estimate D2E/DX2                !
 ! R33   R(28,32)                1.3902         estimate D2E/DX2                !
 ! R34   R(28,33)                1.0948         estimate D2E/DX2                !
 ! R35   R(30,32)                1.3909         estimate D2E/DX2                !
 ! R36   R(30,34)                1.0948         estimate D2E/DX2                !
 ! R37   R(32,35)                1.0946         estimate D2E/DX2                !
 ! A1    A(2,1,3)              106.9713         estimate D2E/DX2                !
 ! A2    A(2,1,14)             106.9713         estimate D2E/DX2                !
 ! A3    A(2,1,25)             106.9713         estimate D2E/DX2                !
 ! A4    A(3,1,14)             111.8512         estimate D2E/DX2                !
 ! A5    A(3,1,25)             111.8512         estimate D2E/DX2                !
 ! A6    A(14,1,25)            111.8512         estimate D2E/DX2                !
 ! A7    A(1,3,4)              121.9609         estimate D2E/DX2                !
 ! A8    A(1,3,5)              118.858          estimate D2E/DX2                !
 ! A9    A(4,3,5)              119.181          estimate D2E/DX2                !
 ! A10   A(3,4,6)              120.3584         estimate D2E/DX2                !
 ! A11   A(3,4,7)              119.5292         estimate D2E/DX2                !
 ! A12   A(6,4,7)              120.1097         estimate D2E/DX2                !
 ! A13   A(3,5,8)              120.3293         estimate D2E/DX2                !
 ! A14   A(3,5,9)              119.9861         estimate D2E/DX2                !
 ! A15   A(8,5,9)              119.6844         estimate D2E/DX2                !
 ! A16   A(4,6,10)             120.1804         estimate D2E/DX2                !
 ! A17   A(4,6,11)             119.7758         estimate D2E/DX2                !
 ! A18   A(10,6,11)            120.0437         estimate D2E/DX2                !
 ! A19   A(5,8,10)             120.1796         estimate D2E/DX2                !
 ! A20   A(5,8,12)             119.8364         estimate D2E/DX2                !
 ! A21   A(10,8,12)            119.984          estimate D2E/DX2                !
 ! A22   A(6,10,8)             119.7712         estimate D2E/DX2                !
 ! A23   A(6,10,13)            120.1277         estimate D2E/DX2                !
 ! A24   A(8,10,13)            120.1011         estimate D2E/DX2                !
 ! A25   A(1,14,15)            118.858          estimate D2E/DX2                !
 ! A26   A(1,14,16)            121.9609         estimate D2E/DX2                !
 ! A27   A(15,14,16)           119.181          estimate D2E/DX2                !
 ! A28   A(14,15,17)           120.3293         estimate D2E/DX2                !
 ! A29   A(14,15,18)           119.9861         estimate D2E/DX2                !
 ! A30   A(17,15,18)           119.6843         estimate D2E/DX2                !
 ! A31   A(14,16,19)           120.3584         estimate D2E/DX2                !
 ! A32   A(14,16,20)           119.5292         estimate D2E/DX2                !
 ! A33   A(19,16,20)           120.1097         estimate D2E/DX2                !
 ! A34   A(15,17,21)           120.1796         estimate D2E/DX2                !
 ! A35   A(15,17,22)           119.8364         estimate D2E/DX2                !
 ! A36   A(21,17,22)           119.984          estimate D2E/DX2                !
 ! A37   A(16,19,21)           120.1804         estimate D2E/DX2                !
 ! A38   A(16,19,23)           119.7758         estimate D2E/DX2                !
 ! A39   A(21,19,23)           120.0437         estimate D2E/DX2                !
 ! A40   A(17,21,19)           119.7712         estimate D2E/DX2                !
 ! A41   A(17,21,24)           120.1011         estimate D2E/DX2                !
 ! A42   A(19,21,24)           120.1277         estimate D2E/DX2                !
 ! A43   A(1,25,26)            121.9609         estimate D2E/DX2                !
 ! A44   A(1,25,27)            118.858          estimate D2E/DX2                !
 ! A45   A(26,25,27)           119.181          estimate D2E/DX2                !
 ! A46   A(25,26,28)           120.3584         estimate D2E/DX2                !
 ! A47   A(25,26,29)           119.5292         estimate D2E/DX2                !
 ! A48   A(28,26,29)           120.1097         estimate D2E/DX2                !
 ! A49   A(25,27,30)           120.3293         estimate D2E/DX2                !
 ! A50   A(25,27,31)           119.9861         estimate D2E/DX2                !
 ! A51   A(30,27,31)           119.6844         estimate D2E/DX2                !
 ! A52   A(26,28,32)           120.1804         estimate D2E/DX2                !
 ! A53   A(26,28,33)           119.7758         estimate D2E/DX2                !
 ! A54   A(32,28,33)           120.0437         estimate D2E/DX2                !
 ! A55   A(27,30,32)           120.1796         estimate D2E/DX2                !
 ! A56   A(27,30,34)           119.8364         estimate D2E/DX2                !
 ! A57   A(32,30,34)           119.984          estimate D2E/DX2                !
 ! A58   A(28,32,30)           119.7712         estimate D2E/DX2                !
 ! A59   A(28,32,35)           120.1277         estimate D2E/DX2                !
 ! A60   A(30,32,35)           120.1011         estimate D2E/DX2                !
 ! D1    D(2,1,3,4)            152.6813         estimate D2E/DX2                !
 ! D2    D(2,1,3,5)            -27.4457         estimate D2E/DX2                !
 ! D3    D(14,1,3,4)            35.8614         estimate D2E/DX2                !
 ! D4    D(14,1,3,5)          -144.2656         estimate D2E/DX2                !
 ! D5    D(25,1,3,4)           -90.4987         estimate D2E/DX2                !
 ! D6    D(25,1,3,5)            89.3743         estimate D2E/DX2                !
 ! D7    D(2,1,14,15)          -27.4457         estimate D2E/DX2                !
 ! D8    D(2,1,14,16)          152.6813         estimate D2E/DX2                !
 ! D9    D(3,1,14,15)           89.3743         estimate D2E/DX2                !
 ! D10   D(3,1,14,16)          -90.4987         estimate D2E/DX2                !
 ! D11   D(25,1,14,15)        -144.2656         estimate D2E/DX2                !
 ! D12   D(25,1,14,16)          35.8614         estimate D2E/DX2                !
 ! D13   D(2,1,25,26)          152.6813         estimate D2E/DX2                !
 ! D14   D(2,1,25,27)          -27.4457         estimate D2E/DX2                !
 ! D15   D(3,1,25,26)           35.8614         estimate D2E/DX2                !
 ! D16   D(3,1,25,27)         -144.2656         estimate D2E/DX2                !
 ! D17   D(14,1,25,26)         -90.4987         estimate D2E/DX2                !
 ! D18   D(14,1,25,27)          89.3743         estimate D2E/DX2                !
 ! D19   D(1,3,4,6)            179.9445         estimate D2E/DX2                !
 ! D20   D(1,3,4,7)             -0.6577         estimate D2E/DX2                !
 ! D21   D(5,3,4,6)              0.0719         estimate D2E/DX2                !
 ! D22   D(5,3,4,7)            179.4697         estimate D2E/DX2                !
 ! D23   D(1,3,5,8)           -179.825          estimate D2E/DX2                !
 ! D24   D(1,3,5,9)              0.0092         estimate D2E/DX2                !
 ! D25   D(4,3,5,8)              0.0516         estimate D2E/DX2                !
 ! D26   D(4,3,5,9)            179.8858         estimate D2E/DX2                !
 ! D27   D(3,4,6,10)            -0.1397         estimate D2E/DX2                !
 ! D28   D(3,4,6,11)           179.7801         estimate D2E/DX2                !
 ! D29   D(7,4,6,10)          -179.534          estimate D2E/DX2                !
 ! D30   D(7,4,6,11)             0.3859         estimate D2E/DX2                !
 ! D31   D(3,5,8,10)            -0.1079         estimate D2E/DX2                !
 ! D32   D(3,5,8,12)           179.9266         estimate D2E/DX2                !
 ! D33   D(9,5,8,10)          -179.9426         estimate D2E/DX2                !
 ! D34   D(9,5,8,12)             0.0919         estimate D2E/DX2                !
 ! D35   D(4,6,10,8)             0.0831         estimate D2E/DX2                !
 ! D36   D(4,6,10,13)         -179.9836         estimate D2E/DX2                !
 ! D37   D(11,6,10,8)         -179.8365         estimate D2E/DX2                !
 ! D38   D(11,6,10,13)           0.0968         estimate D2E/DX2                !
 ! D39   D(5,8,10,6)             0.0404         estimate D2E/DX2                !
 ! D40   D(5,8,10,13)         -179.893          estimate D2E/DX2                !
 ! D41   D(12,8,10,6)         -179.9943         estimate D2E/DX2                !
 ! D42   D(12,8,10,13)           0.0724         estimate D2E/DX2                !
 ! D43   D(1,14,15,17)        -179.825          estimate D2E/DX2                !
 ! D44   D(1,14,15,18)           0.0092         estimate D2E/DX2                !
 ! D45   D(16,14,15,17)          0.0516         estimate D2E/DX2                !
 ! D46   D(16,14,15,18)        179.8858         estimate D2E/DX2                !
 ! D47   D(1,14,16,19)         179.9445         estimate D2E/DX2                !
 ! D48   D(1,14,16,20)          -0.6577         estimate D2E/DX2                !
 ! D49   D(15,14,16,19)          0.0719         estimate D2E/DX2                !
 ! D50   D(15,14,16,20)        179.4697         estimate D2E/DX2                !
 ! D51   D(14,15,17,21)         -0.1079         estimate D2E/DX2                !
 ! D52   D(14,15,17,22)        179.9266         estimate D2E/DX2                !
 ! D53   D(18,15,17,21)       -179.9426         estimate D2E/DX2                !
 ! D54   D(18,15,17,22)          0.0919         estimate D2E/DX2                !
 ! D55   D(14,16,19,21)         -0.1397         estimate D2E/DX2                !
 ! D56   D(14,16,19,23)        179.7801         estimate D2E/DX2                !
 ! D57   D(20,16,19,21)       -179.534          estimate D2E/DX2                !
 ! D58   D(20,16,19,23)          0.3859         estimate D2E/DX2                !
 ! D59   D(15,17,21,19)          0.0404         estimate D2E/DX2                !
 ! D60   D(15,17,21,24)       -179.893          estimate D2E/DX2                !
 ! D61   D(22,17,21,19)       -179.9943         estimate D2E/DX2                !
 ! D62   D(22,17,21,24)          0.0724         estimate D2E/DX2                !
 ! D63   D(16,19,21,17)          0.0831         estimate D2E/DX2                !
 ! D64   D(16,19,21,24)       -179.9836         estimate D2E/DX2                !
 ! D65   D(23,19,21,17)       -179.8365         estimate D2E/DX2                !
 ! D66   D(23,19,21,24)          0.0968         estimate D2E/DX2                !
 ! D67   D(1,25,26,28)         179.9445         estimate D2E/DX2                !
 ! D68   D(1,25,26,29)          -0.6577         estimate D2E/DX2                !
 ! D69   D(27,25,26,28)          0.0719         estimate D2E/DX2                !
 ! D70   D(27,25,26,29)        179.4697         estimate D2E/DX2                !
 ! D71   D(1,25,27,30)        -179.825          estimate D2E/DX2                !
 ! D72   D(1,25,27,31)           0.0092         estimate D2E/DX2                !
 ! D73   D(26,25,27,30)          0.0516         estimate D2E/DX2                !
 ! D74   D(26,25,27,31)        179.8858         estimate D2E/DX2                !
 ! D75   D(25,26,28,32)         -0.1397         estimate D2E/DX2                !
 ! D76   D(25,26,28,33)        179.7801         estimate D2E/DX2                !
 ! D77   D(29,26,28,32)       -179.534          estimate D2E/DX2                !
 ! D78   D(29,26,28,33)          0.3859         estimate D2E/DX2                !
 ! D79   D(25,27,30,32)         -0.1079         estimate D2E/DX2                !
 ! D80   D(25,27,30,34)        179.9266         estimate D2E/DX2                !
 ! D81   D(31,27,30,32)       -179.9426         estimate D2E/DX2                !
 ! D82   D(31,27,30,34)          0.0919         estimate D2E/DX2                !
 ! D83   D(26,28,32,30)          0.0831         estimate D2E/DX2                !
 ! D84   D(26,28,32,35)       -179.9836         estimate D2E/DX2                !
 ! D85   D(33,28,32,30)       -179.8365         estimate D2E/DX2                !
 ! D86   D(33,28,32,35)          0.0968         estimate D2E/DX2                !
 ! D87   D(27,30,32,28)          0.0404         estimate D2E/DX2                !
 ! D88   D(27,30,32,35)       -179.893          estimate D2E/DX2                !
 ! D89   D(34,30,32,28)       -179.9943         estimate D2E/DX2                !
 ! D90   D(34,30,32,35)          0.0724         estimate D2E/DX2                !
 --------------------------------------------------------------------------------
 Trust Radius=3.00D-01 FncErr=1.00D-07 GrdErr=1.00D-07
 Number of steps in this run= 197 maximum allowed number of steps= 210.
 GradGradGradGradGradGradGradGradGradGradGradGradGradGradGradGradGradGrad

                          Input orientation:                          
 ---------------------------------------------------------------------
 Center     Atomic      Atomic             Coordinates (Angstroms)
 Number     Number       Type             X           Y           Z
 ---------------------------------------------------------------------
      1          6           0        0.000000    0.000000   -0.795822
      2          1           0        0.000000    0.000000   -1.918517
      3          6           0       -0.007980    1.442959   -0.355448
      4          6           0       -0.553575    1.839451    0.866338
      5          6           0        0.550836    2.408260   -1.197487
      6          6           0       -0.542104    3.178882    1.239521
      7          1           0       -1.001952    1.087011    1.528434
      8          6           0        0.563140    3.745919   -0.820631
      9          1           0        0.984717    2.111240   -2.159337
     10          6           0        0.016545    4.134075    0.398015
     11          1           0       -0.975990    3.479812    2.198592
     12          1           0        1.004081    4.495240   -1.485995
     13          1           0        0.025353    5.188238    0.692776
     14          6           0       -1.245649   -0.728390   -0.355448
     15          6           0       -2.361033   -0.727092   -1.197487
     16          6           0       -1.316224   -1.399135    0.866338
     17          6           0       -3.525631   -1.385266   -0.820631
     18          1           0       -2.320746   -0.202830   -2.159337
     19          6           0       -2.481941   -2.058916    1.239521
     20          1           0       -0.440403   -1.411221    1.528434
     21          6           0       -3.588486   -2.052709    0.398015
     22          1           0       -4.395033   -1.378060   -1.485995
     23          1           0       -2.525611   -2.585139    2.198592
     24          1           0       -4.505822   -2.572162    0.692776
     25          6           0        1.253629   -0.714569   -0.355448
     26          6           0        1.869799   -0.440316    0.866338
     27          6           0        1.810196   -1.681169   -1.197487
     28          6           0        3.024044   -1.119966    1.239521
     29          1           0        1.442355    0.324210    1.528434
     30          6           0        2.962491   -2.360653   -0.820631
     31          1           0        1.336029   -1.908410   -2.159337
     32          6           0        3.571941   -2.081366    0.398015
     33          1           0        3.501601   -0.894674    2.198592
     34          1           0        3.390952   -3.117180   -1.485995
     35          1           0        4.480469   -2.616076    0.692776
 ---------------------------------------------------------------------
                    Distance matrix (angstroms):
                    1          2          3          4          5
     1  C    0.000000
     2  H    1.122695   0.000000
     3  C    1.508683   2.127294   0.000000
     4  C    2.540237   3.383112   1.395579   0.000000
     5  C    2.502893   2.573523   1.397538   2.408868   0.000000
     6  C    3.813370   4.513576   2.417156   1.390493   2.779818
     7  H    2.754572   3.750596   2.159558   1.097989   3.404041
     8  C    3.788094   3.943906   2.417891   2.779845   1.389785
     9  H    2.699292   2.342007   2.164731   3.405132   1.096188
    10  C    4.303033   4.738899   2.794711   2.410324   2.410296
    11  H    4.693417   5.478342   3.407189   2.155022   3.874632
    12  H    4.657435   4.626277   3.408640   3.874659   2.155030
    13  H    5.397627   5.808382   3.889344   3.402889   3.402572
    14  C    1.508683   2.127294   2.499317   2.926694   3.711465
    15  C    2.502893   2.573523   3.309836   3.756784   4.278950
    16  C    2.540237   3.383112   3.358834   3.327173   4.716095
    17  C    3.788094   3.943906   4.537524   4.698701   5.581259
    18  H    2.699292   2.342007   3.363261   4.055677   3.998617
    19  C    3.813370   4.513576   4.574663   4.365219   5.923885
    20  H    2.754572   3.750596   3.447078   3.319345   4.796002
    21  C    4.303033   4.738899   5.060378   4.957714   6.291253
    22  H    4.657435   4.626277   5.336902   5.535581   6.235470
    23  H    4.693417   5.478342   5.393251   5.024024   6.777309
    24  H    5.397627   5.808382   6.119686   5.925599   7.344896
    25  C    1.508683   2.127294   2.499317   3.358834   3.309836
    26  C    2.540237   3.383112   2.926694   3.327173   3.756784
    27  C    2.502893   2.573523   3.711465   4.716095   4.278950
    28  C    3.813370   4.513576   4.278514   4.657979   4.950166
    29  H    2.754572   3.750596   2.627562   2.591922   3.545239
    30  C    3.788094   3.943906   4.848460   5.731445   5.357297
    31  H    2.699292   2.342007   4.036341   5.174145   4.491695
    32  C    4.303033   4.738899   5.079804   5.710693   5.641759
    33  H    4.693417   5.478342   4.929990   5.069003   5.581195
    34  H    4.657435   4.626277   5.798771   6.757289   6.219323
    35  H    5.397627   5.808382   6.141718   6.724837   6.652748
                    6          7          8          9         10
     6  C    0.000000
     7  H    2.161216   0.000000
     8  C    2.405685   3.877810   0.000000
     9  H    3.875987   4.312256   2.154539   0.000000
    10  C    1.390185   3.405845   1.390873   3.401362   0.000000
    11  H    1.094821   2.485012   3.399329   4.970806   2.157606
    12  H    3.398812   4.972623   1.094816   2.477342   2.157583
    13  H    2.158344   4.309726   2.158679   4.303817   1.094633
    14  C    4.278514   2.627562   4.848460   4.036341   5.079804
    15  C    4.950166   3.545239   5.357297   4.491695   5.641759
    16  C    4.657979   2.591922   5.731445   5.174145   5.710693
    17  C    5.828989   4.242548   6.561030   5.861820   6.670475
    18  H    5.113881   4.123416   5.069670   4.034973   5.550830
    19  C    5.585472   3.488653   6.871162   6.400012   6.730803
    20  H    4.600311   2.560566   5.755111   5.295125   5.677759
    21  C    6.112129   4.222067   7.234997   6.692735   7.160485
    22  H    6.560429   5.164916   7.161100   6.447505   7.307198
    23  H    6.170741   4.031790   7.664097   7.305472   7.406245
    24  H    7.006034   5.134684   8.240323   7.759821   8.093967
    25  C    4.574663   3.447078   4.537524   3.363261   5.060378
    26  C    4.365219   3.319345   4.698701   4.055677   4.957714
    27  C    5.923885   4.796002   5.581259   3.998616   6.291253
    28  C    5.585472   4.600311   5.828989   5.113881   6.112129
    29  H    3.488653   2.560566   4.242548   4.123416   4.222067
    30  C    6.871162   5.755111   6.561030   5.069670   7.234997
    31  H    6.400012   5.295125   5.861820   4.034973   6.692735
    32  C    6.730802   5.677759   6.670475   5.550830   7.160485
    33  H    5.819383   4.965699   6.267804   5.861891   6.377774
    34  H    7.908082   6.786723   7.452608   5.794802   8.216861
    35  H    7.688088   6.668441   7.623047   6.534703   8.098026
                   11         12         13         14         15
    11  H    0.000000
    12  H    4.304412   0.000000
    13  H    2.487748   2.487005   0.000000
    14  C    4.929990   5.798771   6.141718   0.000000
    15  C    5.581195   6.219323   6.652748   1.397538   0.000000
    16  C    5.069003   6.757289   6.724837   1.395579   2.408868
    17  C    6.267804   7.452608   7.623047   2.417891   1.389785
    18  H    5.861891   5.794802   6.534703   2.164731   1.096188
    19  C    5.819383   7.908082   7.688088   2.417156   2.779818
    20  H    4.965699   6.786722   6.668441   2.159558   3.404041
    21  C    6.377774   8.216861   8.098026   2.794711   2.410296
    22  H    6.990347   7.977850   8.209941   3.408640   2.155030
    23  H    6.259788   8.727352   8.318670   3.407189   3.874632
    24  H    7.166142   9.222486   8.986398   3.889344   3.402572
    25  C    5.393251   5.336902   6.119686   2.499317   3.711465
    26  C    5.024024   5.535581   5.925598   3.358834   4.716095
    27  C    6.777309   6.235470   7.344896   3.309836   4.278950
    28  C    6.170741   6.560429   7.006033   4.574663   5.923885
    29  H    4.031790   5.164916   5.134684   3.447078   4.796002
    30  C    7.664097   7.161100   8.240323   4.537524   5.581259
    31  H    7.305472   6.447505   7.759821   3.363261   3.998616
    32  C    7.406245   7.307198   8.093967   5.060378   6.291253
    33  H    6.259788   6.990347   7.166142   5.393251   6.777309
    34  H    8.727352   7.977850   9.222486   5.336902   6.235470
    35  H    8.318670   8.209940   8.986398   6.119686   7.344896
                   16         17         18         19         20
    16  C    0.000000
    17  C    2.779845   0.000000
    18  H    3.405132   2.154539   0.000000
    19  C    1.390493   2.405685   3.875987   0.000000
    20  H    1.097989   3.877810   4.312256   2.161216   0.000000
    21  C    2.410323   1.390873   3.401362   1.390185   3.405845
    22  H    3.874659   1.094816   2.477342   3.398812   4.972623
    23  H    2.155022   3.399329   4.970806   1.094821   2.485012
    24  H    3.402889   2.158679   4.303817   2.158344   4.309727
    25  C    2.926694   4.848460   4.036341   4.278514   2.627562
    26  C    3.327173   5.731445   5.174145   4.657980   2.591922
    27  C    3.756784   5.357297   4.491695   4.950166   3.545239
    28  C    4.365219   6.871162   6.400012   5.585472   3.488653
    29  H    3.319345   5.755111   5.295125   4.600311   2.560566
    30  C    4.698701   6.561030   5.861820   5.828989   4.242548
    31  H    4.055677   5.069670   4.034973   5.113881   4.123416
    32  C    4.957714   7.234997   6.692735   6.112129   4.222067
    33  H    5.024024   7.664097   7.305472   6.170741   4.031790
    34  H    5.535581   7.161100   6.447505   6.560429   5.164916
    35  H    5.925598   8.240323   7.759821   7.006034   5.134684
                   21         22         23         24         25
    21  C    0.000000
    22  H    2.157583   0.000000
    23  H    2.157606   4.304412   0.000000
    24  H    1.094633   2.487005   2.487748   0.000000
    25  C    5.079804   5.798771   4.929990   6.141718   0.000000
    26  C    5.710693   6.757289   5.069003   6.724838   1.395579
    27  C    5.641759   6.219323   5.581195   6.652748   1.397538
    28  C    6.730802   7.908082   5.819383   7.688088   2.417156
    29  H    5.677759   6.786723   4.965699   6.668441   2.159558
    30  C    6.670475   7.452608   6.267804   7.623047   2.417891
    31  H    5.550830   5.794802   5.861891   6.534703   2.164731
    32  C    7.160485   8.216861   6.377774   8.098026   2.794711
    33  H    7.406244   8.727352   6.259788   8.318670   3.407189
    34  H    7.307198   7.977850   6.990347   8.209941   3.408640
    35  H    8.093967   9.222486   7.166142   8.986398   3.889344
                   26         27         28         29         30
    26  C    0.000000
    27  C    2.408868   0.000000
    28  C    1.390493   2.779818   0.000000
    29  H    1.097989   3.404041   2.161216   0.000000
    30  C    2.779845   1.389785   2.405685   3.877810   0.000000
    31  H    3.405132   1.096188   3.875987   4.312256   2.154539
    32  C    2.410323   2.410296   1.390185   3.405845   1.390873
    33  H    2.155022   3.874632   1.094821   2.485012   3.399329
    34  H    3.874659   2.155030   3.398812   4.972623   1.094816
    35  H    3.402889   3.402572   2.158344   4.309726   2.158679
                   31         32         33         34         35
    31  H    0.000000
    32  C    3.401362   0.000000
    33  H    4.970806   2.157606   0.000000
    34  H    2.477342   2.157583   4.304412   0.000000
    35  H    4.303817   1.094633   2.487748   2.487005   0.000000
 Stoichiometry    C19H16
 Framework group  C3[C3(CH),X(C18H15)]
 Deg. of freedom    33
 Full point group                 C3      NOp   3
 Largest Abelian subgroup         C1      NOp   1
 Largest concise Abelian subgroup C1      NOp   1
                         Standard orientation:                         
 ---------------------------------------------------------------------
 Center     Atomic      Atomic             Coordinates (Angstroms)
 Number     Number       Type             X           Y           Z
 ---------------------------------------------------------------------
      1          6           0        0.000000    0.000000    0.780249
      2          1           0        0.000000    0.000000    1.902944
      3          6           0        0.000000    1.442981    0.339875
      4          6           0        0.543394    1.842484   -0.881911
      5          6           0       -0.564146    2.405177    1.181914
      6          6           0        0.524516    3.181831   -1.255094
      7          1           0        0.995925    1.092535   -1.544007
      8          6           0       -0.583846    3.742748    0.805058
      9          1           0       -0.996377    2.105762    2.143764
     10          6           0       -0.039406    4.133920   -0.413588
     11          1           0        0.956732    3.485156   -2.214165
     12          1           0       -1.028925    4.489619    1.470422
     13          1           0       -0.054044    5.188018   -0.708348
     14          6           0        1.249658   -0.721491    0.339875
     15          6           0        2.365018   -0.714024    1.181914
     16          6           0        1.323941   -1.391835   -0.881911
     17          6           0        3.533238   -1.365748    0.805058
     18          1           0        2.321832   -0.189993    2.143764
     19          6           0        2.493289   -2.045160   -1.255094
     20          1           0        0.448200   -1.408764   -1.544007
     21          6           0        3.599783   -2.032833   -0.413588
     22          1           0        4.402586   -1.353734    1.470422
     23          1           0        2.539868   -2.571132   -2.214165
     24          1           0        4.519977   -2.547205   -0.708348
     25          6           0       -1.249658   -0.721491    0.339875
     26          6           0       -1.867335   -0.450649   -0.881911
     27          6           0       -1.800872   -1.691153    1.181914
     28          6           0       -3.017805   -1.136671   -1.255094
     29          1           0       -1.444126    0.316229   -1.544007
     30          6           0       -2.949392   -2.377000    0.805058
     31          1           0       -1.325455   -1.915769    2.143764
     32          6           0       -3.560377   -2.101087   -0.413588
     33          1           0       -3.496600   -0.914024   -2.214165
     34          1           0       -3.373662   -3.135885    1.470422
     35          1           0       -4.465933   -2.640813   -0.708348
 ---------------------------------------------------------------------
 Rotational constants (GHZ):      0.3904171      0.3904171      0.2359646
 Standard basis: 6-311G (5D, 7F)
 There are   295 symmetry adapted basis functions of A   symmetry.
 Integral buffers will be    262144 words long.
 Raffenetti 1 integral format.
 Two-electron integral symmetry is turned on.
   295 basis functions,   574 primitive gaussians,   295 cartesian basis functions
    65 alpha electrons       65 beta electrons
       nuclear repulsion energy      1290.4986341160 Hartrees.
 NAtoms=   35 NActive=   35 NUniq=   13 SFac= 3.00D+00 NAtFMM=   80 NAOKFM=F Big=F
 One-electron integrals computed using PRISM.
 PrsmSu:  requested number of processors reduced to:  10 ShMem   1 Linda.
 NBasis=   295 RedAO= T  NBF=   295
 NBsUse=   295 1.00D-06 NBFU=   295
 Harris functional with IExCor=  205 diagonalized for initial guess.
 ExpMin= 1.03D-01 ExpMax= 4.56D+03 ExpMxC= 6.82D+02 IAcc=1 IRadAn=         1 AccDes= 0.00D+00
 HarFok:  IExCor=  205 AccDes= 0.00D+00 IRadAn=         1 IDoV= 1
 ScaDFX=  1.000000  1.000000  1.000000  1.000000
 FoFCou: FMM=F IPFlag=           0 FMFlag=      100000 FMFlg1=           0
         NFxFlg=           0 DoJE=T BraDBF=F KetDBF=T FulRan=T
         Omega=  0.000000  0.000000  1.000000  0.000000  0.000000 ICntrl=     500 IOpCl=  0
         NMat0=    1 NMatS0=    1 NMatT0=    0 NMatD0=    1 NMtDS0=    0 NMtDT0=    0
         I1Cent=           4 NGrid=           0.
 Petite list used in FoFCou.
 Initial guess orbital symmetries:
       Occupied  (E) (E) (A) (A) (E) (E) (A) (E) (E) (E) (E) (A)
                 (E) (E) (A) (E) (E) (A) (A) (A) (E) (E) (A) (A)
                 (E) (E) (E) (E) (A) (A) (E) (E) (E) (E) (A) (E)
                 (E) (A) (A) (E) (E) (E) (E) (A) (E) (E) (A) (E)
                 (E) (A) (E) (E) (A) (A) (E) (E) (E) (E) (A) (E)
                 (E) (A) (E) (E) (A)
       Virtual   (E) (E) (A) (E) (E) (A) (A) (A) (E) (E) (E) (E)
                 (A) (A) (E) (E) (E) (E) (A) (A) (E) (E) (E) (E)
                 (A) (A) (E) (E) (A) (E) (E) (A) (E) (E) (E) (E)
                 (A) (E) (E) (A) (E) (E) (A) (E) (E) (A) (A) (E)
                 (E) (E) (E) (A) (A) (E) (E) (A) (E) (E) (E) (E)
                 (A) (E) (E) (A) (E) (E) (A) (A) (E) (E) (E) (E)
                 (A) (A) (E) (E) (A) (A) (E) (E) (A) (E) (E) (A)
                 (E) (E) (A) (A) (E) (E) (E) (E) (A) (E) (E) (A)
                 (E) (E) (A) (E) (E) (A) (E) (E) (E) (E) (A) (E)
                 (E) (A) (E) (E) (E) (E) (A) (A) (E) (E) (A) (E)
                 (E) (A) (A) (E) (E) (E) (E) (A) (E) (E) (A) (A)
                 (E) (E) (A) (E) (E) (A) (E) (E) (A) (A) (E) (E)
                 (E) (E) (A) (A) (E) (E) (A) (E) (E) (A) (E) (E)
                 (A) (E) (E) (E) (E) (A) (A) (A) (E) (E) (A) (E)
                 (E) (A) (E) (E) (A) (E) (E) (A) (E) (E) (E) (E)
                 (A) (A) (E) (E) (E) (E) (A) (E) (E) (E) (E) (A)
                 (E) (E) (A) (A) (E) (E) (E) (E) (E) (E) (A) (A)
                 (E) (E) (A) (A) (E) (E) (A) (A) (E) (E) (E) (E)
                 (A) (A) (E) (E) (A) (E) (E) (A) (E) (E) (A) (A)
                 (E) (E)
 The electronic state of the initial guess is 1-A.
 Requested convergence on RMS density matrix=1.00D-08 within 128 cycles.
 Requested convergence on MAX density matrix=1.00D-06.
 Requested convergence on             energy=1.00D-06.
 No special actions if energy rises.
 Integral accuracy reduced to 1.0D-05 until final iterations.
 Initial convergence to 1.0D-05 achieved.  Increase integral accuracy.
 DSYEVD returned Info=       44103 IAlg= 4 N=   295 NDim=   295 NE2=      112833 trying DSYEV.
 SCF Done:  E(RHF) =  -728.678041918     A.U. after   14 cycles
             Convg  =    0.6811D-08             -V/T =  2.0001

 **********************************************************************

            Population analysis using the SCF density.

 **********************************************************************

 Orbital symmetries:
       Occupied  (A) (E) (E) (A) (E) (E) (A) (A) (E) (E) (E) (E)
                 (A) (E) (E) (A) (E) (E) (A) (A) (E) (E) (A) (A)
                 (E) (E) (E) (E) (A) (A) (E) (E) (E) (E) (A) (E)
                 (E) (A) (A) (E) (E) (E) (E) (A) (A) (E) (E) (E)
                 (E) (A) (A) (E) (E) (A) (E) (E) (A) (E) (E) (E)
                 (E) (A) (E) (E) (A)
       Virtual   (E) (E) (A) (A) (E) (E) (A) (E) (E) (A) (A) (E)
                 (E) (E) (E) (A) (E) (E) (A) (E) (E) (A) (E) (E)
                 (A) (E) (E) (A) (A) (A) (E) (E) (E) (E) (E) (E)
                 (A) (A) (E) (E) (A) (E) (E) (E) (E) (A) (E) (E)
                 (A) (A) (E) (E) (A) (E) (E) (A) (E) (E) (A) (E)
                 (E) (E) (E) (A) (A) (E) (E) (A) (E) (E) (A) (E)
                 (E) (A) (E) (E) (A) (E) (E) (A) (A) (E) (E) (E)
                 (E) (A) (E) (E) (A) (E) (E) (A) (A) (E) (E) (A)
                 (E) (E) (A) (E) (E) (E) (E) (A) (E) (E) (A) (E)
                 (E) (A) (E) (E) (E) (E) (A) (A) (A) (E) (E) (A)
                 (E) (E) (A) (E) (E) (A) (E) (E) (A) (E) (E) (A)
                 (E) (E) (A) (E) (E) (A) (E) (E) (A) (E) (E) (A)
                 (E) (E) (A) (E) (E) (A) (A) (E) (E) (A) (A) (E)
                 (E) (E) (E) (A) (E) (E) (A) (A) (E) (E) (E) (E)
                 (A) (E) (E) (A) (A) (E) (E) (A) (E) (E) (E) (E)
                 (A) (A) (E) (E) (E) (E) (A) (E) (E) (A) (E) (E)
                 (A) (E) (E) (A) (E) (E) (E) (E) (E) (E) (A) (A)
                 (A) (E) (E) (A) (E) (E) (A) (A) (E) (E) (E) (E)
                 (A) (A) (E) (E) (A) (E) (E) (A) (E) (E) (A) (A)
                 (E) (E)
 The electronic state is 1-A.
 Alpha  occ. eigenvalues --  -11.25722 -11.25093 -11.25093 -11.25086 -11.24306
 Alpha  occ. eigenvalues --  -11.24306 -11.24306 -11.24283 -11.24283 -11.24283
 Alpha  occ. eigenvalues --  -11.24020 -11.24020 -11.24020 -11.23961 -11.23961
 Alpha  occ. eigenvalues --  -11.23961 -11.23816 -11.23816 -11.23816  -1.18580
 Alpha  occ. eigenvalues --   -1.15714  -1.15714  -1.09021  -1.02189  -1.02043
 Alpha  occ. eigenvalues --   -1.02043  -1.01367  -1.01367  -0.92882  -0.84083
 Alpha  occ. eigenvalues --   -0.82992  -0.82992  -0.81453  -0.81453  -0.77511
 Alpha  occ. eigenvalues --   -0.70624  -0.70624  -0.68789  -0.65638  -0.63789
 Alpha  occ. eigenvalues --   -0.63789  -0.61931  -0.61931  -0.61742  -0.59100
 Alpha  occ. eigenvalues --   -0.58735  -0.58735  -0.58058  -0.58058  -0.54341
 Alpha  occ. eigenvalues --   -0.51185  -0.50835  -0.50835  -0.49663  -0.49105
 Alpha  occ. eigenvalues --   -0.49105  -0.47443  -0.47176  -0.47176  -0.34453
 Alpha  occ. eigenvalues --   -0.34453  -0.34003  -0.33231  -0.33231  -0.31221
 Alpha virt. eigenvalues --    0.12202   0.12202   0.12406   0.14449   0.14461
 Alpha virt. eigenvalues --    0.14461   0.15131   0.16317   0.16317   0.17111
 Alpha virt. eigenvalues --    0.19071   0.19126   0.19126   0.21253   0.21253
 Alpha virt. eigenvalues --    0.21553   0.23844   0.23844   0.24470   0.26750
 Alpha virt. eigenvalues --    0.26750   0.28540   0.34017   0.34017   0.35102
 Alpha virt. eigenvalues --    0.39174   0.39174   0.39342   0.41081   0.43773
 Alpha virt. eigenvalues --    0.43878   0.43878   0.44971   0.44971   0.45562
 Alpha virt. eigenvalues --    0.45562   0.45806   0.48350   0.49765   0.49765
 Alpha virt. eigenvalues --    0.50696   0.50883   0.50883   0.55385   0.55385
 Alpha virt. eigenvalues --    0.57222   0.58704   0.58704   0.58769   0.59461
 Alpha virt. eigenvalues --    0.60070   0.60070   0.61460   0.61555   0.61555
 Alpha virt. eigenvalues --    0.61702   0.62245   0.62245   0.63518   0.63793
 Alpha virt. eigenvalues --    0.63793   0.65423   0.65423   0.66728   0.67122
 Alpha virt. eigenvalues --    0.67865   0.67865   0.69144   0.70652   0.70652
 Alpha virt. eigenvalues --    0.73049   0.74593   0.74593   0.74987   0.75572
 Alpha virt. eigenvalues --    0.75572   0.78147   0.80261   0.80261   0.80274
 Alpha virt. eigenvalues --    0.81938   0.82009   0.82009   0.82966   0.82966
 Alpha virt. eigenvalues --    0.83743   0.84372   0.84372   0.85143   0.86019
 Alpha virt. eigenvalues --    0.86019   0.86224   0.87294   0.87741   0.87741
 Alpha virt. eigenvalues --    0.88559   0.90866   0.90866   0.92782   0.94591
 Alpha virt. eigenvalues --    0.94591   0.97231   0.97231   0.97799   1.00025
 Alpha virt. eigenvalues --    1.00025   1.00727   1.04035   1.04035   1.06247
 Alpha virt. eigenvalues --    1.07013   1.07013   1.08770   1.08770   1.09868
 Alpha virt. eigenvalues --    1.11112   1.12259   1.12936   1.12936   1.14205
 Alpha virt. eigenvalues --    1.14661   1.14661   1.17906   1.20749   1.20749
 Alpha virt. eigenvalues --    1.26741   1.27484   1.27484   1.28640   1.30057
 Alpha virt. eigenvalues --    1.30057   1.39623   1.40633   1.40633   1.49097
 Alpha virt. eigenvalues --    1.52303   1.52303   1.54955   2.55828   2.55828
 Alpha virt. eigenvalues --    2.56442   2.61669   2.61669   2.61689   2.66498
 Alpha virt. eigenvalues --    2.66498   2.67963   2.70425   2.70425   2.70906
 Alpha virt. eigenvalues --    2.78495   2.84846   2.84846   2.88585   2.94549
 Alpha virt. eigenvalues --    2.94640   2.94640   2.97629   2.97629   2.97663
 Alpha virt. eigenvalues --    3.01458   3.01458   3.04373   3.06192   3.07549
 Alpha virt. eigenvalues --    3.07549   3.08640   3.08640   3.09331   3.15405
 Alpha virt. eigenvalues --    3.15405   3.15659   3.17438   3.18984   3.18984
 Alpha virt. eigenvalues --    3.23298   3.25376   3.25376   3.28852   3.28852
 Alpha virt. eigenvalues --    3.29676   3.33106   3.34952   3.34952   3.42278
 Alpha virt. eigenvalues --    3.42278   3.43271   3.48630   3.48630   3.53953
 Alpha virt. eigenvalues --    3.54090   3.54090   3.59971   3.60370   3.60370
 Alpha virt. eigenvalues --    3.63123   3.63605   3.63605   3.65841   3.65841
 Alpha virt. eigenvalues --    3.69792   3.69792   3.70510   3.70711   3.75206
 Alpha virt. eigenvalues --    3.75900   3.75900   3.84511   3.87414   3.87414
 Alpha virt. eigenvalues --    3.91517  24.25948  24.31581  24.31581  24.50736
 Alpha virt. eigenvalues --   24.50736  24.51249  24.54560  24.55840  24.55840
 Alpha virt. eigenvalues --   24.77632  24.79322  24.79322  24.79930  24.80812
 Alpha virt. eigenvalues --   24.80812  24.83364  25.05348  25.06160  25.06160
          Condensed to atoms (all electrons):
              1          2          3          4          5          6
     1  C    5.859989   0.483543   0.145236  -0.040995  -0.054799   0.004231
     2  H    0.483543   0.515257  -0.072038   0.005307  -0.001097  -0.000240
     3  C    0.145236  -0.072038   5.358128   0.479776   0.483994  -0.067587
     4  C   -0.040995   0.005307   0.479776   5.114293  -0.068600   0.469024
     5  C   -0.054799  -0.001097   0.483994  -0.068600   5.058708  -0.031797
     6  C    0.004231  -0.000240  -0.067587   0.469024  -0.031797   5.051874
     7  H   -0.000835  -0.000120  -0.042539   0.392271   0.004182  -0.029827
     8  C    0.007231   0.001484  -0.065742  -0.029445   0.463598  -0.075867
     9  H    0.000495   0.001468  -0.048773   0.004435   0.399241  -0.000423
    10  C    0.001168  -0.000011  -0.016430  -0.093809  -0.087589   0.496669
    11  H   -0.000337   0.000014   0.006124  -0.037816  -0.000380   0.396187
    12  H   -0.000372  -0.000026   0.006682  -0.000534  -0.039645   0.006120
    13  H   -0.000017  -0.000001  -0.001542   0.007823   0.007435  -0.042469
    14  C    0.145236  -0.072038  -0.097202  -0.018620   0.005719   0.000098
    15  C   -0.054799  -0.001097  -0.001109   0.000237   0.000842  -0.000167
    16  C   -0.040995   0.005307  -0.008176  -0.005091  -0.000166  -0.000019
    17  C    0.007231   0.001484  -0.000632   0.000382   0.000003  -0.000009
    18  H    0.000495   0.001468   0.000950   0.000222   0.000232   0.000007
    19  C    0.004231  -0.000240   0.000680  -0.001068   0.000022  -0.000022
    20  H   -0.000835  -0.000120  -0.000792   0.000738  -0.000017   0.000043
    21  C    0.001168  -0.000011   0.000038   0.000069  -0.000001   0.000005
    22  H   -0.000372  -0.000026   0.000024   0.000003   0.000000   0.000000
    23  H   -0.000337   0.000014  -0.000003   0.000016   0.000000   0.000001
    24  H   -0.000017  -0.000001   0.000000  -0.000001   0.000000   0.000000
    25  C    0.145236  -0.072038  -0.097202  -0.008176  -0.001109   0.000680
    26  C   -0.040995   0.005307  -0.018620  -0.005091   0.000237  -0.001068
    27  C   -0.054799  -0.001097   0.005719  -0.000166   0.000842   0.000022
    28  C    0.004231  -0.000240   0.000098  -0.000019  -0.000167  -0.000022
    29  H   -0.000835  -0.000120  -0.001958   0.001443  -0.000873   0.000920
    30  C    0.007231   0.001484  -0.000776   0.000027  -0.000034   0.000000
    31  H    0.000495   0.001468   0.000485  -0.000031   0.000044   0.000000
    32  C    0.001168  -0.000011   0.000097  -0.000017  -0.000009   0.000000
    33  H   -0.000337   0.000014   0.000029   0.000018   0.000007   0.000000
    34  H   -0.000372  -0.000026   0.000011   0.000000   0.000001   0.000000
    35  H   -0.000017  -0.000001  -0.000001   0.000000   0.000000   0.000000
              7          8          9         10         11         12
     1  C   -0.000835   0.007231   0.000495   0.001168  -0.000337  -0.000372
     2  H   -0.000120   0.001484   0.001468  -0.000011   0.000014  -0.000026
     3  C   -0.042539  -0.065742  -0.048773  -0.016430   0.006124   0.006682
     4  C    0.392271  -0.029445   0.004435  -0.093809  -0.037816  -0.000534
     5  C    0.004182   0.463598   0.399241  -0.087589  -0.000380  -0.039645
     6  C   -0.029827  -0.075867  -0.000423   0.496669   0.396187   0.006120
     7  H    0.474230  -0.000227  -0.000239   0.004625  -0.003311   0.000018
     8  C   -0.000227   5.055075  -0.036074   0.490317   0.005935   0.397084
     9  H   -0.000239  -0.036074   0.507657   0.005356   0.000022  -0.004230
    10  C    0.004625   0.490317   0.005356   5.033074  -0.040237  -0.040649
    11  H   -0.003311   0.005935   0.000022  -0.040237   0.515680  -0.000211
    12  H    0.000018   0.397084  -0.004230  -0.040649  -0.000211   0.517985
    13  H   -0.000174  -0.042934  -0.000179   0.399538  -0.004405  -0.004496
    14  C   -0.001958  -0.000776   0.000485   0.000097   0.000029   0.000011
    15  C   -0.000873  -0.000034   0.000044  -0.000009   0.000007   0.000001
    16  C    0.001443   0.000027  -0.000031  -0.000017   0.000018   0.000000
    17  C   -0.000191   0.000002   0.000001   0.000000   0.000001   0.000000
    18  H   -0.000038  -0.000005  -0.000001  -0.000009   0.000000   0.000000
    19  C    0.000920   0.000000   0.000000   0.000000   0.000000   0.000000
    20  H    0.000216   0.000003   0.000000   0.000000  -0.000007   0.000000
    21  C    0.000001   0.000000   0.000000   0.000000  -0.000001   0.000000
    22  H    0.000003   0.000000   0.000000   0.000000   0.000000   0.000000
    23  H    0.000008   0.000000   0.000000   0.000000   0.000000   0.000000
    24  H    0.000000   0.000000   0.000000   0.000000   0.000000   0.000000
    25  C   -0.000792  -0.000632   0.000950   0.000038  -0.000003   0.000024
    26  C    0.000738   0.000382   0.000222   0.000069   0.000016   0.000003
    27  C   -0.000017   0.000003   0.000232  -0.000001   0.000000   0.000000
    28  C    0.000043  -0.000009   0.000007   0.000005   0.000001   0.000000
    29  H    0.000216  -0.000191  -0.000038   0.000001   0.000008   0.000003
    30  C    0.000003   0.000002  -0.000005   0.000000   0.000000   0.000000
    31  H    0.000000   0.000001  -0.000001   0.000000   0.000000   0.000000
    32  C    0.000000   0.000000  -0.000009   0.000000   0.000000   0.000000
    33  H   -0.000007   0.000001   0.000000  -0.000001   0.000000   0.000000
    34  H    0.000000   0.000000   0.000000   0.000000   0.000000   0.000000
    35  H    0.000000   0.000000   0.000000   0.000000   0.000000   0.000000
             13         14         15         16         17         18
     1  C   -0.000017   0.145236  -0.054799  -0.040995   0.007231   0.000495
     2  H   -0.000001  -0.072038  -0.001097   0.005307   0.001484   0.001468
     3  C   -0.001542  -0.097202  -0.001109  -0.008176  -0.000632   0.000950
     4  C    0.007823  -0.018620   0.000237  -0.005091   0.000382   0.000222
     5  C    0.007435   0.005719   0.000842  -0.000166   0.000003   0.000232
     6  C   -0.042469   0.000098  -0.000167  -0.000019  -0.000009   0.000007
     7  H   -0.000174  -0.001958  -0.000873   0.001443  -0.000191  -0.000038
     8  C   -0.042934  -0.000776  -0.000034   0.000027   0.000002  -0.000005
     9  H   -0.000179   0.000485   0.000044  -0.000031   0.000001  -0.000001
    10  C    0.399538   0.000097  -0.000009  -0.000017   0.000000  -0.000009
    11  H   -0.004405   0.000029   0.000007   0.000018   0.000001   0.000000
    12  H   -0.004496   0.000011   0.000001   0.000000   0.000000   0.000000
    13  H    0.517929  -0.000001   0.000000   0.000000   0.000000   0.000000
    14  C   -0.000001   5.358128   0.483994   0.479776  -0.065742  -0.048773
    15  C    0.000000   0.483994   5.058708  -0.068600   0.463598   0.399241
    16  C    0.000000   0.479776  -0.068600   5.114293  -0.029445   0.004435
    17  C    0.000000  -0.065742   0.463598  -0.029445   5.055075  -0.036074
    18  H    0.000000  -0.048773   0.399241   0.004435  -0.036074   0.507657
    19  C    0.000000  -0.067587  -0.031797   0.469024  -0.075867  -0.000423
    20  H    0.000000  -0.042539   0.004182   0.392271  -0.000227  -0.000239
    21  C    0.000000  -0.016430  -0.087589  -0.093809   0.490317   0.005356
    22  H    0.000000   0.006682  -0.039645  -0.000534   0.397084  -0.004230
    23  H    0.000000   0.006124  -0.000380  -0.037816   0.005935   0.000022
    24  H    0.000000  -0.001542   0.007435   0.007823  -0.042934  -0.000179
    25  C    0.000000  -0.097202   0.005719  -0.018620  -0.000776   0.000485
    26  C   -0.000001  -0.008176  -0.000166  -0.005091   0.000027  -0.000031
    27  C    0.000000  -0.001109   0.000842   0.000237  -0.000034   0.000044
    28  C    0.000000   0.000680   0.000022  -0.001068   0.000000   0.000000
    29  H    0.000000  -0.000792  -0.000017   0.000738   0.000003   0.000000
    30  C    0.000000  -0.000632   0.000003   0.000382   0.000002   0.000001
    31  H    0.000000   0.000950   0.000232   0.000222  -0.000005  -0.000001
    32  C    0.000000   0.000038  -0.000001   0.000069   0.000000   0.000000
    33  H    0.000000  -0.000003   0.000000   0.000016   0.000000   0.000000
    34  H    0.000000   0.000024   0.000000   0.000003   0.000000   0.000000
    35  H    0.000000   0.000000   0.000000  -0.000001   0.000000   0.000000
             19         20         21         22         23         24
     1  C    0.004231  -0.000835   0.001168  -0.000372  -0.000337  -0.000017
     2  H   -0.000240  -0.000120  -0.000011  -0.000026   0.000014  -0.000001
     3  C    0.000680  -0.000792   0.000038   0.000024  -0.000003   0.000000
     4  C   -0.001068   0.000738   0.000069   0.000003   0.000016  -0.000001
     5  C    0.000022  -0.000017  -0.000001   0.000000   0.000000   0.000000
     6  C   -0.000022   0.000043   0.000005   0.000000   0.000001   0.000000
     7  H    0.000920   0.000216   0.000001   0.000003   0.000008   0.000000
     8  C    0.000000   0.000003   0.000000   0.000000   0.000000   0.000000
     9  H    0.000000   0.000000   0.000000   0.000000   0.000000   0.000000
    10  C    0.000000   0.000000   0.000000   0.000000   0.000000   0.000000
    11  H    0.000000  -0.000007  -0.000001   0.000000   0.000000   0.000000
    12  H    0.000000   0.000000   0.000000   0.000000   0.000000   0.000000
    13  H    0.000000   0.000000   0.000000   0.000000   0.000000   0.000000
    14  C   -0.067587  -0.042539  -0.016430   0.006682   0.006124  -0.001542
    15  C   -0.031797   0.004182  -0.087589  -0.039645  -0.000380   0.007435
    16  C    0.469024   0.392271  -0.093809  -0.000534  -0.037816   0.007823
    17  C   -0.075867  -0.000227   0.490317   0.397084   0.005935  -0.042934
    18  H   -0.000423  -0.000239   0.005356  -0.004230   0.000022  -0.000179
    19  C    5.051874  -0.029827   0.496669   0.006120   0.396187  -0.042469
    20  H   -0.029827   0.474230   0.004625   0.000018  -0.003311  -0.000174
    21  C    0.496669   0.004625   5.033074  -0.040649  -0.040237   0.399538
    22  H    0.006120   0.000018  -0.040649   0.517985  -0.000211  -0.004496
    23  H    0.396187  -0.003311  -0.040237  -0.000211   0.515680  -0.004405
    24  H   -0.042469  -0.000174   0.399538  -0.004496  -0.004405   0.517929
    25  C    0.000098  -0.001958   0.000097   0.000011   0.000029  -0.000001
    26  C   -0.000019   0.001443  -0.000017   0.000000   0.000018   0.000000
    27  C   -0.000167  -0.000873  -0.000009   0.000001   0.000007   0.000000
    28  C   -0.000022   0.000920   0.000000   0.000000   0.000000   0.000000
    29  H    0.000043   0.000216   0.000000   0.000000  -0.000007   0.000000
    30  C   -0.000009  -0.000191   0.000000   0.000000   0.000001   0.000000
    31  H    0.000007  -0.000038  -0.000009   0.000000   0.000000   0.000000
    32  C    0.000005   0.000001   0.000000   0.000000  -0.000001   0.000000
    33  H    0.000001   0.000008   0.000000   0.000000   0.000000   0.000000
    34  H    0.000000   0.000003   0.000000   0.000000   0.000000   0.000000
    35  H    0.000000   0.000000   0.000000   0.000000   0.000000   0.000000
             25         26         27         28         29         30
     1  C    0.145236  -0.040995  -0.054799   0.004231  -0.000835   0.007231
     2  H   -0.072038   0.005307  -0.001097  -0.000240  -0.000120   0.001484
     3  C   -0.097202  -0.018620   0.005719   0.000098  -0.001958  -0.000776
     4  C   -0.008176  -0.005091  -0.000166  -0.000019   0.001443   0.000027
     5  C   -0.001109   0.000237   0.000842  -0.000167  -0.000873  -0.000034
     6  C    0.000680  -0.001068   0.000022  -0.000022   0.000920   0.000000
     7  H   -0.000792   0.000738  -0.000017   0.000043   0.000216   0.000003
     8  C   -0.000632   0.000382   0.000003  -0.000009  -0.000191   0.000002
     9  H    0.000950   0.000222   0.000232   0.000007  -0.000038  -0.000005
    10  C    0.000038   0.000069  -0.000001   0.000005   0.000001   0.000000
    11  H   -0.000003   0.000016   0.000000   0.000001   0.000008   0.000000
    12  H    0.000024   0.000003   0.000000   0.000000   0.000003   0.000000
    13  H    0.000000  -0.000001   0.000000   0.000000   0.000000   0.000000
    14  C   -0.097202  -0.008176  -0.001109   0.000680  -0.000792  -0.000632
    15  C    0.005719  -0.000166   0.000842   0.000022  -0.000017   0.000003
    16  C   -0.018620  -0.005091   0.000237  -0.001068   0.000738   0.000382
    17  C   -0.000776   0.000027  -0.000034   0.000000   0.000003   0.000002
    18  H    0.000485  -0.000031   0.000044   0.000000   0.000000   0.000001
    19  C    0.000098  -0.000019  -0.000167  -0.000022   0.000043  -0.000009
    20  H   -0.001958   0.001443  -0.000873   0.000920   0.000216  -0.000191
    21  C    0.000097  -0.000017  -0.000009   0.000000   0.000000   0.000000
    22  H    0.000011   0.000000   0.000001   0.000000   0.000000   0.000000
    23  H    0.000029   0.000018   0.000007   0.000000  -0.000007   0.000001
    24  H   -0.000001   0.000000   0.000000   0.000000   0.000000   0.000000
    25  C    5.358128   0.479776   0.483994  -0.067587  -0.042539  -0.065742
    26  C    0.479776   5.114293  -0.068600   0.469024   0.392271  -0.029445
    27  C    0.483994  -0.068600   5.058708  -0.031797   0.004182   0.463598
    28  C   -0.067587   0.469024  -0.031797   5.051874  -0.029827  -0.075867
    29  H   -0.042539   0.392271   0.004182  -0.029827   0.474230  -0.000227
    30  C   -0.065742  -0.029445   0.463598  -0.075867  -0.000227   5.055075
    31  H   -0.048773   0.004435   0.399241  -0.000423  -0.000239  -0.036074
    32  C   -0.016430  -0.093809  -0.087589   0.496669   0.004625   0.490317
    33  H    0.006124  -0.037816  -0.000380   0.396187  -0.003311   0.005935
    34  H    0.006682  -0.000534  -0.039645   0.006120   0.000018   0.397084
    35  H   -0.001542   0.007823   0.007435  -0.042469  -0.000174  -0.042934
             31         32         33         34         35
     1  C    0.000495   0.001168  -0.000337  -0.000372  -0.000017
     2  H    0.001468  -0.000011   0.000014  -0.000026  -0.000001
     3  C    0.000485   0.000097   0.000029   0.000011  -0.000001
     4  C   -0.000031  -0.000017   0.000018   0.000000   0.000000
     5  C    0.000044  -0.000009   0.000007   0.000001   0.000000
     6  C    0.000000   0.000000   0.000000   0.000000   0.000000
     7  H    0.000000   0.000000  -0.000007   0.000000   0.000000
     8  C    0.000001   0.000000   0.000001   0.000000   0.000000
     9  H   -0.000001  -0.000009   0.000000   0.000000   0.000000
    10  C    0.000000   0.000000  -0.000001   0.000000   0.000000
    11  H    0.000000   0.000000   0.000000   0.000000   0.000000
    12  H    0.000000   0.000000   0.000000   0.000000   0.000000
    13  H    0.000000   0.000000   0.000000   0.000000   0.000000
    14  C    0.000950   0.000038  -0.000003   0.000024   0.000000
    15  C    0.000232  -0.000001   0.000000   0.000000   0.000000
    16  C    0.000222   0.000069   0.000016   0.000003  -0.000001
    17  C   -0.000005   0.000000   0.000000   0.000000   0.000000
    18  H   -0.000001   0.000000   0.000000   0.000000   0.000000
    19  C    0.000007   0.000005   0.000001   0.000000   0.000000
    20  H   -0.000038   0.000001   0.000008   0.000003   0.000000
    21  C   -0.000009   0.000000   0.000000   0.000000   0.000000
    22  H    0.000000   0.000000   0.000000   0.000000   0.000000
    23  H    0.000000  -0.000001   0.000000   0.000000   0.000000
    24  H    0.000000   0.000000   0.000000   0.000000   0.000000
    25  C   -0.048773  -0.016430   0.006124   0.006682  -0.001542
    26  C    0.004435  -0.093809  -0.037816  -0.000534   0.007823
    27  C    0.399241  -0.087589  -0.000380  -0.039645   0.007435
    28  C   -0.000423   0.496669   0.396187   0.006120  -0.042469
    29  H   -0.000239   0.004625  -0.003311   0.000018  -0.000174
    30  C   -0.036074   0.490317   0.005935   0.397084  -0.042934
    31  H    0.507657   0.005356   0.000022  -0.004230  -0.000179
    32  C    0.005356   5.033074  -0.040237  -0.040649   0.399538
    33  H    0.000022  -0.040237   0.515680  -0.000211  -0.004405
    34  H   -0.004230  -0.040649  -0.000211   0.517985  -0.004496
    35  H   -0.000179   0.399538  -0.004405  -0.004496   0.517929
 Mulliken atomic charges:
              1
     1  C   -0.526550
     2  H    0.196983
     3  C    0.053052
     4  C   -0.166607
     5  C   -0.138822
     6  C   -0.176365
     7  H    0.202229
     8  C   -0.169211
     9  H    0.169387
    10  C   -0.152196
    11  H    0.162665
    12  H    0.162231
    13  H    0.163493
    14  C    0.053052
    15  C   -0.138822
    16  C   -0.166607
    17  C   -0.169211
    18  H    0.169387
    19  C   -0.176365
    20  H    0.202229
    21  C   -0.152196
    22  H    0.162231
    23  H    0.162665
    24  H    0.163493
    25  C    0.053052
    26  C   -0.166607
    27  C   -0.138822
    28  C   -0.176365
    29  H    0.202229
    30  C   -0.169211
    31  H    0.169387
    32  C   -0.152196
    33  H    0.162665
    34  H    0.162231
    35  H    0.163493
 Sum of Mulliken atomic charges =   0.00000
 Mulliken charges with hydrogens summed into heavy atoms:
              1
     1  C   -0.329567
     3  C    0.053052
     4  C    0.035621
     5  C    0.030565
     6  C   -0.013700
     8  C   -0.006980
    10  C    0.011297
    14  C    0.053052
    15  C    0.030565
    16  C    0.035621
    17  C   -0.006980
    19  C   -0.013700
    21  C    0.011297
    25  C    0.053052
    26  C    0.035621
    27  C    0.030565
    28  C   -0.013700
    30  C   -0.006980
    32  C    0.011297
 Sum of Mulliken charges with hydrogens summed into heavy atoms =   0.00000
 Electronic spatial extent (au):  <R**2>=           4916.4083
 Charge=              0.0000 electrons
 Dipole moment (field-independent basis, Debye):
    X=              0.0000    Y=              0.0000    Z=              0.0245  Tot=              0.0245
 Quadrupole moment (field-independent basis, Debye-Ang):
   XX=           -111.4738   YY=           -111.4738   ZZ=           -104.7053
   XY=              0.0000   XZ=              0.0000   YZ=              0.0000
 Traceless Quadrupole moment (field-independent basis, Debye-Ang):
   XX=             -2.2562   YY=             -2.2562   ZZ=              4.5123
   XY=              0.0000   XZ=              0.0000   YZ=              0.0000
 Octapole moment (field-independent basis, Debye-Ang**2):
  XXX=             13.7654  YYY=             39.4909  ZZZ=              0.7871  XYY=            -13.7654
  XXY=            -39.4909  XXZ=             -3.6154  XZZ=              0.0000  YZZ=              0.0000
  YYZ=             -3.6154  XYZ=              0.0000
 Hexadecapole moment (field-independent basis, Debye-Ang**3):
 XXXX=          -2984.9236 YYYY=          -2984.9236 ZZZZ=           -746.3160 XXXY=              0.0000
 XXXZ=             76.0657 YYYX=              0.0000 YYYZ=            -17.5463 ZZZX=              0.0000
 ZZZY=              0.0000 XXYY=           -994.9745 XXZZ=           -612.5968 YYZZ=           -612.5968
 XXYZ=             17.5463 YYXZ=            -76.0657 ZZXY=              0.0000
 N-N= 1.290498634116D+03 E-N=-4.277099876284D+03  KE= 7.285977294551D+02
 PrsmSu:  requested number of processors reduced to:  10 ShMem   1 Linda.
 Calling FoFJK, ICntrl=      2127 FMM=F ISym2X=1 I1Cent= 0 IOpClX= 0 NMat=1 NMatS=1 NMatT=0.
 ***** Axes restored to original set *****
 -------------------------------------------------------------------
 Center     Atomic                   Forces (Hartrees/Bohr)
 Number     Number              X              Y              Z
 -------------------------------------------------------------------
      1        6           0.000000000    0.000000000   -0.022491438
      2        1           0.000000000    0.000000000    0.025906015
      3        6          -0.001900889    0.013232319   -0.003157662
      4        6          -0.005649717   -0.006159084    0.006192303
      5        6           0.002941325   -0.000354361   -0.005436124
      6        6          -0.003963789    0.003491425    0.011190723
      7        1           0.007030916    0.016525502   -0.012001112
      8        6           0.005691224    0.008894313   -0.007762796
      9        1          -0.007123578    0.004031284    0.015278246
     10        6           0.000183730    0.013110425    0.003717897
     11        1           0.006604573   -0.004497529   -0.014641788
     12        1          -0.006875990   -0.011279585    0.010098008
     13        1          -0.000307131   -0.016101514   -0.004615888
     14        6          -0.010509080   -0.008262378   -0.003157662
     15        6          -0.001163777    0.002724443   -0.005436124
     16        6           0.008158782   -0.001813256    0.006192303
     17        6          -0.010548313    0.000481588   -0.007762796
     18        1           0.000070595   -0.008184841    0.015278246
     19        6          -0.001041768   -0.005178455    0.011190723
     20        1          -0.017826963   -0.002173799   -0.012001112
     21        6          -0.011445826   -0.006396098    0.003717897
     22        1           0.013206402   -0.000314989    0.010098008
     23        1           0.000592688    0.007968493   -0.014641788
     24        1           0.014097886    0.007784773   -0.004615888
     25        6           0.012409969   -0.004969941   -0.003157662
     26        6          -0.002509065    0.007972340    0.006192303
     27        6          -0.001777548   -0.002370082   -0.005436124
     28        6           0.005005558    0.001687030    0.011190723
     29        1           0.010796047   -0.014351703   -0.012001112
     30        6           0.004857089   -0.009375901   -0.007762796
     31        1           0.007052983    0.004153557    0.015278246
     32        6           0.011262096   -0.006714327    0.003717897
     33        1          -0.007197261   -0.003470964   -0.014641788
     34        1          -0.006330412    0.011594574    0.010098008
     35        1          -0.013790754    0.008316740   -0.004615888
 -------------------------------------------------------------------
 Cartesian Forces:  Max     0.025906015 RMS     0.009008741

 GradGradGradGradGradGradGradGradGradGradGradGradGradGradGradGradGradGrad
 Berny optimization.
 Internal  Forces:  Max     0.025906015 RMS     0.006573303
 Search for a local minimum.
 Step number   1 out of a maximum of  197
 All quantities printed in internal units (Hartrees-Bohrs-Radians)
 Mixed Optimization -- RFO/linear search
 Second derivative matrix not updated -- first step.
     Eigenvalues ---    0.00651   0.00651   0.00651   0.01538   0.01538
     Eigenvalues ---    0.01538   0.02143   0.02143   0.02143   0.02172
     Eigenvalues ---    0.02172   0.02172   0.02182   0.02182   0.02182
     Eigenvalues ---    0.02201   0.02201   0.02201   0.02213   0.02213
     Eigenvalues ---    0.02213   0.02215   0.02215   0.02215   0.02217
     Eigenvalues ---    0.02217   0.02217   0.02218   0.02218   0.02218
     Eigenvalues ---    0.04659   0.06497   0.06497   0.15999   0.15999
     Eigenvalues ---    0.15999   0.16000   0.16000   0.16000   0.16000
     Eigenvalues ---    0.16000   0.16000   0.16000   0.16000   0.16000
     Eigenvalues ---    0.16000   0.16000   0.16000   0.19005   0.19005
     Eigenvalues ---    0.22000   0.22000   0.22000   0.22000   0.22000
     Eigenvalues ---    0.22000   0.23478   0.23478   0.23478   0.25000
     Eigenvalues ---    0.25000   0.25000   0.31292   0.31483   0.31483
     Eigenvalues ---    0.31483   0.33906   0.33906   0.33906   0.34107
     Eigenvalues ---    0.34107   0.34107   0.34261   0.34261   0.34261
     Eigenvalues ---    0.34262   0.34262   0.34262   0.34283   0.34283
     Eigenvalues ---    0.34283   0.42463   0.42463   0.42463   0.42577
     Eigenvalues ---    0.42577   0.42577   0.46400   0.46400   0.46400
     Eigenvalues ---    0.46777   0.46777   0.46777   0.47232   0.47232
     Eigenvalues ---    0.47232   0.47308   0.47308   0.473081000.00000
     Eigenvalues --- 1000.000001000.000001000.000001000.000001000.00000
     Eigenvalues --- 1000.000001000.000001000.000001000.000001000.00000
     Eigenvalues --- 1000.000001000.000001000.000001000.000001000.00000
     Eigenvalues --- 1000.000001000.000001000.000001000.000001000.00000
     Eigenvalues --- 1000.000001000.000001000.000001000.000001000.00000
     Eigenvalues --- 1000.000001000.000001000.000001000.000001000.00000
     Eigenvalues --- 1000.000001000.000001000.000001000.000001000.00000
     Eigenvalues --- 1000.000001000.000001000.000001000.000001000.00000
     Eigenvalues --- 1000.000001000.000001000.000001000.000001000.00000
     Eigenvalues --- 1000.000001000.000001000.000001000.000001000.00000
     Eigenvalues --- 1000.000001000.000001000.000001000.000001000.00000
     Eigenvalues --- 1000.000001000.000001000.000001000.000001000.00000
     Eigenvalues --- 1000.000001000.000001000.000001000.000001000.00000
     Eigenvalues --- 1000.000001000.000001000.000001000.000001000.00000
     Eigenvalues --- 1000.000001000.000001000.000001000.000001000.00000
     Eigenvalues --- 1000.000001000.000001000.000001000.000001000.00000
     Eigenvalues --- 1000.000001000.000001000.000001000.000001000.00000
     Eigenvalues --- 1000.000001000.00000
 RFO step:  Lambda=-2.71926906D-02 EMin= 6.51088021D-03
 Linear search not attempted -- first point.
 Maximum step size (   0.300) exceeded in Quadratic search.
    -- Step size scaled by   0.781
 Iteration  1 RMS(Cart)=  0.10459437 RMS(Int)=  0.00169082
 Iteration  2 RMS(Cart)=  0.00453742 RMS(Int)=  0.00032185
 Iteration  3 RMS(Cart)=  0.00000484 RMS(Int)=  0.00032184
 Iteration  4 RMS(Cart)=  0.00000000 RMS(Int)=  0.00032184
 ClnCor:  largest displacement from symmetrization is 1.13D-10 for atom    33.
 Variable       Old X    -DE/DX   Delta X   Delta X   Delta X     New X
                                 (Linear)    (Quad)   (Total)
    R1        2.12159  -0.02591   0.00000  -0.05952  -0.05952   2.06206
    R2        2.85100   0.01967   0.00000   0.04494   0.04494   2.89594
    R3        2.85100   0.01967   0.00000   0.04494   0.04494   2.89594
    R4        2.85100   0.01967   0.00000   0.04494   0.04494   2.89594
    R5        2.63726  -0.00238   0.00000  -0.00373  -0.00372   2.63354
    R6        2.64096  -0.00440   0.00000  -0.00709  -0.00707   2.63389
    R7        2.62765  -0.00299   0.00000  -0.00459  -0.00459   2.62306
    R8        2.07490  -0.02143   0.00000  -0.04573  -0.04573   2.02917
    R9        2.62631  -0.00369   0.00000  -0.00586  -0.00585   2.62046
   R10        2.07150  -0.01732   0.00000  -0.03675  -0.03675   2.03475
   R11        2.62707  -0.00578   0.00000  -0.00899  -0.00901   2.61806
   R12        2.06891  -0.01668   0.00000  -0.03525  -0.03525   2.03367
   R13        2.62837  -0.00623   0.00000  -0.00983  -0.00983   2.61854
   R14        2.06890  -0.01663   0.00000  -0.03513  -0.03513   2.03377
   R15        2.06856  -0.01675   0.00000  -0.03538  -0.03538   2.03318
   R16        2.64096  -0.00440   0.00000  -0.00709  -0.00707   2.63389
   R17        2.63726  -0.00238   0.00000  -0.00373  -0.00372   2.63354
   R18        2.62631  -0.00369   0.00000  -0.00586  -0.00585   2.62046
   R19        2.07150  -0.01732   0.00000  -0.03675  -0.03675   2.03475
   R20        2.62765  -0.00299   0.00000  -0.00459  -0.00459   2.62306
   R21        2.07490  -0.02143   0.00000  -0.04573  -0.04573   2.02917
   R22        2.62837  -0.00623   0.00000  -0.00983  -0.00983   2.61854
   R23        2.06890  -0.01663   0.00000  -0.03513  -0.03513   2.03377
   R24        2.62707  -0.00578   0.00000  -0.00899  -0.00901   2.61806
   R25        2.06891  -0.01668   0.00000  -0.03525  -0.03525   2.03367
   R26        2.06856  -0.01675   0.00000  -0.03538  -0.03538   2.03318
   R27        2.63726  -0.00238   0.00000  -0.00373  -0.00372   2.63354
   R28        2.64096  -0.00440   0.00000  -0.00709  -0.00707   2.63389
   R29        2.62765  -0.00299   0.00000  -0.00459  -0.00459   2.62306
   R30        2.07490  -0.02143   0.00000  -0.04573  -0.04573   2.02917
   R31        2.62631  -0.00369   0.00000  -0.00586  -0.00585   2.62046
   R32        2.07150  -0.01732   0.00000  -0.03675  -0.03675   2.03475
   R33        2.62707  -0.00578   0.00000  -0.00899  -0.00901   2.61806
   R34        2.06891  -0.01668   0.00000  -0.03525  -0.03525   2.03367
   R35        2.62837  -0.00623   0.00000  -0.00983  -0.00983   2.61854
   R36        2.06890  -0.01663   0.00000  -0.03513  -0.03513   2.03377
   R37        2.06856  -0.01675   0.00000  -0.03538  -0.03538   2.03318
    A1        1.86700  -0.00350   0.00000  -0.03703  -0.03631   1.83070
    A2        1.86700  -0.00350   0.00000  -0.03703  -0.03631   1.83070
    A3        1.86700  -0.00350   0.00000  -0.03703  -0.03631   1.83070
    A4        1.95217   0.00316   0.00000   0.03342   0.03117   1.98334
    A5        1.95217   0.00316   0.00000   0.03342   0.03117   1.98334
    A6        1.95217   0.00316   0.00000   0.03342   0.03117   1.98334
    A7        2.12862   0.01004   0.00000   0.02848   0.02847   2.15709
    A8        2.07446  -0.00231   0.00000  -0.00633  -0.00634   2.06812
    A9        2.08010  -0.00773   0.00000  -0.02214  -0.02213   2.05797
   A10        2.10065   0.00330   0.00000   0.01031   0.01031   2.11096
   A11        2.08618   0.00074   0.00000   0.00482   0.00482   2.09100
   A12        2.09631  -0.00405   0.00000  -0.01517  -0.01517   2.08114
   A13        2.10014   0.00548   0.00000   0.01660   0.01662   2.11676
   A14        2.09415  -0.00348   0.00000  -0.01137  -0.01138   2.08278
   A15        2.08889  -0.00201   0.00000  -0.00524  -0.00525   2.08364
   A16        2.09754   0.00127   0.00000   0.00387   0.00384   2.10138
   A17        2.09048  -0.00055   0.00000  -0.00156  -0.00155   2.08893
   A18        2.09516  -0.00073   0.00000  -0.00232  -0.00231   2.09285
   A19        2.09753  -0.00006   0.00000  -0.00097  -0.00098   2.09655
   A20        2.09154   0.00014   0.00000   0.00095   0.00095   2.09249
   A21        2.09412  -0.00008   0.00000   0.00002   0.00003   2.09414
   A22        2.09040  -0.00227   0.00000  -0.00766  -0.00769   2.08271
   A23        2.09662   0.00115   0.00000   0.00391   0.00392   2.10054
   A24        2.09616   0.00112   0.00000   0.00375   0.00376   2.09992
   A25        2.07446  -0.00231   0.00000  -0.00633  -0.00634   2.06812
   A26        2.12862   0.01004   0.00000   0.02848   0.02847   2.15709
   A27        2.08010  -0.00773   0.00000  -0.02214  -0.02213   2.05797
   A28        2.10014   0.00548   0.00000   0.01660   0.01662   2.11676
   A29        2.09415  -0.00348   0.00000  -0.01137  -0.01138   2.08278
   A30        2.08889  -0.00201   0.00000  -0.00524  -0.00525   2.08364
   A31        2.10065   0.00330   0.00000   0.01031   0.01031   2.11096
   A32        2.08618   0.00074   0.00000   0.00482   0.00482   2.09100
   A33        2.09631  -0.00405   0.00000  -0.01517  -0.01517   2.08114
   A34        2.09753  -0.00006   0.00000  -0.00097  -0.00098   2.09655
   A35        2.09154   0.00014   0.00000   0.00095   0.00095   2.09249
   A36        2.09412  -0.00008   0.00000   0.00002   0.00003   2.09414
   A37        2.09754   0.00127   0.00000   0.00387   0.00384   2.10138
   A38        2.09048  -0.00055   0.00000  -0.00156  -0.00155   2.08893
   A39        2.09516  -0.00073   0.00000  -0.00232  -0.00231   2.09285
   A40        2.09040  -0.00227   0.00000  -0.00766  -0.00769   2.08271
   A41        2.09616   0.00112   0.00000   0.00375   0.00376   2.09992
   A42        2.09662   0.00115   0.00000   0.00391   0.00392   2.10054
   A43        2.12862   0.01004   0.00000   0.02848   0.02847   2.15709
   A44        2.07446  -0.00231   0.00000  -0.00633  -0.00634   2.06812
   A45        2.08010  -0.00773   0.00000  -0.02214  -0.02213   2.05797
   A46        2.10065   0.00330   0.00000   0.01031   0.01031   2.11096
   A47        2.08618   0.00074   0.00000   0.00482   0.00482   2.09100
   A48        2.09631  -0.00405   0.00000  -0.01517  -0.01517   2.08114
   A49        2.10014   0.00548   0.00000   0.01660   0.01662   2.11676
   A50        2.09415  -0.00348   0.00000  -0.01137  -0.01138   2.08278
   A51        2.08889  -0.00201   0.00000  -0.00524  -0.00525   2.08364
   A52        2.09754   0.00127   0.00000   0.00387   0.00384   2.10138
   A53        2.09048  -0.00055   0.00000  -0.00156  -0.00155   2.08893
   A54        2.09516  -0.00073   0.00000  -0.00232  -0.00231   2.09285
[...]
 0004088,-0.00034902,-0.00014683,-0.00006486,0.00015215,-0.00021853,-0.
 00002677,0.00023553,-0.00006550,0.00005620,-0.00002367,0.00000220,-0.0
 0004075,-0.00018439,-0.00019503,0.00001374,-0.00001980,0.00013128,-0.0
 0010624,-0.00009469,0.00018608,-0.00000090,-0.00000803,-0.00000190,-0.
 00000137,-0.00002152,-0.00000618,0.00000437,0.00000422,0.00001222,-0.0
 0060719,-0.00024982,-0.00050647,-0.00035555,-0.00030103,-0.00002741,0.
 00020610,-0.00009655,-0.00008659,0.00011473,0.00025395,-0.00019503,0.0
 0001860,-0.00002484,-0.00002463,-0.00040063,-0.00007006,-0.00014622,0.
 00000013,0.00019771,-0.00010844,0.00013105,-0.00013551,0.00024532,-0.0
 0002393,0.00001146,0.00001371,-0.00000168,-0.00002052,0.00000236,-0.00
 002004,-0.00000284,0.00000010,0.02417718,0.03099893,0.06386422,-0.0496
 3844,0.00975668,-0.04309605,-0.03989319,-0.02886120,-0.14875483,0.0313
 9470,-0.06858015,-0.03408900,-0.00040866,0.00088450,-0.00057564,0.1566
 4655,0.24405483,0.58250624,-0.00096623,-0.00080036,0.00166861,0.000441
 05,0.00025330,0.00059095,0.00021754,-0.00007444,0.00012273,0.00002017,
 -0.00002574,0.00002800,0.00006481,-0.00007799,-0.00012829,-0.00003827,
 -0.00000886,0.00001296,-0.00000068,0.00000353,0.00001268,-0.00002270,0
 .00001815,0.00001221,-0.00000399,-0.00000661,0.00002594,0.00001153,-0.
 00002888,-0.00001105,-0.00000280,-0.00000528,-0.00000836,-0.00000550,-
 0.00001904,0.00000172,-0.00000083,-0.00000559,0.00000164,-0.00015206,0
 .00005073,0.00009508,-0.00009004,-0.00006283,-0.00006889,0.00001130,-0
 .00001197,-0.00002233,-0.00004981,0.00001500,-0.00002401,-0.00000744,0
 .00000860,0.00000152,-0.00000821,-0.00004022,0.00003654,0.00004769,0.0
 0001721,0.00000175,0.00001922,0.00002391,0.00001317,0.00001342,0.00000
 049,0.00000828,-0.00000026,0.00000563,-0.00001190,0.00001525,0.0000046
 7,-0.00000527,0.00974535,0.00538808,0.00967609,0.00208329,0.00459394,-
 0.00062175,-0.14805751,-0.03839680,-0.13205215,-0.00053622,0.00039646,
 0.00080802,0.00027629,0.00016256,0.00053486,-0.00969660,-0.01154334,-0
 .02586560,0.14979130,-0.00279322,-0.00034236,0.00008010,0.00061354,-0.
 00045230,0.00121745,0.00001039,-0.00012208,0.00038158,0.00006480,0.000
 14817,0.00008336,0.00007772,0.00000084,-0.00010159,-0.00005387,0.00002
 445,0.00002995,-0.00001557,-0.00000743,0.00000611,-0.00001648,0.000007
 00,0.00002853,-0.00004238,-0.00003688,0.00001436,0.00000517,0.00001710
 ,0.00000202,-0.00001334,0.00001814,0.00000647,0.00000017,0.00000308,-0
 .00000532,-0.00000430,0.00000923,0.00000567,0.00006337,0.00031206,-0.0
 0006735,-0.00006835,-0.00009017,-0.00004676,-0.00009541,-0.00002205,-0
 .00014775,0.00004891,0.00005055,-0.00000200,0.00004438,-0.00003343,0.0
 0002335,-0.00003196,-0.00007737,0.00001217,0.00003312,0.00000920,0.000
 09008,-0.00001071,-0.00005893,0.00004544,-0.00001515,0.00000057,0.0000
 0239,-0.00001850,-0.00001259,0.00002488,-0.00000883,-0.00000081,0.0000
 1431,-0.01568612,-0.00282621,-0.02329579,0.00478618,-0.00115506,-0.005
 45667,-0.03839607,-0.08943314,-0.07786756,0.00045368,-0.00091686,0.000
 47005,-0.00086283,-0.00027824,-0.00103728,0.01199005,0.01027770,0.0157
 9476,0.03649532,0.08457521,0.00096833,0.00244187,-0.00084877,0.0003710
 8,-0.00048079,0.00039298,-0.00023641,-0.00004620,0.00032737,0.00003410
 ,0.00016216,0.00006038,0.00003311,0.00003230,0.00006682,-0.00001224,0.
 00002992,0.00004893,-0.00001737,-0.00000359,-0.00003721,0.00002952,0.0
 0001609,-0.00002463,-0.00002098,-0.00001036,-0.00003109,-0.00000492,0.
 00000627,0.00000557,-0.00000437,0.00001378,-0.00000059,-0.00000458,0.0
 0001284,-0.00000358,-0.00000393,0.00000309,-0.00000368,0.00039220,-0.0
 0024706,0.00035783,0.00034882,0.00019088,0.00009201,-0.00016981,0.0002
 1872,-0.00007424,0.00003059,-0.00007252,0.00013128,-0.00000054,-0.0000
 2965,-0.00003109,0.00016235,0.00014206,0.00000475,-0.00008308,-0.00014
 813,-0.00006017,-0.00004208,0.00002936,-0.00008394,-0.00000152,0.00000
 003,-0.00001780,0.00000201,-0.00002404,-0.00000283,-0.00000943,-0.0000
 1525,-0.00000195,-0.01410363,-0.00300209,-0.01064611,-0.00015211,-0.00
 558354,0.00204286,-0.13104985,-0.07811695,-0.25165649,0.00091587,0.000
 41427,0.00029800,-0.00058833,-0.00016053,-0.00074806,-0.00162971,-0.00
 571485,-0.00177599,0.14657780,0.08870281,0.25994111,-0.00065106,-0.001
 11234,-0.00004428,-0.00014863,0.00016079,0.00028264,-0.00010666,-0.000
 08311,-0.00019891,0.00003167,0.00009752,-0.00008363,-0.00003298,0.0000
 0514,0.00009037,0.00000370,-0.00003318,-0.00002025,-0.00000791,-0.0000
 0430,-0.00000605,0.00001401,-0.00000168,0.00005183,-0.00003368,-0.0000
 5445,-0.00000438,0.00002174,0.00007021,0.00002036,-0.00001310,0.000021
 22,0.00001055,-0.00000610,0.00004209,-0.00001875,-0.00000690,0.0000172
 6,0.00000046,-0.00007485,0.00088677,-0.00011284,-0.00013602,-0.0000969
 7,0.00022074,-0.00019283,-0.00002605,-0.00013077,-0.00002284,-0.000065
 81,-0.00002888,0.00002598,0.00002054,0.00000789,0.00008532,-0.00001121
 ,0.00006897,-0.00001699,-0.00000625,-0.00000883,-0.00008592,-0.0000080
 5,-0.00003024,-0.00003386,-0.00002471,-0.00000256,-0.00003651,-0.00001
 648,0.00003329,-0.00000439,-0.00001032,0.00000791,-0.00312831,-0.01127
 157,-0.00902539,-0.00034085,0.03163094,0.02402722,-0.03234252,0.007881
 04,-0.03100328,-0.16101404,0.10218676,0.03771028,-0.00198092,0.0050397
 9,-0.00450631,-0.19731674,-0.02988783,-0.13669829,-0.00152764,0.005984
 22,-0.00352140,0.65262293,-0.00170666,-0.00039833,-0.00035980,0.000046
 28,-0.00015880,0.00073004,0.00027780,0.00031113,-0.00030031,-0.0000033
 7,0.00021491,0.00023172,0.00014341,-0.00033660,0.00003637,-0.00010477,
 -0.00024355,0.00005006,-0.00002680,0.00001253,0.00001900,-0.00004380,0
 .00028209,0.00018125,-0.00001983,-0.00000603,-0.00005112,0.00014706,0.
 00000364,-0.00025518,0.00000403,-0.00001491,-0.00001783,-0.00000351,-0
 .00001523,0.00001734,0.00000369,-0.00001818,-0.00000228,-0.00049088,0.
 00056532,0.00027403,0.00024512,0.00025818,0.00004432,-0.00001870,0.000
 13873,0.00009775,-0.00007279,-0.00019391,0.00013935,-0.00001351,0.0000
 0266,0.00000112,0.00032923,0.00001751,0.00011023,0.00015569,-0.0003033
 8,0.00021500,-0.00008491,0.00011129,-0.00019426,0.00001938,-0.00001914
 ,-0.00002226,0.00003146,0.00003039,-0.00001356,0.00001672,0.00000387,0
 .00000490,-0.01078174,-0.04587294,-0.05123223,0.07221785,-0.02618832,0
 .02930078,-0.03237119,0.06209512,0.02364507,0.04983235,-0.25902242,-0.
 13962550,0.00499066,0.00291202,-0.00155757,0.02187200,-0.14863657,-0.0
 4920148,0.00632934,0.00183519,-0.00174146,-0.23115784,0.55204551,-0.00
 170738,-0.00046482,-0.00115344,-0.00034531,0.00015353,0.00096818,0.000
 08577,0.00025357,-0.00051962,0.00000735,0.00039756,0.00023180,0.000219
 42,-0.00034026,0.00010569,-0.00012257,-0.00032089,0.00003973,-0.000018
 43,0.00001188,0.00000274,-0.00001939,0.00034088,0.00024532,-0.00004594
 ,-0.00001131,-0.00008394,0.00018336,0.00007095,-0.00027670,-0.00000694
 ,0.00000334,-0.00000760,-0.00000680,0.00000122,0.00000988,0.00000125,-
 0.00000720,-0.00000719,-0.00038298,0.00112296,0.00037605,0.00027977,0.
 00025643,0.00028443,-0.00039330,0.00016001,0.00007313,-0.00012630,-0.0
 0031113,0.00018608,0.00000727,0.00000856,0.00000557,0.00046076,0.00008
 195,0.00010789,-0.00000476,-0.00023948,0.00006635,-0.00023117,0.000109
 96,-0.00027670,-0.00000533,-0.00004161,-0.00002640,-0.00002927,0.00000
 633,0.00004701,0.00000136,-0.00000784,0.00000410,-0.00720017,-0.051754
 46,-0.07029766,0.06700306,-0.00906257,0.06269449,-0.07367853,0.0628478
 8,0.00650347,-0.01775615,-0.09223793,-0.19712871,-0.00487814,-0.001310
 07,0.00329745,-0.08117801,-0.09703176,-0.26232186,-0.00295142,-0.00215
 296,0.00405987,0.19434063,0.18807781,0.55410355,-0.00025274,-0.0006619
 2,-0.00095252,-0.00036549,0.00015918,-0.00011909,0.00004868,-0.0003018
 9,-0.00002320,0.00003244,0.00009464,0.00003665,0.00003400,0.00003151,0
 .00000759,0.00000541,-0.00001632,0.00001916,-0.00001957,-0.00001353,-0
 .00001418,-0.00000549,0.00000496,0.00001861,-0.00001508,-0.00001418,0.
 00001982,0.00002015,0.00004919,0.00000915,-0.00002192,0.00002133,0.000
 00948,0.00000082,0.00001146,-0.00000514,-0.00000637,0.00001438,-0.0000
 0125,0.00005188,0.00020980,-0.00016694,-0.00010412,-0.00008045,0.00006
 556,-0.00011408,-0.00000029,0.00002622,-0.00000860,-0.00000282,-0.0000
 0651,0.00002097,-0.00000845,0.00001412,0.00000629,0.00001393,-0.000005
 04,0.00002798,0.00000291,-0.00006070,-0.00002539,-0.00001412,0.0000063
 6,-0.00001657,-0.00000576,0.00000025,-0.00001928,-0.00002285,0.0000143
 5,-0.00000900,-0.00000766,0.00000114,-0.00153825,0.00612330,-0.0028236
 0,-0.00954253,-0.01141059,-0.02582509,-0.00054460,0.00049356,0.0008913
 0,-0.14921757,-0.03898380,-0.13319588,-0.00053508,-0.00164285,0.002354
 77,0.00244424,0.00482389,-0.00084876,-0.00035155,-0.00048751,0.0003105
 2,0.01086921,0.00591543,0.01103803,0.14948977,0.00011377,0.00039796,0.
 00066441,0.00011155,-0.00005491,0.00010920,-0.00004990,0.00006688,-0.0
 0000869,-0.00001325,0.00003748,-0.00001445,0.00000158,-0.00003786,-0.0
 0000963,-0.00001269,-0.00003171,-0.00001077,0.00000582,0.00000310,0.00
 000623,-0.00002081,0.00001211,0.00000881,0.00000995,0.00000223,0.00001
 376,0.00000125,-0.00002627,-0.00002852,0.00000583,-0.00000272,0.000004
 01,0.00000492,-0.00001007,0.00000785,0.00000656,-0.00000259,0.00000330
 ,0.00005487,-0.00006130,0.00001074,0.00002407,-0.00001082,-0.00000239,
 -0.00003834,0.00001628,-0.00002231,0.00000753,0.00001159,0.00000480,-0
 .00000038,-0.00000563,-0.00000310,0.00000162,0.00001248,-0.00000563,0.
 00001436,0.00000983,-0.00002291,0.00000307,-0.00000262,0.00000434,0.00
 000234,0.00000210,0.00000268,-0.00000735,-0.00000535,0.00000277,0.0000
 0028,-0.00000192,-0.00000188,0.00612979,0.00168945,-0.00181760,0.01156
 686,0.01015592,0.01550719,0.00051230,-0.00105020,0.00041541,-0.0389643
 3,-0.09037205,-0.07941514,-0.00248311,-0.00100609,0.00192963,0.0050864
 8,-0.00070661,-0.00555154,-0.00047329,-0.00042349,0.00044239,-0.017236
 46,-0.00177770,-0.02351582,0.03803031,0.08465831,0.00026357,-0.0003988
 1,-0.00029391,-0.00009150,0.00002811,-0.00006466,-0.00007565,-0.000092
 40,-0.00001649,0.00001657,0.00000839,-0.00003752,-0.00001530,0.0000696
 6,0.00001639,0.00002370,0.00002641,-0.00000134,0.00000628,-0.00000834,
 -0.00001107,0.00001818,-0.00003856,0.00000236,-0.00001560,-0.00002275,
 -0.00000283,-0.00000490,0.00003561,0.00004701,-0.00000957,0.00001104,0
 .00000611,-0.00000231,0.00002530,-0.00001894,-0.00000893,0.00001702,0.
 00000003,-0.00003964,0.00015239,-0.00003217,-0.00004230,-0.00002111,0.
 00004700,-0.00001185,-0.00003292,0.00004327,-0.00001252,-0.00001685,-0
 .00000190,0.00000978,0.00000401,-0.00000059,0.00000389,0.00002024,-0.0
 0001995,0.00000533,0.00000838,-0.00003664,-0.00002071,-0.00000022,-0.0
 0000760,-0.00001469,-0.00000491,-0.00000640,-0.00000127,-0.00001022,0.
 00000611,-0.00001270,-0.00000521,0.00000119,-0.00341064,-0.00160176,0.
 00384417,-0.00140618,-0.00553838,-0.00161176,0.00083138,0.00053199,0.0
 0036805,-0.13313518,-0.07917108,-0.25411593,0.00163303,0.00248178,-0.0
 0089870,-0.00048860,-0.00583880,0.00233456,0.00031942,0.00044093,-0.00
 051143,-0.01341933,-0.00248961,-0.00926283,0.14725552,0.08970347,0.261
 87387,-0.00000092,0.00092920,0.00092942,0.00008047,-0.00002941,-0.0000
 1521,-0.00044558,-0.00001761,-0.00010210,0.00002564,0.00006594,-0.0000
 0486,0.00000155,0.00007961,-0.00000010,0.00003665,0.00002834,0.0000100
 9,-0.00001534,-0.00000285,-0.00000609,0.00001385,-0.00004796,0.0000020
 4,-0.00000256,-0.00000972,0.00000074,-0.00002512,0.00002975,0.00003870
 ,-0.00000405,0.00001299,0.00001160,0.00000438,0.00001023,-0.00000514,-
 0.00000274,0.00000927,0.00000092,0.00005171,0.00016429,-0.00006804,-0.
 00006792,-0.00004732,0.00002694,-0.00003679,-0.00005203,0.00001318,-0.
 00000340,-0.00001279,-0.00001795,0.00000911,0.00001061,0.00001341,-0.0
 0000789,-0.00001345,-0.00001806,0.00000396,0.00004508,-0.00000545,-0.0
 0002965,-0.00002849,0.00000446,-0.00001541,0.00000120,0.00000286,-0.00
 001444,-0.00000265,0.00002306,-0.00001160,0.00000225,0.00000618,-0.001
 89879,0.00476211,-0.00484511,-0.00098142,-0.00044806,-0.00053860,-0.00
 282380,0.02498770,0.01897168,0.00060020,0.00146408,-0.00588275,-0.0003
 0692,-0.00035429,0.00048622,-0.09291288,0.07764422,0.04212617,-0.00053
 623,-0.00250002,0.00159765,0.01107043,-0.01668913,-0.01264873,0.000257
 45,-0.00078350,-0.00051748,0.08850636,-0.00019395,-0.00052145,-0.00059
 776,0.00004080,-0.00001332,0.00006211,0.00017567,0.00009414,0.00016337
 ,-0.00001866,-0.00009991,0.00000654,0.00003008,-0.00003344,-0.00006294
 ,-0.00000963,0.00003159,0.00000058,-0.00000749,0.00000505,0.00000299,0
 .00000771,-0.00000731,-0.00002645,0.00000592,0.00001655,-0.00000133,-0
 .00001434,-0.00002787,0.00001619,0.00000489,-0.00001042,-0.00001027,-0
 .00000929,-0.00002147,0.00000285,0.00000041,-0.00001320,-0.00000259,-0
 .00008851,-0.00012143,0.00006956,0.00005575,0.00006885,-0.00001860,0.0
 0001260,0.00003736,-0.00003529,0.00001335,0.00000591,0.00001194,-0.000
 00860,-0.00001152,-0.00000245,0.00000246,-0.00001446,0.00001153,-0.000
 01295,-0.00001790,0.00003732,0.00001711,0.00000832,0.00000527,0.000020
 72,-0.00000167,0.00000161,0.00000389,0.00000519,-0.00001065,0.00001394
 ,0.00000502,-0.00000256,0.00531232,0.00318995,-0.00139267,-0.00031750,
 0.00022105,0.00092502,0.00197456,-0.00772011,-0.01244087,0.00110917,0.
 00406283,-0.00390228,-0.00041074,-0.00053112,0.00039806,0.07773644,-0.
 24422093,-0.13721638,-0.00171823,-0.00119956,0.00267261,0.00618834,-0.
 00228146,-0.00258119,0.00016988,-0.00037798,-0.00014718,-0.08771258,0.
 25061512,-0.00010367,0.00043639,0.00021795,0.00003357,-0.00001215,-0.0
 0004029,0.00000933,0.00000442,-0.00008307,0.00000671,0.00001639,0.0000
 3697,0.00000788,-0.00002210,0.00003059,-0.00000408,-0.00002634,0.00001
 417,-0.00000832,0.00000185,-0.00000326,0.00000517,0.00003834,0.0000137
 1,-0.00000621,0.00000598,-0.00001780,0.00002055,0.00000892,-0.00002640
 ,-0.00000245,-0.00000112,-0.00000640,-0.00000283,0.00000168,0.00000195
 ,-0.00000170,-0.00000403,-0.00000373,0.00007526,-0.00008646,0.00002033
 ,0.00000161,-0.00000638,-0.00004488,0.00001849,0.00002231,-0.00001370,
 0.00000465,0.00001725,-0.00000618,-0.00000547,0.00000117,-0.00000358,-
 0.00001290,-0.00000336,0.00003089,-0.00001651,-0.00003486,-0.00000064,
 0.00002440,0.00000757,0.00000988,0.00000504,0.00000303,0.00000195,0.00
 000937,0.00000052,-0.00001894,0.00000939,-0.00000072,-0.00000264,-0.00
 457151,-0.00156212,0.00329797,-0.00051803,0.00092317,-0.00044108,-0.00
 572658,0.00872645,0.00975190,-0.00620389,-0.00360121,-0.00093621,0.000
 45308,0.00039068,-0.00042461,0.04230054,-0.13736937,-0.15684194,0.0023
 6307,0.00195088,-0.00090426,0.01186771,-0.02362735,-0.00887139,0.00050
 858,-0.00106403,-0.00072526,-0.04195620,0.15230482,0.15675210,-0.00033
 054,-0.00032946,0.00033631,0.00002594,0.00000876,0.00009468,-0.0000691
 3,-0.00004013,-0.00000737,0.00000558,0.00004181,-0.00004124,-0.0000372
 7,0.00002138,-0.00000657,0.00000641,-0.00001655,-0.00001425,0.00001253
 ,-0.00000589,0.00000318,-0.00001619,-0.00002047,0.00001248,0.00000140,
 -0.00001266,0.00001793,0.00000458,0.00001549,0.00000611,-0.00000688,0.
 00000888,0.00001086,0.00000787,0.00000900,-0.00000407,0.00000009,0.000
 01333,0.00000401,-0.00003398,0.00013189,-0.00008332,-0.00004210,-0.000
 04486,0.00004539,-0.00004044,-0.00003196,0.00002618,-0.00000959,-0.000
 01315,0.00000147,0.00001100,-0.00000124,0.00000464,0.00001390,0.000024
 28,-0.00003531,0.00002438,0.00004123,-0.00004151,-0.00002443,-0.000007
 14,-0.00000686,-0.00001478,-0.00000232,-0.00000264,-0.00001260,-0.0000
 1078,0.00001921,-0.00001543,-0.00000436,0.00000208,0.00050887,-0.00085
 513,0.00039724,0.00338200,0.00382071,-0.00107582,0.00209210,0.00078635
 ,-0.00523928,-0.00352987,0.00177023,-0.00611017,-0.00039106,0.00009908
 ,-0.00017626,-0.00969764,0.01205327,-0.00069467,-0.00070360,0.00044964
 ,-0.00011765,-0.27548273,0.13101190,-0.06989102,-0.00059601,-0.0016117
 4,0.00237026,-0.00051833,-0.00237354,0.00141594,0.28547592,-0.00049768
 ,-0.00033285,0.00038987,0.00008787,0.00001246,0.00014633,0.00002625,0.
 00005027,0.00002849,0.00001217,-0.00004704,0.00003218,0.00001971,0.000
 00601,-0.00003350,0.00000377,0.00002868,0.00001961,-0.00002299,0.00000
 194,0.00000094,0.00000496,0.00000372,-0.00001594,0.00000084,0.00001304
 ,-0.00000054,-0.00001154,-0.00000509,0.00000509,0.00000094,-0.00000403
 ,-0.00000839,-0.00000270,-0.00001446,0.00000849,0.00000138,-0.00001212
 ,-0.00000188,-0.00009101,0.00001853,-0.00003460,-0.00000734,-0.0000025
 5,-0.00000284,-0.00001071,0.00002245,-0.00003458,0.00000168,0.00000390
 ,-0.00000589,-0.00000253,-0.00000259,0.00000186,0.00000516,-0.00001319
 ,0.00001543,-0.00000214,-0.00001754,0.00001610,0.00000643,-0.00000065,
 0.00000251,0.00000655,-0.00000116,0.00000349,-0.00000297,0.00000364,-0
 .00000077,0.00000759,0.00000341,0.00000004,-0.00075518,-0.00071272,-0.
 00042206,0.00338374,-0.00021835,-0.00664886,0.00116352,0.00319414,-0.0
 0480519,0.02502408,-0.00715533,0.00980427,0.00105522,-0.00059417,0.000
 42697,-0.01089808,0.00994313,-0.00479856,-0.00046744,0.00020042,-0.000
 13442,0.13087596,-0.13535260,0.02748647,-0.00249470,-0.00110786,0.0018
 7439,-0.00149499,-0.00112040,0.00255980,-0.14492582,0.13320892,0.00040
 099,0.00042808,-0.00029646,-0.00000381,-0.00007458,-0.00003243,-0.0000
 2496,-0.00005286,0.00000976,0.00001207,0.00003359,0.00003937,0.0000353
 2,0.00002881,0.00001033,0.00000002,0.00001909,0.00000949,-0.00000498,-
 0.00000138,-0.00000887,0.00000592,-0.00000184,0.00000010,-0.00000976,-
 0.00001172,-0.00000195,-0.00000820,0.00000441,0.00000410,0.00000106,0.
 00000193,0.00000119,-0.00000088,0.00000663,-0.00000264,-0.00000107,0.0
 0000178,0.00000083,0.00008469,-0.00000429,0.00006362,0.00002500,0.0000
 2090,0.00000368,-0.00000656,0.00001646,0.00001432,0.00000464,-0.000003
 08,0.00001222,0.00000409,-0.00000425,-0.00000368,0.00000609,0.00000517
 ,0.00000113,-0.00000598,-0.00002377,-0.00000778,-0.00000221,0.00000074
 ,-0.00000719,-0.00000270,0.00000050,-0.00000373,0.00000348,-0.00000057
 ,0.00000003,-0.00000364,-0.00000253,0.00000083,0.00030053,-0.00040185,
 -0.00113696,-0.00146388,-0.00625205,0.00107629,-0.00484123,-0.00519278
 ,-0.00136020,0.01843692,-0.01122217,0.01020945,0.00081250,-0.00041021,
 0.00022490,-0.02532229,0.01628459,-0.00083326,-0.00114202,0.00075340,-
 0.00036583,-0.06987649,0.02751567,-0.08317873,0.00144073,0.00265343,-0
 .00091222,0.00236657,0.00175908,-0.00076410,0.07878005,-0.02587432,0.0
 7723440||0.,0.,0.00004270,0.,0.,0.00001829,0.00001744,0.00002296,-0.00
 007048,-0.00000637,0.00006517,0.00004673,-0.00002462,-0.00005051,0.000
 01408,-0.00000729,-0.00007116,0.00000523,-0.00000642,-0.00001124,0.000
 00590,-0.00001331,0.00004291,0.00003953,0.00001139,0.00000076,-0.00001
 136,0.00003137,0.00000424,-0.00005409,-0.00000741,0.00000759,0.0000042
 9,0.00000757,-0.00000004,-0.00000772,-0.00000584,0.00001084,0.00000755
 ,-0.00002860,0.00000362,-0.00007048,0.00005605,0.00000393,0.00001408,-
 0.00005325,-0.00003811,0.00004673,-0.00003051,-0.00003299,0.00003953,-
 0.00000635,0.00000949,-0.00001136,0.00006527,0.00002927,0.00000523,0.0
 0001295,0.00000006,0.00000590,-0.00001936,0.00002504,-0.00005409,-0.00
 000376,0.00000658,-0.00000772,-0.00000287,-0.00001022,0.00000429,-0.00
 000647,-0.00001047,0.00000755,0.00001117,-0.00002658,-0.00007048,0.000
 05963,-0.00002707,0.00004673,-0.00003143,0.00004658,0.00001408,-0.0000
 5798,0.00004189,0.00000523,-0.00000652,0.00001118,0.00000590,0.0000438
 2,-0.00000993,0.00003953,-0.00000504,-0.00001024,-0.00001136,-0.000012
 01,-0.00002929,-0.00005409,0.00001028,0.00000263,0.00000429,-0.0000038
 2,-0.00000654,-0.00000772,0.00001230,-0.00000036,0.00000755|||@


 NO SCIENCE HAS EVER MADE MORE RAPID PROGRESS IN A
 SHORTER TIME THAN CHEMISTRY.
   -- MARTIN HEINRICH KLOPROTH, 1791
 (FIRST PROFESSOR OF CHEMISTRY AT THE UNIVERSITY OF BERLIN)
 Job cpu time:  0 days  0 hours  3 minutes 24.0 seconds.
 File lengths (MBytes):  RWF=    178 Int=      0 D2E=      0 Chk=      7 Scr=      1
 Normal termination of Gaussian 09 at Mon Sep 06 12:49:53 2021.
