 Entering Link 1 = b:\programy\g09w\l1.exe PID=     17484.
  
 Copyright (c) 1988,1990,1992,1993,1995,1998,2003,2009, Gaussian, Inc.
                  All Rights Reserved.
  
 This is part of the Gaussian(R) 09 program.  It is based on
 the Gaussian(R) 03 system (copyright 2003, Gaussian, Inc.),
 the Gaussian(R) 98 system (copyright 1998, Gaussian, Inc.),
 the Gaussian(R) 94 system (copyright 1995, Gaussian, Inc.),
 the Gaussian 92(TM) system (copyright 1992, Gaussian, Inc.),
 the Gaussian 90(TM) system (copyright 1990, Gaussian, Inc.),
 the Gaussian 88(TM) system (copyright 1988, Gaussian, Inc.),
 the Gaussian 86(TM) system (copyright 1986, Carnegie Mellon
 University), and the Gaussian 82(TM) system (copyright 1983,
 Carnegie Mellon University). Gaussian is a federally registered
 trademark of Gaussian, Inc.
  
 This software contains proprietary and confidential information,
 including trade secrets, belonging to Gaussian, Inc.
  
 This software is provided under written license and may be
 used, copied, transmitted, or stored only in accord with that
 written license.
  
 The following legend is applicable only to US Government
 contracts under FAR:
  
                    RESTRICTED RIGHTS LEGEND
  
 Use, reproduction and disclosure by the US Government is
 subject to restrictions as set forth in subparagraphs (a)
 and (c) of the Commercial Computer Software - Restricted
 Rights clause in FAR 52.227-19.
  
 Gaussian, Inc.
 340 Quinnipiac St., Bldg. 40, Wallingford CT 06492
  
  
 ---------------------------------------------------------------
 Warning -- This program may not be used in any manner that
 competes with the business of Gaussian, Inc. or will provide
 assistance to any competitor of Gaussian, Inc.  The licensee
 of this program is prohibited from giving any competitor of
 Gaussian, Inc. access to this program.  By using this program,
 the user acknowledges that Gaussian, Inc. is engaged in the
 business of creating and licensing software in the field of
 computational chemistry and represents and warrants to the
 licensee that it is not a competitor of Gaussian, Inc. and that
 it will not use this program in any manner prohibited above.
 ---------------------------------------------------------------
  

 Cite this work as:
 Gaussian 09, Revision A.02,
 M. J. Frisch, G. W. Trucks, H. B. Schlegel, G. E. Scuseria, 
 M. A. Robb, J. R. Cheeseman, G. Scalmani, V. Barone, B. Mennucci, 
 G. A. Petersson, H. Nakatsuji, M. Caricato, X. Li, H. P. Hratchian, 
 A. F. Izmaylov, J. Bloino, G. Zheng, J. L. Sonnenberg, M. Hada, 
 M. Ehara, K. Toyota, R. Fukuda, J. Hasegawa, M. Ishida, T. Nakajima, 
 Y. Honda, O. Kitao, H. Nakai, T. Vreven, J. A. Montgomery, Jr., 
 J. E. Peralta, F. Ogliaro, M. Bearpark, J. J. Heyd, E. Brothers, 
 K. N. Kudin, V. N. Staroverov, R. Kobayashi, J. Normand, 
 K. Raghavachari, A. Rendell, J. C. Burant, S. S. Iyengar, J. Tomasi, 
 M. Cossi, N. Rega, J. M. Millam, M. Klene, J. E. Knox, J. B. Cross, 
 V. Bakken, C. Adamo, J. Jaramillo, R. Gomperts, R. E. Stratmann, 
 O. Yazyev, A. J. Austin, R. Cammi, C. Pomelli, J. W. Ochterski, 
 R. L. Martin, K. Morokuma, V. G. Zakrzewski, G. A. Voth, 
 P. Salvador, J. J. Dannenberg, S. Dapprich, A. D. Daniels, 
 O. Farkas, J. B. Foresman, J. V. Ortiz, J. Cioslowski, 
 and D. J. Fox, Gaussian, Inc., Wallingford CT, 2009.
 
 ******************************************
 Gaussian 09:  IA32W-G09RevA.02 11-Jun-2009
                07-Sep-2021 
 ******************************************
 %nprocshared=12
 Will use up to   12 processors via shared memory.
 ----------------------------------------------
 # opt freq=noraman hf/6-311g geom=connectivity
 ----------------------------------------------
 1/18=20,19=15,38=1,57=2/1,3;
 2/9=110,12=2,17=6,18=5,40=1/2;
 3/5=4,6=6,11=9,16=1,25=1,30=1,71=1/1,2,3;
 4//1;
 5/5=2,38=5/2;
 6/7=2,8=2,9=2,10=2,28=1/1;
 7//1,2,3,16;
 1/18=20,19=15/3(2);
 2/9=110/2;
 99//99;
 2/9=110/2;
 3/5=4,6=6,11=9,16=1,25=1,30=1,71=1/1,2,3;
 4/5=5,16=3/1;
 5/5=2,38=5/2;
 7//1,2,3,16;
 1/18=20,19=15/3(-5);
 2/9=110/2;
 6/7=2,8=2,9=2,10=2,19=2,28=1/1;
 99/9=1/99;
 -----
 M0001
 -----
 Symbolic Z-matrix:
 Charge =  0 Multiplicity = 1
 C                    -0.72974   0.12248   0.23559 
 H                    -1.79945   0.26684   0.54557 
 C                    -0.70728  -0.13547  -1.25187 
 C                     0.47194  -0.49312  -1.90882 
 C                    -1.88847  -0.0176   -1.98707 
 C                     0.46905  -0.73589  -3.277 
 H                     1.40597  -0.56246  -1.33046 
 C                    -1.88829  -0.25866  -3.35681 
 H                    -2.82102   0.2669   -1.48567 
 C                    -0.71165  -0.62043  -4.00326 
 H                     1.39857  -1.01703  -3.78252 
 H                    -2.81847  -0.16306  -3.92629 
 H                    -0.71393  -0.8121   -5.08099 
 C                     0.0128    1.39419   0.56155 
 C                    -0.68031   2.45619   1.14648 
 C                     1.37425   1.54069   0.28542 
 C                    -0.02103   3.64223   1.45043 
 H                    -1.74963   2.35739   1.36794 
 C                     2.03104   2.7265    0.59023 
 H                     1.91597   0.70811  -0.19063 
 C                     1.33467   3.77942   1.17428 
 H                    -0.57296   4.46972   1.90805 
 H                     3.098     2.83086   0.36805 
 H                     1.85228   4.71364   1.41424 
 C                    -0.26325  -1.08273   1.01421 
 C                     0.62824  -0.98113   2.08195 
 C                    -0.792    -2.33652   0.68953 
 C                     0.9887   -2.11154   2.80844 
 H                     1.04953  -0.00424   2.35136 
 C                    -0.42991  -3.4637    1.41509 
 H                    -1.49344  -2.42493  -0.14883 
 C                     0.4621   -3.35389   2.47759 
 H                     1.68977  -2.01815   3.64423 
 H                    -0.84845  -4.44      1.15002 
 H                     0.74641  -4.24251   3.04996 
 

 GradGradGradGradGradGradGradGradGradGradGradGradGradGradGradGradGradGrad
 Berny optimization.
 Initialization pass.
                           ----------------------------
                           !    Initial Parameters    !
                           ! (Angstroms and Degrees)  !
 --------------------------                            --------------------------
 ! Name  Definition              Value          Derivative Info.                !
 --------------------------------------------------------------------------------
 ! R1    R(1,2)                  1.123          estimate D2E/DX2                !
 ! R2    R(1,3)                  1.5098         estimate D2E/DX2                !
 ! R3    R(1,14)                 1.5083         estimate D2E/DX2                !
 ! R4    R(1,25)                 1.5088         estimate D2E/DX2                !
 ! R5    R(3,4)                  1.3964         estimate D2E/DX2                !
 ! R6    R(3,5)                  1.3963         estimate D2E/DX2                !
 ! R7    R(4,6)                  1.3896         estimate D2E/DX2                !
 ! R8    R(4,7)                  1.1008         estimate D2E/DX2                !
 ! R9    R(5,8)                  1.3908         estimate D2E/DX2                !
 ! R10   R(5,9)                  1.0963         estimate D2E/DX2                !
 ! R11   R(6,10)                 1.391          estimate D2E/DX2                !
 ! R12   R(6,11)                 1.0948         estimate D2E/DX2                !
 ! R13   R(8,10)                 1.3904         estimate D2E/DX2                !
 ! R14   R(8,12)                 1.0948         estimate D2E/DX2                !
 ! R15   R(10,13)                1.0946         estimate D2E/DX2                !
 ! R16   R(14,15)                1.3966         estimate D2E/DX2                !
 ! R17   R(14,16)                1.3969         estimate D2E/DX2                !
 ! R18   R(15,17)                1.3906         estimate D2E/DX2                !
 ! R19   R(15,18)                1.0965         estimate D2E/DX2                !
 ! R20   R(16,19)                1.3894         estimate D2E/DX2                !
 ! R21   R(16,20)                1.1015         estimate D2E/DX2                !
 ! R22   R(17,21)                1.3903         estimate D2E/DX2                !
 ! R23   R(17,22)                1.0949         estimate D2E/DX2                !
 ! R24   R(19,21)                1.3909         estimate D2E/DX2                !
 ! R25   R(19,23)                1.0948         estimate D2E/DX2                !
 ! R26   R(21,24)                1.0947         estimate D2E/DX2                !
 ! R27   R(25,26)                1.3947         estimate D2E/DX2                !
 ! R28   R(25,27)                1.3989         estimate D2E/DX2                !
 ! R29   R(26,28)                1.3912         estimate D2E/DX2                !
 ! R30   R(26,29)                1.0974         estimate D2E/DX2                !
 ! R31   R(27,30)                1.3886         estimate D2E/DX2                !
 ! R32   R(27,31)                1.0967         estimate D2E/DX2                !
 ! R33   R(28,32)                1.3893         estimate D2E/DX2                !
 ! R34   R(28,33)                1.0949         estimate D2E/DX2                !
 ! R35   R(30,32)                1.3916         estimate D2E/DX2                !
 ! R36   R(30,34)                1.0948         estimate D2E/DX2                !
 ! R37   R(32,35)                1.0946         estimate D2E/DX2                !
 ! A1    A(2,1,3)              107.9426         estimate D2E/DX2                !
 ! A2    A(2,1,14)             107.5113         estimate D2E/DX2                !
 ! A3    A(2,1,25)             104.7585         estimate D2E/DX2                !
 ! A4    A(3,1,14)             110.4654         estimate D2E/DX2                !
 ! A5    A(3,1,25)             111.5524         estimate D2E/DX2                !
 ! A6    A(14,1,25)            114.1904         estimate D2E/DX2                !
 ! A7    A(1,3,4)              121.3182         estimate D2E/DX2                !
 ! A8    A(1,3,5)              119.4547         estimate D2E/DX2                !
 ! A9    A(4,3,5)              119.227          estimate D2E/DX2                !
 ! A10   A(3,4,6)              120.4111         estimate D2E/DX2                !
 ! A11   A(3,4,7)              119.0441         estimate D2E/DX2                !
 ! A12   A(6,4,7)              120.5361         estimate D2E/DX2                !
 ! A13   A(3,5,8)              120.2539         estimate D2E/DX2                !
 ! A14   A(3,5,9)              120.044          estimate D2E/DX2                !
 ! A15   A(8,5,9)              119.7021         estimate D2E/DX2                !
 ! A16   A(4,6,10)             120.089          estimate D2E/DX2                !
 ! A17   A(4,6,11)             119.8509         estimate D2E/DX2                !
 ! A18   A(10,6,11)            120.0601         estimate D2E/DX2                !
 ! A19   A(5,8,10)             120.205          estimate D2E/DX2                !
 ! A20   A(5,8,12)             119.8041         estimate D2E/DX2                !
 ! A21   A(10,8,12)            119.9909         estimate D2E/DX2                !
 ! A22   A(6,10,8)             119.813          estimate D2E/DX2                !
 ! A23   A(6,10,13)            120.0851         estimate D2E/DX2                !
 ! A24   A(8,10,13)            120.1019         estimate D2E/DX2                !
 ! A25   A(1,14,15)            119.1669         estimate D2E/DX2                !
 ! A26   A(1,14,16)            121.7042         estimate D2E/DX2                !
 ! A27   A(15,14,16)           119.1275         estimate D2E/DX2                !
 ! A28   A(14,15,17)           120.3202         estimate D2E/DX2                !
 ! A29   A(14,15,18)           120.0059         estimate D2E/DX2                !
 ! A30   A(17,15,18)           119.6739         estimate D2E/DX2                !
 ! A31   A(14,16,19)           120.4557         estimate D2E/DX2                !
 ! A32   A(14,16,20)           119.0449         estimate D2E/DX2                !
 ! A33   A(19,16,20)           120.4935         estimate D2E/DX2                !
 ! A34   A(15,17,21)           120.2017         estimate D2E/DX2                !
 ! A35   A(15,17,22)           119.7999         estimate D2E/DX2                !
 ! A36   A(21,17,22)           119.9984         estimate D2E/DX2                !
 ! A37   A(16,19,21)           120.1008         estimate D2E/DX2                !
 ! A38   A(16,19,23)           119.8361         estimate D2E/DX2                !
 ! A39   A(21,19,23)           120.0629         estimate D2E/DX2                !
 ! A40   A(17,21,19)           119.7939         estimate D2E/DX2                !
 ! A41   A(17,21,24)           120.116          estimate D2E/DX2                !
 ! A42   A(19,21,24)           120.09           estimate D2E/DX2                !
 ! A43   A(1,25,26)            122.3122         estimate D2E/DX2                !
 ! A44   A(1,25,27)            118.6386         estimate D2E/DX2                !
 ! A45   A(26,25,27)           118.9849         estimate D2E/DX2                !
 ! A46   A(25,26,28)           120.411          estimate D2E/DX2                !
 ! A47   A(25,26,29)           119.8787         estimate D2E/DX2                !
 ! A48   A(28,26,29)           119.7103         estimate D2E/DX2                !
 ! A49   A(25,27,30)           120.511          estimate D2E/DX2                !
 ! A50   A(25,27,31)           119.4349         estimate D2E/DX2                !
 ! A51   A(30,27,31)           120.0533         estimate D2E/DX2                !
 ! A52   A(26,28,32)           120.2658         estimate D2E/DX2                !
 ! A53   A(26,28,33)           119.684          estimate D2E/DX2                !
 ! A54   A(32,28,33)           120.0502         estimate D2E/DX2                !
 ! A55   A(27,30,32)           120.135          estimate D2E/DX2                !
 ! A56   A(27,30,34)           119.8474         estimate D2E/DX2                !
 ! A57   A(32,30,34)           120.0175         estimate D2E/DX2                !
 ! A58   A(28,32,30)           119.6916         estimate D2E/DX2                !
 ! A59   A(28,32,35)           120.1979         estimate D2E/DX2                !
 ! A60   A(30,32,35)           120.1105         estimate D2E/DX2                !
 ! D1    D(2,1,3,4)           -173.18           estimate D2E/DX2                !
 ! D2    D(2,1,3,5)              6.6762         estimate D2E/DX2                !
 ! D3    D(14,1,3,4)            69.5343         estimate D2E/DX2                !
 ! D4    D(14,1,3,5)          -110.6095         estimate D2E/DX2                !
 ! D5    D(25,1,3,4)           -58.6108         estimate D2E/DX2                !
 ! D6    D(25,1,3,5)           121.2454         estimate D2E/DX2                !
 ! D7    D(2,1,14,15)            0.089          estimate D2E/DX2                !
 ! D8    D(2,1,14,16)         -179.4809         estimate D2E/DX2                !
 ! D9    D(3,1,14,15)          117.6405         estimate D2E/DX2                !
 ! D10   D(3,1,14,16)          -61.9294         estimate D2E/DX2                !
 ! D11   D(25,1,14,15)        -115.6691         estimate D2E/DX2                !
 ! D12   D(25,1,14,16)          64.761          estimate D2E/DX2                !
 ! D13   D(2,1,25,26)         -107.9598         estimate D2E/DX2                !
 ! D14   D(2,1,25,27)           69.0944         estimate D2E/DX2                !
 ! D15   D(3,1,25,26)          135.5163         estimate D2E/DX2                !
 ! D16   D(3,1,25,27)          -47.4295         estimate D2E/DX2                !
 ! D17   D(14,1,25,26)           9.392          estimate D2E/DX2                !
 ! D18   D(14,1,25,27)        -173.5538         estimate D2E/DX2                !
 ! D19   D(1,3,4,6)            179.5192         estimate D2E/DX2                !
 ! D20   D(1,3,4,7)             -1.546          estimate D2E/DX2                !
 ! D21   D(5,3,4,6)             -0.3374         estimate D2E/DX2                !
 ! D22   D(5,3,4,7)            178.5975         estimate D2E/DX2                !
 ! D23   D(1,3,5,8)           -179.6426         estimate D2E/DX2                !
 ! D24   D(1,3,5,9)              0.4194         estimate D2E/DX2                !
 ! D25   D(4,3,5,8)              0.2167         estimate D2E/DX2                !
 ! D26   D(4,3,5,9)           -179.7214         estimate D2E/DX2                !
 ! D27   D(3,4,6,10)             0.1626         estimate D2E/DX2                !
 ! D28   D(3,4,6,11)          -179.9185         estimate D2E/DX2                !
 ! D29   D(7,4,6,10)          -178.7562         estimate D2E/DX2                !
 ! D30   D(7,4,6,11)             1.1627         estimate D2E/DX2                !
 ! D31   D(3,5,8,10)             0.0787         estimate D2E/DX2                !
 ! D32   D(3,5,8,12)          -179.9353         estimate D2E/DX2                !
 ! D33   D(9,5,8,10)          -179.983          estimate D2E/DX2                !
 ! D34   D(9,5,8,12)             0.003          estimate D2E/DX2                !
 ! D35   D(4,6,10,8)             0.1357         estimate D2E/DX2                !
 ! D36   D(4,6,10,13)         -179.9741         estimate D2E/DX2                !
 ! D37   D(11,6,10,8)         -179.7831         estimate D2E/DX2                !
 ! D38   D(11,6,10,13)           0.1072         estimate D2E/DX2                !
 ! D39   D(5,8,10,6)            -0.256          estimate D2E/DX2                !
 ! D40   D(5,8,10,13)          179.8537         estimate D2E/DX2                !
 ! D41   D(12,8,10,6)          179.758          estimate D2E/DX2                !
 ! D42   D(12,8,10,13)          -0.1323         estimate D2E/DX2                !
 ! D43   D(1,14,15,17)        -179.6549         estimate D2E/DX2                !
 ! D44   D(1,14,15,18)           0.3217         estimate D2E/DX2                !
 ! D45   D(16,14,15,17)         -0.0738         estimate D2E/DX2                !
 ! D46   D(16,14,15,18)        179.9028         estimate D2E/DX2                !
 ! D47   D(1,14,16,19)         179.6585         estimate D2E/DX2                !
 ! D48   D(1,14,16,20)           0.5364         estimate D2E/DX2                !
 ! D49   D(15,14,16,19)          0.0884         estimate D2E/DX2                !
 ! D50   D(15,14,16,20)       -179.0336         estimate D2E/DX2                !
 ! D51   D(14,15,17,21)         -0.0211         estimate D2E/DX2                !
 ! D52   D(14,15,17,22)        179.9433         estimate D2E/DX2                !
 ! D53   D(18,15,17,21)       -179.9978         estimate D2E/DX2                !
 ! D54   D(18,15,17,22)         -0.0335         estimate D2E/DX2                !
 ! D55   D(14,16,19,21)         -0.0081         estimate D2E/DX2                !
 ! D56   D(14,16,19,23)       -179.9081         estimate D2E/DX2                !
 ! D57   D(20,16,19,21)        179.1012         estimate D2E/DX2                !
 ! D58   D(20,16,19,23)         -0.7988         estimate D2E/DX2                !
 ! D59   D(15,17,21,19)          0.1022         estimate D2E/DX2                !
 ! D60   D(15,17,21,24)       -179.9927         estimate D2E/DX2                !
 ! D61   D(22,17,21,19)       -179.8621         estimate D2E/DX2                !
 ! D62   D(22,17,21,24)          0.043          estimate D2E/DX2                !
 ! D63   D(16,19,21,17)         -0.0877         estimate D2E/DX2                !
 ! D64   D(16,19,21,24)       -179.9927         estimate D2E/DX2                !
 ! D65   D(23,19,21,17)        179.8121         estimate D2E/DX2                !
 ! D66   D(23,19,21,24)         -0.0929         estimate D2E/DX2                !
 ! D67   D(1,25,26,28)         177.2862         estimate D2E/DX2                !
 ! D68   D(1,25,26,29)          -2.7675         estimate D2E/DX2                !
 ! D69   D(27,25,26,28)          0.2418         estimate D2E/DX2                !
 ! D70   D(27,25,26,29)       -179.8118         estimate D2E/DX2                !
 ! D71   D(1,25,27,30)        -177.4594         estimate D2E/DX2                !
 ! D72   D(1,25,27,31)           2.8621         estimate D2E/DX2                !
 ! D73   D(26,25,27,30)         -0.3054         estimate D2E/DX2                !
 ! D74   D(26,25,27,31)       -179.984          estimate D2E/DX2                !
 ! D75   D(25,26,28,32)         -0.0699         estimate D2E/DX2                !
 ! D76   D(25,26,28,33)        179.9816         estimate D2E/DX2                !
 ! D77   D(29,26,28,32)        179.9837         estimate D2E/DX2                !
 ! D78   D(29,26,28,33)          0.0351         estimate D2E/DX2                !
 ! D79   D(25,27,30,32)          0.1966         estimate D2E/DX2                !
 ! D80   D(25,27,30,34)       -179.8502         estimate D2E/DX2                !
 ! D81   D(31,27,30,32)        179.8732         estimate D2E/DX2                !
 ! D82   D(31,27,30,34)         -0.1736         estimate D2E/DX2                !
 ! D83   D(26,28,32,30)         -0.0429         estimate D2E/DX2                !
 ! D84   D(26,28,32,35)       -179.9962         estimate D2E/DX2                !
 ! D85   D(33,28,32,30)        179.9055         estimate D2E/DX2                !
 ! D86   D(33,28,32,35)         -0.0479         estimate D2E/DX2                !
 ! D87   D(27,30,32,28)         -0.0203         estimate D2E/DX2                !
 ! D88   D(27,30,32,35)        179.933          estimate D2E/DX2                !
 ! D89   D(34,30,32,28)       -179.9735         estimate D2E/DX2                !
 ! D90   D(34,30,32,35)         -0.0201         estimate D2E/DX2                !
 --------------------------------------------------------------------------------
 Trust Radius=3.00D-01 FncErr=1.00D-07 GrdErr=1.00D-07
 Number of steps in this run= 197 maximum allowed number of steps= 210.
 GradGradGradGradGradGradGradGradGradGradGradGradGradGradGradGradGradGrad

                          Input orientation:                          
 ---------------------------------------------------------------------
 Center     Atomic      Atomic             Coordinates (Angstroms)
 Number     Number       Type             X           Y           Z
 ---------------------------------------------------------------------
      1          6           0       -0.729742    0.122477    0.235587
      2          1           0       -1.799450    0.266841    0.545571
      3          6           0       -0.707285   -0.135467   -1.251870
      4          6           0        0.471935   -0.493125   -1.908817
      5          6           0       -1.888465   -0.017596   -1.987066
      6          6           0        0.469053   -0.735895   -3.277002
      7          1           0        1.405968   -0.562456   -1.330458
      8          6           0       -1.888293   -0.258665   -3.356811
      9          1           0       -2.821016    0.266897   -1.485674
     10          6           0       -0.711646   -0.620426   -4.003258
     11          1           0        1.398572   -1.017026   -3.782522
     12          1           0       -2.818469   -0.163060   -3.926293
     13          1           0       -0.713930   -0.812099   -5.080988
     14          6           0        0.012797    1.394194    0.561547
     15          6           0       -0.680314    2.456188    1.146478
     16          6           0        1.374253    1.540692    0.285424
     17          6           0       -0.021033    3.642227    1.450429
     18          1           0       -1.749632    2.357395    1.367939
     19          6           0        2.031039    2.726497    0.590227
     20          1           0        1.915973    0.708111   -0.190627
     21          6           0        1.334670    3.779422    1.174282
     22          1           0       -0.572959    4.469720    1.908055
     23          1           0        3.097996    2.830864    0.368051
     24          1           0        1.852278    4.713641    1.414242
     25          6           0       -0.263245   -1.082729    1.014214
     26          6           0        0.628244   -0.981130    2.081947
     27          6           0       -0.792001   -2.336525    0.689526
     28          6           0        0.988698   -2.111539    2.808442
     29          1           0        1.049527   -0.004239    2.351358
     30          6           0       -0.429909   -3.463701    1.415089
     31          1           0       -1.493444   -2.424933   -0.148830
     32          6           0        0.462102   -3.353887    2.477592
     33          1           0        1.689768   -2.018153    3.644228
     34          1           0       -0.848453   -4.440000    1.150024
     35          1           0        0.746412   -4.242513    3.049962
 ---------------------------------------------------------------------
                    Distance matrix (angstroms):
                    1          2          3          4          5
     1  C    0.000000
     2  H    1.123035   0.000000
     3  C    1.509823   2.141371   0.000000
     4  C    2.534060   3.429397   1.396445   0.000000
     5  C    2.510467   2.550114   1.396279   2.409096   0.000000
     6  C    3.809487   4.556715   2.417735   1.389560   2.781686
     7  H    2.735487   3.805513   2.157390   1.100783   3.403131
     8  C    3.793788   3.938608   2.416761   2.778909   1.390796
     9  H    2.712383   2.273665   2.164352   3.405908   1.096349
    10  C    4.303491   4.760505   2.793804   2.409098   2.411086
    11  H    4.687578   5.532455   3.408223   2.154971   3.876485
    12  H    4.665357   4.606602   3.407404   3.873747   2.155613
    13  H    5.398115   5.831006   3.888447   3.401572   3.403398
    14  C    1.508269   2.134343   2.479287   3.142527   3.478991
    15  C    2.505667   2.531164   3.531214   4.400108   4.171130
    16  C    2.537836   3.429689   3.083113   3.124945   4.270574
    17  C    3.790349   3.921067   4.695139   5.350578   5.357049
    18  H    2.705042   2.247039   3.763542   4.878315   4.112896
    19  C    3.811640   4.552422   4.368361   4.363713   5.434611
    20  H    2.743070   3.813277   2.952854   2.545661   4.269379
    21  C    4.303044   4.749338   5.038070   5.338958   5.899158
    22  H    4.660499   4.585284   5.586673   6.347451   6.085928
    23  H    4.690894   5.530887   5.089541   4.809286   6.206859
    24  H    5.397670   5.819256   6.096997   6.329177   6.924353
    25  C    1.508775   2.097831   2.495919   3.071194   3.575406
    26  C    2.543840   3.132345   3.689596   4.023528   4.880481
    27  C    2.501326   2.795209   2.936128   3.427396   3.707265
    28  C    3.816209   4.307093   4.823624   5.013865   5.971563
    29  H    2.767371   3.383937   4.010843   4.326860   5.239648
    30  C    3.787057   4.068004   4.273962   4.548186   5.057439
    31  H    2.687064   2.796691   2.660149   3.269885   3.054574
    32  C    4.304903   4.685830   5.063060   5.236854   6.048899
    33  H    4.696293   5.195914   5.767334   5.886012   6.965448
    34  H    4.654728   4.839847   4.931331   5.165052   5.520926
    35  H    5.399340   5.752188   6.122648   6.222760   7.082666
                    6          7          8          9         10
     6  C    0.000000
     7  H    2.167239   0.000000
     8  C    2.406490   3.879503   0.000000
     9  H    3.878014   4.310372   2.155769   0.000000
    10  C    1.390982   3.410500   1.390418   3.402207   0.000000
    11  H    1.094802   2.493854   3.399974   4.972815   2.158480
    12  H    3.399635   4.974308   1.094842   2.478203   2.157269
    13  H    2.158615   4.315410   2.158288   4.304686   1.094644
    14  C    4.413605   3.057628   4.658284   3.673201   5.041920
    15  C    5.574729   4.427188   5.395298   4.037798   5.998859
    16  C    4.323553   2.652416   5.210351   4.728596   5.235857
    17  C    6.461945   5.239182   6.466310   5.277637   6.956282
    18  H    6.005537   5.075893   5.402430   3.696099   6.228530
    19  C    5.420647   3.859657   6.312801   5.822493   6.310651
    20  H    3.701951   1.781477   5.042996   4.930606   4.817214
    21  C    6.399321   5.013054   6.872004   6.056643   7.095984
    22  H    7.420850   6.302929   7.197675   5.851057   7.802079
    23  H    5.737554   4.154818   6.948587   6.711551   6.747823
    24  H    7.322467   5.964040   7.840832   7.072674   8.023421
    25  C    4.367045   2.924798   4.735580   3.822711   5.058637
    26  C    5.366919   3.524862   6.036141   5.116921   6.241405
    27  C    4.459329   3.472568   4.678910   3.953000   4.997367
    28  C    6.260596   4.438949   7.051281   6.213719   7.177315
    29  H    5.705323   3.740913   6.424851   5.456870   6.622882
    30  C    5.501343   4.396100   5.930444   5.296148   6.125526
    31  H    4.060751   3.643028   3.890984   3.285657   4.327131
    32  C    6.322127   4.815000   7.010351   6.292569   7.130983
    33  H    7.144072   5.191060   8.056852   7.203091   8.136613
    34  H    5.920708   5.125481   6.235094   5.743935   6.415932
    35  H    7.239045   5.758986   7.991211   7.323477   8.061846
                   11         12         13         14         15
    11  H    0.000000
    12  H    4.305039   0.000000
    13  H    2.488106   2.486696   0.000000
    14  C    5.158032   5.530083   6.101972   0.000000
    15  C    6.378089   6.096324   7.033076   1.396559   0.000000
    16  C    4.805278   6.182253   6.220491   1.396879   2.408484
    17  C    7.148965   7.156466   7.936028   2.417625   1.390585
    18  H    6.915574   5.960201   7.259961   2.164296   1.096469
    19  C    5.790934   7.229538   7.226285   2.418503   2.780993
    20  H    4.018148   6.093364   5.757000   2.158369   3.403576
    21  C    6.897819   7.668611   8.025411   2.795015   2.410785
    22  H    8.147023   7.781040   8.761518   3.408086   2.155420
    23  H    5.909447   7.899971   7.582479   3.408800   3.875817
    24  H    7.749371   8.609263   8.905461   3.889667   3.403207
    25  C    5.076872   5.637692   6.117829   2.533032   3.565862
    26  C    5.914955   6.974813   7.289557   2.886616   3.795073
    27  C    5.151592   5.489655   5.968987   3.818683   4.815742
    28  C    6.693785   7.977954   8.174998   4.276807   5.139247
    29  H    6.226721   7.375332   7.681288   2.496768   3.240029
    30  C    6.028658   6.717873   7.022156   4.952137   5.931268
    31  H    4.852801   4.597932   5.247385   4.166428   5.115109
    32  C    6.747364   7.871040   8.060761   5.139784   6.069098
    33  H    7.499578   9.004353   9.130264   4.894820   5.645864
    34  H    6.410607   6.924029   7.211468   5.926708   6.898238
    35  H    7.583661   8.832805   8.944981   6.205067   7.108543
                   16         17         18         19         20
    16  C    0.000000
    17  C    2.778580   0.000000
    18  H    3.405510   2.155378   0.000000
    19  C    1.389390   2.406140   3.877441   0.000000
    20  H    1.101488   3.879960   4.311140   2.167222   0.000000
    21  C    2.409055   1.390328   3.401850   1.390936   3.410842
    22  H    3.873470   1.094892   2.477539   3.399456   4.974831
    23  H    2.154683   3.399734   4.972268   1.094829   2.493066
    24  H    3.401520   2.158363   4.304393   2.158633   4.315545
    25  C    3.177243   4.751227   3.764163   4.466957   3.067205
    26  C    3.184904   4.711242   4.160511   4.235512   3.110688
    27  C    4.459682   6.076087   4.838407   5.797724   4.168645
    28  C    4.455678   5.997465   5.435520   5.423426   4.219560
    29  H    2.600066   3.905699   3.792061   3.394388   2.778464
    30  C    5.438299   7.117770   5.969008   6.712318   5.048317
    31  H    4.913089   6.444847   5.023632   6.285333   4.630533
    32  C    5.440086   7.087602   6.224295   6.557041   5.072768
    33  H    4.903723   6.307099   6.013018   5.652884   4.710606
    34  H    6.438683   8.130022   6.860335   7.743612   5.995202
    35  H    6.440677   8.081868   7.253842   7.501177   6.031416
                   21         22         23         24         25
    21  C    0.000000
    22  H    2.157309   0.000000
    23  H    2.158492   4.305039   0.000000
    24  H    1.094652   2.486991   2.488207   0.000000
    25  C    5.120495   5.632456   5.199200   6.183313   0.000000
    26  C    4.897525   5.584343   4.854731   5.862977   1.394679
    27  C    6.493268   6.917930   6.475904   7.564540   1.398931
    28  C    6.123202   6.823668   5.901864   7.019448   2.417657
    29  H    3.972771   4.779674   4.020888   4.876575   2.162052
    30  C    7.458858   7.950009   7.291362   8.489835   2.420229
    31  H    6.945709   7.253572   6.997992   8.037181   2.160456
    32  C    7.303704   7.912304   7.046223   8.255199   2.797457
    33  H    6.311783   7.087082   6.019087   7.093398   3.406796
    34  H    8.504441   8.946151   8.309718   9.547403   3.410598
    35  H    8.259277   8.885251   7.921822   9.171216   3.892032
                   26         27         28         29         30
    26  C    0.000000
    27  C    2.406871   0.000000
    28  C    1.391240   2.776924   0.000000
    29  H    1.097441   3.404771   2.157160   0.000000
    30  C    2.779847   1.388553   2.404625   3.877268   0.000000
    31  H    3.400367   1.096668   3.873591   4.310151   2.157775
    32  C    2.411248   2.409353   1.389314   3.403108   1.391638
    33  H    2.154756   3.871796   1.094879   2.477351   3.398780
    34  H    3.874648   2.154032   3.398117   4.972073   1.094805
    35  H    3.404062   3.401641   2.158259   4.306145   2.159418
                   31         32         33         34         35
    31  H    0.000000
    32  C    3.403706   0.000000
    33  H    4.968461   2.156940   0.000000
    34  H    2.482647   2.158618   4.304528   0.000000
    35  H    4.307299   1.094575   2.488142   2.488445   0.000000
 Stoichiometry    C19H16
 Framework group  C1[X(C19H16)]
 Deg. of freedom    99
 Full point group                 C1      NOp   1
 Largest Abelian subgroup         C1      NOp   1
 Largest concise Abelian subgroup C1      NOp   1
                         Standard orientation:                         
 ---------------------------------------------------------------------
 Center     Atomic      Atomic             Coordinates (Angstroms)
 Number     Number       Type             X           Y           Z
 ---------------------------------------------------------------------
      1          6           0        0.010032    0.013168   -0.761977
      2          1           0       -0.017966    0.017747   -1.884653
      3          6           0       -0.761492   -1.192780   -0.282385
      4          6           0       -1.024072   -1.394009    1.074309
      5          6           0       -1.225363   -2.125410   -1.212233
      6          6           0       -1.744625   -2.505561    1.493987
      7          1           0       -0.636997   -0.669197    1.806801
      8          6           0       -1.944193   -3.238459   -0.789481
      9          1           0       -1.022893   -1.983041   -2.280277
     10          6           0       -2.207240   -3.429165    0.562443
     11          1           0       -1.946371   -2.653593    2.559810
     12          1           0       -2.303517   -3.965664   -1.524829
     13          1           0       -2.775224   -4.304561    0.893083
     14          6           0        1.455991   -0.085631   -0.344464
     15          6           0        2.445612   -0.148315   -1.327876
     16          6           0        1.830649   -0.124982    1.000658
     17          6           0        3.785716   -0.247015   -0.969958
     18          1           0        2.167593   -0.120165   -2.388139
     19          6           0        3.170224   -0.223318    1.356008
     20          1           0        1.047965   -0.091659    1.774978
     21          6           0        4.150582   -0.283613    0.371140
     22          1           0        4.554493   -0.296538   -1.747980
     23          1           0        3.452371   -0.254902    2.413385
     24          1           0        5.205925   -0.361206    0.651307
     25          6           0       -0.664308    1.300176   -0.355435
     26          6           0        0.044712    2.378765    0.172832
     27          6           0       -2.039592    1.434491   -0.573525
     28          6           0       -0.608711    3.567413    0.482188
     29          1           0        1.124653    2.290504    0.346943
     30          6           0       -2.690049    2.621278   -0.262848
     31          1           0       -2.604396    0.590944   -0.988381
     32          6           0       -1.975466    3.691888    0.266133
     33          1           0       -0.040490    4.406521    0.896655
     34          1           0       -3.767170    2.713681   -0.435679
     35          1           0       -2.488421    4.627604    0.509867
 ---------------------------------------------------------------------
 Rotational constants (GHZ):      0.4037750      0.3825283      0.2325679
 Standard basis: 6-311G (5D, 7F)
 There are   295 symmetry adapted basis functions of A   symmetry.
 Integral buffers will be    262144 words long.
 Raffenetti 1 integral format.
 Two-electron integral symmetry is turned on.
   295 basis functions,   574 primitive gaussians,   295 cartesian basis functions
    65 alpha electrons       65 beta electrons
       nuclear repulsion energy      1290.7837620126 Hartrees.
 NAtoms=   35 NActive=   35 NUniq=   35 SFac= 7.50D-01 NAtFMM=   80 NAOKFM=F Big=F
 One-electron integrals computed using PRISM.
 PrsmSu:  requested number of processors reduced to:  10 ShMem   1 Linda.
 NBasis=   295 RedAO= T  NBF=   295
 NBsUse=   295 1.00D-06 NBFU=   295
 Harris functional with IExCor=  205 diagonalized for initial guess.
 ExpMin= 1.03D-01 ExpMax= 4.56D+03 ExpMxC= 6.82D+02 IAcc=1 IRadAn=         1 AccDes= 0.00D+00
 HarFok:  IExCor=  205 AccDes= 0.00D+00 IRadAn=         1 IDoV= 1
 ScaDFX=  1.000000  1.000000  1.000000  1.000000
 FoFCou: FMM=F IPFlag=           0 FMFlag=      100000 FMFlg1=           0
         NFxFlg=           0 DoJE=T BraDBF=F KetDBF=T FulRan=T
         Omega=  0.000000  0.000000  1.000000  0.000000  0.000000 ICntrl=     500 IOpCl=  0
         NMat0=    1 NMatS0=    1 NMatT0=    0 NMatD0=    1 NMtDS0=    0 NMtDT0=    0
         I1Cent=           4 NGrid=           0.
 Petite list used in FoFCou.
 Initial guess orbital symmetries:
       Occupied  (A) (A) (A) (A) (A) (A) (A) (A) (A) (A) (A) (A)
                 (A) (A) (A) (A) (A) (A) (A) (A) (A) (A) (A) (A)
                 (A) (A) (A) (A) (A) (A) (A) (A) (A) (A) (A) (A)
                 (A) (A) (A) (A) (A) (A) (A) (A) (A) (A) (A) (A)
                 (A) (A) (A) (A) (A) (A) (A) (A) (A) (A) (A) (A)
                 (A) (A) (A) (A) (A)
       Virtual   (A) (A) (A) (A) (A) (A) (A) (A) (A) (A) (A) (A)
                 (A) (A) (A) (A) (A) (A) (A) (A) (A) (A) (A) (A)
                 (A) (A) (A) (A) (A) (A) (A) (A) (A) (A) (A) (A)
                 (A) (A) (A) (A) (A) (A) (A) (A) (A) (A) (A) (A)
                 (A) (A) (A) (A) (A) (A) (A) (A) (A) (A) (A) (A)
                 (A) (A) (A) (A) (A) (A) (A) (A) (A) (A) (A) (A)
                 (A) (A) (A) (A) (A) (A) (A) (A) (A) (A) (A) (A)
                 (A) (A) (A) (A) (A) (A) (A) (A) (A) (A) (A) (A)
                 (A) (A) (A) (A) (A) (A) (A) (A) (A) (A) (A) (A)
                 (A) (A) (A) (A) (A) (A) (A) (A) (A) (A) (A) (A)
                 (A) (A) (A) (A) (A) (A) (A) (A) (A) (A) (A) (A)
                 (A) (A) (A) (A) (A) (A) (A) (A) (A) (A) (A) (A)
                 (A) (A) (A) (A) (A) (A) (A) (A) (A) (A) (A) (A)
                 (A) (A) (A) (A) (A) (A) (A) (A) (A) (A) (A) (A)
                 (A) (A) (A) (A) (A) (A) (A) (A) (A) (A) (A) (A)
                 (A) (A) (A) (A) (A) (A) (A) (A) (A) (A) (A) (A)
                 (A) (A) (A) (A) (A) (A) (A) (A) (A) (A) (A) (A)
                 (A) (A) (A) (A) (A) (A) (A) (A) (A) (A) (A) (A)
                 (A) (A) (A) (A) (A) (A) (A) (A) (A) (A) (A) (A)
                 (A) (A)
 The electronic state of the initial guess is 1-A.
 Requested convergence on RMS density matrix=1.00D-08 within 128 cycles.
 Requested convergence on MAX density matrix=1.00D-06.
 Requested convergence on             energy=1.00D-06.
 No special actions if energy rises.
 Integral accuracy reduced to 1.0D-05 until final iterations.
 Initial convergence to 1.0D-05 achieved.  Increase integral accuracy.
 SCF Done:  E(RHF) =  -728.672421563     A.U. after   14 cycles
             Convg  =    0.8803D-08             -V/T =  2.0001

 **********************************************************************

            Population analysis using the SCF density.

 **********************************************************************

 Orbital symmetries:
       Occupied  (A) (A) (A) (A) (A) (A) (A) (A) (A) (A) (A) (A)
                 (A) (A) (A) (A) (A) (A) (A) (A) (A) (A) (A) (A)
                 (A) (A) (A) (A) (A) (A) (A) (A) (A) (A) (A) (A)
                 (A) (A) (A) (A) (A) (A) (A) (A) (A) (A) (A) (A)
                 (A) (A) (A) (A) (A) (A) (A) (A) (A) (A) (A) (A)
                 (A) (A) (A) (A) (A)
       Virtual   (A) (A) (A) (A) (A) (A) (A) (A) (A) (A) (A) (A)
                 (A) (A) (A) (A) (A) (A) (A) (A) (A) (A) (A) (A)
                 (A) (A) (A) (A) (A) (A) (A) (A) (A) (A) (A) (A)
                 (A) (A) (A) (A) (A) (A) (A) (A) (A) (A) (A) (A)
                 (A) (A) (A) (A) (A) (A) (A) (A) (A) (A) (A) (A)
                 (A) (A) (A) (A) (A) (A) (A) (A) (A) (A) (A) (A)
                 (A) (A) (A) (A) (A) (A) (A) (A) (A) (A) (A) (A)
                 (A) (A) (A) (A) (A) (A) (A) (A) (A) (A) (A) (A)
                 (A) (A) (A) (A) (A) (A) (A) (A) (A) (A) (A) (A)
                 (A) (A) (A) (A) (A) (A) (A) (A) (A) (A) (A) (A)
                 (A) (A) (A) (A) (A) (A) (A) (A) (A) (A) (A) (A)
                 (A) (A) (A) (A) (A) (A) (A) (A) (A) (A) (A) (A)
                 (A) (A) (A) (A) (A) (A) (A) (A) (A) (A) (A) (A)
                 (A) (A) (A) (A) (A) (A) (A) (A) (A) (A) (A) (A)
                 (A) (A) (A) (A) (A) (A) (A) (A) (A) (A) (A) (A)
                 (A) (A) (A) (A) (A) (A) (A) (A) (A) (A) (A) (A)
                 (A) (A) (A) (A) (A) (A) (A) (A) (A) (A) (A) (A)
                 (A) (A) (A) (A) (A) (A) (A) (A) (A) (A) (A) (A)
                 (A) (A) (A) (A) (A) (A) (A) (A) (A) (A) (A) (A)
                 (A) (A)
 The electronic state is 1-A.
 Alpha  occ. eigenvalues --  -11.25758 -11.25227 -11.25184 -11.24914 -11.24519
 Alpha  occ. eigenvalues --  -11.24434 -11.24424 -11.24377 -11.24219 -11.24165
 Alpha  occ. eigenvalues --  -11.24140 -11.24126 -11.24078 -11.24039 -11.24027
 Alpha  occ. eigenvalues --  -11.23968 -11.23731 -11.23624 -11.23504  -1.18618
 Alpha  occ. eigenvalues --   -1.15873  -1.15569  -1.09028  -1.02374  -1.02243
 Alpha  occ. eigenvalues --   -1.01874  -1.01485  -1.01081  -0.92919  -0.84277
 Alpha  occ. eigenvalues --   -0.83367  -0.82321  -0.81927  -0.81122  -0.77582
 Alpha  occ. eigenvalues --   -0.70871  -0.70364  -0.68983  -0.65676  -0.63903
 Alpha  occ. eigenvalues --   -0.63615  -0.62517  -0.61700  -0.61572  -0.59724
 Alpha  occ. eigenvalues --   -0.58847  -0.58496  -0.58314  -0.56738  -0.55112
 Alpha  occ. eigenvalues --   -0.51723  -0.50909  -0.50215  -0.49866  -0.49378
 Alpha  occ. eigenvalues --   -0.48414  -0.47966  -0.47499  -0.46311  -0.35028
 Alpha  occ. eigenvalues --   -0.34322  -0.33970  -0.33324  -0.32504  -0.31478
 Alpha virt. eigenvalues --    0.11546   0.12297   0.12723   0.13483   0.15006
 Alpha virt. eigenvalues --    0.15142   0.15662   0.16238   0.16487   0.16911
 Alpha virt. eigenvalues --    0.18904   0.19187   0.19235   0.21232   0.21291
 Alpha virt. eigenvalues --    0.21597   0.23556   0.24021   0.24921   0.25403
 Alpha virt. eigenvalues --    0.26755   0.31573   0.33120   0.34231   0.35776
 Alpha virt. eigenvalues --    0.37606   0.39760   0.40579   0.41485   0.43082
 Alpha virt. eigenvalues --    0.44094   0.44429   0.44953   0.45437   0.45595
 Alpha virt. eigenvalues --    0.45874   0.46750   0.47246   0.47916   0.50607
 Alpha virt. eigenvalues --    0.51051   0.51413   0.52249   0.54976   0.56102
 Alpha virt. eigenvalues --    0.57298   0.57830   0.58521   0.58855   0.59346
 Alpha virt. eigenvalues --    0.60257   0.60462   0.60633   0.61126   0.61479
 Alpha virt. eigenvalues --    0.62039   0.62191   0.62957   0.63324   0.63659
 Alpha virt. eigenvalues --    0.64248   0.64596   0.65223   0.65949   0.66391
 Alpha virt. eigenvalues --    0.67250   0.67827   0.68587   0.69825   0.72352
 Alpha virt. eigenvalues --    0.73100   0.73902   0.74554   0.75340   0.75739
 Alpha virt. eigenvalues --    0.76813   0.78845   0.79429   0.79972   0.81224
 Alpha virt. eigenvalues --    0.81504   0.82231   0.82492   0.82887   0.83329
 Alpha virt. eigenvalues --    0.83839   0.84376   0.84870   0.85005   0.85477
 Alpha virt. eigenvalues --    0.85907   0.86186   0.86519   0.87783   0.88134
 Alpha virt. eigenvalues --    0.90170   0.90880   0.92133   0.93518   0.95083
 Alpha virt. eigenvalues --    0.95909   0.96331   0.97009   0.98260   0.99752
 Alpha virt. eigenvalues --    1.00108   1.02353   1.03082   1.04885   1.06225
 Alpha virt. eigenvalues --    1.07137   1.08092   1.09391   1.10075   1.10970
 Alpha virt. eigenvalues --    1.11567   1.11724   1.12388   1.12813   1.13794
 Alpha virt. eigenvalues --    1.15017   1.16487   1.19846   1.20532   1.21283
 Alpha virt. eigenvalues --    1.23659   1.25574   1.27381   1.27973   1.29115
 Alpha virt. eigenvalues --    1.29463   1.31907   1.32779   1.46958   1.47789
 Alpha virt. eigenvalues --    1.51932   1.54256   1.56842   2.53503   2.55711
 Alpha virt. eigenvalues --    2.56021   2.57749   2.62083   2.62366   2.63872
 Alpha virt. eigenvalues --    2.66465   2.67058   2.68445   2.72142   2.74278
 Alpha virt. eigenvalues --    2.78350   2.83377   2.86725   2.91817   2.94349
 Alpha virt. eigenvalues --    2.94620   2.94747   2.96020   2.98151   2.98589
 Alpha virt. eigenvalues --    2.99921   3.02277   3.03936   3.04379   3.06558
 Alpha virt. eigenvalues --    3.08474   3.09305   3.09863   3.10042   3.13205
 Alpha virt. eigenvalues --    3.15106   3.16124   3.17751   3.18390   3.19446
 Alpha virt. eigenvalues --    3.21631   3.24075   3.24985   3.27701   3.28783
 Alpha virt. eigenvalues --    3.31482   3.33876   3.34375   3.35730   3.40808
 Alpha virt. eigenvalues --    3.41240   3.44154   3.45023   3.49958   3.52610
 Alpha virt. eigenvalues --    3.53532   3.55993   3.57664   3.58371   3.59507
 Alpha virt. eigenvalues --    3.62426   3.64012   3.65103   3.66257   3.66862
 Alpha virt. eigenvalues --    3.67696   3.69215   3.71260   3.72194   3.74394
 Alpha virt. eigenvalues --    3.76481   3.77569   3.78443   3.85641   3.88120
 Alpha virt. eigenvalues --    3.91029  24.26102  24.30016  24.31718  24.50543
 Alpha virt. eigenvalues --   24.50775  24.51044  24.53005  24.54615  24.56479
 Alpha virt. eigenvalues --   24.76149  24.77055  24.79104  24.80216  24.80754
 Alpha virt. eigenvalues --   24.82859  24.87523  25.04640  25.05788  25.07114
          Condensed to atoms (all electrons):
              1          2          3          4          5          6
     1  C    6.114945   0.472312   0.147490  -0.056641  -0.024581   0.003348
     2  H    0.472312   0.502084  -0.070330   0.005396   0.001844  -0.000259
     3  C    0.147490  -0.070330   5.393519   0.448461   0.492141  -0.058097
     4  C   -0.056641   0.005396   0.448461   5.067826  -0.072170   0.478837
     5  C   -0.024581   0.001844   0.492141  -0.072170   5.091309  -0.030680
     6  C    0.003348  -0.000259  -0.058097   0.478837  -0.030680   5.041027
     7  H    0.000072   0.000102  -0.044464   0.388552   0.004112  -0.028563
     8  C    0.006850   0.001545  -0.074029  -0.026383   0.454700  -0.078738
     9  H   -0.000142   0.002398  -0.050625   0.004343   0.400352  -0.000280
    10  C    0.001276   0.000000  -0.018753  -0.091390  -0.086464   0.491005
    11  H   -0.000350   0.000011   0.006014  -0.038863  -0.000473   0.397222
    12  H   -0.000340  -0.000039   0.006924  -0.000687  -0.039669   0.006247
    13  H   -0.000012  -0.000001  -0.001551   0.007895   0.007487  -0.042920
    14  C    0.117091  -0.074951  -0.142577  -0.003207  -0.002257   0.001898
    15  C   -0.023953   0.006361  -0.004587   0.000756   0.000629   0.000029
    16  C   -0.072610   0.004442  -0.003148  -0.011674   0.000519  -0.000370
    17  C    0.008185   0.001453  -0.000584   0.000057  -0.000012   0.000000
    18  H   -0.002033   0.002837   0.000152  -0.000025   0.000221   0.000001
    19  C    0.002763  -0.000224   0.001969  -0.000102   0.000042  -0.000101
    20  H    0.000602  -0.000017  -0.003760   0.001804  -0.000212   0.001131
    21  C    0.001680   0.000006  -0.000064  -0.000006  -0.000013   0.000002
    22  H   -0.000407  -0.000034   0.000021  -0.000001   0.000001   0.000000
    23  H   -0.000372   0.000011   0.000028   0.000039   0.000002   0.000000
    24  H   -0.000026  -0.000002  -0.000002   0.000001   0.000000   0.000000
    25  C    0.032237  -0.062229  -0.092677  -0.006594  -0.001354  -0.000534
    26  C   -0.032057   0.000625   0.001847   0.001636  -0.000445   0.000018
    27  C   -0.085456  -0.004673  -0.007485  -0.009417   0.000560  -0.000357
    28  C    0.012308  -0.000109  -0.000825   0.000050   0.000007   0.000004
    29  H   -0.011424  -0.000271   0.000439   0.000051  -0.000016   0.000000
    30  C    0.008583   0.000580  -0.001679  -0.000329  -0.000049  -0.000011
    31  H   -0.003516  -0.000136   0.004159  -0.000628   0.001511  -0.000269
    32  C    0.000359   0.000036   0.000130   0.000033  -0.000003   0.000002
    33  H   -0.000363   0.000014   0.000012   0.000000   0.000000   0.000000
    34  H   -0.000356   0.000005   0.000017   0.000014  -0.000004   0.000002
    35  H   -0.000014  -0.000002   0.000002   0.000000   0.000000   0.000000
              7          8          9         10         11         12
     1  C    0.000072   0.006850  -0.000142   0.001276  -0.000350  -0.000340
     2  H    0.000102   0.001545   0.002398   0.000000   0.000011  -0.000039
     3  C   -0.044464  -0.074029  -0.050625  -0.018753   0.006014   0.006924
     4  C    0.388552  -0.026383   0.004343  -0.091390  -0.038863  -0.000687
     5  C    0.004112   0.454700   0.400352  -0.086464  -0.000473  -0.039669
     6  C   -0.028563  -0.078738  -0.000280   0.491005   0.397222   0.006247
     7  H    0.497355   0.000028  -0.000273   0.004555  -0.003316   0.000014
     8  C    0.000028   5.058840  -0.034746   0.498022   0.005963   0.396926
     9  H   -0.000273  -0.034746   0.509490   0.005225   0.000025  -0.004196
    10  C    0.004555   0.498022   0.005225   5.034138  -0.039838  -0.040698
    11  H   -0.003316   0.005963   0.000025  -0.039838   0.514745  -0.000205
    12  H    0.000014   0.396926  -0.004196  -0.040698  -0.000205   0.518115
    13  H   -0.000173  -0.042547  -0.000184   0.399653  -0.004467  -0.004585
    14  C   -0.002895  -0.000518   0.000340  -0.000088   0.000028   0.000025
    15  C   -0.000199  -0.000017   0.000276  -0.000009   0.000001   0.000001
    16  C   -0.000863   0.000125  -0.000008  -0.000026   0.000056   0.000000
    17  C   -0.000001   0.000002   0.000006   0.000000   0.000000   0.000000
    18  H   -0.000002  -0.000002   0.000069  -0.000001   0.000000   0.000000
    19  C    0.000891   0.000001  -0.000001   0.000001   0.000002   0.000000
    20  H    0.001476  -0.000055   0.000001   0.000002  -0.000057   0.000001
    21  C   -0.000015   0.000000  -0.000002   0.000000   0.000000   0.000000
    22  H    0.000000   0.000000   0.000000   0.000000   0.000000   0.000000
    23  H   -0.000032   0.000000   0.000000   0.000000   0.000001   0.000000
    24  H    0.000000   0.000000   0.000000   0.000000   0.000000   0.000000
    25  C    0.001180  -0.000429   0.000156   0.000036   0.000025   0.000011
    26  C   -0.000205   0.000019  -0.000033  -0.000002   0.000000   0.000000
    27  C    0.000390  -0.000091   0.000285   0.000118   0.000016  -0.000002
    28  C   -0.000116   0.000000   0.000000   0.000000   0.000000   0.000000
    29  H    0.000026   0.000000   0.000001   0.000000   0.000000   0.000000
    30  C    0.000081   0.000013  -0.000008   0.000002   0.000001   0.000000
    31  H   -0.000051   0.000117   0.000199  -0.000082   0.000005   0.000007
    32  C   -0.000038   0.000000   0.000001   0.000000   0.000000   0.000000
    33  H    0.000000   0.000000   0.000000   0.000000   0.000000   0.000000
    34  H    0.000005  -0.000001   0.000000   0.000000   0.000000   0.000000
    35  H    0.000001   0.000000   0.000000   0.000000   0.000000   0.000000
             13         14         15         16         17         18
     1  C   -0.000012   0.117091  -0.023953  -0.072610   0.008185  -0.002033
     2  H   -0.000001  -0.074951   0.006361   0.004442   0.001453   0.002837
     3  C   -0.001551  -0.142577  -0.004587  -0.003148  -0.000584   0.000152
     4  C    0.007895  -0.003207   0.000756  -0.011674   0.000057  -0.000025
     5  C    0.007487  -0.002257   0.000629   0.000519  -0.000012   0.000221
     6  C   -0.042920   0.001898   0.000029  -0.000370   0.000000   0.000001
     7  H   -0.000173  -0.002895  -0.000199  -0.000863  -0.000001  -0.000002
     8  C   -0.042547  -0.000518  -0.000017   0.000125   0.000002  -0.000002
     9  H   -0.000184   0.000340   0.000276  -0.000008   0.000006   0.000069
    10  C    0.399653  -0.000088  -0.000009  -0.000026   0.000000  -0.000001
    11  H   -0.004467   0.000028   0.000001   0.000056   0.000000   0.000000
    12  H   -0.004585   0.000025   0.000001   0.000000   0.000000   0.000000
    13  H    0.517364  -0.000003   0.000000   0.000000   0.000000   0.000000
    14  C   -0.000003   5.396039   0.497901   0.451219  -0.076711  -0.045882
    15  C    0.000000   0.497901   5.050298  -0.063708   0.467715   0.394747
    16  C    0.000000   0.451219  -0.063708   5.095967  -0.029471   0.004760
    17  C    0.000000  -0.076711   0.467715  -0.029471   5.047696  -0.033757
    18  H    0.000000  -0.045882   0.394747   0.004760  -0.033757   0.506618
    19  C    0.000000  -0.063418  -0.033827   0.480233  -0.077411  -0.000286
    20  H    0.000000  -0.047244   0.004598   0.386324  -0.000118  -0.000271
    21  C    0.000000  -0.016201  -0.088960  -0.093547   0.499886   0.005063
    22  H    0.000000   0.007008  -0.039448  -0.000634   0.396362  -0.004074
    23  H    0.000000   0.005974  -0.000381  -0.038552   0.005897   0.000025
    24  H    0.000000  -0.001683   0.007573   0.007994  -0.042552  -0.000178
    25  C    0.000001  -0.064935  -0.000370   0.006714  -0.000759   0.000493
    26  C    0.000000  -0.012689   0.000889  -0.018607   0.000338   0.000131
    27  C    0.000000   0.011459  -0.000291   0.000891   0.000005   0.000012
    28  C    0.000000  -0.001662  -0.000111  -0.000984   0.000005   0.000004
    29  H    0.000000   0.001174  -0.001013  -0.000952  -0.000126   0.000095
    30  C    0.000000  -0.000883   0.000009  -0.000023   0.000000   0.000000
    31  H    0.000001   0.000801  -0.000006  -0.000040   0.000000  -0.000001
    32  C    0.000000   0.000124  -0.000004  -0.000014   0.000000   0.000000
    33  H    0.000000   0.000059   0.000003   0.000024   0.000000   0.000000
    34  H    0.000000   0.000012   0.000000   0.000000   0.000000   0.000000
    35  H    0.000000   0.000001   0.000000   0.000001   0.000000   0.000000
             19         20         21         22         23         24
     1  C    0.002763   0.000602   0.001680  -0.000407  -0.000372  -0.000026
     2  H   -0.000224  -0.000017   0.000006  -0.000034   0.000011  -0.000002
     3  C    0.001969  -0.003760  -0.000064   0.000021   0.000028  -0.000002
     4  C   -0.000102   0.001804  -0.000006  -0.000001   0.000039   0.000001
     5  C    0.000042  -0.000212  -0.000013   0.000001   0.000002   0.000000
     6  C   -0.000101   0.001131   0.000002   0.000000   0.000000   0.000000
     7  H    0.000891   0.001476  -0.000015   0.000000  -0.000032   0.000000
     8  C    0.000001  -0.000055   0.000000   0.000000   0.000000   0.000000
     9  H   -0.000001   0.000001  -0.000002   0.000000   0.000000   0.000000
    10  C    0.000001   0.000002   0.000000   0.000000   0.000000   0.000000
    11  H    0.000002  -0.000057   0.000000   0.000000   0.000001   0.000000
    12  H    0.000000   0.000001   0.000000   0.000000   0.000000   0.000000
    13  H    0.000000   0.000000   0.000000   0.000000   0.000000   0.000000
    14  C   -0.063418  -0.047244  -0.016201   0.007008   0.005974  -0.001683
    15  C   -0.033827   0.004598  -0.088960  -0.039448  -0.000381   0.007573
    16  C    0.480233   0.386324  -0.093547  -0.000634  -0.038552   0.007994
    17  C   -0.077411  -0.000118   0.499886   0.396362   0.005897  -0.042552
    18  H   -0.000286  -0.000271   0.005063  -0.004074   0.000025  -0.000178
    19  C    5.046257  -0.027242   0.490245   0.006268   0.397011  -0.042997
    20  H   -0.027242   0.497258   0.004628   0.000016  -0.003385  -0.000170
    21  C    0.490245   0.004628   5.033559  -0.041011  -0.039785   0.399465
    22  H    0.006268   0.000016  -0.041011   0.517966  -0.000206  -0.004555
    23  H    0.397011  -0.003385  -0.039785  -0.000206   0.514336  -0.004374
    24  H   -0.042997  -0.000170   0.399465  -0.004555  -0.004374   0.516953
    25  C    0.000699   0.001511  -0.000066   0.000023   0.000020   0.000002
    26  C   -0.001435   0.001727   0.000147  -0.000008   0.000002  -0.000003
    27  C    0.000015   0.000001   0.000000   0.000000   0.000000   0.000000
    28  C   -0.000041   0.000129   0.000004   0.000000  -0.000002   0.000000
    29  H    0.000215   0.000059   0.000111   0.000011   0.000036   0.000010
    30  C    0.000000  -0.000060   0.000000   0.000000   0.000000   0.000000
    31  H    0.000000   0.000022   0.000000   0.000000   0.000000   0.000000
    32  C    0.000000   0.000000   0.000000   0.000000   0.000000   0.000000
    33  H   -0.000001   0.000001  -0.000001   0.000000   0.000000   0.000000
    34  H    0.000000  -0.000001   0.000000   0.000000   0.000000   0.000000
    35  H    0.000000   0.000000   0.000000   0.000000   0.000000   0.000000
             25         26         27         28         29         30
     1  C    0.032237  -0.032057  -0.085456   0.012308  -0.011424   0.008583
     2  H   -0.062229   0.000625  -0.004673  -0.000109  -0.000271   0.000580
     3  C   -0.092677   0.001847  -0.007485  -0.000825   0.000439  -0.001679
     4  C   -0.006594   0.001636  -0.009417   0.000050   0.000051  -0.000329
     5  C   -0.001354  -0.000445   0.000560   0.000007  -0.000016  -0.000049
     6  C   -0.000534   0.000018  -0.000357   0.000004   0.000000  -0.000011
     7  H    0.001180  -0.000205   0.000390  -0.000116   0.000026   0.000081
     8  C   -0.000429   0.000019  -0.000091   0.000000   0.000000   0.000013
     9  H    0.000156  -0.000033   0.000285   0.000000   0.000001  -0.000008
    10  C    0.000036  -0.000002   0.000118   0.000000   0.000000   0.000002
    11  H    0.000025   0.000000   0.000016   0.000000   0.000000   0.000001
    12  H    0.000011   0.000000  -0.000002   0.000000   0.000000   0.000000
    13  H    0.000001   0.000000   0.000000   0.000000   0.000000   0.000000
    14  C   -0.064935  -0.012689   0.011459  -0.001662   0.001174  -0.000883
    15  C   -0.000370   0.000889  -0.000291  -0.000111  -0.001013   0.000009
    16  C    0.006714  -0.018607   0.000891  -0.000984  -0.000952  -0.000023
    17  C   -0.000759   0.000338   0.000005   0.000005  -0.000126   0.000000
    18  H    0.000493   0.000131   0.000012   0.000004   0.000095   0.000000
    19  C    0.000699  -0.001435   0.000015  -0.000041   0.000215   0.000000
    20  H    0.001511   0.001727   0.000001   0.000129   0.000059  -0.000060
    21  C   -0.000066   0.000147   0.000000   0.000004   0.000111   0.000000
    22  H    0.000023  -0.000008   0.000000   0.000000   0.000011   0.000000
    23  H    0.000020   0.000002   0.000000  -0.000002   0.000036   0.000000
    24  H    0.000002  -0.000003   0.000000   0.000000   0.000010   0.000000
    25  C    5.351336   0.499544   0.472032  -0.068489  -0.034935  -0.056929
    26  C    0.499544   5.098532  -0.084180   0.454247   0.394172  -0.030297
    27  C    0.472032  -0.084180   5.125796  -0.033327   0.004979   0.462953
    28  C   -0.068489   0.454247  -0.033327   5.078763  -0.036449  -0.073737
    29  H   -0.034935   0.394172   0.004979  -0.036449   0.477656  -0.000445
    30  C   -0.056929  -0.030297   0.462953  -0.073737  -0.000445   5.063002
    31  H   -0.044611   0.004507   0.397411  -0.000474  -0.000194  -0.035164
    32  C   -0.020734  -0.089748  -0.085135   0.494979   0.005055   0.480844
    33  H    0.006473  -0.036840  -0.000405   0.395636  -0.003535   0.006003
    34  H    0.006146  -0.000432  -0.038258   0.005993   0.000017   0.397046
    35  H   -0.001453   0.007656   0.007452  -0.042178  -0.000170  -0.043185
             31         32         33         34         35
     1  C   -0.003516   0.000359  -0.000363  -0.000356  -0.000014
     2  H   -0.000136   0.000036   0.000014   0.000005  -0.000002
     3  C    0.004159   0.000130   0.000012   0.000017   0.000002
     4  C   -0.000628   0.000033   0.000000   0.000014   0.000000
     5  C    0.001511  -0.000003   0.000000  -0.000004   0.000000
     6  C   -0.000269   0.000002   0.000000   0.000002   0.000000
     7  H   -0.000051  -0.000038   0.000000   0.000005   0.000001
     8  C    0.000117   0.000000   0.000000  -0.000001   0.000000
     9  H    0.000199   0.000001   0.000000   0.000000   0.000000
    10  C   -0.000082   0.000000   0.000000   0.000000   0.000000
    11  H    0.000005   0.000000   0.000000   0.000000   0.000000
    12  H    0.000007   0.000000   0.000000   0.000000   0.000000
    13  H    0.000001   0.000000   0.000000   0.000000   0.000000
    14  C    0.000801   0.000124   0.000059   0.000012   0.000001
    15  C   -0.000006  -0.000004   0.000003   0.000000   0.000000
    16  C   -0.000040  -0.000014   0.000024   0.000000   0.000001
    17  C    0.000000   0.000000   0.000000   0.000000   0.000000
    18  H   -0.000001   0.000000   0.000000   0.000000   0.000000
    19  C    0.000000   0.000000  -0.000001   0.000000   0.000000
    20  H    0.000022   0.000000   0.000001  -0.000001   0.000000
    21  C    0.000000   0.000000  -0.000001   0.000000   0.000000
    22  H    0.000000   0.000000   0.000000   0.000000   0.000000
    23  H    0.000000   0.000000   0.000000   0.000000   0.000000
    24  H    0.000000   0.000000   0.000000   0.000000   0.000000
    25  C   -0.044611  -0.020734   0.006473   0.006146  -0.001453
    26  C    0.004507  -0.089748  -0.036840  -0.000432   0.007656
    27  C    0.397411  -0.085135  -0.000405  -0.038258   0.007452
    28  C   -0.000474   0.494979   0.395636   0.005993  -0.042178
    29  H   -0.000194   0.005055  -0.003535   0.000017  -0.000170
    30  C   -0.035164   0.480844   0.006003   0.397046  -0.043185
    31  H    0.489040   0.005221   0.000017  -0.003849  -0.000173
    32  C    0.005221   5.042888  -0.041244  -0.040849   0.399486
    33  H    0.000017  -0.041244   0.517766  -0.000213  -0.004462
    34  H   -0.003849  -0.040849  -0.000213   0.517567  -0.004405
    35  H   -0.000173   0.399486  -0.004462  -0.004405   0.519399
 Mulliken atomic charges:
              1
     1  C   -0.615450
     2  H    0.211214
     3  C    0.071914
     4  C   -0.087635
     5  C   -0.197034
     6  C   -0.179592
     7  H    0.182367
     8  C   -0.165596
     9  H    0.167330
    10  C   -0.156682
    11  H    0.163456
    12  H    0.162149
    13  H    0.164043
    14  C    0.066651
    15  C   -0.174900
    16  C   -0.104040
    17  C   -0.166104
    18  H    0.171285
    19  C   -0.179526
    20  H    0.181301
    21  C   -0.155125
    22  H    0.162703
    23  H    0.163708
    24  H    0.164546
    25  C    0.078459
    26  C   -0.159058
    27  C   -0.135296
    28  C   -0.183624
    29  H    0.205424
    30  C   -0.176317
    31  H    0.186177
    32  C   -0.151388
    33  H    0.161056
    34  H    0.161543
    35  H    0.162044
 Sum of Mulliken atomic charges =   0.00000
 Mulliken charges with hydrogens summed into heavy atoms:
              1
     1  C   -0.404237
     3  C    0.071914
     4  C    0.094732
     5  C   -0.029704
     6  C   -0.016136
     8  C   -0.003447
    10  C    0.007361
    14  C    0.066651
    15  C   -0.003616
    16  C    0.077261
    17  C   -0.003401
    19  C   -0.015818
    21  C    0.009420
    25  C    0.078459
    26  C    0.046366
    27  C    0.050881
    28  C   -0.022568
    30  C   -0.014774
    32  C    0.010655
 Sum of Mulliken charges with hydrogens summed into heavy atoms =   0.00000
 Electronic spatial extent (au):  <R**2>=           4930.9754
 Charge=              0.0000 electrons
 Dipole moment (field-independent basis, Debye):
    X=              0.0939    Y=             -0.1692    Z=             -0.0176  Tot=              0.1943
 Quadrupole moment (field-independent basis, Debye-Ang):
   XX=           -107.5890   YY=           -113.2413   ZZ=           -106.9461
   XY=              2.7796   XZ=              0.8316   YZ=              2.6415
 Traceless Quadrupole moment (field-independent basis, Debye-Ang):
   XX=              1.6698   YY=             -3.9825   ZZ=              2.3127
   XY=              2.7796   XZ=              0.8316   YZ=              2.6415
 Octapole moment (field-independent basis, Debye-Ang**2):
  XXX=             27.5559  YYY=             10.8146  ZZZ=              0.8382  XYY=            -36.4142
  XXY=              0.3477  XXZ=             -2.4674  XZZ=             10.0114  YZZ=            -19.0007
  YYZ=             11.5910  XYZ=              1.5095
 Hexadecapole moment (field-independent basis, Debye-Ang**3):
 XXXX=          -3052.4821 YYYY=          -2918.8579 ZZZZ=           -662.2643 XXXY=            -64.0710
 XXXZ=             13.7283 YYYX=             67.8622 YYYZ=             73.0754 ZZZX=             -6.5088
 ZZZY=             -2.1621 XXYY=          -1016.6368 XXZZ=           -627.2120 YYZZ=           -638.0105
 XXYZ=             -7.1739 YYXZ=            -10.4499 ZZXY=             32.9461
 N-N= 1.290783762013D+03 E-N=-4.277644758081D+03  KE= 7.286014825820D+02
 PrsmSu:  requested number of processors reduced to:  10 ShMem   1 Linda.
 Calling FoFJK, ICntrl=      2127 FMM=F ISym2X=0 I1Cent= 0 IOpClX= 0 NMat=1 NMatS=1 NMatT=0.
 ***** Axes restored to original set *****
 -------------------------------------------------------------------
 Center     Atomic                   Forces (Hartrees/Bohr)
 Number     Number              X              Y              Z
 -------------------------------------------------------------------
      1        6          -0.021913743    0.004273106    0.006112566
      2        1           0.023217193    0.000173555   -0.009957704
      3        6          -0.009470947   -0.000809829   -0.010748654
      4        6           0.010501853   -0.001680584    0.004039763
      5        6          -0.004761261    0.001876844    0.002789061
      6        6           0.011746630   -0.002587837   -0.003104152
      7        1          -0.021002274   -0.005889036   -0.017537860
      8        6          -0.010162725    0.000698604   -0.009094463
      9        1           0.015224248   -0.004612858   -0.007459407
     10        6          -0.002304193   -0.001860254   -0.013410177
     11        1          -0.014251197    0.004301405    0.007654709
     12        1           0.014196790   -0.001578770    0.008488064
     13        1          -0.000016202    0.002906462    0.016549993
     14        6          -0.003459797    0.011937697    0.005704570
     15        6          -0.005769249   -0.001282593    0.001327442
     16        6           0.007667295   -0.007085570   -0.006595908
     17        6          -0.004649871    0.011694771    0.005612185
     18        1           0.017405630    0.001011134   -0.003686690
     19        6           0.012028052   -0.001294078   -0.003430698
     20        1          -0.007915074    0.023772404    0.015661178
     21        6           0.004353601    0.012468613    0.003880238
     22        1           0.008573708   -0.012511350   -0.006994873
     23        1          -0.016311244   -0.001512931    0.003418785
     24        1          -0.007996466   -0.014308685   -0.003699779
     25        6           0.005009828   -0.010580355    0.009388614
     26        6           0.004145078    0.010747677    0.003512516
     27        6          -0.005722828   -0.003321092   -0.005810449
     28        6           0.007734447   -0.001998673    0.009923757
     29        1          -0.008292632   -0.020019237   -0.003612683
     30        6          -0.006110128   -0.010268295   -0.004129371
     31        1           0.012085377    0.000411062    0.014459156
     32        6           0.004803130   -0.009924701    0.008146428
     33        1          -0.010702741   -0.001496461   -0.012715141
     34        1           0.006322497    0.014842537    0.004068574
     35        1          -0.004202783    0.013507315   -0.008749594
 -------------------------------------------------------------------
 Cartesian Forces:  Max     0.023772404 RMS     0.009550254

 GradGradGradGradGradGradGradGradGradGradGradGradGradGradGradGradGradGrad
 Berny optimization.
 Internal  Forces:  Max     0.028630107 RMS     0.007790297
 Search for a local minimum.
 Step number   1 out of a maximum of  197
 All quantities printed in internal units (Hartrees-Bohrs-Radians)
 Mixed Optimization -- RFO/linear search
 Second derivative matrix not updated -- first step.
     Eigenvalues ---    0.00636   0.00650   0.00657   0.01533   0.01538
     Eigenvalues ---    0.01539   0.02138   0.02142   0.02146   0.02171
     Eigenvalues ---    0.02172   0.02173   0.02182   0.02182   0.02183
     Eigenvalues ---    0.02200   0.02201   0.02202   0.02211   0.02211
     Eigenvalues ---    0.02212   0.02213   0.02214   0.02215   0.02215
     Eigenvalues ---    0.02217   0.02219   0.02219   0.02220   0.02225
     Eigenvalues ---    0.04563   0.06401   0.06623   0.15997   0.15998
     Eigenvalues ---    0.16000   0.16000   0.16000   0.16000   0.16000
     Eigenvalues ---    0.16000   0.16000   0.16000   0.16000   0.16000
     Eigenvalues ---    0.16000   0.16000   0.16000   0.18860   0.19333
     Eigenvalues ---    0.22000   0.22000   0.22000   0.22000   0.22000
     Eigenvalues ---    0.22000   0.23465   0.23477   0.23479   0.24966
     Eigenvalues ---    0.24999   0.25000   0.31258   0.31368   0.31474
     Eigenvalues ---    0.31525   0.33518   0.33596   0.33967   0.34053
     Eigenvalues ---    0.34076   0.34089   0.34253   0.34255   0.34259
     Eigenvalues ---    0.34260   0.34263   0.34264   0.34281   0.34281
     Eigenvalues ---    0.34289   0.42405   0.42466   0.42489   0.42561
     Eigenvalues ---    0.42562   0.42601   0.46335   0.46397   0.46435
     Eigenvalues ---    0.46737   0.46755   0.46783   0.47194   0.47214
     Eigenvalues ---    0.47216   0.47317   0.47345   0.474361000.00000
     Eigenvalues --- 1000.000001000.000001000.000001000.000001000.00000
     Eigenvalues --- 1000.000001000.000001000.000001000.000001000.00000
     Eigenvalues --- 1000.000001000.000001000.000001000.000001000.00000
     Eigenvalues --- 1000.000001000.000001000.000001000.000001000.00000
     Eigenvalues --- 1000.000001000.000001000.000001000.000001000.00000
     Eigenvalues --- 1000.000001000.000001000.000001000.000001000.00000
     Eigenvalues --- 1000.000001000.000001000.000001000.000001000.00000
     Eigenvalues --- 1000.000001000.000001000.000001000.000001000.00000
     Eigenvalues --- 1000.000001000.000001000.000001000.000001000.00000
     Eigenvalues --- 1000.000001000.000001000.000001000.000001000.00000
     Eigenvalues --- 1000.000001000.000001000.000001000.000001000.00000
     Eigenvalues --- 1000.000001000.000001000.000001000.000001000.00000
     Eigenvalues --- 1000.000001000.000001000.000001000.000001000.00000
     Eigenvalues --- 1000.000001000.000001000.000001000.000001000.00000
     Eigenvalues --- 1000.000001000.000001000.000001000.000001000.00000
     Eigenvalues --- 1000.000001000.000001000.000001000.000001000.00000
     Eigenvalues --- 1000.000001000.000001000.000001000.000001000.00000
     Eigenvalues --- 1000.000001000.00000
 RFO step:  Lambda=-4.18778822D-02 EMin= 6.36002022D-03
 Linear search not attempted -- first point.
 Maximum step size (   0.300) exceeded in Quadratic search.
    -- Step size scaled by   0.592
 Iteration  1 RMS(Cart)=  0.12559229 RMS(Int)=  0.00303577
 Iteration  2 RMS(Cart)=  0.00614767 RMS(Int)=  0.00028236
 Iteration  3 RMS(Cart)=  0.00001073 RMS(Int)=  0.00028229
 Iteration  4 RMS(Cart)=  0.00000000 RMS(Int)=  0.00028229
 Variable       Old X    -DE/DX   Delta X   Delta X   Delta X     New X
                                 (Linear)    (Quad)   (Total)
    R1        2.12223  -0.02484   0.00000  -0.04151  -0.04151   2.08072
    R2        2.85315   0.02293   0.00000   0.03820   0.03820   2.89135
    R3        2.85022   0.02365   0.00000   0.03922   0.03922   2.88944
    R4        2.85117   0.02350   0.00000   0.03903   0.03903   2.89020
    R5        2.63890  -0.00014   0.00000  -0.00006  -0.00004   2.63885
    R6        2.63858  -0.00417   0.00000  -0.00484  -0.00483   2.63376
    R7        2.62589  -0.00486   0.00000  -0.00553  -0.00553   2.62036
    R8        2.08018  -0.02666   0.00000  -0.04180  -0.04180   2.03838
    R9        2.62822  -0.00245   0.00000  -0.00287  -0.00287   2.62535
   R10        2.07180  -0.01756   0.00000  -0.02717  -0.02717   2.04463
   R11        2.62857  -0.00523   0.00000  -0.00610  -0.00611   2.62247
   R12        2.06888  -0.01674   0.00000  -0.02578  -0.02578   2.04309
   R13        2.62751  -0.00884   0.00000  -0.01029  -0.01031   2.61720
   R14        2.06895  -0.01661   0.00000  -0.02559  -0.02559   2.04336
   R15        2.06858  -0.01680   0.00000  -0.02587  -0.02587   2.04271
   R16        2.63911  -0.00417   0.00000  -0.00484  -0.00482   2.63430
   R17        2.63972   0.00068   0.00000   0.00094   0.00096   2.64068
   R18        2.62783  -0.00238   0.00000  -0.00282  -0.00281   2.62501
   R19        2.07203  -0.01781   0.00000  -0.02757  -0.02757   2.04446
   R20        2.62557  -0.00445   0.00000  -0.00503  -0.00504   2.62053
   R21        2.08151  -0.02863   0.00000  -0.04497  -0.04497   2.03654
   R22        2.62734  -0.00922   0.00000  -0.01075  -0.01077   2.61657
   R23        2.06905  -0.01670   0.00000  -0.02573  -0.02573   2.04331
   R24        2.62849  -0.00548   0.00000  -0.00638  -0.00640   2.62208
   R25        2.06893  -0.01673   0.00000  -0.02578  -0.02578   2.04315
   R26        2.06859  -0.01680   0.00000  -0.02587  -0.02587   2.04272
   R27        2.63556  -0.00239   0.00000  -0.00266  -0.00265   2.63291
   R28        2.64360  -0.00192   0.00000  -0.00222  -0.00221   2.64139
   R29        2.62906  -0.00141   0.00000  -0.00156  -0.00156   2.62750
   R30        2.07386  -0.02189   0.00000  -0.03398  -0.03398   2.03988
   R31        2.62398  -0.00474   0.00000  -0.00550  -0.00550   2.61848
   R32        2.07240  -0.01882   0.00000  -0.02914  -0.02914   2.04326
   R33        2.62542  -0.00736   0.00000  -0.00850  -0.00851   2.61692
   R34        2.06902  -0.01669   0.00000  -0.02571  -0.02571   2.04331
   R35        2.62981  -0.00513   0.00000  -0.00606  -0.00607   2.62374
   R36        2.06888  -0.01664   0.00000  -0.02563  -0.02563   2.04325
   R37        2.06845  -0.01663   0.00000  -0.02560  -0.02560   2.04285
    A1        1.88395  -0.00874   0.00000  -0.04871  -0.04789   1.83606
    A2        1.87643  -0.00997   0.00000  -0.05149  -0.05058   1.82585
    A3        1.82838   0.00383   0.00000   0.00028   0.00053   1.82892
    A4        1.92798   0.01532   0.00000   0.05437   0.05320   1.98118
    A5        1.94696  -0.00311   0.00000   0.01244   0.01028   1.95723
    A6        1.99300   0.00077   0.00000   0.02153   0.01961   2.01261
    A7        2.11740   0.01877   0.00000   0.03813   0.03807   2.15547
    A8        2.08488  -0.00804   0.00000  -0.01628  -0.01633   2.06855
    A9        2.08090  -0.01074   0.00000  -0.02189  -0.02188   2.05902
   A10        2.10157   0.00417   0.00000   0.00937   0.00932   2.11089
   A11        2.07771   0.00379   0.00000   0.01269   0.01259   2.09030
   A12        2.10375  -0.00792   0.00000  -0.02167  -0.02177   2.08199
   A13        2.09883   0.00742   0.00000   0.01639   0.01640   2.11523
   A14        2.09516  -0.00437   0.00000  -0.01013  -0.01014   2.08502
   A15        2.08920  -0.00305   0.00000  -0.00627  -0.00628   2.08292
   A16        2.09595   0.00228   0.00000   0.00471   0.00471   2.10065
   A17        2.09179  -0.00105   0.00000  -0.00210  -0.00211   2.08969
   A18        2.09544  -0.00122   0.00000  -0.00260  -0.00261   2.09284
   A19        2.09797  -0.00035   0.00000  -0.00151  -0.00153   2.09644
   A20        2.09098   0.00038   0.00000   0.00136   0.00137   2.09235
   A21        2.09424  -0.00003   0.00000   0.00015   0.00016   2.09439
   A22        2.09113  -0.00277   0.00000  -0.00700  -0.00704   2.08409
   A23        2.09588   0.00143   0.00000   0.00364   0.00364   2.09952
   A24        2.09617   0.00134   0.00000   0.00338   0.00339   2.09956
   A25        2.07985  -0.01092   0.00000  -0.02212  -0.02215   2.05771
   A26        2.12414   0.02274   0.00000   0.04618   0.04616   2.17030
   A27        2.07917  -0.01181   0.00000  -0.02402  -0.02399   2.05518
   A28        2.09998   0.00814   0.00000   0.01792   0.01794   2.11793
   A29        2.09450  -0.00468   0.00000  -0.01074  -0.01075   2.08374
   A30        2.08870  -0.00347   0.00000  -0.00718  -0.00719   2.08151
   A31        2.10235   0.00448   0.00000   0.01014   0.01013   2.11247
   A32        2.07773   0.00439   0.00000   0.01445   0.01441   2.09214
   A33        2.10301  -0.00885   0.00000  -0.02440  -0.02443   2.07857
   A34        2.09792  -0.00025   0.00000  -0.00146  -0.00147   2.09645
   A35        2.09090   0.00032   0.00000   0.00131   0.00131   2.09221
   A36        2.09437  -0.00007   0.00000   0.00015   0.00016   2.09452
   A37        2.09616   0.00242   0.00000   0.00505   0.00503   2.10119
   A38        2.09154  -0.00113   0.00000  -0.00227  -0.00226   2.08927
   A39        2.09549  -0.00130   0.00000  -0.00278  -0.00277   2.09272
   A40        2.09080  -0.00299   0.00000  -0.00762  -0.00766   2.08314
   A41        2.09642   0.00144   0.00000   0.00366   0.00368   2.10010
   A42        2.09597   0.00155   0.00000   0.00396   0.00398   2.09994
   A43        2.13475   0.00717   0.00000   0.01445   0.01443   2.14918
   A44        2.07063   0.00079   0.00000   0.00148   0.00147   2.07211
   A45        2.07668  -0.00798   0.00000  -0.01621  -0.01620   2.06048
   A46        2.10157   0.00352   0.00000   0.00807   0.00808   2.10964
   A47        2.09228  -0.00011   0.00000   0.00081   0.00080   2.09308
   A48        2.08934  -0.00341   0.00000  -0.00887  -0.00888   2.08046
   A49        2.10331   0.00471   0.00000   0.01033   0.01034   2.11365
   A50        2.08453  -0.00122   0.00000  -0.00183  -0.00184   2.08270
   A51        2.09532  -0.00349   0.00000  -0.00850  -0.00850   2.08682
   A52        2.09903   0.00116   0.00000   0.00235   0.00234   2.10138
   A53        2.08888  -0.00050   0.00000  -0.00094  -0.00094   2.08794
   A54        2.09527  -0.00066   0.00000  -0.00141  -0.00141   2.09386
   A55        2.09675   0.00082   0.00000   0.00116   0.00115   2.09791
   A56        2.09173  -0.00040   0.00000  -0.00056  -0.00055   2.09118
   A57        2.09470  -0.00042   0.00000  -0.00060  -0.00060   2.09410
[...]
 ,-0.00008946,0.00007130,-0.00029939,0.00002621,0.00015470,0.00008691,-
 0.00000272,0.00017134,0.00022548,-0.00001297,-0.00002552,-0.00001124,0
 .00019513,-0.00014781,0.00009991,-0.00003812,-0.00001625,0.00001651,0.
 00002502,0.00002871,0.00002448,-0.00000507,0.00000130,0.00000341,0.000
 11216,0.00011640,-0.00077819,0.00007633,0.00042275,-0.00006433,-0.0003
 3844,-0.00018166,-0.00001418,-0.00027611,-0.00033813,-0.00002008,0.000
 05396,0.00000128,0.00004880,0.00004096,0.00023136,0.00024008,-0.000016
 92,-0.00000724,0.00000888,0.00026453,0.00001608,-0.00023216,-0.0000135
 6,0.00001861,0.00000954,0.00002104,0.00000523,0.00000917,0.00000188,0.
 00001436,0.00000072,0.05836272,0.04321300,0.01600100,-0.04070567,0.027
 89694,-0.04249920,-0.07745243,0.09925593,-0.17928128,-0.01726040,-0.06
 094924,0.03390102,-0.00028237,-0.00001821,-0.00100198,0.18206572,-0.20
 298477,0.38317388,-0.00024934,0.00199820,0.00128897,0.00059955,-0.0007
 1593,0.00019054,0.00036095,-0.00034911,0.00022825,-0.00008436,0.000269
 74,-0.00007808,0.00013487,0.00003054,0.00034523,0.00004551,0.00005795,
 0.00018412,-0.00007406,-0.00010159,-0.00010860,0.00011842,-0.00008150,
 -0.00001216,-0.00003081,-0.00002979,-0.00000255,-0.00007455,0.00004341
 ,-0.00001825,-0.00000418,-0.00002270,-0.00000922,-0.00001618,0.0000025
 2,0.00000054,-0.00000353,-0.00001026,-0.00001321,0.00035081,-0.0000286
 6,-0.00027687,0.00004514,-0.00000053,0.00004952,0.00010433,0.00014149,
 0.00009184,-0.00001299,0.00001055,0.00003178,-0.00003056,-0.00000272,-
 0.00002683,0.00005496,0.00003321,-0.00001962,-0.00003649,0.00000644,-0
 .00001405,0.00000494,0.00000563,-0.00000140,-0.00000300,0.00001240,-0.
 00000027,0.00000099,0.00001689,-0.00000057,-0.00000253,0.00000540,-0.0
 0000252,-0.01463499,0.00413778,-0.01290436,0.00046531,-0.00516259,-0.0
 0124374,-0.29920291,-0.00612733,-0.12959887,0.00059006,-0.00007849,0.0
 0087910,-0.00091379,0.00015697,-0.00055665,-0.00317126,-0.00444675,-0.
 00237776,0.31340610,-0.00073947,0.00064787,-0.00217594,0.00083468,-0.0
 0065043,0.00004722,-0.00007788,0.00025779,0.00019312,-0.00013353,0.000
 00504,-0.00006450,-0.00004524,-0.00004740,-0.00008246,-0.00001740,-0.0
 0004997,-0.00006308,0.00009197,-0.00000101,0.00001172,0.00000814,0.000
 02336,0.00007353,0.00002396,-0.00004720,0.00002601,0.00003350,-0.00006
 091,-0.00004190,0.00002363,-0.00000696,-0.00002421,-0.00000112,0.00000
 705,-0.00001738,0.00001354,0.00000227,-0.00001459,0.00025577,-0.000085
 28,-0.00011485,-0.00004416,0.00001284,0.00005929,0.00008487,0.00009763
 ,0.00008161,0.00002261,-0.00000027,-0.00001347,-0.00000172,-0.00001617
 ,-0.00004484,0.00001753,0.00003220,-0.00002713,0.00000202,-0.00000315,
 -0.00001500,0.00000912,0.00002296,0.00000909,-0.00000359,0.00000748,0.
 00000617,0.00001026,0.00001922,-0.00000549,0.00000606,0.00001025,-0.00
 000027,-0.02615762,0.00441170,-0.01320880,-0.00485244,-0.00290176,0.00
 343541,-0.00554655,-0.06810782,0.00719373,0.00001993,-0.00115963,0.000
 11180,-0.00120278,0.00013094,-0.00071634,0.02751162,0.00552418,0.01485
 957,0.00831851,0.06466592,0.00127189,-0.00058034,-0.00255617,0.0009767
 0,-0.00015045,0.00043217,0.00001687,0.00024387,-0.00010074,-0.00006655
 ,-0.00004427,-0.00000538,-0.00012779,-0.00004271,-0.00017582,0.0000191
 9,-0.00006748,-0.00007636,0.00005533,0.00001010,0.00007162,-0.00004015
 ,0.00005608,-0.00000969,0.00001518,-0.00000363,0.00000605,0.00004222,-
 0.00001416,0.00001172,-0.00000202,0.00000696,-0.00000455,0.00001199,-0
 .00000316,0.00000531,0.00000271,0.00000135,0.00001374,0.00020325,-0.00
 020283,0.00015701,-0.00016355,-0.00008509,0.00007451,0.00004896,-0.000
 01518,0.00002690,0.00002355,0.00002444,-0.00002707,0.00002904,-0.00001
 377,-0.00002522,0.00000806,0.00001348,-0.00005206,0.00001911,0.0000004
 8,-0.00000571,-0.00001191,-0.00002395,0.00000631,-0.00000287,-0.000015
 64,-0.00001046,-0.00000614,0.00000221,-0.00000546,0.00000344,-0.000002
 07,-0.00000300,0.00378107,0.00180283,0.00649683,-0.00165077,0.00332780
 ,0.00540806,-0.13043637,0.00736634,-0.12185692,0.00079417,0.00007873,-
 0.00058543,0.00026433,0.00003149,0.00003282,-0.01928155,-0.00236987,-0
 .00354845,0.14516901,-0.01307447,0.11625692,-0.00148618,0.00024881,-0.
 00188461,0.00105322,0.00015770,-0.00044225,0.00052644,0.00131740,-0.00
 003923,0.00005082,0.00030467,-0.00033074,0.00037897,0.00012129,0.00032
 161,0.00019598,-0.00012168,0.00048006,0.00005428,-0.00027462,-0.000097
 25,0.00013164,-0.00028560,-0.00027647,0.00000887,0.00000671,0.00001029
 ,-0.00030809,0.00023407,-0.00014051,0.00004532,0.00001383,-0.00003056,
 -0.00003648,-0.00003800,-0.00001723,0.00000460,-0.00000946,-0.00000073
 ,-0.00051272,0.00027938,0.00029266,0.00008730,-0.00045087,0.00006415,0
 .00031207,0.00037324,0.00012007,0.00032081,0.00033068,0.00006557,-0.00
 009735,0.00001088,-0.00004003,-0.00002337,-0.00028371,-0.00025478,0.00
 000404,0.00001995,-0.00001745,-0.00026758,0.00002786,0.00026363,0.0000
 0965,0.00000527,-0.00000758,-0.00000911,0.00000688,-0.00000455,-0.0000
 0827,-0.00000688,-0.00000064,-0.08579046,-0.04378279,-0.01662569,0.074
 53702,-0.04283922,0.05674816,0.00774001,0.09514977,-0.05082752,-0.2264
 6472,-0.07804055,-0.03385780,0.00195285,0.00103432,-0.00446625,-0.3039
 5998,-0.04880316,-0.08925061,0.00288021,-0.00063898,-0.00292289,0.6439
 9142,-0.00032259,0.00052258,-0.00103339,0.00045522,-0.00029756,-0.0000
 3079,0.00022474,0.00020426,-0.00036980,0.00015690,0.00006856,0.0001059
 5,-0.00000102,0.00014738,0.00032793,0.00009297,-0.00007841,0.00020663,
 0.00017215,-0.00031109,0.00002059,0.00009616,-0.00011139,-0.00010620,-
 0.00000569,0.00000309,-0.00002260,-0.00012909,0.00011150,0.00003186,-0
 .00001876,0.00001749,0.00005800,-0.00001420,-0.00001397,0.00002948,0.0
 0000429,0.00000119,0.00001829,-0.00007881,0.00018321,0.00039245,-0.000
 03628,-0.00030449,0.00001858,0.00023565,0.00010045,-0.00000544,0.00015
 198,0.00021628,0.00001934,-0.00003506,0.00001845,0.00000958,0.00001284
 ,-0.00014272,-0.00015119,0.00001871,0.00001662,-0.00001756,-0.00020551
 ,-0.00004609,0.00012628,0.00001723,-0.00002934,-0.00001399,-0.00002147
 ,-0.00002168,0.00000395,-0.00000419,-0.00002274,-0.00000215,-0.0425886
 9,-0.02443962,-0.01331665,0.01385620,-0.05555061,0.04205212,0.03783318
 ,0.04602414,0.00145327,-0.14924405,-0.27537081,0.02473783,0.00066864,-
 0.00117975,0.00574033,0.02273608,-0.14800221,0.04697899,-0.00000657,-0
 .00261366,0.00622127,0.08138699,0.70111087,-0.00024883,-0.00067871,-0.
 00123991,0.00036031,0.00005456,-0.00009516,0.00003547,0.00085160,0.000
 13578,-0.00011051,0.00005353,-0.00009925,0.00015722,-0.00002336,-0.000
 11938,0.00009472,-0.00006799,0.00009297,0.00004854,-0.00008777,0.00000
 180,-0.00002185,-0.00006332,-0.00005115,0.00001141,0.00000992,0.000022
 23,-0.00005734,0.00004446,-0.00005446,0.00001561,-0.00000043,-0.000021
 84,-0.00001186,-0.00001213,-0.00002904,0.00000737,-0.00000785,-0.00000
 232,-0.00020664,0.00001777,0.00001466,0.00006814,-0.00005682,-0.000046
 73,-0.00001463,0.00008863,0.00006571,0.00007770,0.00003265,0.00000438,
 -0.00001939,-0.00003489,-0.00004474,-0.00001845,-0.00005463,-0.0000341
 0,-0.00000120,0.00000357,-0.00001333,-0.00001329,0.00003824,0.00006258
 ,-0.00000842,0.00003436,0.00000824,0.00000564,0.00001597,-0.00000483,0
 .00000172,0.00001185,-0.00000129,-0.01817492,-0.01347580,-0.00906907,0
 .02696551,0.01264867,0.01718011,-0.02166245,0.03048053,-0.01750708,0.0
 0534984,0.06289534,-0.11529571,-0.00420799,0.00570690,0.00345650,-0.12
 828957,0.00946189,-0.15637068,-0.00333351,0.00601050,0.00409976,0.2033
 0471,-0.24246636,0.41371834,-0.00032473,-0.00043920,0.00013411,-0.0000
 6712,0.00008192,-0.00008335,-0.00002673,0.00016604,0.00004104,0.000033
 82,-0.00002110,-0.00004461,0.00004222,-0.00001606,-0.00006500,-0.00001
 673,0.00002186,0.00001574,-0.00004270,0.00000991,0.00002031,-0.0000054
 2,-0.00000945,-0.00001627,0.00000215,-0.00000235,0.00001167,-0.0000088
 8,0.00000686,-0.00002083,0.00000543,-0.00001153,-0.00000999,-0.0000082
 9,0.00000158,-0.00001563,-0.00000140,-0.00000101,-0.00001476,-0.000044
 89,-0.00007665,-0.00010708,0.00002376,0.00006414,0.00001037,-0.0000288
 0,0.00001924,0.00003043,0.00000195,-0.00003873,-0.00000003,-0.00000378
 ,-0.00001636,-0.00002279,0.00000456,0.00001017,0.00002730,-0.00001217,
 -0.00000922,0.00000309,0.00004744,0.00003067,0.00000376,-0.00001431,0.
 00002514,0.00001001,0.00000816,0.00001514,-0.00000691,0.00000203,0.000
 01971,-0.00000173,0.00276077,0.00004691,-0.00315928,-0.00300391,-0.004
 36555,-0.00217515,0.00066653,0.00004265,0.00083507,-0.30235450,-0.0061
 7752,-0.13169349,0.00010191,0.00155889,0.00188161,0.00065865,-0.005245
 11,-0.00156574,-0.00032817,0.00025841,0.00036382,-0.01301455,0.0044495
 4,-0.01235673,0.31575337,0.00108631,0.00044285,0.00022960,0.00015906,-
 0.00020660,0.00016451,0.00005500,-0.00015705,-0.00002941,-0.00003030,0
 .00001781,0.00001825,-0.00001989,-0.00000071,0.00007150,-0.00000091,0.
 00000479,0.00000072,0.00000559,0.00000531,0.00000426,0.00001007,0.0000
 0760,0.00001404,-0.00000916,0.00000166,-0.00000789,0.00000437,-0.00000
 283,0.00001357,-0.00000252,0.00000420,0.00000229,0.00000468,0.00000041
 ,0.00000998,-0.00000149,-0.00000011,0.00000527,0.00002195,0.00018777,0
 .00000979,-0.00002183,-0.00004463,-0.00002507,-0.00002564,0.00001115,-
 0.00002027,0.00000096,0.00001897,-0.00001326,0.00000889,0.00000227,0.0
 0001733,-0.00002211,-0.00001665,-0.00002119,0.00001436,0.00000248,0.00
 001210,-0.00004097,-0.00003692,-0.00001574,0.00000896,-0.00001745,-0.0
 0000307,-0.00000038,-0.00001566,0.00000934,0.00000313,-0.00001229,0.00
 000481,-0.00035394,-0.00275553,0.00605912,0.02714092,0.00555978,0.0144
 0917,-0.00008376,-0.00133404,0.00012749,-0.00637941,-0.06858529,0.0072
 1334,0.00066741,0.00019316,-0.00245126,-0.00481431,-0.00263380,0.00372
 878,0.00026502,-0.00014789,-0.00045900,-0.02707921,0.00586432,-0.01459
 406,0.00887690,0.06355143,-0.00068079,-0.00023858,-0.00026642,-0.00007
 485,0.00022433,-0.00021116,-0.00011351,0.00012556,0.00014203,-0.000001
 68,0.00005131,-0.00010606,0.00003168,-0.00004491,-0.00010939,-0.000000
 80,0.00001128,0.00001074,-0.00005342,-0.00000087,0.00003852,-0.0000038
 0,0.00000539,-0.00000112,0.00001232,-0.00001724,0.00001094,0.00000429,
 -0.00000677,-0.00002392,0.00000770,-0.00001379,-0.00002816,0.00000022,
 0.00000069,-0.00001298,-0.00000150,-0.00000418,-0.00000822,-0.00005234
 ,-0.00023622,-0.00004372,0.00000569,-0.00000784,0.00003339,0.00005113,
 0.00008037,0.00005006,0.00002006,0.00001731,-0.00001195,0.00002095,-0.
 00000749,-0.00001418,0.00000921,-0.00002827,-0.00001554,-0.00001245,-0
 .00000232,-0.00001785,-0.00000189,0.00002224,0.00003043,0.00000168,0.0
 0000183,0.00000357,0.00000968,0.00002103,-0.00001103,0.00000115,0.0000
 0986,0.00000132,-0.00269371,0.00594424,0.00399053,-0.01936433,-0.00229
 587,-0.00355347,0.00084642,0.00008587,-0.00055931,-0.13183832,0.007173
 00,-0.12278508,0.00243091,-0.00179132,-0.00273563,-0.00182184,0.003555
 51,0.00604614,0.00035474,-0.00047167,-0.00081037,0.00489024,0.00228251
 ,0.00697854,0.14603769,-0.01199594,0.11673647,0.00027844,0.00044809,0.
 00000182,-0.00002889,-0.00003016,0.00004334,0.00001732,-0.00010469,0.0
 0002912,-0.00001192,0.00001587,0.00002493,-0.00004311,0.00000204,0.000
 00829,0.00002708,-0.00000450,-0.00001929,-0.00000250,-0.00002354,-0.00
 002807,-0.00000316,0.00001358,0.00001236,-0.00000287,0.00000287,-0.000
 00460,0.00001416,-0.00000440,0.00002165,-0.00001627,-0.00000037,0.0000
 1065,0.00000354,0.00000015,0.00000640,-0.00000110,-0.00000315,0.000009
 67,-0.00006743,0.00002693,0.00000274,0.00001933,-0.00002294,0.00000197
 ,0.00003819,0.00000228,0.00000357,0.00001513,0.00002527,0.00001647,-0.
 00001688,0.00001038,0.00000012,0.00001208,-0.00001782,-0.00000989,-0.0
 0000428,0.00000639,-0.00000884,-0.00001612,0.00000372,0.00001999,0.000
 00128,0.00000084,-0.00000376,-0.00000680,0.00000032,-0.00000138,-0.000
 00480,-0.00000342,-0.00000285,0.00194533,0.00068514,-0.00421596,-0.000
 29768,0.00110079,-0.00025049,0.01057700,0.01058601,-0.00322524,-0.0031
 6073,-0.00024482,-0.00606438,-0.00022264,0.00014954,0.00046563,-0.1854
 2846,-0.14927686,0.00963969,0.00011878,0.00065815,0.00242139,-0.012484
 59,-0.02755452,0.00558870,-0.00088965,-0.00122607,0.00022319,0.1894435
 2,-0.00104134,-0.00065041,-0.00031369,0.00006635,-0.00000889,-0.000005
 60,0.00004998,-0.00012102,-0.00017033,-0.00002556,0.00004271,0.0000449
 6,-0.00000201,0.00005015,0.00010225,0.00001357,-0.00001129,0.00000084,
 0.00003038,-0.00002670,-0.00002695,0.00002056,0.00000130,0.00001231,-0
 .00001001,-0.00000900,-0.00001397,0.00000751,0.00000701,0.00002812,-0.
 00001444,0.00000400,0.00001189,0.00000261,-0.00001097,0.00002166,-0.00
 000192,-0.00000186,0.00001705,0.00024277,-0.00005018,0.00030117,-0.000
 06567,-0.00005729,0.00001411,-0.00001604,-0.00009999,-0.00006678,-0.00
 002495,0.00000841,0.00000805,0.00000366,0.00001437,0.00001279,-0.00000
 370,0.00002834,-0.00001205,0.00000595,0.00000482,0.00000057,-0.0000027
 1,-0.00003285,-0.00001922,-0.00000032,-0.00001884,-0.00001809,-0.00001
 429,-0.00001422,0.00000287,-0.00000438,-0.00001443,-0.00000348,0.00102
 135,-0.00093861,0.00605090,0.00113018,0.00011251,0.00003027,-0.0211347
 1,-0.01519867,0.00024653,-0.00068975,0.00293971,0.00275665,0.00013618,
 -0.00028036,-0.00046440,-0.14906011,-0.24839963,0.03030031,0.00171261,
 0.00003792,-0.00194641,0.00397004,0.00526001,0.00220955,0.00012616,0.0
 0001678,0.00000777,0.16308845,0.25740464,0.00069137,0.00052569,0.00006
 733,0.00001836,-0.00005933,0.00006459,-0.00002276,0.00011633,0.0000543
 3,-0.00000722,-0.00002424,-0.00004392,0.00001746,-0.00000408,-0.000050
 97,-0.00002017,-0.00001237,-0.00000722,0.00001404,0.00003655,0.0000145
 7,-0.00001303,-0.00001072,-0.00000185,0.00001342,0.00000176,0.00000590
 ,-0.00000207,-0.00001406,-0.00003263,0.00001865,0.00000223,-0.00001593
 ,0.00000199,0.00000262,-0.00000770,0.00000491,0.00000581,-0.00000626,-
 0.00006139,0.00014503,-0.00031707,-0.00001547,0.00005943,0.00003669,-0
 .00000260,0.00001692,0.00002450,-0.00001535,-0.00005345,-0.00000325,0.
 00000240,-0.00000440,-0.00000131,0.00001669,0.00002623,0.00004202,-0.0
 0000591,0.00000493,-0.00001410,0.00004369,0.00002229,-0.00003046,-0.00
 000361,0.00000157,0.00000242,0.00000909,0.00000777,0.00000016,0.000000
 96,0.00000501,-0.00000045,-0.00446230,0.00556783,0.00358182,-0.0002807
 5,-0.00009576,-0.00101630,0.01418149,0.01693697,0.00382859,-0.00584213
 ,0.00302557,0.00394888,0.00050455,-0.00041284,-0.00075969,0.00952634,0
 .03025045,-0.06016457,0.00189919,-0.00252367,-0.00279622,-0.01168146,-
 0.01438484,0.00714373,-0.00048584,-0.00067875,0.00002717,-0.00642719,-
 0.03674506,0.04904192,-0.00011373,0.00022668,0.00041098,-0.00000906,-0
 .00006966,-0.00001344,0.00005674,-0.00001656,0.00005834,0.00001273,0.0
 0001812,-0.00000791,0.00001241,0.00000644,0.00002143,0.00000121,0.0000
 0249,0.00000980,-0.00001327,-0.00001757,-0.00000908,0.00001098,-0.0000
 0610,0.00000032,-0.00000293,-0.00000584,0.00000332,-0.00000782,0.00000
 202,-0.00000255,0.00000201,-0.00000191,0.00000073,-0.00000376,0.000001
 61,-0.00000254,0.00000021,-0.00000088,-0.00000490,0.00000233,-0.000036
 45,-0.00004527,0.00001280,0.00001664,0.00004116,0.00004425,0.00001968,
 0.00001782,-0.00000079,-0.00000490,0.00000330,-0.00000265,-0.00000683,
 -0.00001244,0.00001363,0.00001805,0.00000682,-0.00000910,0.00000167,-0
 .00000564,0.00000508,0.00000775,-0.00000753,-0.00000104,0.00000533,0.0
 0000181,0.00000151,0.00000186,0.00000100,0.00000109,0.00000157,-0.0000
 0042,-0.00117574,-0.00052932,0.00019493,-0.00092616,-0.00512249,-0.002
 51907,-0.00371788,-0.00238528,-0.00520275,0.01124845,-0.01980466,0.013
 97372,0.00029049,-0.00079901,0.00063371,-0.00189301,0.02758009,-0.0187
 2835,-0.00040723,0.00125821,-0.00082872,-0.08982211,0.05769701,-0.0533
 3502,0.00008400,0.00177831,0.00175628,0.00019868,0.00048357,0.00238463
 ,0.08610766,0.00018753,-0.00010078,-0.00047233,0.00011283,-0.00002192,
 0.00005609,-0.00002106,0.00000175,-0.00008339,-0.00003711,0.00003077,0
 .00002237,-0.00001674,0.00001073,0.00001278,0.00002333,-0.00002225,-0.
 00001249,0.00002486,-0.00002605,-0.00002431,-0.00000527,0.00000708,0.0
 0000840,-0.00000059,0.00000097,-0.00000682,0.00000738,-0.00000424,0.00
 001373,-0.00000633,0.00000701,0.00000513,0.00000573,-0.00000495,0.0000
 1001,0.00000138,-0.00000002,0.00001387,0.00004311,0.00003980,0.0000664
 8,-0.00002673,-0.00001205,0.00002922,0.00003221,-0.00006436,-0.0000203
 9,-0.00001628,0.00000852,0.00001601,-0.00000398,0.00001672,0.00000834,
 0.00002668,0.00002594,0.00000824,-0.00000167,0.00001294,-0.00002214,-0
 .00000077,-0.00000598,-0.00001477,0.00000633,-0.00001504,-0.00001237,-
 0.00001232,-0.00000667,0.00000239,-0.00000544,-0.00001523,-0.00000387,
 -0.00056534,0.00008465,-0.00088652,-0.00569191,-0.00109869,0.00246381,
 -0.00183049,0.00288763,0.00220003,0.01177140,-0.01498388,0.01724680,0.
 00046692,-0.00092775,0.00070602,-0.00403067,0.00493489,-0.00206161,-0.
 00006072,-0.00001712,-0.00007294,0.05765499,-0.25133427,0.14095364,0.0
 0059799,0.00007470,-0.00245683,0.00169045,0.00001254,-0.00173739,-0.06
 031966,0.26050463,0.00035344,-0.00030195,-0.00074537,0.00015050,-0.000
 01150,0.00003694,-0.00008703,0.00015675,-0.00001035,0.00000187,-0.0000
 0895,-0.00004710,0.00002808,-0.00002972,-0.00006408,-0.00002304,0.0000
 1352,0.00002287,-0.00002338,0.00002795,0.00003838,-0.00000505,-0.00000
 603,-0.00001153,0.00000617,-0.00000496,0.00000667,-0.00000750,0.000001
 25,-0.00002025,0.00001448,-0.00000487,-0.00001795,-0.00000223,0.000001
 62,-0.00001097,0.00000019,0.00000157,-0.00001138,-0.00000578,0.0000077
 3,-0.00005140,-0.00002010,0.00003004,-0.00002162,-0.00002923,0.0000163
 2,0.00001804,0.00000177,-0.00001155,-0.00002007,0.00001597,-0.00000771
 ,-0.00000159,-0.00000814,-0.00000958,0.00000505,0.00000439,-0.00000627
 ,0.00000176,0.00000859,0.00000981,0.00000443,0.00000065,-0.00000020,0.
 00000685,0.00000710,0.00000762,-0.00000456,0.00000410,0.00000673,0.000
 00294,0.00026850,-0.00100055,-0.00024984,-0.00226280,0.00279418,0.0062
 6392,-0.00546724,0.00192978,0.00475750,-0.00336556,0.00028305,0.003259
 82,-0.00007016,0.00000258,-0.00012303,-0.00136551,0.01458646,-0.003627
 87,-0.00011376,0.00058128,-0.00044466,-0.05334429,0.14108572,-0.152885
 27,0.00241924,-0.00181034,-0.00277431,0.00171025,-0.00237459,-0.002614
 72,0.06120552,-0.15595520,0.14933275||-0.00000244,-0.00001643,-0.00001
 676,0.00000306,0.00000071,0.00000417,0.00000011,0.00000311,0.00000268,
 -0.00000101,0.00000116,0.00000422,-0.00000282,0.00000403,-0.00000405,0
 .00000034,0.00000145,-0.00000650,0.00000123,0.00000181,0.00000212,-0.0
 0000512,0.00000168,0.00000733,0.00000039,0.00000107,0.00000113,0.00000
 676,-0.00000487,0.00000215,0.,-0.00000181,-0.00000095,0.00000022,0.000
 00045,-0.00000084,0.00000052,-0.00000028,-0.00000047,-0.00003194,0.000
 01218,0.00005969,-0.00000673,-0.00003834,-0.00004437,0.00003290,0.0000
 3826,-0.00001430,0.00003729,0.00003561,-0.00000038,-0.00000135,0.00000
 321,0.00000317,0.00000113,-0.00004490,-0.00003196,-0.00000376,-0.00000
 653,-0.00000746,-0.00003668,0.00000217,0.00003813,-0.00000284,-0.00000
 166,0.00000061,0.00000068,0.00000280,0.00000233,0.00000205,0.00000110,
 -0.00000187,-0.00005522,-0.00002203,-0.00001315,0.00005749,-0.00004588
 ,0.00004910,0.00001970,0.00007500,-0.00003098,0.00001610,0.00007226,-0
 .00003770,-0.00000453,0.00000140,0.00000017,0.00005483,-0.00003811,0.0
 0004676,-0.00000674,-0.00000544,-0.00000020,-0.00007416,-0.00003461,-0
 .00001219,-0.00000080,-0.00000532,0.00000419,-0.00000644,0.00000362,-0
 .00000615,0.00000778,0.00000315,0.00000235|||@


 IT PROBABLY IS NOT POSSIBLE FOR A SCIENTIST TO INTERROGATE NATURE 
 FROM A WHOLLY DISINTERESTED VIEWPOINT.
 EVEN IF HE HAS NO PARTICULAR AXE TO GRIND, HE IS LIKELY TO HAVE 
 A DISTINCTIVE WAY OF VIEWING NATURE.

                                                   -- JOHN LOSEE
 Job cpu time:  0 days  0 hours  6 minutes 23.0 seconds.
 File lengths (MBytes):  RWF=    350 Int=      0 D2E=      0 Chk=      7 Scr=      1
 Normal termination of Gaussian 09 at Tue Sep 07 03:28:09 2021.
