 Entering Link 1 = b:\programy\g09w\l1.exe PID=       784.
  
 Copyright (c) 1988,1990,1992,1993,1995,1998,2003,2009, Gaussian, Inc.
                  All Rights Reserved.
  
 This is part of the Gaussian(R) 09 program.  It is based on
 the Gaussian(R) 03 system (copyright 2003, Gaussian, Inc.),
 the Gaussian(R) 98 system (copyright 1998, Gaussian, Inc.),
 the Gaussian(R) 94 system (copyright 1995, Gaussian, Inc.),
 the Gaussian 92(TM) system (copyright 1992, Gaussian, Inc.),
 the Gaussian 90(TM) system (copyright 1990, Gaussian, Inc.),
 the Gaussian 88(TM) system (copyright 1988, Gaussian, Inc.),
 the Gaussian 86(TM) system (copyright 1986, Carnegie Mellon
 University), and the Gaussian 82(TM) system (copyright 1983,
 Carnegie Mellon University). Gaussian is a federally registered
 trademark of Gaussian, Inc.
  
 This software contains proprietary and confidential information,
 including trade secrets, belonging to Gaussian, Inc.
  
 This software is provided under written license and may be
 used, copied, transmitted, or stored only in accord with that
 written license.
  
 The following legend is applicable only to US Government
 contracts under FAR:
  
                    RESTRICTED RIGHTS LEGEND
  
 Use, reproduction and disclosure by the US Government is
 subject to restrictions as set forth in subparagraphs (a)
 and (c) of the Commercial Computer Software - Restricted
 Rights clause in FAR 52.227-19.
  
 Gaussian, Inc.
 340 Quinnipiac St., Bldg. 40, Wallingford CT 06492
  
  
 ---------------------------------------------------------------
 Warning -- This program may not be used in any manner that
 competes with the business of Gaussian, Inc. or will provide
 assistance to any competitor of Gaussian, Inc.  The licensee
 of this program is prohibited from giving any competitor of
 Gaussian, Inc. access to this program.  By using this program,
 the user acknowledges that Gaussian, Inc. is engaged in the
 business of creating and licensing software in the field of
 computational chemistry and represents and warrants to the
 licensee that it is not a competitor of Gaussian, Inc. and that
 it will not use this program in any manner prohibited above.
 ---------------------------------------------------------------
  

 Cite this work as:
 Gaussian 09, Revision A.02,
 M. J. Frisch, G. W. Trucks, H. B. Schlegel, G. E. Scuseria, 
 M. A. Robb, J. R. Cheeseman, G. Scalmani, V. Barone, B. Mennucci, 
 G. A. Petersson, H. Nakatsuji, M. Caricato, X. Li, H. P. Hratchian, 
 A. F. Izmaylov, J. Bloino, G. Zheng, J. L. Sonnenberg, M. Hada, 
 M. Ehara, K. Toyota, R. Fukuda, J. Hasegawa, M. Ishida, T. Nakajima, 
 Y. Honda, O. Kitao, H. Nakai, T. Vreven, J. A. Montgomery, Jr., 
 J. E. Peralta, F. Ogliaro, M. Bearpark, J. J. Heyd, E. Brothers, 
 K. N. Kudin, V. N. Staroverov, R. Kobayashi, J. Normand, 
 K. Raghavachari, A. Rendell, J. C. Burant, S. S. Iyengar, J. Tomasi, 
 M. Cossi, N. Rega, J. M. Millam, M. Klene, J. E. Knox, J. B. Cross, 
 V. Bakken, C. Adamo, J. Jaramillo, R. Gomperts, R. E. Stratmann, 
 O. Yazyev, A. J. Austin, R. Cammi, C. Pomelli, J. W. Ochterski, 
 R. L. Martin, K. Morokuma, V. G. Zakrzewski, G. A. Voth, 
 P. Salvador, J. J. Dannenberg, S. Dapprich, A. D. Daniels, 
 O. Farkas, J. B. Foresman, J. V. Ortiz, J. Cioslowski, 
 and D. J. Fox, Gaussian, Inc., Wallingford CT, 2009.
 
 ******************************************
 Gaussian 09:  IA32W-G09RevA.02 11-Jun-2009
                07-Sep-2021 
 ******************************************
 %nprocshared=12
 Will use up to   12 processors via shared memory.
 ----------------------------------------------
 # opt freq=noraman hf/6-311g geom=connectivity
 ----------------------------------------------
 1/18=20,19=15,38=1,57=2/1,3;
 2/9=110,12=2,17=6,18=5,40=1/2;
 3/5=4,6=6,11=9,16=1,25=1,30=1,71=1/1,2,3;
 4//1;
 5/5=2,38=5/2;
 6/7=2,8=2,9=2,10=2,28=1/1;
 7//1,2,3,16;
 1/18=20,19=15/3(2);
 2/9=110/2;
 99//99;
 2/9=110/2;
 3/5=4,6=6,11=9,16=1,25=1,30=1,71=1/1,2,3;
 4/5=5,16=3/1;
 5/5=2,38=5/2;
 7//1,2,3,16;
 1/18=20,19=15/3(-5);
 2/9=110/2;
 6/7=2,8=2,9=2,10=2,19=2,28=1/1;
 99/9=1/99;
 -----
 M0001
 -----
 Symbolic Z-matrix:
 Charge =  0 Multiplicity = 1
 C                    -0.14283  -0.76157   0.04049 
 H                    -0.35904  -1.8584    0.14784 
 C                    -1.49236  -0.12261  -0.17588 
 C                    -1.87412   0.42294  -1.40093 
 C                    -2.4124   -0.13216   0.87816 
 C                    -3.14929   0.9538   -1.5686 
 H                    -1.16575   0.43491  -2.23909 
 C                    -3.68397   0.39938   0.70909 
 H                    -2.11977  -0.55938   1.84485 
 C                    -4.05605   0.94425  -0.51609 
 H                    -3.43655   1.37918  -2.53569 
 H                    -4.3944    0.38835   1.54195 
 H                    -5.05876   1.36239  -0.64945 
 C                     0.4945   -0.28569   1.32394 
 C                     0.74805   1.06862   1.55011 
 C                     0.83666  -1.21695   2.3067 
 C                     1.32814   1.48597   2.74149 
 H                     0.49893   1.79761   0.76391 
 C                     1.4195   -0.79689   3.49727 
 H                     0.64679  -2.28378   2.14153 
 C                     1.66393   0.55397   3.71776 
 H                     1.52257   2.54993   2.90964 
 H                     1.68631  -1.53343   4.26219 
 H                     2.12138   0.88299   4.65627 
 C                     0.81272  -0.59925  -1.11508 
 C                     1.29768   0.65388  -1.49704 
 C                     1.23169  -1.73259  -1.81571 
 C                     2.18422   0.77183  -2.56036 
 H                     0.97855   1.5453   -0.93399 
 C                     2.11916  -1.6122   -2.8796 
 H                     0.86122  -2.72353  -1.52753 
 C                     2.59619  -0.36116  -3.25435 
 H                     2.55944   1.75879  -2.8497 
 H                     2.44264  -2.50642  -3.42231 
 H                     3.29501  -0.26806  -4.0918 
 

 GradGradGradGradGradGradGradGradGradGradGradGradGradGradGradGradGradGrad
 Berny optimization.
 Initialization pass.
                           ----------------------------
                           !    Initial Parameters    !
                           ! (Angstroms and Degrees)  !
 --------------------------                            --------------------------
 ! Name  Definition              Value          Derivative Info.                !
 --------------------------------------------------------------------------------
 ! R1    R(1,2)                  1.1231         estimate D2E/DX2                !
 ! R2    R(1,3)                  1.5088         estimate D2E/DX2                !
 ! R3    R(1,14)                 1.5099         estimate D2E/DX2                !
 ! R4    R(1,25)                 1.5082         estimate D2E/DX2                !
 ! R5    R(3,4)                  1.3943         estimate D2E/DX2                !
 ! R6    R(3,5)                  1.3991         estimate D2E/DX2                !
 ! R7    R(4,6)                  1.3914         estimate D2E/DX2                !
 ! R8    R(4,7)                  1.0975         estimate D2E/DX2                !
 ! R9    R(5,8)                  1.3885         estimate D2E/DX2                !
 ! R10   R(5,9)                  1.0966         estimate D2E/DX2                !
 ! R11   R(6,10)                 1.3893         estimate D2E/DX2                !
 ! R12   R(6,11)                 1.0949         estimate D2E/DX2                !
 ! R13   R(8,10)                 1.3915         estimate D2E/DX2                !
 ! R14   R(8,12)                 1.0948         estimate D2E/DX2                !
 ! R15   R(10,13)                1.0946         estimate D2E/DX2                !
 ! R16   R(14,15)                1.3963         estimate D2E/DX2                !
 ! R17   R(14,16)                1.3965         estimate D2E/DX2                !
 ! R18   R(15,17)                1.3893         estimate D2E/DX2                !
 ! R19   R(15,18)                1.1007         estimate D2E/DX2                !
 ! R20   R(16,19)                1.3905         estimate D2E/DX2                !
 ! R21   R(16,20)                1.0961         estimate D2E/DX2                !
 ! R22   R(17,21)                1.3909         estimate D2E/DX2                !
 ! R23   R(17,22)                1.0946         estimate D2E/DX2                !
 ! R24   R(19,21)                1.3904         estimate D2E/DX2                !
 ! R25   R(19,23)                1.0949         estimate D2E/DX2                !
 ! R26   R(21,24)                1.0947         estimate D2E/DX2                !
 ! R27   R(25,26)                1.3969         estimate D2E/DX2                !
 ! R28   R(25,27)                1.3967         estimate D2E/DX2                !
 ! R29   R(26,28)                1.3894         estimate D2E/DX2                !
 ! R30   R(26,29)                1.1016         estimate D2E/DX2                !
 ! R31   R(27,30)                1.3907         estimate D2E/DX2                !
 ! R32   R(27,31)                1.0965         estimate D2E/DX2                !
 ! R33   R(28,32)                1.391          estimate D2E/DX2                !
 ! R34   R(28,33)                1.0948         estimate D2E/DX2                !
 ! R35   R(30,32)                1.3904         estimate D2E/DX2                !
 ! R36   R(30,34)                1.0949         estimate D2E/DX2                !
 ! R37   R(32,35)                1.0947         estimate D2E/DX2                !
 ! A1    A(2,1,3)              104.7803         estimate D2E/DX2                !
 ! A2    A(2,1,14)             107.9276         estimate D2E/DX2                !
 ! A3    A(2,1,25)             107.4764         estimate D2E/DX2                !
 ! A4    A(3,1,14)             111.4674         estimate D2E/DX2                !
 ! A5    A(3,1,25)             114.2828         estimate D2E/DX2                !
 ! A6    A(14,1,25)            110.4821         estimate D2E/DX2                !
 ! A7    A(1,3,4)              122.4527         estimate D2E/DX2                !
 ! A8    A(1,3,5)              118.5064         estimate D2E/DX2                !
 ! A9    A(4,3,5)              118.9817         estimate D2E/DX2                !
 ! A10   A(3,4,6)              120.4029         estimate D2E/DX2                !
 ! A11   A(3,4,7)              119.9049         estimate D2E/DX2                !
 ! A12   A(6,4,7)              119.6921         estimate D2E/DX2                !
 ! A13   A(3,5,8)              120.5207         estimate D2E/DX2                !
 ! A14   A(3,5,9)              119.4241         estimate D2E/DX2                !
 ! A15   A(8,5,9)              120.0544         estimate D2E/DX2                !
 ! A16   A(4,6,10)             120.2817         estimate D2E/DX2                !
 ! A17   A(4,6,11)             119.6785         estimate D2E/DX2                !
 ! A18   A(10,6,11)            120.0398         estimate D2E/DX2                !
 ! A19   A(5,8,10)             120.1294         estimate D2E/DX2                !
 ! A20   A(5,8,12)             119.8537         estimate D2E/DX2                !
 ! A21   A(10,8,12)            120.0169         estimate D2E/DX2                !
 ! A22   A(6,10,8)             119.6829         estimate D2E/DX2                !
 ! A23   A(6,10,13)            120.198          estimate D2E/DX2                !
 ! A24   A(8,10,13)            120.1191         estimate D2E/DX2                !
 ! A25   A(1,14,15)            121.3346         estimate D2E/DX2                !
 ! A26   A(1,14,16)            119.4345         estimate D2E/DX2                !
 ! A27   A(15,14,16)           119.2308         estimate D2E/DX2                !
 ! A28   A(14,15,17)           120.4052         estimate D2E/DX2                !
 ! A29   A(14,15,18)           119.0498         estimate D2E/DX2                !
 ! A30   A(17,15,18)           120.5354         estimate D2E/DX2                !
 ! A31   A(14,16,19)           120.2511         estimate D2E/DX2                !
 ! A32   A(14,16,20)           120.0374         estimate D2E/DX2                !
 ! A33   A(19,16,20)           119.7116         estimate D2E/DX2                !
 ! A34   A(15,17,21)           120.0961         estimate D2E/DX2                !
 ! A35   A(15,17,22)           119.8617         estimate D2E/DX2                !
 ! A36   A(21,17,22)           120.0421         estimate D2E/DX2                !
 ! A37   A(16,19,21)           120.1955         estimate D2E/DX2                !
 ! A38   A(16,19,23)           119.8074         estimate D2E/DX2                !
 ! A39   A(21,19,23)           119.9971         estimate D2E/DX2                !
 ! A40   A(17,21,19)           119.8204         estimate D2E/DX2                !
 ! A41   A(17,21,24)           120.0843         estimate D2E/DX2                !
 ! A42   A(19,21,24)           120.0951         estimate D2E/DX2                !
 ! A43   A(1,25,26)            121.7346         estimate D2E/DX2                !
 ! A44   A(1,25,27)            119.1469         estimate D2E/DX2                !
 ! A45   A(26,25,27)           119.1168         estimate D2E/DX2                !
 ! A46   A(25,26,28)           120.4586         estimate D2E/DX2                !
 ! A47   A(25,26,29)           119.0508         estimate D2E/DX2                !
 ! A48   A(28,26,29)           120.4848         estimate D2E/DX2                !
 ! A49   A(25,27,30)           120.3273         estimate D2E/DX2                !
 ! A50   A(25,27,31)           120.0087         estimate D2E/DX2                !
 ! A51   A(30,27,31)           119.664          estimate D2E/DX2                !
 ! A52   A(26,28,32)           120.1077         estimate D2E/DX2                !
 ! A53   A(26,28,33)           119.8325         estimate D2E/DX2                !
 ! A54   A(32,28,33)           120.0597         estimate D2E/DX2                !
 ! A55   A(27,30,32)           120.2012         estimate D2E/DX2                !
 ! A56   A(27,30,34)           119.8045         estimate D2E/DX2                !
 ! A57   A(32,30,34)           119.9943         estimate D2E/DX2                !
 ! A58   A(28,32,30)           119.7884         estimate D2E/DX2                !
 ! A59   A(28,32,35)           120.0961         estimate D2E/DX2                !
 ! A60   A(30,32,35)           120.1154         estimate D2E/DX2                !
 ! D1    D(2,1,3,4)           -109.8089         estimate D2E/DX2                !
 ! D2    D(2,1,3,5)             67.3637         estimate D2E/DX2                !
 ! D3    D(14,1,3,4)           133.7141         estimate D2E/DX2                !
 ! D4    D(14,1,3,5)           -49.1133         estimate D2E/DX2                !
 ! D5    D(25,1,3,4)             7.5634         estimate D2E/DX2                !
 ! D6    D(25,1,3,5)          -175.264          estimate D2E/DX2                !
 ! D7    D(2,1,14,15)         -173.0324         estimate D2E/DX2                !
 ! D8    D(2,1,14,16)            6.8904         estimate D2E/DX2                !
 ! D9    D(3,1,14,15)          -58.4912         estimate D2E/DX2                !
 ! D10   D(3,1,14,16)          121.4316         estimate D2E/DX2                !
 ! D11   D(25,1,14,15)          69.7234         estimate D2E/DX2                !
 ! D12   D(25,1,14,16)        -110.3538         estimate D2E/DX2                !
 ! D13   D(2,1,25,26)         -178.9622         estimate D2E/DX2                !
 ! D14   D(2,1,25,27)            0.5547         estimate D2E/DX2                !
 ! D15   D(3,1,25,26)           65.223          estimate D2E/DX2                !
 ! D16   D(3,1,25,27)         -115.2601         estimate D2E/DX2                !
 ! D17   D(14,1,25,26)         -61.4399         estimate D2E/DX2                !
 ! D18   D(14,1,25,27)         118.0769         estimate D2E/DX2                !
 ! D19   D(1,3,4,6)            177.4066         estimate D2E/DX2                !
 ! D20   D(1,3,4,7)             -2.6146         estimate D2E/DX2                !
 ! D21   D(5,3,4,6)              0.2469         estimate D2E/DX2                !
 ! D22   D(5,3,4,7)           -179.7743         estimate D2E/DX2                !
 ! D23   D(1,3,5,8)           -177.5867         estimate D2E/DX2                !
 ! D24   D(1,3,5,9)              2.7329         estimate D2E/DX2                !
 ! D25   D(4,3,5,8)             -0.314          estimate D2E/DX2                !
 ! D26   D(4,3,5,9)           -179.9944         estimate D2E/DX2                !
 ! D27   D(3,4,6,10)            -0.0614         estimate D2E/DX2                !
 ! D28   D(3,4,6,11)          -179.9984         estimate D2E/DX2                !
 ! D29   D(7,4,6,10)           179.9597         estimate D2E/DX2                !
 ! D30   D(7,4,6,11)             0.0227         estimate D2E/DX2                !
 ! D31   D(3,5,8,10)             0.1952         estimate D2E/DX2                !
 ! D32   D(3,5,8,12)          -179.8544         estimate D2E/DX2                !
 ! D33   D(9,5,8,10)           179.8735         estimate D2E/DX2                !
 ! D34   D(9,5,8,12)            -0.1761         estimate D2E/DX2                !
 ! D35   D(4,6,10,8)            -0.0614         estimate D2E/DX2                !
 ! D36   D(4,6,10,13)          179.9885         estimate D2E/DX2                !
 ! D37   D(11,6,10,8)          179.8754         estimate D2E/DX2                !
 ! D38   D(11,6,10,13)          -0.0747         estimate D2E/DX2                !
 ! D39   D(5,8,10,6)            -0.0053         estimate D2E/DX2                !
 ! D40   D(5,8,10,13)          179.9448         estimate D2E/DX2                !
 ! D41   D(12,8,10,6)         -179.9557         estimate D2E/DX2                !
 ! D42   D(12,8,10,13)          -0.0056         estimate D2E/DX2                !
 ! D43   D(1,14,15,17)         179.6184         estimate D2E/DX2                !
 ! D44   D(1,14,15,18)          -1.501          estimate D2E/DX2                !
 ! D45   D(16,14,15,17)         -0.3046         estimate D2E/DX2                !
 ! D46   D(16,14,15,18)        178.576          estimate D2E/DX2                !
 ! D47   D(1,14,16,19)        -179.7425         estimate D2E/DX2                !
 ! D48   D(1,14,16,20)           0.2924         estimate D2E/DX2                !
 ! D49   D(15,14,16,19)          0.182          estimate D2E/DX2                !
 ! D50   D(15,14,16,20)       -179.7831         estimate D2E/DX2                !
 ! D51   D(14,15,17,21)          0.1621         estimate D2E/DX2                !
 ! D52   D(14,15,17,22)       -179.9732         estimate D2E/DX2                !
 ! D53   D(18,15,17,21)       -178.7018         estimate D2E/DX2                !
 ! D54   D(18,15,17,22)          1.1629         estimate D2E/DX2                !
 ! D55   D(14,16,19,21)          0.0832         estimate D2E/DX2                !
 ! D56   D(14,16,19,23)       -179.9038         estimate D2E/DX2                !
 ! D57   D(20,16,19,21)       -179.9516         estimate D2E/DX2                !
 ! D58   D(20,16,19,23)          0.0613         estimate D2E/DX2                !
 ! D59   D(15,17,21,19)          0.1057         estimate D2E/DX2                !
 ! D60   D(15,17,21,24)        179.9748         estimate D2E/DX2                !
 ! D61   D(22,17,21,19)       -179.7588         estimate D2E/DX2                !
 ! D62   D(22,17,21,24)          0.1104         estimate D2E/DX2                !
 ! D63   D(16,19,21,17)         -0.228          estimate D2E/DX2                !
 ! D64   D(16,19,21,24)        179.9029         estimate D2E/DX2                !
 ! D65   D(23,19,21,17)        179.759          estimate D2E/DX2                !
 ! D66   D(23,19,21,24)         -0.1101         estimate D2E/DX2                !
 ! D67   D(1,25,26,28)         179.567          estimate D2E/DX2                !
 ! D68   D(1,25,26,29)           0.4424         estimate D2E/DX2                !
 ! D69   D(27,25,26,28)          0.05           estimate D2E/DX2                !
 ! D70   D(27,25,26,29)       -179.0746         estimate D2E/DX2                !
 ! D71   D(1,25,27,30)        -179.5749         estimate D2E/DX2                !
 ! D72   D(1,25,27,31)           0.3933         estimate D2E/DX2                !
 ! D73   D(26,25,27,30)         -0.0452         estimate D2E/DX2                !
 ! D74   D(26,25,27,31)        179.9229         estimate D2E/DX2                !
 ! D75   D(25,26,28,32)          0.0088         estimate D2E/DX2                !
 ! D76   D(25,26,28,33)       -179.8767         estimate D2E/DX2                !
 ! D77   D(29,26,28,32)        179.1208         estimate D2E/DX2                !
 ! D78   D(29,26,28,33)         -0.7647         estimate D2E/DX2                !
 ! D79   D(25,27,30,32)         -0.0184         estimate D2E/DX2                !
 ! D80   D(25,27,30,34)        179.9458         estimate D2E/DX2                !
 ! D81   D(31,27,30,32)       -179.9866         estimate D2E/DX2                !
 ! D82   D(31,27,30,34)         -0.0225         estimate D2E/DX2                !
 ! D83   D(26,28,32,30)         -0.0727         estimate D2E/DX2                !
 ! D84   D(26,28,32,35)       -179.9732         estimate D2E/DX2                !
 ! D85   D(33,28,32,30)        179.8125         estimate D2E/DX2                !
 ! D86   D(33,28,32,35)         -0.088          estimate D2E/DX2                !
 ! D87   D(27,30,32,28)          0.0775         estimate D2E/DX2                !
 ! D88   D(27,30,32,35)        179.978          estimate D2E/DX2                !
 ! D89   D(34,30,32,28)       -179.8865         estimate D2E/DX2                !
 ! D90   D(34,30,32,35)          0.0139         estimate D2E/DX2                !
 --------------------------------------------------------------------------------
 Trust Radius=3.00D-01 FncErr=1.00D-07 GrdErr=1.00D-07
 Number of steps in this run= 197 maximum allowed number of steps= 210.
 GradGradGradGradGradGradGradGradGradGradGradGradGradGradGradGradGradGrad

                          Input orientation:                          
 ---------------------------------------------------------------------
 Center     Atomic      Atomic             Coordinates (Angstroms)
 Number     Number       Type             X           Y           Z
 ---------------------------------------------------------------------
      1          6           0       -0.142831   -0.761572    0.040492
      2          1           0       -0.359043   -1.858404    0.147843
      3          6           0       -1.492364   -0.122609   -0.175878
      4          6           0       -1.874115    0.422938   -1.400928
      5          6           0       -2.412401   -0.132161    0.878156
      6          6           0       -3.149286    0.953795   -1.568599
      7          1           0       -1.165750    0.434914   -2.239094
      8          6           0       -3.683975    0.399380    0.709085
      9          1           0       -2.119774   -0.559377    1.844847
     10          6           0       -4.056045    0.944248   -0.516094
     11          1           0       -3.436553    1.379179   -2.535692
     12          1           0       -4.394404    0.388349    1.541950
     13          1           0       -5.058757    1.362391   -0.649453
     14          6           0        0.494497   -0.285687    1.323936
     15          6           0        0.748052    1.068622    1.550115
     16          6           0        0.836663   -1.216953    2.306701
     17          6           0        1.328136    1.485965    2.741494
     18          1           0        0.498932    1.797610    0.763909
     19          6           0        1.419505   -0.796895    3.497275
     20          1           0        0.646794   -2.283782    2.141532
     21          6           0        1.663928    0.553974    3.717765
     22          1           0        1.522572    2.549934    2.909636
     23          1           0        1.686309   -1.533433    4.262192
     24          1           0        2.121376    0.882992    4.656274
     25          6           0        0.812715   -0.599253   -1.115078
     26          6           0        1.297684    0.653878   -1.497036
     27          6           0        1.231694   -1.732587   -1.815708
     28          6           0        2.184220    0.771826   -2.560356
     29          1           0        0.978552    1.545298   -0.933992
     30          6           0        2.119163   -1.612204   -2.879602
     31          1           0        0.861225   -2.723525   -1.527534
     32          6           0        2.596187   -0.361164   -3.254345
     33          1           0        2.559440    1.758792   -2.849705
     34          1           0        2.442643   -2.506418   -3.422309
     35          1           0        3.295012   -0.268064   -4.091797
 ---------------------------------------------------------------------
                    Distance matrix (angstroms):
                    1          2          3          4          5
     1  C    0.000000
     2  H    1.123081   0.000000
     3  C    1.508750   2.098140   0.000000
     4  C    2.545211   3.146213   1.394311   0.000000
     5  C    2.499757   2.780207   1.399123   2.406680   0.000000
     6  C    3.817123   4.317417   2.417376   1.391396   2.776492
     7  H    2.770280   3.406985   2.162029   1.097473   3.404843
     8  C    3.786096   4.058048   2.420494   2.779982   1.388532
     9  H    2.684192   2.769020   2.160496   3.400051   1.096648
    10  C    4.304980   4.686523   2.797569   2.411537   2.409182
    11  H    4.697674   5.210985   3.406459   2.154831   3.871355
    12  H    4.653232   4.824477   3.410843   3.874737   2.154041
    13  H    5.399404   5.752957   3.892128   3.404296   3.401540
    14  C    1.509928   2.141300   2.494725   3.679314   2.944885
    15  C    2.534215   3.429214   3.068803   4.000165   3.447009
    16  C    2.510475   2.549870   3.575633   4.876892   3.711325
    17  C    3.809276   4.556139   4.365065   5.342668   4.481292
    18  H    2.735801   3.805535   2.921592   3.493936   3.494699
    19  C    3.793612   3.938112   4.735577   6.027297   4.688833
    20  H    2.712010   2.273203   3.823225   5.121556   3.947691
    21  C    4.303182   4.759865   5.057707   6.223820   5.015039
    22  H    4.687391   5.531855   5.074714   5.885793   5.177312
    23  H    4.665220   4.606185   5.638338   6.969572   5.496789
    24  H    5.397840   5.830410   6.117193   7.270853   5.988309
    25  C    1.508230   2.133880   2.534300   2.888883   3.820017
    26  C    2.538222   3.429567   3.183199   3.181647   4.474832
    27  C    2.505527   2.530179   3.563925   3.803207   4.806006
    28  C    3.811940   4.551992   4.472473   4.235101   5.811151
    29  H    2.743860   3.813753   3.076049   3.100876   4.194795
    30  C    3.790401   3.920145   4.751014   4.719592   6.070118
    31  H    2.704828   2.245969   3.759138   4.171133   4.818624
    32  C    4.303312   4.748683   5.123486   4.902405   6.497380
    33  H    4.691240   5.530546   5.206355   4.851790   6.495525
    34  H    4.660488   4.584250   5.630820   5.594775   6.906703
    35  H    5.397974   5.818577   6.186642   5.868401   7.569244
                    6          7          8          9         10
     6  C    0.000000
     7  H    2.157131   0.000000
     8  C    2.404394   3.877432   0.000000
     9  H    3.873138   4.310145   2.157752   0.000000
    10  C    1.389269   3.403227   1.391540   3.403539   0.000000
    11  H    1.094872   2.477126   3.398501   4.968001   2.156783
    12  H    3.397876   4.972190   1.094758   2.482715   2.158485
    13  H    2.158207   4.306120   2.159408   4.307243   1.094559
    14  C    4.814585   3.996357   4.278666   2.679678   5.060226
    15  C    4.992876   4.292124   4.560491   3.310843   5.231065
    16  C    5.968072   5.234747   5.059750   3.063697   6.047938
    17  C    6.237581   5.668372   5.516576   4.107978   6.316229
    18  H    4.411588   3.694067   4.410755   3.685300   4.807749
    19  C    7.042857   6.411460   5.937219   3.913237   7.008592
    20  H    6.217491   5.465025   5.292146   3.273453   6.292841
    21  C    7.160483   6.595864   6.138087   4.366208   7.127129
    22  H    6.665471   6.181408   6.047763   4.905943   6.740536
    23  H    7.972917   7.367181   6.723115   4.612874   7.870550
    24  H    8.156834   7.651933   7.036781   5.288847   8.057151
    25  C    4.279614   2.499448   4.954297   4.166803   5.142568
    26  C    4.457646   2.582073   5.454233   4.931449   5.450594
    27  C    5.144968   3.259609   5.923146   5.099846   6.067505
    28  C    5.427982   3.382162   6.727828   6.300975   6.568839
    29  H    4.218015   2.744863   5.074642   4.663822   5.087541
    30  C    6.004968   3.923212   7.113477   6.434085   7.089062
    31  H    5.441376   3.819775   5.950953   4.994282   6.217324
    32  C    6.130360   3.977015   7.465094   6.948478   7.311245
    33  H    5.905828   4.000317   7.313905   7.021949   7.062142
    34  H    6.832202   4.803325   7.940247   7.235300   7.911139
    35  H    7.027691   4.881094   8.497070   8.040430   8.263981
                   11         12         13         14         15
    11  H    0.000000
    12  H    4.304229   0.000000
    13  H    2.487916   2.488447   0.000000
    14  C    5.755142   4.939961   6.119563   0.000000
    15  C    5.856721   5.187263   6.216384   1.396281   0.000000
    16  C    6.960535   5.525026   7.081514   1.396482   2.409176
    17  C    7.110722   5.949045   7.232302   2.417266   1.389265
    18  H    5.152717   5.151320   5.751079   2.157261   1.100729
    19  C    8.044457   6.247370   7.989101   2.416687   2.778927
    20  H    7.208844   5.737026   7.323761   2.164265   3.405678
    21  C    8.111818   6.439332   8.057333   2.793388   2.408816
    22  H    7.457559   6.446210   7.575702   3.407658   2.154638
    23  H    8.996569   6.933112   8.832099   3.407439   3.873807
    24  H    9.102811   7.238721   8.940631   3.888062   3.401280
    25  C    4.897818   5.928680   6.207982   2.479591   3.144717
    26  C    4.900802   6.458003   6.451723   3.079898   3.123978
    27  C    5.656323   6.886597   7.106955   3.534734   4.405615
    28  C    5.653545   7.762362   7.514056   4.365915   4.364245
    29  H    4.699595   6.028058   6.046778   2.947041   2.539909
    30  C    6.319226   8.122739   8.083583   4.697756   5.356227
    31  H    6.026563   6.835725   7.246511   3.769407   4.885194
    32  C    6.319747   8.510851   8.267664   5.038199   5.342539
    33  H    6.016198   8.337907   7.939468   5.085583   4.807897
    34  H    7.102739   8.931336   8.884110   5.590506   6.354333
    35  H    7.102734   9.554952   9.181153   6.096995   6.332843
                   16         17         18         19         20
    16  C    0.000000
    17  C    2.781431   0.000000
    18  H    3.403213   2.166921   0.000000
    19  C    1.390547   2.406450   3.879458   0.000000
    20  H    1.096109   3.877522   4.310159   2.155448   0.000000
    21  C    2.410737   1.390851   3.410148   1.390397   3.401754
    22  H    3.876009   1.094581   2.493587   3.399589   4.972101
    23  H    2.155459   3.399643   4.974304   1.094884   2.478067
    24  H    3.403051   2.158516   4.315016   2.158222   4.304274
    25  C    3.477168   4.414402   3.061700   4.656292   3.670241
    26  C    4.263914   4.319541   2.656690   5.202184   4.721512
    27  C    4.173270   5.580007   4.433245   5.398016   4.038028
    28  C    5.427651   5.417794   3.865639   6.304011   5.814479
    29  H    4.260546   3.692551   1.782293   5.031544   4.922475
    30  C    5.357123   6.466923   5.246633   6.466746   5.275478
    31  H    4.119675   6.013520   5.081598   5.410387   3.701540
    32  C    5.895212   6.400776   5.020473   6.867227   6.050792
    33  H    6.197704   5.731671   4.159976   6.936507   6.701720
    34  H    6.087975   7.427902   6.310871   7.200689   5.850724
    35  H    6.919873   7.323871   5.971846   7.835253   7.066156
                   21         22         23         24         25
    21  C    0.000000
    22  H    2.157988   0.000000
    23  H    2.157352   4.304661   0.000000
    24  H    1.094675   2.487571   2.486703   0.000000
    25  C    5.040919   5.159419   5.527286   6.100668   0.000000
    26  C    5.228601   4.802538   6.172850   6.212423   1.396934
    27  C    6.002875   6.383845   6.098132   7.036998   1.396736
    28  C    6.303408   5.789669   7.218677   7.217760   2.418618
    29  H    4.805341   4.009830   6.081105   5.744195   2.158563
    30  C    6.958794   7.155040   7.155333   7.938226   2.417937
    31  H    6.236946   6.923528   5.968083   7.268730   2.164487
    32  C    7.093440   6.900856   7.661621   8.021924   2.795339
    33  H    6.736852   5.905168   7.885441   7.569587   3.408864
    34  H    7.807243   8.155168   7.782693   8.766688   3.408410
    35  H    8.020313   7.752595   8.601059   8.901185   3.890031
                   26         27         28         29         30
    26  C    0.000000
    27  C    2.408552   0.000000
    28  C    1.389427   2.780988   0.000000
    29  H    1.101586   3.403826   2.167245   0.000000
    30  C    2.778749   1.390670   2.406190   3.880233   0.000000
    31  H    3.405625   1.096472   3.877437   4.311486   2.155350
    32  C    2.409264   2.410875   1.391044   3.411066   1.390354
    33  H    2.154664   3.875795   1.094812   2.492938   3.399758
    34  H    3.873639   2.155546   3.399504   4.975106   1.094892
    35  H    3.401776   3.403335   2.158828   4.315784   2.158414
                   31         32         33         34         35
    31  H    0.000000
    32  C    3.401870   0.000000
    33  H    4.972247   2.158541   0.000000
    34  H    2.477537   2.157291   4.305059   0.000000
    35  H    4.304423   1.094691   2.488374   2.486961   0.000000
 Stoichiometry    C19H16
 Framework group  C1[X(C19H16)]
 Deg. of freedom    99
 Full point group                 C1      NOp   1
 Largest Abelian subgroup         C1      NOp   1
 Largest concise Abelian subgroup C1      NOp   1
                         Standard orientation:                         
 ---------------------------------------------------------------------
 Center     Atomic      Atomic             Coordinates (Angstroms)
 Number     Number       Type             X           Y           Z
 ---------------------------------------------------------------------
      1          6           0        0.009575    0.014997   -0.761348
      2          1           0       -0.020183    0.017737   -1.884031
      3          6           0       -0.706550    1.279022   -0.354242
      4          6           0       -0.041270    2.368094    0.207388
      5          6           0       -2.079399    1.379000   -0.604913
      6          6           0       -0.735214    3.533480    0.517713
      7          1           0        1.036204    2.307500    0.406946
      8          6           0       -2.770252    2.542428   -0.293180
      9          1           0       -2.609914    0.526774   -1.046390
     10          6           0       -2.099139    3.623813    0.269489
     11          1           0       -0.200965    4.381507    0.958361
     12          1           0       -3.844853    2.607927   -0.491770
     13          1           0       -2.643722    4.541171    0.514322
     14          6           0       -0.722823   -1.214545   -0.279992
     15          6           0       -0.979947   -1.421973    1.076644
     16          6           0       -1.154091   -2.164033   -1.208777
     17          6           0       -1.662463   -2.556484    1.497493
     18          1           0       -0.618008   -0.683495    1.808254
     19          6           0       -1.834813   -3.299996   -0.784717
     20          1           0       -0.956191   -2.016262   -2.276697
     21          6           0       -2.092130   -3.497084    0.567373
     22          1           0       -1.859612   -2.709940    2.563181
     23          1           0       -2.168267   -4.040520   -1.519023
     24          1           0       -2.629541   -4.391159    0.899234
     25          6           0        1.458749   -0.037831   -0.346788
     26          6           0        1.837611   -0.075011    0.997275
     27          6           0        2.447948   -0.060190   -1.332615
     28          6           0        3.180509   -0.132412    1.349181
     29          1           0        1.056060   -0.072870    1.773591
     30          6           0        3.791443   -0.117756   -0.978112
     31          1           0        2.166975   -0.032852   -2.392123
     32          6           0        4.160287   -0.153136    0.361958
     33          1           0        3.465832   -0.163205    2.405712
     34          1           0        4.559760   -0.135795   -1.757953
     35          1           0        5.218246   -0.198805    0.639421
 ---------------------------------------------------------------------
 Rotational constants (GHZ):      0.4038408      0.3819428      0.2327122
 Standard basis: 6-311G (5D, 7F)
 There are   295 symmetry adapted basis functions of A   symmetry.
 Integral buffers will be    262144 words long.
 Raffenetti 1 integral format.
 Two-electron integral symmetry is turned on.
   295 basis functions,   574 primitive gaussians,   295 cartesian basis functions
    65 alpha electrons       65 beta electrons
       nuclear repulsion energy      1290.6788858326 Hartrees.
 NAtoms=   35 NActive=   35 NUniq=   35 SFac= 7.50D-01 NAtFMM=   80 NAOKFM=F Big=F
 One-electron integrals computed using PRISM.
 PrsmSu:  requested number of processors reduced to:  10 ShMem   1 Linda.
 NBasis=   295 RedAO= T  NBF=   295
 NBsUse=   295 1.00D-06 NBFU=   295
 Harris functional with IExCor=  205 diagonalized for initial guess.
 ExpMin= 1.03D-01 ExpMax= 4.56D+03 ExpMxC= 6.82D+02 IAcc=1 IRadAn=         1 AccDes= 0.00D+00
 HarFok:  IExCor=  205 AccDes= 0.00D+00 IRadAn=         1 IDoV= 1
 ScaDFX=  1.000000  1.000000  1.000000  1.000000
 FoFCou: FMM=F IPFlag=           0 FMFlag=      100000 FMFlg1=           0
         NFxFlg=           0 DoJE=T BraDBF=F KetDBF=T FulRan=T
         Omega=  0.000000  0.000000  1.000000  0.000000  0.000000 ICntrl=     500 IOpCl=  0
         NMat0=    1 NMatS0=    1 NMatT0=    0 NMatD0=    1 NMtDS0=    0 NMtDT0=    0
         I1Cent=           4 NGrid=           0.
 Petite list used in FoFCou.
 Initial guess orbital symmetries:
       Occupied  (A) (A) (A) (A) (A) (A) (A) (A) (A) (A) (A) (A)
                 (A) (A) (A) (A) (A) (A) (A) (A) (A) (A) (A) (A)
                 (A) (A) (A) (A) (A) (A) (A) (A) (A) (A) (A) (A)
                 (A) (A) (A) (A) (A) (A) (A) (A) (A) (A) (A) (A)
                 (A) (A) (A) (A) (A) (A) (A) (A) (A) (A) (A) (A)
                 (A) (A) (A) (A) (A)
       Virtual   (A) (A) (A) (A) (A) (A) (A) (A) (A) (A) (A) (A)
                 (A) (A) (A) (A) (A) (A) (A) (A) (A) (A) (A) (A)
                 (A) (A) (A) (A) (A) (A) (A) (A) (A) (A) (A) (A)
                 (A) (A) (A) (A) (A) (A) (A) (A) (A) (A) (A) (A)
                 (A) (A) (A) (A) (A) (A) (A) (A) (A) (A) (A) (A)
                 (A) (A) (A) (A) (A) (A) (A) (A) (A) (A) (A) (A)
                 (A) (A) (A) (A) (A) (A) (A) (A) (A) (A) (A) (A)
                 (A) (A) (A) (A) (A) (A) (A) (A) (A) (A) (A) (A)
                 (A) (A) (A) (A) (A) (A) (A) (A) (A) (A) (A) (A)
                 (A) (A) (A) (A) (A) (A) (A) (A) (A) (A) (A) (A)
                 (A) (A) (A) (A) (A) (A) (A) (A) (A) (A) (A) (A)
                 (A) (A) (A) (A) (A) (A) (A) (A) (A) (A) (A) (A)
                 (A) (A) (A) (A) (A) (A) (A) (A) (A) (A) (A) (A)
                 (A) (A) (A) (A) (A) (A) (A) (A) (A) (A) (A) (A)
                 (A) (A) (A) (A) (A) (A) (A) (A) (A) (A) (A) (A)
                 (A) (A) (A) (A) (A) (A) (A) (A) (A) (A) (A) (A)
                 (A) (A) (A) (A) (A) (A) (A) (A) (A) (A) (A) (A)
                 (A) (A) (A) (A) (A) (A) (A) (A) (A) (A) (A) (A)
                 (A) (A) (A) (A) (A) (A) (A) (A) (A) (A) (A) (A)
                 (A) (A)
 The electronic state of the initial guess is 1-A.
 Requested convergence on RMS density matrix=1.00D-08 within 128 cycles.
 Requested convergence on MAX density matrix=1.00D-06.
 Requested convergence on             energy=1.00D-06.
 No special actions if energy rises.
 Integral accuracy reduced to 1.0D-05 until final iterations.
 Initial convergence to 1.0D-05 achieved.  Increase integral accuracy.
 SCF Done:  E(RHF) =  -728.672392787     A.U. after   14 cycles
             Convg  =    0.8659D-08             -V/T =  2.0001

 **********************************************************************

            Population analysis using the SCF density.

 **********************************************************************

 Orbital symmetries:
       Occupied  (A) (A) (A) (A) (A) (A) (A) (A) (A) (A) (A) (A)
                 (A) (A) (A) (A) (A) (A) (A) (A) (A) (A) (A) (A)
                 (A) (A) (A) (A) (A) (A) (A) (A) (A) (A) (A) (A)
                 (A) (A) (A) (A) (A) (A) (A) (A) (A) (A) (A) (A)
                 (A) (A) (A) (A) (A) (A) (A) (A) (A) (A) (A) (A)
                 (A) (A) (A) (A) (A)
       Virtual   (A) (A) (A) (A) (A) (A) (A) (A) (A) (A) (A) (A)
                 (A) (A) (A) (A) (A) (A) (A) (A) (A) (A) (A) (A)
                 (A) (A) (A) (A) (A) (A) (A) (A) (A) (A) (A) (A)
                 (A) (A) (A) (A) (A) (A) (A) (A) (A) (A) (A) (A)
                 (A) (A) (A) (A) (A) (A) (A) (A) (A) (A) (A) (A)
                 (A) (A) (A) (A) (A) (A) (A) (A) (A) (A) (A) (A)
                 (A) (A) (A) (A) (A) (A) (A) (A) (A) (A) (A) (A)
                 (A) (A) (A) (A) (A) (A) (A) (A) (A) (A) (A) (A)
                 (A) (A) (A) (A) (A) (A) (A) (A) (A) (A) (A) (A)
                 (A) (A) (A) (A) (A) (A) (A) (A) (A) (A) (A) (A)
                 (A) (A) (A) (A) (A) (A) (A) (A) (A) (A) (A) (A)
                 (A) (A) (A) (A) (A) (A) (A) (A) (A) (A) (A) (A)
                 (A) (A) (A) (A) (A) (A) (A) (A) (A) (A) (A) (A)
                 (A) (A) (A) (A) (A) (A) (A) (A) (A) (A) (A) (A)
                 (A) (A) (A) (A) (A) (A) (A) (A) (A) (A) (A) (A)
                 (A) (A) (A) (A) (A) (A) (A) (A) (A) (A) (A) (A)
                 (A) (A) (A) (A) (A) (A) (A) (A) (A) (A) (A) (A)
                 (A) (A) (A) (A) (A) (A) (A) (A) (A) (A) (A) (A)
                 (A) (A) (A) (A) (A) (A) (A) (A) (A) (A) (A) (A)
                 (A) (A)
 The electronic state is 1-A.
 Alpha  occ. eigenvalues --  -11.25762 -11.25235 -11.25185 -11.24920 -11.24523
 Alpha  occ. eigenvalues --  -11.24436 -11.24412 -11.24369 -11.24223 -11.24169
 Alpha  occ. eigenvalues --  -11.24144 -11.24117 -11.24070 -11.24034 -11.24029
 Alpha  occ. eigenvalues --  -11.23972 -11.23732 -11.23636 -11.23503  -1.18617
 Alpha  occ. eigenvalues --   -1.15871  -1.15575  -1.09029  -1.02380  -1.02235
 Alpha  occ. eigenvalues --   -1.01877  -1.01491  -1.01088  -0.92920  -0.84289
 Alpha  occ. eigenvalues --   -0.83353  -0.82331  -0.81918  -0.81138  -0.77587
 Alpha  occ. eigenvalues --   -0.70868  -0.70366  -0.68987  -0.65689  -0.63895
 Alpha  occ. eigenvalues --   -0.63610  -0.62513  -0.61708  -0.61585  -0.59722
 Alpha  occ. eigenvalues --   -0.58851  -0.58489  -0.58319  -0.56778  -0.55062
 Alpha  occ. eigenvalues --   -0.51726  -0.50923  -0.50224  -0.49861  -0.49380
 Alpha  occ. eigenvalues --   -0.48428  -0.47951  -0.47503  -0.46320  -0.35021
 Alpha  occ. eigenvalues --   -0.34322  -0.33950  -0.33331  -0.32553  -0.31450
 Alpha virt. eigenvalues --    0.11526   0.12291   0.12765   0.13515   0.14989
 Alpha virt. eigenvalues --    0.15118   0.15630   0.16240   0.16483   0.16915
 Alpha virt. eigenvalues --    0.18904   0.19187   0.19232   0.21240   0.21295
 Alpha virt. eigenvalues --    0.21590   0.23563   0.23999   0.24958   0.25422
 Alpha virt. eigenvalues --    0.26825   0.31483   0.33156   0.34243   0.35785
 Alpha virt. eigenvalues --    0.37571   0.39806   0.40528   0.41505   0.43106
 Alpha virt. eigenvalues --    0.44091   0.44428   0.44924   0.45450   0.45608
 Alpha virt. eigenvalues --    0.45859   0.46741   0.47228   0.47979   0.50588
 Alpha virt. eigenvalues --    0.51076   0.51432   0.52173   0.54959   0.56060
 Alpha virt. eigenvalues --    0.57319   0.57842   0.58504   0.58921   0.59354
 Alpha virt. eigenvalues --    0.60203   0.60455   0.60625   0.61132   0.61468
 Alpha virt. eigenvalues --    0.62062   0.62229   0.62959   0.63413   0.63694
 Alpha virt. eigenvalues --    0.64269   0.64566   0.65215   0.65947   0.66410
 Alpha virt. eigenvalues --    0.67225   0.67815   0.68581   0.69856   0.72364
 Alpha virt. eigenvalues --    0.73098   0.73929   0.74448   0.75301   0.75729
 Alpha virt. eigenvalues --    0.76759   0.78864   0.79355   0.79942   0.81262
 Alpha virt. eigenvalues --    0.81509   0.82208   0.82492   0.82901   0.83287
 Alpha virt. eigenvalues --    0.83832   0.84365   0.84828   0.84927   0.85471
 Alpha virt. eigenvalues --    0.85945   0.86205   0.86477   0.87728   0.88154
 Alpha virt. eigenvalues --    0.90249   0.90834   0.92124   0.93470   0.95036
 Alpha virt. eigenvalues --    0.95938   0.96345   0.97038   0.98206   0.99727
 Alpha virt. eigenvalues --    0.99986   1.02341   1.03066   1.04786   1.06208
 Alpha virt. eigenvalues --    1.07136   1.08165   1.09304   1.10148   1.10853
 Alpha virt. eigenvalues --    1.11514   1.11728   1.12429   1.12761   1.13831
 Alpha virt. eigenvalues --    1.15015   1.16527   1.19699   1.20561   1.21109
 Alpha virt. eigenvalues --    1.23799   1.25760   1.27291   1.28100   1.29071
 Alpha virt. eigenvalues --    1.29461   1.31997   1.32932   1.46820   1.47693
 Alpha virt. eigenvalues --    1.52045   1.54215   1.57010   2.53535   2.55698
 Alpha virt. eigenvalues --    2.56066   2.57754   2.62084   2.62320   2.63900
 Alpha virt. eigenvalues --    2.66401   2.67111   2.68485   2.72026   2.74282
 Alpha virt. eigenvalues --    2.78346   2.83412   2.86635   2.91717   2.94355
 Alpha virt. eigenvalues --    2.94603   2.94734   2.96023   2.98093   2.98587
 Alpha virt. eigenvalues --    2.99969   3.02236   3.03907   3.04420   3.06475
 Alpha virt. eigenvalues --    3.08504   3.09245   3.09812   3.10095   3.13199
 Alpha virt. eigenvalues --    3.15146   3.16189   3.17728   3.18407   3.19418
 Alpha virt. eigenvalues --    3.21619   3.24090   3.25067   3.27679   3.28784
 Alpha virt. eigenvalues --    3.31431   3.33868   3.34301   3.35697   3.40907
 Alpha virt. eigenvalues --    3.41351   3.44156   3.45091   3.49916   3.52509
 Alpha virt. eigenvalues --    3.53529   3.55946   3.57555   3.58294   3.59614
 Alpha virt. eigenvalues --    3.62403   3.64085   3.65065   3.66262   3.66775
 Alpha virt. eigenvalues --    3.67695   3.69219   3.71270   3.72347   3.74225
 Alpha virt. eigenvalues --    3.76310   3.77540   3.78515   3.85568   3.88008
 Alpha virt. eigenvalues --    3.91110  24.26043  24.30020  24.31760  24.50532
 Alpha virt. eigenvalues --   24.50784  24.51039  24.53042  24.54601  24.56498
 Alpha virt. eigenvalues --   24.76211  24.77055  24.79107  24.80212  24.80734
 Alpha virt. eigenvalues --   24.82795  24.87410  25.04637  25.05797  25.07137
          Condensed to atoms (all electrons):
              1          2          3          4          5          6
     1  C    6.105250   0.473019   0.034233  -0.030263  -0.085737   0.012187
     2  H    0.473019   0.502865  -0.062540   0.000878  -0.004796  -0.000120
     3  C    0.034233  -0.062540   5.352427   0.500643   0.471394  -0.068992
     4  C   -0.030263   0.000878   0.500643   5.096651  -0.083626   0.454428
     5  C   -0.085737  -0.004796   0.471394  -0.083626   5.124009  -0.033308
     6  C    0.012187  -0.000120  -0.068992   0.454428  -0.033308   5.078491
     7  H   -0.011265  -0.000277  -0.034822   0.393939   0.004961  -0.036327
     8  C    0.008303   0.000638  -0.056822  -0.030106   0.463686  -0.073936
     9  H   -0.002909  -0.000143  -0.045200   0.004478   0.397535  -0.000469
    10  C    0.000396   0.000033  -0.020610  -0.090020  -0.085083   0.495760
    11  H   -0.000362   0.000014   0.006480  -0.036834  -0.000406   0.395604
    12  H   -0.000355   0.000005   0.006150  -0.000438  -0.038353   0.006003
    13  H   -0.000014  -0.000002  -0.001456   0.007665   0.007442  -0.042139
    14  C    0.149561  -0.070469  -0.095255   0.001015  -0.006894  -0.000807
    15  C   -0.055697   0.005476  -0.007199   0.001642  -0.008673   0.000051
    16  C   -0.024710   0.001644  -0.001450  -0.000444   0.000603   0.000007
    17  C    0.003270  -0.000261  -0.000567   0.000020  -0.000342   0.000004
    18  H    0.000193   0.000107   0.001147  -0.000142   0.000290  -0.000102
    19  C    0.006855   0.001563  -0.000429   0.000020  -0.000103   0.000000
    20  H   -0.000084   0.002353   0.000144  -0.000035   0.000293   0.000000
    21  C    0.001270  -0.000001   0.000044  -0.000002   0.000110   0.000000
    22  H   -0.000349   0.000011   0.000024   0.000000   0.000016   0.000000
    23  H   -0.000340  -0.000039   0.000011   0.000000  -0.000002   0.000000
    24  H   -0.000012  -0.000001   0.000001   0.000000   0.000000   0.000000
    25  C    0.118595  -0.075443  -0.065501  -0.012344   0.011419  -0.001550
    26  C   -0.071651   0.004448   0.006622  -0.018386   0.000832  -0.000945
    27  C   -0.024338   0.006408  -0.000405   0.000899  -0.000277  -0.000112
    28  C    0.002553  -0.000225   0.000770  -0.001448   0.000016  -0.000041
    29  H    0.000842  -0.000025   0.001378   0.001649   0.000011   0.000115
    30  C    0.008227   0.001459  -0.000770   0.000353   0.000005   0.000004
    31  H   -0.002066   0.002813   0.000503   0.000129   0.000013   0.000004
    32  C    0.001710   0.000005  -0.000068   0.000134   0.000000   0.000004
    33  H   -0.000373   0.000012   0.000019   0.000004   0.000000  -0.000002
    34  H   -0.000410  -0.000034   0.000024  -0.000008   0.000000   0.000000
    35  H   -0.000026  -0.000002   0.000002  -0.000003   0.000000   0.000000
              7          8          9         10         11         12
     1  C   -0.011265   0.008303  -0.002909   0.000396  -0.000362  -0.000355
     2  H   -0.000277   0.000638  -0.000143   0.000033   0.000014   0.000005
     3  C   -0.034822  -0.056822  -0.045200  -0.020610   0.006480   0.006150
     4  C    0.393939  -0.030106   0.004478  -0.090020  -0.036834  -0.000438
     5  C    0.004961   0.463686   0.397535  -0.085083  -0.000406  -0.038353
     6  C   -0.036327  -0.073936  -0.000469   0.495760   0.395604   0.006003
     7  H    0.477248  -0.000434  -0.000196   0.005028  -0.003514   0.000017
     8  C   -0.000434   5.061844  -0.035169   0.480504   0.006014   0.397110
     9  H   -0.000196  -0.035169   0.490049   0.005229   0.000017  -0.003874
    10  C    0.005028   0.480504   0.005229   5.042683  -0.041244  -0.040850
    11  H   -0.003514   0.006014   0.000017  -0.041244   0.517814  -0.000213
    12  H    0.000017   0.397110  -0.003874  -0.040850  -0.000213   0.517598
    13  H   -0.000170  -0.043212  -0.000173   0.399492  -0.004466  -0.004408
    14  C    0.000426  -0.001603   0.004071   0.000128   0.000012   0.000015
    15  C    0.000062  -0.000271  -0.000584   0.000034   0.000000   0.000014
    16  C   -0.000017  -0.000048   0.001643  -0.000003   0.000000  -0.000004
    17  C    0.000000  -0.000008  -0.000248   0.000002   0.000000   0.000002
    18  H    0.000023   0.000061  -0.000063  -0.000041   0.000000   0.000005
    19  C    0.000000   0.000013   0.000115   0.000000   0.000000   0.000000
    20  H    0.000001  -0.000008   0.000203   0.000001   0.000000   0.000000
    21  C    0.000000   0.000002  -0.000089   0.000000   0.000000   0.000000
    22  H    0.000000   0.000001   0.000005   0.000000   0.000000   0.000000
    23  H    0.000000   0.000000   0.000006   0.000000   0.000000   0.000000
    24  H    0.000000   0.000000   0.000001   0.000000   0.000000   0.000000
    25  C    0.000966  -0.000879   0.000820   0.000120   0.000059   0.000012
    26  C   -0.001063  -0.000022  -0.000041  -0.000017   0.000027   0.000000
    27  C   -0.001076   0.000009  -0.000006  -0.000004   0.000004   0.000000
    28  C    0.000318   0.000000   0.000000   0.000000  -0.000001   0.000000
    29  H    0.000015  -0.000052   0.000021   0.000001   0.000001  -0.000001
    30  C   -0.000125   0.000000   0.000000   0.000000   0.000000   0.000000
    31  H    0.000085   0.000000  -0.000002   0.000000   0.000000   0.000000
    32  C    0.000096   0.000000   0.000000   0.000000  -0.000001   0.000000
    33  H    0.000039   0.000000   0.000000   0.000000   0.000000   0.000000
    34  H    0.000011   0.000000   0.000000   0.000000   0.000000   0.000000
    35  H    0.000009   0.000000   0.000000   0.000000   0.000000   0.000000
             13         14         15         16         17         18
     1  C   -0.000014   0.149561  -0.055697  -0.024710   0.003270   0.000193
     2  H   -0.000002  -0.070469   0.005476   0.001644  -0.000261   0.000107
     3  C   -0.001456  -0.095255  -0.007199  -0.001450  -0.000567   0.001147
     4  C    0.007665   0.001015   0.001642  -0.000444   0.000020  -0.000142
     5  C    0.007442  -0.006894  -0.008673   0.000603  -0.000342   0.000290
     6  C   -0.042139  -0.000807   0.000051   0.000007   0.000004  -0.000102
     7  H   -0.000170   0.000426   0.000062  -0.000017   0.000000   0.000023
     8  C   -0.043212  -0.001603  -0.000271  -0.000048  -0.000008   0.000061
     9  H   -0.000173   0.004071  -0.000584   0.001643  -0.000248  -0.000063
    10  C    0.399492   0.000128   0.000034  -0.000003   0.000002  -0.000041
    11  H   -0.004466   0.000012   0.000000   0.000000   0.000000   0.000000
    12  H   -0.004408   0.000015   0.000014  -0.000004   0.000002   0.000005
    13  H    0.519334   0.000002   0.000000   0.000000   0.000000   0.000001
    14  C    0.000002   5.391882   0.447485   0.492481  -0.058119  -0.044582
    15  C    0.000000   0.447485   5.068341  -0.072105   0.478888   0.388723
    16  C    0.000000   0.492481  -0.072105   5.091790  -0.030706   0.004095
    17  C    0.000000  -0.058119   0.478888  -0.030706   5.040470  -0.028505
    18  H    0.000001  -0.044582   0.388723   0.004095  -0.028505   0.497171
    19  C    0.000000  -0.073689  -0.026495   0.454226  -0.078604   0.000022
    20  H    0.000000  -0.050742   0.004333   0.400494  -0.000282  -0.000272
    21  C    0.000000  -0.018837  -0.091287  -0.086359   0.491207   0.004558
    22  H    0.000000   0.006024  -0.038912  -0.000476   0.397268  -0.003330
    23  H    0.000000   0.006931  -0.000686  -0.039687   0.006243   0.000015
    24  H    0.000000  -0.001549   0.007898   0.007492  -0.042926  -0.000173
    25  C    0.000001  -0.141630  -0.003430  -0.002116   0.001914  -0.002868
    26  C    0.000001  -0.003327  -0.011836   0.000519  -0.000402  -0.000951
    27  C    0.000000  -0.004494   0.000756   0.000633   0.000029  -0.000200
    28  C    0.000000   0.001988  -0.000103   0.000044  -0.000102   0.000882
    29  H    0.000000  -0.003736   0.001929  -0.000215   0.001138   0.001556
    30  C    0.000000  -0.000591   0.000055  -0.000013  -0.000001   0.000000
    31  H    0.000000   0.000157  -0.000026   0.000212   0.000001  -0.000002
    32  C    0.000000  -0.000060  -0.000005  -0.000013   0.000002  -0.000014
    33  H    0.000000   0.000028   0.000039   0.000002   0.000000  -0.000033
    34  H    0.000000   0.000020  -0.000001   0.000001   0.000000   0.000000
    35  H    0.000000  -0.000003   0.000001   0.000000   0.000000   0.000000
             19         20         21         22         23         24
     1  C    0.006855  -0.000084   0.001270  -0.000349  -0.000340  -0.000012
     2  H    0.001563   0.002353  -0.000001   0.000011  -0.000039  -0.000001
     3  C   -0.000429   0.000144   0.000044   0.000024   0.000011   0.000001
     4  C    0.000020  -0.000035  -0.000002   0.000000   0.000000   0.000000
     5  C   -0.000103   0.000293   0.000110   0.000016  -0.000002   0.000000
     6  C    0.000000   0.000000   0.000000   0.000000   0.000000   0.000000
     7  H    0.000000   0.000001   0.000000   0.000000   0.000000   0.000000
     8  C    0.000013  -0.000008   0.000002   0.000001   0.000000   0.000000
     9  H    0.000115   0.000203  -0.000089   0.000005   0.000006   0.000001
    10  C    0.000000   0.000001   0.000000   0.000000   0.000000   0.000000
    11  H    0.000000   0.000000   0.000000   0.000000   0.000000   0.000000
    12  H    0.000000   0.000000   0.000000   0.000000   0.000000   0.000000
    13  H    0.000000   0.000000   0.000000   0.000000   0.000000   0.000000
    14  C   -0.073689  -0.050742  -0.018837   0.006024   0.006931  -0.001549
    15  C   -0.026495   0.004333  -0.091287  -0.038912  -0.000686   0.007898
    16  C    0.454226   0.400494  -0.086359  -0.000476  -0.039687   0.007492
    17  C   -0.078604  -0.000282   0.491207   0.397268   0.006243  -0.042926
    18  H    0.000022  -0.000272   0.004558  -0.003330   0.000015  -0.000173
    19  C    5.059399  -0.034838   0.497752   0.005976   0.396937  -0.042571
    20  H   -0.034838   0.509735   0.005238   0.000025  -0.004206  -0.000184
    21  C    0.497752   0.005238   5.034116  -0.039856  -0.040682   0.399674
    22  H    0.005976   0.000025  -0.039856   0.514835  -0.000206  -0.004479
    23  H    0.396937  -0.004206  -0.040682  -0.000206   0.518129  -0.004587
    24  H   -0.042571  -0.000184   0.399674  -0.004479  -0.004587   0.517437
    25  C   -0.000516   0.000356  -0.000088   0.000028   0.000025  -0.000003
    26  C    0.000129  -0.000008  -0.000025   0.000057   0.000000   0.000000
    27  C   -0.000018   0.000275  -0.000009   0.000000   0.000001   0.000000
    28  C    0.000001  -0.000001   0.000001   0.000002   0.000000   0.000000
    29  H   -0.000058   0.000001   0.000004  -0.000058   0.000001   0.000000
    30  C    0.000002   0.000006   0.000000   0.000000   0.000000   0.000000
    31  H   -0.000002   0.000068  -0.000001   0.000000   0.000000   0.000000
    32  C    0.000000  -0.000002   0.000000   0.000000   0.000000   0.000000
    33  H    0.000000   0.000000   0.000000   0.000001   0.000000   0.000000
    34  H    0.000000   0.000000   0.000000   0.000000   0.000000   0.000000
    35  H    0.000000   0.000000   0.000000   0.000000   0.000000   0.000000
             25         26         27         28         29         30
     1  C    0.118595  -0.071651  -0.024338   0.002553   0.000842   0.008227
     2  H   -0.075443   0.004448   0.006408  -0.000225  -0.000025   0.001459
     3  C   -0.065501   0.006622  -0.000405   0.000770   0.001378  -0.000770
     4  C   -0.012344  -0.018386   0.000899  -0.001448   0.001649   0.000353
     5  C    0.011419   0.000832  -0.000277   0.000016   0.000011   0.000005
     6  C   -0.001550  -0.000945  -0.000112  -0.000041   0.000115   0.000004
     7  H    0.000966  -0.001063  -0.001076   0.000318   0.000015  -0.000125
     8  C   -0.000879  -0.000022   0.000009   0.000000  -0.000052   0.000000
     9  H    0.000820  -0.000041  -0.000006   0.000000   0.000021   0.000000
    10  C    0.000120  -0.000017  -0.000004   0.000000   0.000001   0.000000
    11  H    0.000059   0.000027   0.000004  -0.000001   0.000001   0.000000
    12  H    0.000012   0.000000   0.000000   0.000000  -0.000001   0.000000
    13  H    0.000001   0.000001   0.000000   0.000000   0.000000   0.000000
    14  C   -0.141630  -0.003327  -0.004494   0.001988  -0.003736  -0.000591
    15  C   -0.003430  -0.011836   0.000756  -0.000103   0.001929   0.000055
    16  C   -0.002116   0.000519   0.000633   0.000044  -0.000215  -0.000013
    17  C    0.001914  -0.000402   0.000029  -0.000102   0.001138  -0.000001
    18  H   -0.002868  -0.000951  -0.000200   0.000882   0.001556   0.000000
    19  C   -0.000516   0.000129  -0.000018   0.000001  -0.000058   0.000002
    20  H    0.000356  -0.000008   0.000275  -0.000001   0.000001   0.000006
    21  C   -0.000088  -0.000025  -0.000009   0.000001   0.000004   0.000000
    22  H    0.000028   0.000057   0.000000   0.000002  -0.000058   0.000000
    23  H    0.000025   0.000000   0.000001   0.000000   0.000001   0.000000
    24  H   -0.000003   0.000000   0.000000   0.000000   0.000000   0.000000
    25  C    5.393404   0.450853   0.498759  -0.063971  -0.047596  -0.076737
    26  C    0.450853   5.098574  -0.063352   0.480211   0.386381  -0.029538
    27  C    0.498759  -0.063352   5.048363  -0.033927   0.004586   0.468188
    28  C   -0.063971   0.480211  -0.033927   5.046335  -0.027065  -0.077374
    29  H   -0.047596   0.386381   0.004586  -0.027065   0.497084  -0.000125
    30  C   -0.076737  -0.029538   0.468188  -0.077374  -0.000125   5.047311
    31  H   -0.045679   0.004759   0.394542  -0.000285  -0.000270  -0.033761
    32  C   -0.016058  -0.093549  -0.088988   0.490211   0.004624   0.499806
    33  H    0.005969  -0.038569  -0.000376   0.397001  -0.003383   0.005896
    34  H    0.007017  -0.000633  -0.039453   0.006273   0.000016   0.396353
    35  H   -0.001681   0.007987   0.007568  -0.042974  -0.000170  -0.042541
             31         32         33         34         35
     1  C   -0.002066   0.001710  -0.000373  -0.000410  -0.000026
     2  H    0.002813   0.000005   0.000012  -0.000034  -0.000002
     3  C    0.000503  -0.000068   0.000019   0.000024   0.000002
     4  C    0.000129   0.000134   0.000004  -0.000008  -0.000003
     5  C    0.000013   0.000000   0.000000   0.000000   0.000000
     6  C    0.000004   0.000004  -0.000002   0.000000   0.000000
     7  H    0.000085   0.000096   0.000039   0.000011   0.000009
     8  C    0.000000   0.000000   0.000000   0.000000   0.000000
     9  H   -0.000002   0.000000   0.000000   0.000000   0.000000
    10  C    0.000000   0.000000   0.000000   0.000000   0.000000
    11  H    0.000000  -0.000001   0.000000   0.000000   0.000000
    12  H    0.000000   0.000000   0.000000   0.000000   0.000000
    13  H    0.000000   0.000000   0.000000   0.000000   0.000000
    14  C    0.000157  -0.000060   0.000028   0.000020  -0.000003
    15  C   -0.000026  -0.000005   0.000039  -0.000001   0.000001
    16  C    0.000212  -0.000013   0.000002   0.000001   0.000000
    17  C    0.000001   0.000002   0.000000   0.000000   0.000000
    18  H   -0.000002  -0.000014  -0.000033   0.000000   0.000000
    19  C   -0.000002   0.000000   0.000000   0.000000   0.000000
    20  H    0.000068  -0.000002   0.000000   0.000000   0.000000
    21  C   -0.000001   0.000000   0.000000   0.000000   0.000000
    22  H    0.000000   0.000000   0.000001   0.000000   0.000000
    23  H    0.000000   0.000000   0.000000   0.000000   0.000000
    24  H    0.000000   0.000000   0.000000   0.000000   0.000000
    25  C   -0.045679  -0.016058   0.005969   0.007017  -0.001681
    26  C    0.004759  -0.093549  -0.038569  -0.000633   0.007987
    27  C    0.394542  -0.088988  -0.000376  -0.039453   0.007568
    28  C   -0.000285   0.490211   0.397001   0.006273  -0.042974
    29  H   -0.000270   0.004624  -0.003383   0.000016  -0.000170
    30  C   -0.033761   0.499806   0.005896   0.396353  -0.042541
    31  H    0.506576   0.005063   0.000025  -0.004072  -0.000178
    32  C    0.005063   5.033654  -0.039781  -0.041036   0.399443
    33  H    0.000025  -0.039781   0.514392  -0.000206  -0.004367
    34  H   -0.004072  -0.041036  -0.000206   0.517977  -0.004553
    35  H   -0.000178   0.399443  -0.004367  -0.004553   0.516922
 Mulliken atomic charges:
              1
     1  C   -0.615503
     2  H    0.210626
     3  C    0.080069
     4  C   -0.160450
     5  C   -0.135034
     6  C   -0.183815
     7  H    0.206041
     8  C   -0.175611
     9  H    0.184972
    10  C   -0.151538
    11  H    0.160996
    12  H    0.161566
    13  H    0.162102
    14  C    0.074159
    15  C   -0.088416
    16  C   -0.197516
    17  C   -0.179385
    18  H    0.182429
    19  C   -0.165687
    20  H    0.167137
    21  C   -0.156741
    22  H    0.163393
    23  H    0.162136
    24  H    0.163982
    25  C    0.067772
    26  C   -0.107085
    27  C   -0.173985
    28  C   -0.179089
    29  H    0.181400
    30  C   -0.166091
    31  H    0.171393
    32  C   -0.155176
    33  H    0.163666
    34  H    0.162715
    35  H    0.164567
 Sum of Mulliken atomic charges =   0.00000
 Mulliken charges with hydrogens summed into heavy atoms:
              1
     1  C   -0.404877
     3  C    0.080069
     4  C    0.045591
     5  C    0.049938
     6  C   -0.022819
     8  C   -0.014044
    10  C    0.010564
    14  C    0.074159
    15  C    0.094013
    16  C   -0.030379
    17  C   -0.015991
    19  C   -0.003551
    21  C    0.007241
    25  C    0.067772
    26  C    0.074315
    27  C   -0.002592
    28  C   -0.015423
    30  C   -0.003376
    32  C    0.009391
 Sum of Mulliken charges with hydrogens summed into heavy atoms =   0.00000
 Electronic spatial extent (au):  <R**2>=           4931.4303
 Charge=              0.0000 electrons
 Dipole moment (field-independent basis, Debye):
    X=              0.1012    Y=             -0.1672    Z=             -0.0185  Tot=              0.1964
 Quadrupole moment (field-independent basis, Debye-Ang):
   XX=           -107.8535   YY=           -113.1098   ZZ=           -106.8040
   XY=              2.8435   XZ=              0.9001   YZ=              2.6825
 Traceless Quadrupole moment (field-independent basis, Debye-Ang):
   XX=              1.4022   YY=             -3.8540   ZZ=              2.4518
   XY=              2.8435   XZ=              0.9001   YZ=              2.6825
 Octapole moment (field-independent basis, Debye-Ang**2):
  XXX=             27.7748  YYY=              6.6016  ZZZ=              0.7664  XYY=            -36.9345
  XXY=              3.7835  XXZ=             -3.1007  XZZ=             10.4132  YZZ=            -18.2558
  YYZ=             12.0906  XYZ=              1.2169
 Hexadecapole moment (field-independent basis, Debye-Ang**3):
 XXXX=          -3046.0383 YYYY=          -2908.8258 ZZZZ=           -667.2046 XXXY=            -61.0415
 XXXZ=             16.1380 YYYX=             64.7849 YYYZ=             73.7128 ZZZX=             -6.5196
 ZZZY=             -2.5880 XXYY=          -1024.1050 XXZZ=           -629.3116 YYZZ=           -634.3747
 XXYZ=             -7.8749 YYXZ=            -12.5093 ZZXY=             34.0838
 N-N= 1.290678885833D+03 E-N=-4.277433903626D+03  KE= 7.286024714053D+02
 PrsmSu:  requested number of processors reduced to:  10 ShMem   1 Linda.
 Calling FoFJK, ICntrl=      2127 FMM=F ISym2X=0 I1Cent= 0 IOpClX= 0 NMat=1 NMatS=1 NMatT=0.
 ***** Axes restored to original set *****
 -------------------------------------------------------------------
 Center     Atomic                   Forces (Hartrees/Bohr)
 Number     Number              X              Y              Z
 -------------------------------------------------------------------
      1        6          -0.003213822   -0.022910532    0.001764567
      2        1           0.009134998    0.023609428   -0.001384307
      3        6          -0.013209783    0.005656689   -0.004200535
      4        6           0.007419373   -0.000379105   -0.009639039
      5        6          -0.000402895   -0.002775285    0.008186757
      6        6          -0.006141874    0.005595805   -0.009727367
      7        1          -0.015625764   -0.000414204    0.015584204
      8        6          -0.006751485   -0.001493431    0.010686808
      9        1          -0.005871149    0.007662399   -0.016031774
     10        6          -0.011871128    0.005827219   -0.003755051
     11        1           0.004314539   -0.006471300    0.014753423
     12        1           0.010760784    0.000115835   -0.012647554
     13        1           0.015272895   -0.006258824    0.002019876
     14        6           0.004062037   -0.005864581    0.012588997
     15        6          -0.002259393    0.009062234   -0.006664456
     16        6          -0.000914919   -0.005460285   -0.001394799
     17        6           0.001532041    0.012338674   -0.000716104
     18        1           0.002004801   -0.012711960    0.024741278
     19        6           0.004325426   -0.007224086    0.010883414
     20        1           0.002752671    0.017070461    0.002063722
     21        6           0.005857628    0.001840838    0.012447333
     22        1          -0.002949575   -0.016135815   -0.002484297
     23        1          -0.004071715    0.011359187   -0.011462124
     24        1          -0.007095889   -0.005079847   -0.014379581
     25        6           0.005936209   -0.008634558   -0.008923038
     26        6          -0.000751894    0.010976568    0.005630685
     27        6          -0.002668334   -0.005039935    0.001764823
     28        6           0.002801708    0.012100520   -0.001428290
     29        1           0.009290432   -0.019191078   -0.020597531
     30        6           0.005458982   -0.009527389   -0.008155684
     31        1           0.005598696    0.016364111   -0.004322456
     32        6           0.008497337   -0.001165918   -0.010645854
     33        1          -0.005686685   -0.015108663    0.004354804
     34        1          -0.004810727    0.013738155    0.008198282
     35        1          -0.010723525   -0.001471327    0.012890870
 -------------------------------------------------------------------
 Cartesian Forces:  Max     0.024741278 RMS     0.009554036

 GradGradGradGradGradGradGradGradGradGradGradGradGradGradGradGradGradGrad
 Berny optimization.
 Internal  Forces:  Max     0.028748985 RMS     0.007792467
 Search for a local minimum.
 Step number   1 out of a maximum of  197
 All quantities printed in internal units (Hartrees-Bohrs-Radians)
 Mixed Optimization -- RFO/linear search
 Second derivative matrix not updated -- first step.
     Eigenvalues ---    0.00635   0.00650   0.00657   0.01533   0.01538
     Eigenvalues ---    0.01540   0.02138   0.02141   0.02146   0.02170
     Eigenvalues ---    0.02172   0.02173   0.02181   0.02183   0.02186
     Eigenvalues ---    0.02200   0.02202   0.02203   0.02211   0.02211
     Eigenvalues ---    0.02212   0.02214   0.02215   0.02215   0.02216
     Eigenvalues ---    0.02217   0.02219   0.02219   0.02222   0.02226
     Eigenvalues ---    0.04559   0.06395   0.06632   0.15997   0.15998
     Eigenvalues ---    0.16000   0.16000   0.16000   0.16000   0.16000
     Eigenvalues ---    0.16000   0.16000   0.16000   0.16000   0.16000
     Eigenvalues ---    0.16000   0.16000   0.16000   0.18855   0.19345
     Eigenvalues ---    0.22000   0.22000   0.22000   0.22000   0.22000
     Eigenvalues ---    0.22000   0.23466   0.23477   0.23478   0.24969
     Eigenvalues ---    0.24999   0.25000   0.31253   0.31358   0.31476
     Eigenvalues ---    0.31529   0.33507   0.33602   0.33963   0.34056
     Eigenvalues ---    0.34075   0.34116   0.34253   0.34254   0.34256
     Eigenvalues ---    0.34262   0.34269   0.34276   0.34278   0.34289
     Eigenvalues ---    0.34291   0.42395   0.42453   0.42490   0.42551
     Eigenvalues ---    0.42586   0.42617   0.46328   0.46380   0.46441
     Eigenvalues ---    0.46722   0.46763   0.46818   0.47202   0.47210
     Eigenvalues ---    0.47216   0.47336   0.47361   0.474401000.00000
     Eigenvalues --- 1000.000001000.000001000.000001000.000001000.00000
     Eigenvalues --- 1000.000001000.000001000.000001000.000001000.00000
     Eigenvalues --- 1000.000001000.000001000.000001000.000001000.00000
     Eigenvalues --- 1000.000001000.000001000.000001000.000001000.00000
     Eigenvalues --- 1000.000001000.000001000.000001000.000001000.00000
     Eigenvalues --- 1000.000001000.000001000.000001000.000001000.00000
     Eigenvalues --- 1000.000001000.000001000.000001000.000001000.00000
     Eigenvalues --- 1000.000001000.000001000.000001000.000001000.00000
     Eigenvalues --- 1000.000001000.000001000.000001000.000001000.00000
     Eigenvalues --- 1000.000001000.000001000.000001000.000001000.00000
     Eigenvalues --- 1000.000001000.000001000.000001000.000001000.00000
     Eigenvalues --- 1000.000001000.000001000.000001000.000001000.00000
     Eigenvalues --- 1000.000001000.000001000.000001000.000001000.00000
     Eigenvalues --- 1000.000001000.000001000.000001000.000001000.00000
     Eigenvalues --- 1000.000001000.000001000.000001000.000001000.00000
     Eigenvalues --- 1000.000001000.000001000.000001000.000001000.00000
     Eigenvalues --- 1000.000001000.000001000.000001000.000001000.00000
     Eigenvalues --- 1000.000001000.00000
 RFO step:  Lambda=-4.19404175D-02 EMin= 6.34616830D-03
 Linear search not attempted -- first point.
 Maximum step size (   0.300) exceeded in Quadratic search.
    -- Step size scaled by   0.591
 Iteration  1 RMS(Cart)=  0.12576543 RMS(Int)=  0.00303754
 Iteration  2 RMS(Cart)=  0.00614203 RMS(Int)=  0.00028275
 Iteration  3 RMS(Cart)=  0.00001070 RMS(Int)=  0.00028269
 Iteration  4 RMS(Cart)=  0.00000000 RMS(Int)=  0.00028269
 Variable       Old X    -DE/DX   Delta X   Delta X   Delta X     New X
                                 (Linear)    (Quad)   (Total)
    R1        2.12232  -0.02495   0.00000  -0.04161  -0.04161   2.08071
    R2        2.85112   0.02345   0.00000   0.03886   0.03886   2.88999
    R3        2.85335   0.02290   0.00000   0.03807   0.03807   2.89142
    R4        2.85014   0.02372   0.00000   0.03925   0.03925   2.88939
    R5        2.63487  -0.00225   0.00000  -0.00248  -0.00248   2.63239
    R6        2.64396  -0.00203   0.00000  -0.00235  -0.00234   2.64162
    R7        2.62936  -0.00138   0.00000  -0.00151  -0.00151   2.62784
    R8        2.07392  -0.02199   0.00000  -0.03407  -0.03407   2.03985
    R9        2.62394  -0.00493   0.00000  -0.00570  -0.00570   2.61824
   R10        2.07236  -0.01868   0.00000  -0.02888  -0.02888   2.04349
   R11        2.62534  -0.00744   0.00000  -0.00857  -0.00858   2.61676
   R12        2.06901  -0.01668   0.00000  -0.02564  -0.02564   2.04337
   R13        2.62963  -0.00489   0.00000  -0.00577  -0.00577   2.62386
   R14        2.06879  -0.01661   0.00000  -0.02552  -0.02552   2.04327
   R15        2.06842  -0.01663   0.00000  -0.02554  -0.02554   2.04287
   R16        2.63859  -0.00005   0.00000   0.00004   0.00006   2.63865
   R17        2.63897  -0.00429   0.00000  -0.00498  -0.00497   2.63400
   R18        2.62533  -0.00454   0.00000  -0.00514  -0.00514   2.62019
   R19        2.08008  -0.02654   0.00000  -0.04152  -0.04152   2.03856
   R20        2.62775  -0.00224   0.00000  -0.00263  -0.00263   2.62512
   R21        2.07135  -0.01740   0.00000  -0.02685  -0.02685   2.04449
   R22        2.62833  -0.00515   0.00000  -0.00597  -0.00599   2.62234
   R23        2.06846  -0.01659   0.00000  -0.02548  -0.02548   2.04297
   R24        2.62747  -0.00876   0.00000  -0.01016  -0.01018   2.61729
   R25        2.06903  -0.01664   0.00000  -0.02559  -0.02559   2.04345
   R26        2.06864  -0.01682   0.00000  -0.02585  -0.02585   2.04279
   R27        2.63982   0.00068   0.00000   0.00094   0.00096   2.64078
   R28        2.63945  -0.00430   0.00000  -0.00499  -0.00497   2.63448
   R29        2.62564  -0.00447   0.00000  -0.00503  -0.00504   2.62060
   R30        2.08170  -0.02875   0.00000  -0.04508  -0.04508   2.03662
   R31        2.62799  -0.00250   0.00000  -0.00296  -0.00295   2.62503
   R32        2.07203  -0.01782   0.00000  -0.02752  -0.02752   2.04451
   R33        2.62869  -0.00564   0.00000  -0.00656  -0.00658   2.62212
   R34        2.06890  -0.01672   0.00000  -0.02570  -0.02570   2.04319
   R35        2.62739  -0.00925   0.00000  -0.01077  -0.01079   2.61660
   R36        2.06905  -0.01671   0.00000  -0.02568  -0.02568   2.04336
   R37        2.06867  -0.01683   0.00000  -0.02587  -0.02587   2.04280
    A1        1.82876   0.00376   0.00000  -0.00016   0.00008   1.82885
    A2        1.88369  -0.00864   0.00000  -0.04824  -0.04743   1.83627
    A3        1.87582  -0.01003   0.00000  -0.05143  -0.05051   1.82531
    A4        1.94547  -0.00336   0.00000   0.01179   0.00961   1.95509
    A5        1.99461   0.00093   0.00000   0.02185   0.01995   2.01456
    A6        1.92828   0.01542   0.00000   0.05459   0.05343   1.98170
    A7        2.13720   0.00743   0.00000   0.01497   0.01496   2.15216
    A8        2.06833   0.00047   0.00000   0.00086   0.00085   2.06918
    A9        2.07662  -0.00793   0.00000  -0.01608  -0.01607   2.06055
   A10        2.10143   0.00349   0.00000   0.00800   0.00800   2.10943
   A11        2.09274  -0.00008   0.00000   0.00086   0.00086   2.09359
   A12        2.08902  -0.00341   0.00000  -0.00886  -0.00886   2.08016
   A13        2.10348   0.00473   0.00000   0.01032   0.01033   2.11381
   A14        2.08434  -0.00128   0.00000  -0.00199  -0.00200   2.08235
   A15        2.09534  -0.00345   0.00000  -0.00833  -0.00834   2.08701
   A16        2.09931   0.00111   0.00000   0.00226   0.00225   2.10156
   A17        2.08878  -0.00049   0.00000  -0.00093  -0.00093   2.08786
   A18        2.09509  -0.00062   0.00000  -0.00133  -0.00132   2.09377
   A19        2.09665   0.00080   0.00000   0.00110   0.00109   2.09774
   A20        2.09184  -0.00040   0.00000  -0.00056  -0.00056   2.09128
   A21        2.09469  -0.00039   0.00000  -0.00053  -0.00053   2.09416
   A22        2.08886  -0.00219   0.00000  -0.00561  -0.00562   2.08324
   A23        2.09785   0.00106   0.00000   0.00269   0.00270   2.10055
   A24        2.09647   0.00113   0.00000   0.00291   0.00292   2.09939
   A25        2.11769   0.01857   0.00000   0.03765   0.03758   2.15527
   A26        2.08453  -0.00786   0.00000  -0.01587  -0.01593   2.06860
   A27        2.08097  -0.01071   0.00000  -0.02180  -0.02179   2.05918
   A28        2.10147   0.00418   0.00000   0.00939   0.00934   2.11081
   A29        2.07781   0.00374   0.00000   0.01251   0.01241   2.09022
   A30        2.10374  -0.00787   0.00000  -0.02148  -0.02159   2.08215
   A31        2.09878   0.00741   0.00000   0.01630   0.01631   2.11508
   A32        2.09505  -0.00436   0.00000  -0.01006  -0.01008   2.08497
   A33        2.08936  -0.00305   0.00000  -0.00624  -0.00625   2.08311
   A34        2.09607   0.00222   0.00000   0.00461   0.00460   2.10068
   A35        2.09198  -0.00105   0.00000  -0.00213  -0.00213   2.08985
   A36        2.09513  -0.00117   0.00000  -0.00247  -0.00248   2.09265
   A37        2.09781  -0.00029   0.00000  -0.00139  -0.00141   2.09640
   A38        2.09103   0.00036   0.00000   0.00133   0.00134   2.09238
   A39        2.09435  -0.00007   0.00000   0.00006   0.00007   2.09441
   A40        2.09126  -0.00281   0.00000  -0.00705  -0.00709   2.08417
   A41        2.09587   0.00144   0.00000   0.00363   0.00364   2.09951
   A42        2.09605   0.00137   0.00000   0.00343   0.00344   2.09949
   A43        2.12467   0.02294   0.00000   0.04649   0.04647   2.17114
   A44        2.07951  -0.01108   0.00000  -0.02239  -0.02242   2.05709
   A45        2.07898  -0.01186   0.00000  -0.02406  -0.02402   2.05496
   A46        2.10240   0.00451   0.00000   0.01018   0.01017   2.11257
   A47        2.07783   0.00440   0.00000   0.01445   0.01442   2.09225
   A48        2.10286  -0.00889   0.00000  -0.02445  -0.02449   2.07837
   A49        2.10011   0.00817   0.00000   0.01792   0.01795   2.11805
   A50        2.09455  -0.00471   0.00000  -0.01078  -0.01080   2.08375
   A51        2.08853  -0.00346   0.00000  -0.00714  -0.00716   2.08138
   A52        2.09627   0.00240   0.00000   0.00499   0.00497   2.10124
   A53        2.09147  -0.00111   0.00000  -0.00224  -0.00223   2.08924
   A54        2.09544  -0.00129   0.00000  -0.00275  -0.00274   2.09270
   A55        2.09791  -0.00023   0.00000  -0.00142  -0.00143   2.09647
   A56        2.09098   0.00029   0.00000   0.00124   0.00124   2.09222
   A57        2.09430  -0.00007   0.00000   0.00019   0.00019   2.09449
[...]
 3,-0.00012074,0.00032587,0.00032736,0.00056549,0.00020720,0.00008667,0
 .00047872,0.00002175,-0.00003690,-0.00016815,-0.00021822,-0.00035113,-
 0.00022537,0.00019470,-0.00026078,-0.00000240,-0.00002350,0.00000851,-
 0.00016587,-0.00023239,0.00025443,0.00000724,0.00001755,-0.00000212,-0
 .00002448,-0.00003629,-0.00001451,-0.00002010,-0.00000154,-0.00001130,
 0.00058146,-0.00032017,0.00005262,0.00008018,0.00017118,0.00005805,0.0
 0016033,-0.00004842,-0.00023718,-0.00009645,0.00002602,-0.00006057,-0.
 00002914,-0.00000042,0.00002234,0.00006631,0.00014788,0.00015431,-0.00
 003439,0.00000541,-0.00005121,0.00005567,-0.00012880,0.00002872,-0.000
 00553,-0.00001012,-0.00000494,-0.00000911,0.00000521,0.00000011,-0.000
 00122,0.00000067,-0.00000845,-0.00954767,-0.05886249,-0.04976437,0.041
 02168,0.02282564,-0.03360148,0.15176748,0.00296209,-0.27865522,-0.0342
 5330,0.00152105,0.05692635,0.00022633,0.00114561,-0.00013988,-0.166025
 32,0.21210016,0.65894515,-0.00164593,0.00171081,-0.00004495,0.00079084
 ,0.00088432,-0.00052241,0.00002710,0.00013934,0.00011541,-0.00005802,-
 0.00007390,0.00005326,-0.00008530,-0.00006043,-0.00002290,-0.00000811,
 0.00002990,-0.00005124,0.00004216,0.00001736,-0.00002582,-0.00000915,0
 .00000575,0.00002850,0.00000681,0.00000181,-0.00001495,0.00000930,0.00
 001548,-0.00000417,-0.00000841,0.00000018,-0.00000045,0.00000627,0.000
 00426,-0.00000270,0.00000853,-0.00000102,-0.00000203,0.00014570,0.0002
 5136,-0.00024017,0.00008087,0.00006318,0.00002321,0.00003647,-0.000171
 46,-0.00006253,-0.00004487,0.00004448,0.00002088,-0.00000759,0.0000099
 5,0.00000149,-0.00000851,0.00002617,0.00002395,-0.00002708,0.00002588,
 -0.00001661,0.00000192,-0.00001309,-0.00001888,-0.00000660,-0.00000220
 ,0.00000858,-0.00001086,-0.00000173,-0.00001021,-0.00000262,0.00000369
 ,-0.00000026,0.00111341,-0.00194799,0.00336529,0.00417407,-0.00286118,
 0.00164144,-0.21577378,-0.15563918,0.02834199,0.00002937,0.00097322,-0
 .00010315,-0.00017993,-0.00000956,0.00009150,-0.00925049,-0.01654619,-
 0.00122976,0.22075222,0.00152806,-0.00098655,0.00221557,0.00013280,0.0
 0023743,-0.00073950,0.00034375,0.00017927,-0.00041155,-0.00008899,-0.0
 0001380,0.00027525,0.00040421,0.00004042,0.00001812,0.00019398,-0.0000
 1881,0.00006592,-0.00014460,-0.00004483,-0.00008946,0.00003585,0.00010
 738,-0.00010613,-0.00001208,-0.00003258,-0.00002840,-0.00004792,-0.000
 06263,0.00004760,-0.00001056,-0.00000021,-0.00002416,-0.00000882,-0.00
 001657,0.00000644,-0.00001866,0.00000219,-0.00000950,-0.00021363,0.000
 38362,-0.00000989,0.00011722,0.00007710,0.00013732,0.00005720,0.000077
 46,0.00001691,0.00001207,0.00005349,0.00002435,-0.00002484,-0.00003307
 ,0.00001031,0.00002981,-0.00002737,0.00000438,-0.00003328,-0.00002888,
 0.00000442,0.00000136,0.00001138,0.00001422,0.00000239,0.00000563,0.00
 001682,0.00000343,-0.00000137,0.00001762,-0.00000202,-0.00000136,0.000
 00719,-0.02040314,-0.01157186,0.00592701,-0.00244414,0.00043524,-0.006
 25326,-0.15482673,-0.20349472,0.01298117,0.00106200,-0.00005765,-0.000
 26520,-0.00091857,-0.00080862,0.00028011,0.00239585,0.00536434,-0.0035
 3668,0.17274104,0.20749854,-0.00240869,0.00011622,0.00047671,0.0002416
 8,0.00064371,-0.00064704,0.00012853,-0.00013074,0.00031135,-0.00009111
 ,-0.00010159,-0.00001267,-0.00013853,-0.00002488,-0.00004342,-0.000089
 74,-0.00000122,-0.00005387,0.00005534,0.00008805,-0.00000086,0.0000698
 8,-0.00002547,0.00003385,0.00003190,0.00001275,-0.00004620,-0.00002646
 ,0.00004471,-0.00007045,-0.00001445,0.00002930,-0.00000708,-0.00001592
 ,0.00000702,0.00000649,-0.00000775,0.00001752,0.00000176,-0.00001293,0
 .00021605,-0.00010701,0.00009178,0.00005494,0.00007094,0.00003536,-0.0
 0006212,0.00001858,-0.00001913,0.00002119,0.00002644,-0.00001067,0.000
 00977,-0.00000468,-0.00000891,0.00002796,-0.00000438,-0.00003920,0.000
 01309,-0.00001600,0.00001215,0.00000757,0.00002090,-0.00000139,0.00001
 313,0.00001572,0.00000502,-0.00000428,0.00000625,0.00000233,0.00000705
 ,0.00000869,-0.01837874,-0.01873481,0.00673246,0.00179388,-0.00597842,
 -0.00163915,0.02826229,0.01361525,-0.06991415,-0.00005169,-0.00017801,
 -0.00112680,-0.00094602,-0.00080598,0.00023851,0.02310356,0.02201813,0
 .00269346,-0.03538472,-0.01058913,0.06608898,-0.00195115,-0.00016763,-
 0.00046399,-0.00000024,0.00072947,0.00000668,0.00020569,0.00030253,0.0
 0119326,-0.00020477,-0.00000085,0.00015660,0.00008275,0.00025489,-0.00
 001145,0.00027730,0.00005629,-0.00012231,-0.00001126,0.00005311,-0.000
 18693,-0.00012945,0.00004819,-0.00015528,0.00002692,0.00000658,0.00001
 000,-0.00013389,-0.00010278,0.00013662,-0.00001780,0.00003606,0.000001
 01,-0.00003835,-0.00001453,-0.00002099,0.00000062,0.00000747,-0.000011
 31,0.00000473,-0.00036306,0.00015340,0.00013037,0.00007862,0.00019196,
 -0.00000152,0.00006929,-0.00021495,-0.00012398,-0.00000291,-0.00014185
 ,-0.00001717,0.00000779,0.00000997,0.00008492,0.00017735,0.00011930,-0
 .00006852,-0.00003337,-0.00002303,0.00010805,-0.00013832,0.00005594,-0
 .00000444,0.00000540,0.00001620,0.00000451,-0.00000187,0.00003354,-0.0
 0000148,0.00000039,0.00000837,-0.02870553,-0.04155790,-0.02169068,0.04
 898291,0.03498229,-0.00909989,-0.03393743,0.00124815,0.06173254,-0.134
 33737,-0.02638012,0.03368413,0.00113201,-0.00316963,0.00606791,-0.2335
 4602,-0.14984558,0.01406026,0.00251863,-0.00251772,0.00565775,0.542582
 65,-0.00183531,-0.00074980,0.00066341,-0.00007627,0.00101182,-0.000016
 70,0.00007842,0.00063451,0.00092825,-0.00021370,0.00021115,0.00026299,
 0.00046003,0.00018700,0.00010172,0.00047236,0.00000393,-0.00012009,-0.
 00007732,0.00004989,-0.00027188,-0.00020853,0.00018422,-0.00027799,0.0
 0000151,0.00000427,0.00000305,-0.00018794,-0.00021030,0.00025199,-0.00
 000283,0.00004014,0.00001075,-0.00001478,-0.00003312,-0.00002949,0.000
 00259,0.00000097,-0.00000656,0.00017661,-0.00047020,0.00032931,0.00020
 069,0.00031684,0.00029429,0.00007537,-0.00002160,-0.00044579,-0.000248
 35,0.00003293,-0.00026380,-0.00001089,0.00001270,0.00001866,0.00016317
 ,0.00029644,0.00028865,-0.00004857,-0.00007487,0.00003389,0.00014665,-
 0.00033154,0.00004225,-0.00000623,-0.00001148,0.00000051,-0.00000681,0
 .00001543,-0.00001082,-0.00000363,-0.00000965,-0.00001168,-0.03999727,
 -0.07549989,-0.02998099,0.06824407,0.03727540,-0.05781307,-0.03135755,
 0.04045613,0.08243011,-0.07009197,-0.23552441,-0.09618124,-0.00342193,
 0.00439709,-0.00134772,-0.10637492,-0.22777960,-0.03633933,-0.00208413
 ,0.00426968,-0.00323218,0.21263400,0.53681912,-0.00078974,0.00017433,0
 .00049832,0.00011215,0.00026461,-0.00035125,-0.00029220,0.00026993,0.0
 0002623,0.00018495,0.00009910,0.00001369,0.00026243,-0.00011831,0.0001
 3711,0.00015961,0.00001133,-0.00007073,0.00007212,0.00011310,-0.000293
 72,-0.00004659,0.00008896,-0.00008570,-0.00002443,0.00000139,0.0000030
 1,0.00002027,-0.00009174,0.00009322,0.00005116,-0.00004004,0.00001866,
 0.00002631,-0.00002008,-0.00000801,0.00001854,-0.00000196,0.00000189,0
 .00033641,-0.00011061,0.00015051,0.00004463,0.00019773,0.00003113,-0.0
 0001315,-0.00007550,-0.00024097,-0.00011252,0.00003979,-0.00010924,-0.
 00000846,0.00002348,0.00001179,0.00005207,0.00012272,0.00016035,0.0000
 0685,-0.00002441,0.00001963,0.00003379,-0.00019722,-0.00002771,-0.0000
 0286,-0.00002301,-0.00001971,-0.00000837,0.00001567,-0.00003140,-0.000
 00371,-0.00000483,-0.00002118,-0.02134440,-0.02884353,-0.01509431,0.03
 299153,-0.01212410,-0.05009207,0.01972796,0.03605583,0.02973770,-0.020
 13178,-0.15324231,-0.24736383,0.00601431,-0.00171455,-0.00130200,0.067
 39872,0.02123528,-0.14690660,0.00600785,-0.00268226,-0.00241942,-0.225
 29717,0.16554952,0.67941571,-0.00042667,-0.00064494,-0.00026097,-0.000
 22841,0.00001446,0.00023935,0.00010934,-0.00013463,0.00017853,-0.00010
 423,0.00004814,0.00004119,-0.00010392,0.00007283,-0.00005279,0.0000131
 0,-0.00000836,0.00001833,0.00002102,-0.00007341,0.00001022,-0.00000680
 ,-0.00000262,0.00000299,0.00001621,0.00000508,-0.00001832,-0.00002698,
 0.00000989,-0.00000462,-0.00002606,0.00001585,-0.00001758,-0.00001665,
 0.00000333,0.00000137,-0.00001235,0.00000155,-0.00000406,-0.00009890,-
 0.00006370,-0.00023253,0.00006844,0.00002829,0.00007764,0.00003648,0.0
 0000192,0.00000952,-0.00000456,0.00000826,-0.00002525,-0.00001968,-0.0
 0000993,-0.00000318,-0.00000489,0.00002286,0.00000261,-0.00001345,0.00
 002282,-0.00001439,0.00003268,0.00000500,0.00002788,-0.00000718,0.0000
 1769,0.00002252,0.00000559,-0.00000339,0.00000924,0.00000194,0.0000031
 9,0.00001475,0.00252281,-0.00191668,0.00573558,-0.00922124,-0.01658555
 ,-0.00112792,0.00006419,0.00103947,-0.00007447,-0.21795241,-0.15738672
 ,0.02838583,-0.00129372,0.00274583,-0.00148803,0.00463989,-0.00309687,
 0.00185400,-0.00057494,0.00039791,-0.00040092,0.00216228,-0.00062230,0
 .00378452,0.22199507,0.00022458,-0.00007693,-0.00028913,-0.00000103,-0
 .00002428,-0.00001420,-0.00000009,0.00003012,0.00009622,0.00000152,0.0
 0002543,-0.00003720,-0.00000919,0.00003171,-0.00000447,0.00000670,-0.0
 0001632,0.00001939,0.00000041,-0.00002270,0.00001292,-0.00001389,0.000
 00048,-0.00000937,0.00000554,-0.00000442,0.00000374,-0.00001261,-0.000
 00441,0.00000928,0.00000024,0.00000167,-0.00000630,-0.00001127,-0.0000
 0379,0.00000216,-0.00001049,0.00000245,0.00000044,-0.00008821,0.000007
 77,0.00002589,-0.00000452,-0.00004752,-0.00000023,0.00000426,0.0000248
 2,0.00005520,0.00002699,-0.00000802,0.00001666,0.00000729,-0.00000956,
 -0.00000688,-0.00000067,-0.00000938,-0.00003896,-0.00001758,-0.0000053
 4,-0.00001167,0.00000585,0.00004277,0.00001266,-0.00000023,0.00000564,
 0.00000527,0.00000425,-0.00001231,0.00002255,-0.00000033,0.00000388,0.
 00001373,-0.00236671,0.00407421,-0.00254284,0.00257664,0.00545839,-0.0
 0349706,0.00103267,0.00000958,-0.00017805,-0.15723919,-0.20545194,0.01
 323939,0.00211852,-0.00105845,0.00211630,-0.00282004,0.00079854,-0.006
 40189,0.00040846,-0.00049582,0.00042049,-0.01986183,-0.01058927,0.0061
 0542,0.17411581,0.20915047,0.00056591,0.00104157,0.00035462,0.00020824
 ,0.00007728,-0.00023219,-0.00002022,0.00004456,-0.00018122,0.00001205,
 -0.00003709,0.00002438,0.00006685,-0.00004781,0.00000428,-0.00000066,0
 .00000164,0.00000202,0.00000522,0.00000978,0.00000279,0.00001870,0.000
 00604,0.00000741,-0.00001157,-0.00000568,0.00000296,0.00001666,-0.0000
 0031,-0.00000423,0.00000243,-0.00000338,0.00000586,0.00001292,0.000001
 66,-0.00000043,0.00000621,-0.00000343,0.00000018,0.00003659,0.00004083
 ,0.00019037,-0.00002894,-0.00001215,0.00001149,-0.00003419,-0.00002089
 ,-0.00004877,-0.00003077,-0.00001557,-0.00001508,0.00001603,0.00001155
 ,0.00000169,-0.00001147,0.00000758,0.00002323,0.00002196,0.00000304,0.
 00000311,-0.00003107,-0.00004332,-0.00003446,0.00000854,-0.00000640,-0
 .00001699,-0.00000143,0.00000900,-0.00002148,0.00000512,-0.00000053,-0
 .00001476,0.00577093,-0.00297505,-0.00260302,0.02253364,0.02180299,0.0
 0276512,-0.00007319,-0.00031223,-0.00130056,0.02834534,0.01304062,-0.0
 7032496,-0.00232679,0.00145650,-0.00008706,0.00212298,-0.00603802,-0.0
 0136458,-0.00038791,0.00042304,-0.00021584,-0.02004084,-0.01916410,0.0
 0825749,-0.03440602,-0.01075640,0.06489809,0.00029316,0.00072009,0.000
 52694,0.00007191,-0.00002090,-0.00006664,0.00005002,-0.00002232,0.0000
 7490,-0.00003487,-0.00000258,-0.00001516,-0.00003920,0.00001597,-0.000
 00196,-0.00001586,-0.00000716,-0.00001226,0.00000911,0.00001458,0.0000
 2461,-0.00000174,-0.00001338,-0.00000433,0.00000716,0.00000994,0.00000
 086,-0.00002173,0.00000820,-0.00001476,-0.00000695,0.00001525,0.000000
 63,-0.00000329,0.00000459,0.00000175,-0.00000073,0.00000525,0.00000392
 ,-0.00029209,0.00004088,0.00015096,0.00002417,0.00000298,0.00001219,0.
 00003237,-0.00001617,0.00004834,0.00004135,0.00000927,0.00001796,-0.00
 001717,-0.00000051,0.00000756,-0.00000264,-0.00001575,-0.00004097,-0.0
 0000163,-0.00000250,-0.00000010,-0.00001010,0.00004405,0.00001659,0.00
 000195,0.00000653,0.00000620,-0.00000044,-0.00000289,0.00000145,-0.000
 00148,0.00000012,0.00000325,0.00125015,-0.00348082,0.00586612,-0.00107
 965,0.00005555,0.00028987,0.00816412,0.01644157,0.01679992,-0.00009191
 ,-0.00645928,0.00367072,-0.00044526,0.00053559,-0.00040393,-0.06815505
 ,-0.03730332,-0.02001462,-0.00135168,0.00215724,-0.00240803,0.00276159
 ,-0.01923241,-0.02010544,-0.00017437,-0.00084010,-0.00093062,0.0602772
 6,-0.00006954,-0.00003146,0.00018999,0.00001062,-0.00003141,-0.0000076
 4,-0.00000484,0.00001325,-0.00015154,0.00003756,-0.00002136,0.00002882
 ,0.00001963,-0.00005380,0.00001457,-0.00000464,0.00003626,-0.00000570,
 -0.00003472,0.00000340,-0.00003617,0.00001460,0.00000087,0.00001582,-0
 .00000988,-0.00000503,0.00000206,0.00003684,0.00000348,-0.00000062,0.0
 0000842,-0.00002675,0.00000221,0.00001125,-0.00000082,-0.00000226,0.00
 001132,-0.00000731,-0.00000460,0.00012381,-0.00006141,-0.00002338,-0.0
 0000098,0.00003506,-0.00001876,-0.00000444,0.00001179,-0.00004842,-0.0
 0002169,0.00001040,-0.00002239,-0.00000393,0.00000037,0.00000516,0.000
 02311,0.00001459,0.00003937,-0.00000273,-0.00001446,0.00001469,0.00001
 551,-0.00003662,-0.00000362,-0.00000451,-0.00001039,-0.00000244,-0.000
 00540,0.00000396,-0.00000214,-0.00000468,-0.00000483,-0.00000577,-0.00
 317662,0.00440345,-0.00161716,0.00009996,0.00003777,0.00108084,-0.0029
 3476,0.00456775,0.00250801,-0.00671348,0.00083340,-0.00070921,0.000490
 63,-0.00050084,0.00028077,-0.03718619,-0.21406477,-0.15394495,0.002748
 15,-0.00103103,0.00145014,-0.00000136,-0.01062705,-0.01976970,-0.00005
 002,-0.00080443,-0.00085249,0.04461584,0.21826677,-0.00065262,-0.00098
 634,-0.00056573,0.00001144,0.00006810,-0.00001371,-0.00015266,0.000086
 55,-0.00011265,0.00003335,-0.00003095,0.00004311,0.00009807,-0.0000227
 8,0.00004906,0.00000579,0.00000736,-0.00001183,-0.00001347,0.00003335,
 -0.00002714,0.00001663,0.00001615,-0.00000284,-0.00001593,-0.00000589,
 -0.00000809,0.00002599,-0.00000166,0.00000679,0.00000625,-0.00001446,0
 .00000550,0.00001996,-0.00000571,-0.00001102,0.00001435,-0.00000677,-0
 .00000119,0.00035856,0.00013500,-0.00008127,-0.00007319,-0.00000986,-0
 .00009653,-0.00000979,-0.00007420,-0.00004536,-0.00001064,0.00000205,0
 .00003073,0.00000365,0.00000601,0.00000324,-0.00000242,-0.00002640,0.0
 0000831,0.00001427,0.00000284,0.00001228,-0.00002184,0.00000241,-0.000
 03275,-0.00000180,-0.00001514,-0.00001243,-0.00001743,0.00000288,-0.00
 001865,-0.00000462,-0.00000417,-0.00001336,0.00639844,-0.00144085,-0.0
 0106331,0.00041486,0.00107003,-0.00015959,-0.00689074,-0.02300689,-0.0
 1352178,0.00330259,-0.00105518,0.00298370,-0.00045224,0.00028279,-0.00
 031644,-0.01991310,-0.15375115,-0.21177461,-0.00159258,0.00228962,-0.0
 0025830,0.00344902,0.00558490,0.00778119,0.00005961,0.00024192,0.00013
 297,0.01789443,0.16940532,0.21734837,-0.00047767,0.00045096,-0.0002565
 0,0.00007498,0.00012152,-0.00005041,-0.00001027,-0.00004706,0.00015059
 ,-0.00004273,0.00001855,-0.00000241,-0.00004256,0.00004212,-0.00002940
 ,0.00001709,-0.00002565,0.00001530,0.00002385,-0.00003197,0.00002316,-
 0.00001075,0.00000100,-0.00000718,0.00000808,0.00000165,-0.00000702,-0
 .00002140,-0.00000243,0.00000272,-0.00001156,0.00001799,-0.00000669,-0
 .00001121,0.00000071,0.00000219,-0.00001112,0.00000414,0.00000114,-0.0
 0005868,0.00001570,-0.00000239,0.00001753,-0.00001677,0.00002084,-0.00
 001014,-0.00000919,0.00003498,0.00000599,-0.00000496,-0.00000220,-0.00
 000060,0.00000090,-0.00000509,-0.00001675,0.00000487,-0.00001227,-0.00
 000072,0.00001397,-0.00001053,0.00000470,0.00001008,0.00001027,-0.0000
 0136,0.00000850,0.00000670,0.00000650,-0.00000149,0.00000089,0.0000038
 8,0.00000375,0.00000582,-0.00027678,-0.00018683,-0.00108890,0.00419449
 ,-0.00401682,0.00134067,0.00085824,-0.00684125,0.00195879,0.00765457,-
 0.00258550,-0.00645493,0.00010327,-0.00002725,-0.00028195,-0.00873059,
 0.00362804,0.02268196,-0.00068982,0.00009953,0.00096357,-0.16783553,-0
 .00653184,0.15087462,-0.00137163,0.00275825,-0.00144065,-0.00123650,0.
 00196718,-0.00230217,0.16789520,0.00048741,-0.00032937,0.00032003,-0.0
 0003256,-0.00004218,-0.00005898,0.00006837,0.00005117,-0.00007349,0.00
 001247,0.00000632,0.00002240,0.00004058,-0.00001032,0.00001654,0.00000
 389,0.00000971,-0.00000575,-0.00002393,0.00000193,-0.00002792,0.000008
 07,0.00000879,-0.00000436,-0.00000139,-0.00000501,-0.00000323,0.000003
 99,-0.00000555,0.00000153,0.00000553,-0.00000530,0.00000096,0.00000143
 ,-0.00000270,0.00000070,0.00000057,-0.00000005,-0.00000135,-0.00001618
 ,0.00001066,-0.00003313,0.00002560,0.00004942,-0.00000055,0.00005139,-
 0.00000039,0.00000308,0.00001204,0.00001823,0.00002062,-0.00001097,-0.
 00000635,0.00000619,0.00000971,-0.00000650,0.00000043,-0.00001231,-0.0
 0000454,-0.00000115,-0.00000891,0.00000546,0.00000324,0.00000178,-0.00
 000309,-0.00000112,-0.00000180,0.00000055,0.00000338,-0.00000204,-0.00
 000055,-0.00000226,-0.00024632,-0.00125554,-0.00002249,-0.00431177,-0.
 00016358,-0.00570341,-0.00654477,-0.00024364,-0.00228149,0.01675601,0.
 00547326,-0.02184733,0.00075965,0.00000539,-0.00089395,-0.01569955,0.0
 0607004,0.02198995,-0.00069273,-0.00001546,0.00103480,-0.00653840,-0.0
 6428689,-0.01128404,0.00201894,-0.00102304,0.00231720,0.00271659,-0.00
 090878,0.00122111,0.01115960,0.05660789,-0.00043580,0.00033805,-0.0001
 5288,0.00008949,0.00008740,-0.00002684,-0.00009387,0.00000233,0.000007
 25,0.00001088,-0.00004012,0.00003281,0.00000415,-0.00001898,0.00001191
 ,-0.00000644,0.00002329,-0.00002497,-0.00001443,0.00002917,-0.00002671
 ,0.00000606,-0.00000790,0.00000850,-0.00000680,0.00000223,0.00000165,0
 .00001559,0.00000290,-0.00000536,0.00000293,-0.00000685,0.00000791,0.0
 0001143,0.00000198,-0.00000577,0.00001402,-0.00000322,-0.00000003,0.00
 008248,0.00002273,0.00003868,-0.00001522,0.00002447,-0.00006899,0.0000
 1355,-0.00003564,-0.00001031,0.00001558,0.00002380,0.00002044,-0.00001
 995,0.00000762,0.00001254,0.00000997,-0.00001896,0.00001090,0.00000877
 ,-0.00000446,0.00001774,-0.00001372,0.00000226,-0.00000666,-0.00000197
 ,-0.00001316,-0.00000528,-0.00001039,0.00000817,-0.00001627,-0.0000058
 5,-0.00000577,-0.00001452,-0.00098424,-0.00009442,0.00019148,0.0008792
 5,-0.00614981,0.00021051,0.00235713,-0.00182943,0.00330992,0.01745700,
 0.00344228,-0.01360084,0.00069778,0.00011293,-0.00086867,-0.00094014,-
 0.00343379,0.00207102,0.00001504,-0.00003826,-0.00016376,0.15073621,-0
 .01128085,-0.26191977,-0.00234460,0.00137500,-0.00022242,-0.00140033,0
 .00219119,-0.00025667,-0.16613353,0.01528384,0.27144348||0.00000411,0.
 00000525,0.00001599,0.00000026,0.00000337,-0.00000302,-0.00001791,-0.0
 0002987,0.00002178,-0.00003690,0.00004141,-0.00002442,0.00005741,0.000
 00383,-0.00000888,0.00005697,0.00000122,-0.00000725,-0.00000092,-0.000
 00379,0.00000108,-0.00003440,0.00003643,-0.00002634,-0.00000350,-0.000
 00313,0.00000304,-0.00002417,-0.00003992,0.00003573,-0.00000508,-0.000
 00052,0.00000023,0.00000422,-0.00000405,0.00000338,0.00000253,0.000004
 65,-0.00000397,-0.00000347,-0.00000585,-0.00000201,-0.00000140,-0.0000
 0158,-0.00000360,0.00000515,-0.00000197,0.00000118,0.00000326,0.000001
 66,0.00000293,0.00000037,0.00000039,-0.00000263,-0.00000209,-0.0000059
 2,-0.00000266,0.00000023,0.00000038,-0.00000119,-0.00000311,0.00000589
 ,-0.00000072,-0.00000058,0.00000006,0.00000075,0.00000009,0.00000065,-
 0.00000015,-0.00000013,0.00000028,-0.00000045,-0.00002269,-0.00003943,
 -0.00002704,0.00003491,0.00001549,-0.00001737,-0.00000753,0.00001503,0
 .00004390,-0.00001467,0.00001993,0.00003695,-0.00000195,0.00000053,0.0
 0000795,0.00002855,0.00001785,-0.00002578,0.00000105,-0.00000183,-0.00
 000306,-0.00001901,-0.00003604,-0.00001425,0.00000078,-0.00000159,-0.0
 0000288,-0.00000191,-0.00000124,0.00000202,0.00000152,0.00000242,0.000
 00074|||@


 SEEN ON A WALL AT THE UNIVERSITY OF ILLINOIS AT CHICAGO CIRCLE:

 TO DO IS TO BE  -- SOCRATES
 TO BE IS TO DO  -- SARTRE
 OO BE DO BE DO  -- SINATRA
 Job cpu time:  0 days  0 hours  6 minutes 28.0 seconds.
 File lengths (MBytes):  RWF=    350 Int=      0 D2E=      0 Chk=      7 Scr=      1
 Normal termination of Gaussian 09 at Tue Sep 07 04:15:44 2021.
