 Entering Link 1 = b:\programy\g09w\l1.exe PID=     15008.
  
 Copyright (c) 1988,1990,1992,1993,1995,1998,2003,2009, Gaussian, Inc.
                  All Rights Reserved.
  
 This is part of the Gaussian(R) 09 program.  It is based on
 the Gaussian(R) 03 system (copyright 2003, Gaussian, Inc.),
 the Gaussian(R) 98 system (copyright 1998, Gaussian, Inc.),
 the Gaussian(R) 94 system (copyright 1995, Gaussian, Inc.),
 the Gaussian 92(TM) system (copyright 1992, Gaussian, Inc.),
 the Gaussian 90(TM) system (copyright 1990, Gaussian, Inc.),
 the Gaussian 88(TM) system (copyright 1988, Gaussian, Inc.),
 the Gaussian 86(TM) system (copyright 1986, Carnegie Mellon
 University), and the Gaussian 82(TM) system (copyright 1983,
 Carnegie Mellon University). Gaussian is a federally registered
 trademark of Gaussian, Inc.
  
 This software contains proprietary and confidential information,
 including trade secrets, belonging to Gaussian, Inc.
  
 This software is provided under written license and may be
 used, copied, transmitted, or stored only in accord with that
 written license.
  
 The following legend is applicable only to US Government
 contracts under FAR:
  
                    RESTRICTED RIGHTS LEGEND
  
 Use, reproduction and disclosure by the US Government is
 subject to restrictions as set forth in subparagraphs (a)
 and (c) of the Commercial Computer Software - Restricted
 Rights clause in FAR 52.227-19.
  
 Gaussian, Inc.
 340 Quinnipiac St., Bldg. 40, Wallingford CT 06492
  
  
 ---------------------------------------------------------------
 Warning -- This program may not be used in any manner that
 competes with the business of Gaussian, Inc. or will provide
 assistance to any competitor of Gaussian, Inc.  The licensee
 of this program is prohibited from giving any competitor of
 Gaussian, Inc. access to this program.  By using this program,
 the user acknowledges that Gaussian, Inc. is engaged in the
 business of creating and licensing software in the field of
 computational chemistry and represents and warrants to the
 licensee that it is not a competitor of Gaussian, Inc. and that
 it will not use this program in any manner prohibited above.
 ---------------------------------------------------------------
  

 Cite this work as:
 Gaussian 09, Revision A.02,
 M. J. Frisch, G. W. Trucks, H. B. Schlegel, G. E. Scuseria, 
 M. A. Robb, J. R. Cheeseman, G. Scalmani, V. Barone, B. Mennucci, 
 G. A. Petersson, H. Nakatsuji, M. Caricato, X. Li, H. P. Hratchian, 
 A. F. Izmaylov, J. Bloino, G. Zheng, J. L. Sonnenberg, M. Hada, 
 M. Ehara, K. Toyota, R. Fukuda, J. Hasegawa, M. Ishida, T. Nakajima, 
 Y. Honda, O. Kitao, H. Nakai, T. Vreven, J. A. Montgomery, Jr., 
 J. E. Peralta, F. Ogliaro, M. Bearpark, J. J. Heyd, E. Brothers, 
 K. N. Kudin, V. N. Staroverov, R. Kobayashi, J. Normand, 
 K. Raghavachari, A. Rendell, J. C. Burant, S. S. Iyengar, J. Tomasi, 
 M. Cossi, N. Rega, J. M. Millam, M. Klene, J. E. Knox, J. B. Cross, 
 V. Bakken, C. Adamo, J. Jaramillo, R. Gomperts, R. E. Stratmann, 
 O. Yazyev, A. J. Austin, R. Cammi, C. Pomelli, J. W. Ochterski, 
 R. L. Martin, K. Morokuma, V. G. Zakrzewski, G. A. Voth, 
 P. Salvador, J. J. Dannenberg, S. Dapprich, A. D. Daniels, 
 O. Farkas, J. B. Foresman, J. V. Ortiz, J. Cioslowski, 
 and D. J. Fox, Gaussian, Inc., Wallingford CT, 2009.
 
 ******************************************
 Gaussian 09:  IA32W-G09RevA.02 11-Jun-2009
                06-Sep-2021 
 ******************************************
 %nprocshared=12
 Will use up to   12 processors via shared memory.
 ----------------------------------------------
 # opt freq=noraman hf/6-311g geom=connectivity
 ----------------------------------------------
 1/18=20,19=15,38=1,57=2/1,3;
 2/9=110,12=2,17=6,18=5,40=1/2;
 3/5=4,6=6,11=9,16=1,25=1,30=1,71=1/1,2,3;
 4//1;
 5/5=2,38=5/2;
 6/7=2,8=2,9=2,10=2,28=1/1;
 7//1,2,3,16;
 1/18=20,19=15/3(2);
 2/9=110/2;
 99//99;
 2/9=110/2;
 3/5=4,6=6,11=9,16=1,25=1,30=1,71=1/1,2,3;
 4/5=5,16=3/1;
 5/5=2,38=5/2;
 7//1,2,3,16;
 1/18=20,19=15/3(-5);
 2/9=110/2;
 6/7=2,8=2,9=2,10=2,19=2,28=1/1;
 99/9=1/99;
 -----
 M0001
 -----
 Symbolic Z-matrix:
 Charge =  0 Multiplicity = 1
 C                     0.01307  -0.00897   0.76859 
 H                     0.09606  -0.03025   1.88929 
 C                    -1.45228  -0.17047   0.44882 
 C                    -2.29564  -0.68355   1.43913 
 C                    -1.99589   0.16734  -0.79165 
 C                    -3.65273  -0.85249   1.19167 
 H                    -1.88661  -0.95683   2.41912 
 C                    -3.35415   0.00045  -1.03662 
 H                    -1.34094   0.57676  -1.57765 
 C                    -4.18558  -0.51006  -0.04643 
 H                    -4.3031   -1.25556   1.9748 
 H                    -3.76786   0.27342  -2.01283 
 H                    -5.25493  -0.6413   -0.23987 
 C                     0.5788    1.31247   0.30883 
 C                     0.75832   1.60659  -1.04395 
 C                     0.95258   2.25994   1.26483 
 C                     1.31044   2.82022  -1.43528 
 H                     0.43566   0.87079  -1.79628 
 C                     1.50129   3.47537   0.87183 
 H                     0.81459   2.04657   2.33142 
 C                     1.68478   3.7565   -0.47769 
 H                     1.44926   3.03777  -2.49916 
 H                     1.7906    4.21202   1.62837 
 H                     2.12085   4.71227  -0.78516 
 C                     0.85995  -1.14866   0.25482 
 C                     0.56691  -1.83128  -0.92531 
 C                     1.9866   -1.52359   0.994 
 C                     1.38355  -2.87036  -1.35919 
 H                    -0.31826  -1.55448  -1.51205 
 C                     2.80208  -2.56011   0.55761 
 H                     2.23225  -0.99487   1.92247 
 C                     2.50218  -3.23653  -0.62047 
 H                     1.14136  -3.40051  -2.28603 
 H                     3.68241  -2.84457   1.14312 
 H                     3.14437  -4.05403  -0.9631 
 

 GradGradGradGradGradGradGradGradGradGradGradGradGradGradGradGradGradGrad
 Berny optimization.
 Initialization pass.
                           ----------------------------
                           !    Initial Parameters    !
                           ! (Angstroms and Degrees)  !
 --------------------------                            --------------------------
 ! Name  Definition              Value          Derivative Info.                !
 --------------------------------------------------------------------------------
 ! R1    R(1,2)                  1.124          estimate D2E/DX2                !
 ! R2    R(1,3)                  1.5085         estimate D2E/DX2                !
 ! R3    R(1,14)                 1.5092         estimate D2E/DX2                !
 ! R4    R(1,25)                 1.51           estimate D2E/DX2                !
 ! R5    R(3,4)                  1.3983         estimate D2E/DX2                !
 ! R6    R(3,5)                  1.3959         estimate D2E/DX2                !
 ! R7    R(4,6)                  1.3898         estimate D2E/DX2                !
 ! R8    R(4,7)                  1.0965         estimate D2E/DX2                !
 ! R9    R(5,8)                  1.3902         estimate D2E/DX2                !
 ! R10   R(5,9)                  1.102          estimate D2E/DX2                !
 ! R11   R(6,10)                 1.3907         estimate D2E/DX2                !
 ! R12   R(6,11)                 1.0949         estimate D2E/DX2                !
 ! R13   R(8,10)                 1.3901         estimate D2E/DX2                !
 ! R14   R(8,12)                 1.0948         estimate D2E/DX2                !
 ! R15   R(10,13)                1.0946         estimate D2E/DX2                !
 ! R16   R(14,15)                1.396          estimate D2E/DX2                !
 ! R17   R(14,16)                1.3969         estimate D2E/DX2                !
 ! R18   R(15,17)                1.3896         estimate D2E/DX2                !
 ! R19   R(15,18)                1.1007         estimate D2E/DX2                !
 ! R20   R(16,19)                1.3903         estimate D2E/DX2                !
 ! R21   R(16,20)                1.0964         estimate D2E/DX2                !
 ! R22   R(17,21)                1.3906         estimate D2E/DX2                !
 ! R23   R(17,22)                1.0947         estimate D2E/DX2                !
 ! R24   R(19,21)                1.3906         estimate D2E/DX2                !
 ! R25   R(19,23)                1.0949         estimate D2E/DX2                !
 ! R26   R(21,24)                1.0946         estimate D2E/DX2                !
 ! R27   R(25,26)                1.3945         estimate D2E/DX2                !
 ! R28   R(25,27)                1.3987         estimate D2E/DX2                !
 ! R29   R(26,28)                1.391          estimate D2E/DX2                !
 ! R30   R(26,29)                1.0975         estimate D2E/DX2                !
 ! R31   R(27,30)                1.3892         estimate D2E/DX2                !
 ! R32   R(27,31)                1.0963         estimate D2E/DX2                !
 ! R33   R(28,32)                1.3897         estimate D2E/DX2                !
 ! R34   R(28,33)                1.0949         estimate D2E/DX2                !
 ! R35   R(30,32)                1.3912         estimate D2E/DX2                !
 ! R36   R(30,34)                1.0949         estimate D2E/DX2                !
 ! R37   R(32,35)                1.0946         estimate D2E/DX2                !
 ! A1    A(2,1,3)              106.3231         estimate D2E/DX2                !
 ! A2    A(2,1,14)             107.0169         estimate D2E/DX2                !
 ! A3    A(2,1,25)             106.4727         estimate D2E/DX2                !
 ! A4    A(3,1,14)             113.1598         estimate D2E/DX2                !
 ! A5    A(3,1,25)             113.0716         estimate D2E/DX2                !
 ! A6    A(14,1,25)            110.303          estimate D2E/DX2                !
 ! A7    A(1,3,4)              118.3625         estimate D2E/DX2                !
 ! A8    A(1,3,5)              122.7362         estimate D2E/DX2                !
 ! A9    A(4,3,5)              118.9011         estimate D2E/DX2                !
 ! A10   A(3,4,6)              120.4949         estimate D2E/DX2                !
 ! A11   A(3,4,7)              119.9614         estimate D2E/DX2                !
 ! A12   A(6,4,7)              119.5436         estimate D2E/DX2                !
 ! A13   A(3,5,8)              120.5325         estimate D2E/DX2                !
 ! A14   A(3,5,9)              119.4929         estimate D2E/DX2                !
 ! A15   A(8,5,9)              119.9729         estimate D2E/DX2                !
 ! A16   A(4,6,10)             120.1802         estimate D2E/DX2                !
 ! A17   A(4,6,11)             119.8308         estimate D2E/DX2                !
 ! A18   A(10,6,11)            119.9889         estimate D2E/DX2                !
 ! A19   A(5,8,10)             120.1943         estimate D2E/DX2                !
 ! A20   A(5,8,12)             119.7596         estimate D2E/DX2                !
 ! A21   A(10,8,12)            120.0461         estimate D2E/DX2                !
 ! A22   A(6,10,8)             119.6966         estimate D2E/DX2                !
 ! A23   A(6,10,13)            120.1402         estimate D2E/DX2                !
 ! A24   A(8,10,13)            120.1631         estimate D2E/DX2                !
 ! A25   A(1,14,15)            121.864          estimate D2E/DX2                !
 ! A26   A(1,14,16)            119.0586         estimate D2E/DX2                !
 ! A27   A(15,14,16)           119.0699         estimate D2E/DX2                !
 ! A28   A(14,15,17)           120.5323         estimate D2E/DX2                !
 ! A29   A(14,15,18)           118.9353         estimate D2E/DX2                !
 ! A30   A(17,15,18)           120.5195         estimate D2E/DX2                !
 ! A31   A(14,16,19)           120.3396         estimate D2E/DX2                !
 ! A32   A(14,16,20)           120.0048         estimate D2E/DX2                !
 ! A33   A(19,16,20)           119.6557         estimate D2E/DX2                !
 ! A34   A(15,17,21)           120.0718         estimate D2E/DX2                !
 ! A35   A(15,17,22)           119.8439         estimate D2E/DX2                !
 ! A36   A(21,17,22)           120.0843         estimate D2E/DX2                !
 ! A37   A(16,19,21)           120.2075         estimate D2E/DX2                !
 ! A38   A(16,19,23)           119.8141         estimate D2E/DX2                !
 ! A39   A(21,19,23)           119.9783         estimate D2E/DX2                !
 ! A40   A(17,21,19)           119.7768         estimate D2E/DX2                !
 ! A41   A(17,21,24)           120.1128         estimate D2E/DX2                !
 ! A42   A(19,21,24)           120.1103         estimate D2E/DX2                !
 ! A43   A(1,25,26)            122.6538         estimate D2E/DX2                !
 ! A44   A(1,25,27)            118.3124         estimate D2E/DX2                !
 ! A45   A(26,25,27)           119.0327         estimate D2E/DX2                !
 ! A46   A(25,26,28)           120.4164         estimate D2E/DX2                !
 ! A47   A(25,26,29)           119.9            estimate D2E/DX2                !
 ! A48   A(28,26,29)           119.6812         estimate D2E/DX2                !
 ! A49   A(25,27,30)           120.4538         estimate D2E/DX2                !
 ! A50   A(25,27,31)           119.9191         estimate D2E/DX2                !
 ! A51   A(30,27,31)           119.6267         estimate D2E/DX2                !
 ! A52   A(26,28,32)           120.2394         estimate D2E/DX2                !
 ! A53   A(26,28,33)           119.7288         estimate D2E/DX2                !
 ! A54   A(32,28,33)           120.0318         estimate D2E/DX2                !
 ! A55   A(27,30,32)           120.1501         estimate D2E/DX2                !
 ! A56   A(27,30,34)           119.8584         estimate D2E/DX2                !
 ! A57   A(32,30,34)           119.9916         estimate D2E/DX2                !
 ! A58   A(28,32,30)           119.7076         estimate D2E/DX2                !
 ! A59   A(28,32,35)           120.1769         estimate D2E/DX2                !
 ! A60   A(30,32,35)           120.1155         estimate D2E/DX2                !
 ! D1    D(2,1,3,4)            -18.2332         estimate D2E/DX2                !
 ! D2    D(2,1,3,5)            161.9306         estimate D2E/DX2                !
 ! D3    D(14,1,3,4)          -135.4237         estimate D2E/DX2                !
 ! D4    D(14,1,3,5)            44.7402         estimate D2E/DX2                !
 ! D5    D(25,1,3,4)            98.2476         estimate D2E/DX2                !
 ! D6    D(25,1,3,5)           -81.5886         estimate D2E/DX2                !
 ! D7    D(2,1,14,15)          173.0993         estimate D2E/DX2                !
 ! D8    D(2,1,14,16)           -5.8916         estimate D2E/DX2                !
 ! D9    D(3,1,14,15)          -70.1182         estimate D2E/DX2                !
 ! D10   D(3,1,14,16)          110.8909         estimate D2E/DX2                !
 ! D11   D(25,1,14,15)          57.6688         estimate D2E/DX2                !
 ! D12   D(25,1,14,16)        -121.3221         estimate D2E/DX2                !
 ! D13   D(2,1,25,26)          149.6979         estimate D2E/DX2                !
 ! D14   D(2,1,25,27)          -30.6914         estimate D2E/DX2                !
 ! D15   D(3,1,25,26)           33.3057         estimate D2E/DX2                !
 ! D16   D(3,1,25,27)         -147.0836         estimate D2E/DX2                !
 ! D17   D(14,1,25,26)         -94.5298         estimate D2E/DX2                !
 ! D18   D(14,1,25,27)          85.0808         estimate D2E/DX2                !
 ! D19   D(1,3,4,6)           -179.9134         estimate D2E/DX2                !
 ! D20   D(1,3,4,7)              0.0175         estimate D2E/DX2                !
 ! D21   D(5,3,4,6)             -0.0708         estimate D2E/DX2                !
 ! D22   D(5,3,4,7)            179.8601         estimate D2E/DX2                !
 ! D23   D(1,3,5,8)           -179.9539         estimate D2E/DX2                !
 ! D24   D(1,3,5,9)             -0.4379         estimate D2E/DX2                !
 ! D25   D(4,3,5,8)              0.2108         estimate D2E/DX2                !
 ! D26   D(4,3,5,9)            179.7268         estimate D2E/DX2                !
 ! D27   D(3,4,6,10)            -0.079          estimate D2E/DX2                !
 ! D28   D(3,4,6,11)           179.9737         estimate D2E/DX2                !
 ! D29   D(7,4,6,10)           179.9898         estimate D2E/DX2                !
 ! D30   D(7,4,6,11)             0.0425         estimate D2E/DX2                !
 ! D31   D(3,5,8,10)            -0.2017         estimate D2E/DX2                !
 ! D32   D(3,5,8,12)           179.7491         estimate D2E/DX2                !
 ! D33   D(9,5,8,10)          -179.7153         estimate D2E/DX2                !
 ! D34   D(9,5,8,12)             0.2355         estimate D2E/DX2                !
 ! D35   D(4,6,10,8)             0.0902         estimate D2E/DX2                !
 ! D36   D(4,6,10,13)         -179.8633         estimate D2E/DX2                !
 ! D37   D(11,6,10,8)         -179.9626         estimate D2E/DX2                !
 ! D38   D(11,6,10,13)           0.0839         estimate D2E/DX2                !
 ! D39   D(5,8,10,6)             0.0493         estimate D2E/DX2                !
 ! D40   D(5,8,10,13)         -179.9972         estimate D2E/DX2                !
 ! D41   D(12,8,10,6)         -179.9013         estimate D2E/DX2                !
 ! D42   D(12,8,10,13)           0.0522         estimate D2E/DX2                !
 ! D43   D(1,14,15,17)        -178.5022         estimate D2E/DX2                !
 ! D44   D(1,14,15,18)           2.7968         estimate D2E/DX2                !
 ! D45   D(16,14,15,17)          0.4886         estimate D2E/DX2                !
 ! D46   D(16,14,15,18)       -178.2124         estimate D2E/DX2                !
 ! D47   D(1,14,16,19)         178.7186         estimate D2E/DX2                !
 ! D48   D(1,14,16,20)          -1.228          estimate D2E/DX2                !
 ! D49   D(15,14,16,19)         -0.3009         estimate D2E/DX2                !
 ! D50   D(15,14,16,20)        179.7525         estimate D2E/DX2                !
 ! D51   D(14,15,17,21)         -0.2532         estimate D2E/DX2                !
 ! D52   D(14,15,17,22)        179.7941         estimate D2E/DX2                !
 ! D53   D(18,15,17,21)        178.4271         estimate D2E/DX2                !
 ! D54   D(18,15,17,22)         -1.5255         estimate D2E/DX2                !
 ! D55   D(14,16,19,21)         -0.122          estimate D2E/DX2                !
 ! D56   D(14,16,19,23)        179.9594         estimate D2E/DX2                !
 ! D57   D(20,16,19,21)        179.8248         estimate D2E/DX2                !
 ! D58   D(20,16,19,23)         -0.0939         estimate D2E/DX2                !
 ! D59   D(15,17,21,19)         -0.1748         estimate D2E/DX2                !
 ! D60   D(15,17,21,24)        179.9286         estimate D2E/DX2                !
 ! D61   D(22,17,21,19)        179.7777         estimate D2E/DX2                !
 ! D62   D(22,17,21,24)         -0.1188         estimate D2E/DX2                !
 ! D63   D(16,19,21,17)          0.3616         estimate D2E/DX2                !
 ! D64   D(16,19,21,24)       -179.7418         estimate D2E/DX2                !
 ! D65   D(23,19,21,17)       -179.7198         estimate D2E/DX2                !
 ! D66   D(23,19,21,24)          0.1767         estimate D2E/DX2                !
 ! D67   D(1,25,26,28)         179.6559         estimate D2E/DX2                !
 ! D68   D(1,25,26,29)          -0.905          estimate D2E/DX2                !
 ! D69   D(27,25,26,28)          0.0479         estimate D2E/DX2                !
 ! D70   D(27,25,26,29)        179.487          estimate D2E/DX2                !
 ! D71   D(1,25,27,30)        -179.5624         estimate D2E/DX2                !
 ! D72   D(1,25,27,31)           0.1971         estimate D2E/DX2                !
 ! D73   D(26,25,27,30)          0.0627         estimate D2E/DX2                !
 ! D74   D(26,25,27,31)        179.8222         estimate D2E/DX2                !
 ! D75   D(25,26,28,32)         -0.1197         estimate D2E/DX2                !
 ! D76   D(25,26,28,33)        179.8307         estimate D2E/DX2                !
 ! D77   D(29,26,28,32)       -179.56           estimate D2E/DX2                !
 ! D78   D(29,26,28,33)          0.3904         estimate D2E/DX2                !
 ! D79   D(25,27,30,32)         -0.1022         estimate D2E/DX2                !
 ! D80   D(25,27,30,34)        179.9114         estimate D2E/DX2                !
 ! D81   D(31,27,30,32)       -179.8624         estimate D2E/DX2                !
 ! D82   D(31,27,30,34)          0.1512         estimate D2E/DX2                !
 ! D83   D(26,28,32,30)          0.0801         estimate D2E/DX2                !
 ! D84   D(26,28,32,35)       -179.9706         estimate D2E/DX2                !
 ! D85   D(33,28,32,30)       -179.8702         estimate D2E/DX2                !
 ! D86   D(33,28,32,35)          0.0791         estimate D2E/DX2                !
 ! D87   D(27,30,32,28)          0.0304         estimate D2E/DX2                !
 ! D88   D(27,30,32,35)       -179.9189         estimate D2E/DX2                !
 ! D89   D(34,30,32,28)       -179.9832         estimate D2E/DX2                !
 ! D90   D(34,30,32,35)          0.0675         estimate D2E/DX2                !
 --------------------------------------------------------------------------------
 Trust Radius=3.00D-01 FncErr=1.00D-07 GrdErr=1.00D-07
 Number of steps in this run= 197 maximum allowed number of steps= 210.
 GradGradGradGradGradGradGradGradGradGradGradGradGradGradGradGradGradGrad

                          Input orientation:                          
 ---------------------------------------------------------------------
 Center     Atomic      Atomic             Coordinates (Angstroms)
 Number     Number       Type             X           Y           Z
 ---------------------------------------------------------------------
      1          6           0        0.013074   -0.008973    0.768585
      2          1           0        0.096065   -0.030252    1.889289
      3          6           0       -1.452275   -0.170474    0.448824
      4          6           0       -2.295644   -0.683553    1.439125
      5          6           0       -1.995886    0.167344   -0.791653
      6          6           0       -3.652733   -0.852492    1.191674
      7          1           0       -1.886614   -0.956830    2.419119
      8          6           0       -3.354154    0.000450   -1.036616
      9          1           0       -1.340943    0.576755   -1.577649
     10          6           0       -4.185585   -0.510063   -0.046432
     11          1           0       -4.303097   -1.255564    1.974801
     12          1           0       -3.767857    0.273419   -2.012832
     13          1           0       -5.254933   -0.641298   -0.239870
     14          6           0        0.578795    1.312467    0.308828
     15          6           0        0.758321    1.606588   -1.043945
     16          6           0        0.952582    2.259938    1.264831
     17          6           0        1.310439    2.820218   -1.435276
     18          1           0        0.435656    0.870795   -1.796285
     19          6           0        1.501287    3.475373    0.871834
     20          1           0        0.814592    2.046569    2.331425
     21          6           0        1.684784    3.756502   -0.477686
     22          1           0        1.449264    3.037772   -2.499164
     23          1           0        1.790601    4.212024    1.628371
     24          1           0        2.120854    4.712273   -0.785160
     25          6           0        0.859954   -1.148659    0.254816
     26          6           0        0.566912   -1.831279   -0.925310
     27          6           0        1.986603   -1.523590    0.994001
     28          6           0        1.383552   -2.870357   -1.359195
     29          1           0       -0.318260   -1.554483   -1.512046
     30          6           0        2.802078   -2.560111    0.557608
     31          1           0        2.232251   -0.994868    1.922465
     32          6           0        2.502180   -3.236532   -0.620467
     33          1           0        1.141361   -3.400506   -2.286035
     34          1           0        3.682408   -2.844570    1.143123
     35          1           0        3.144368   -4.054032   -0.963098
 ---------------------------------------------------------------------
                    Distance matrix (angstroms):
                    1          2          3          4          5
     1  C    0.000000
     2  H    1.123973   0.000000
     3  C    1.508503   2.119424   0.000000
     4  C    2.496971   2.519865   1.398291   0.000000
     5  C    2.549775   3.406281   1.395857   2.406294   0.000000
     6  C    3.785323   3.900798   2.420535   1.389771   2.778271
     7  H    2.689146   2.251729   2.165425   1.096527   3.403639
     8  C    3.820611   4.523922   2.419274   2.778056   1.390234
     9  H    2.771508   3.801724   2.162716   3.405989   1.101979
    10  C    4.306284   4.723320   2.798496   2.410157   2.410190
    11  H    4.651697   4.567420   3.410749   2.154997   3.873132
    12  H    4.702284   5.499878   3.408623   3.872882   2.154625
    13  H    5.400807   5.791362   3.893094   3.402676   3.402903
    14  C    1.509179   2.129267   2.518722   3.677508   3.025120
    15  C    2.539822   3.423695   3.205159   4.553800   3.117809
    16  C    2.505372   2.523596   3.515126   4.386968   4.159512
    17  C    3.813723   4.544515   4.486274   5.791583   4.287630
    18  H    2.744290   3.809286   3.112722   4.510419   2.723330
    19  C    3.790265   3.911429   4.711122   5.659962   5.093178
    20  H    2.703729   2.241641   3.687568   4.233596   4.602596
    21  C    4.304254   4.739842   5.110841   6.263550   5.150530
    22  H    4.692918   5.522901   5.234730   6.586556   4.798334
    23  H    4.660005   4.575635   5.577980   6.379646   6.045944
    24  H    5.398799   5.808958   6.175046   7.319006   6.132208
    25  C    1.509983   2.122702   2.518113   3.402457   3.314029
    26  C    2.548886   3.374516   2.953580   3.886137   3.252737
    27  C    2.497938   2.570162   3.735509   4.386506   4.680603
    28  C    3.820101   4.502939   4.312797   5.113628   4.579338
    29  H    2.774827   3.750203   2.654521   3.657592   2.509599
    30  C    3.785678   3.936504   4.880750   5.503209   5.681548
    31  H    2.688526   2.344115   4.053021   4.564249   5.156968
    32  C    4.306071   4.729534   5.116817   5.811948   5.643428
    33  H    4.701726   5.466679   4.963820   5.750796   4.980467
    34  H    4.652408   4.619416   5.830765   6.363546   6.712527
    35  H    5.400577   5.798195   6.180993   6.835534   6.653693
                    6          7          8          9         10
     6  C    0.000000
     7  H    2.153296   0.000000
     8  C    2.404565   3.874552   0.000000
     9  H    3.880241   4.315529   2.162836   0.000000
    10  C    1.390717   3.400560   1.390096   3.408488   0.000000
    11  H    1.094864   2.475086   3.398043   4.975103   2.157536
    12  H    3.398498   4.969384   1.094834   2.484212   2.157561
    13  H    2.158927   4.302947   2.158612   4.311917   1.094599
    14  C    4.834490   3.959959   4.358864   2.790245   5.113428
    15  C    5.522904   5.055651   4.414995   2.398397   5.469685
    16  C    5.558911   4.443085   5.380512   4.021574   5.982731
    17  C    6.709898   6.272447   5.465203   3.476093   6.574643
    18  H    5.349069   5.148085   3.961976   1.813992   5.130753
    19  C    6.737702   5.789334   6.268379   4.741331   7.004814
    20  H    5.446153   4.040373   5.736614   4.699739   6.098552
    21  C    7.246976   6.584971   6.309613   4.525012   7.269854
    22  H    7.401811   7.160616   5.868321   3.832890   7.096094
    23  H    7.447812   6.392514   7.162961   5.770642   7.798581
    24  H    8.258861   7.646302   7.227739   5.451109   8.221294
    25  C    4.618416   3.502091   4.554883   3.343491   5.094705
    26  C    4.821312   4.239063   4.329247   3.140714   5.010416
    27  C    5.682566   4.165812   5.913526   4.700787   6.340792
    28  C    5.995238   5.350815   5.549004   4.399224   6.189477
    29  H    4.349897   4.274457   3.443908   2.364817   4.265564
    30  C    6.706906   5.293351   6.855451   5.618174   7.307188
    31  H    5.931894   4.148875   6.399589   5.242949   6.730543
    32  C    6.844739   5.804967   6.704318   5.497904   7.244954
    33  H    6.447493   6.105625   5.773838   4.741545   6.461179
    34  H    7.600988   6.017120   7.896746   6.658988   8.292785
    35  H    7.816232   6.807557   7.659962   6.476101   8.193180
                   11         12         13         14         15
    11  H    0.000000
    12  H    4.304124   0.000000
    13  H    2.487585   2.488272   0.000000
    14  C    5.762215   5.036180   6.176621   0.000000
    15  C    6.551542   4.816884   6.469834   1.395970   0.000000
    16  C    6.362780   6.080450   7.015307   1.396910   2.407291
    17  C    7.729968   5.710415   7.517659   2.418784   1.389558
    18  H    6.418588   4.251267   6.090292   2.155705   1.100691
    19  C    7.568961   6.807179   7.989329   2.417877   2.777510
    20  H    6.100984   6.558618   7.118660   2.164579   3.404390
    21  C    8.184754   6.649799   8.219298   2.795553   2.408550
    22  H    8.458058   5.924231   7.974097   3.408696   2.154843
    23  H    8.194369   7.724469   8.756975   3.408386   3.872360
    24  H    9.192367   7.475796   9.130186   3.890172   3.401286
    25  C    5.443058   5.346136   6.155808   2.477723   3.047704
    26  C    5.697287   4.939907   5.981619   3.377333   3.445235
    27  C    6.371353   6.736772   7.398697   3.239538   3.931910
    28  C    6.786830   6.070221   7.091620   4.574489   4.531372
    29  H    5.303431   3.935953   5.179100   3.512791   3.372020
    30  C    7.361643   7.602638   8.320652   4.472331   4.909511
    31  H    6.540755   7.286729   7.801194   3.265201   4.211844
    32  C    7.547943   7.319276   8.188583   5.025574   5.164900
    33  H    7.238620   6.137816   7.260344   5.409428   5.173055
    34  H    8.184432   8.671122   9.308230   5.254467   5.757288
    35  H    8.481003   8.222386   9.094947   6.082703   6.143482
                   16         17         18         19         20
    16  C    0.000000
    17  C    2.780748   0.000000
    18  H    3.401083   2.166985   0.000000
    19  C    1.390255   2.405911   3.877919   0.000000
    20  H    1.096444   3.877168   4.308599   2.154864   0.000000
    21  C    2.410848   1.390591   3.409740   1.390650   3.401794
    22  H    3.875484   1.094741   2.493438   3.399680   4.971909
    23  H    2.155244   3.399061   4.972721   1.094854   2.477110
    24  H    3.403127   2.158541   4.315000   2.158567   4.304114
    25  C    3.556297   4.337204   2.909508   4.708895   3.811017
    26  C    4.656556   4.738071   2.842011   5.680083   5.070047
    27  C    3.931620   5.022674   3.990515   5.023952   3.988527
    28  C    5.778509   5.691552   3.884040   6.727528   6.174184
    29  H    4.886297   4.668679   2.555612   5.856030   5.387319
    30  C    5.210918   5.928281   4.786635   6.182060   5.321468
    31  H    3.558623   5.165176   4.531838   4.649859   3.380435
    32  C    6.013883   6.226426   4.745862   6.948267   6.282736
    33  H    6.684677   6.280906   4.356820   7.574919   7.148310
    34  H    5.789885   6.660646   5.743296   6.691231   5.793071
    35  H    7.045127   7.130327   5.682010   7.922035   7.314306
                   21         22         23         24         25
    21  C    0.000000
    22  H    2.158336   0.000000
    23  H    2.157353   4.304872   0.000000
    24  H    1.094622   2.488533   2.486855   0.000000
    25  C    5.027674   5.045582   5.611567   6.084566   0.000000
    26  C    5.716056   5.192612   6.673845   6.726994   1.394468
    27  C    5.489656   5.770352   5.773917   6.486095   1.398680
    28  C    6.692014   6.017460   7.697490   7.639987   2.417318
    29  H    5.769631   5.018700   6.896530   6.763866   2.162102
    30  C    6.497675   6.519989   6.930471   7.426618   2.419860
    31  H    5.351258   6.035400   5.233858   6.317840   2.165157
    32  C    7.042091   6.633629   7.813105   7.959651   2.796826
    33  H    7.401905   6.449159   8.584562   8.308383   3.406747
    34  H    7.084608   7.270154   7.321880   7.953780   3.410491
    35  H    7.960556   7.451615   8.767901   8.827647   3.891407
                   26         27         28         29         30
    26  C    0.000000
    27  C    2.407063   0.000000
    28  C    1.390985   2.777586   0.000000
    29  H    1.097454   3.404941   2.156630   0.000000
    30  C    2.779606   1.389177   2.404705   3.877018   0.000000
    31  H    3.403345   1.096328   3.873892   4.314412   2.153491
    32  C    2.411001   2.409667   1.389652   3.402806   1.391167
    33  H    2.155003   3.872452   1.094873   2.477368   3.398610
    34  H    3.874466   2.154757   3.398088   4.971881   1.094863
    35  H    3.403724   3.402027   2.158345   4.305681   2.159053
                   31         32         33         34         35
    31  H    0.000000
    32  C    3.400650   0.000000
    33  H    4.968763   2.157043   0.000000
    34  H    2.476233   2.157967   4.304081   0.000000
    35  H    4.303129   1.094581   2.487830   2.487660   0.000000
 Stoichiometry    C19H16
 Framework group  C1[X(C19H16)]
 Deg. of freedom    99
 Full point group                 C1      NOp   1
 Largest Abelian subgroup         C1      NOp   1
 Largest concise Abelian subgroup C1      NOp   1
                         Standard orientation:                         
 ---------------------------------------------------------------------
 Center     Atomic      Atomic             Coordinates (Angstroms)
 Number     Number       Type             X           Y           Z
 ---------------------------------------------------------------------
      1          6           0       -0.023091   -0.012399   -0.754341
      2          1           0       -0.000544   -0.006229   -1.878071
      3          6           0       -1.459073   -0.253978   -0.360418
      4          6           0       -2.456420   -0.028795   -1.314258
      5          6           0       -1.829558   -0.688066    0.913445
      6          6           0       -3.793940   -0.235553   -0.998419
      7          1           0       -2.185113    0.314602   -2.319665
      8          6           0       -3.167750   -0.897197    1.226900
      9          1           0       -1.051204   -0.872900    1.671310
     10          6           0       -4.152925   -0.671156    0.272593
     11          1           0       -4.566001   -0.055436   -1.753541
     12          1           0       -3.443798   -1.241723    2.228779
     13          1           0       -5.206399   -0.835935    0.519957
     14          6           0        0.909502   -1.108464   -0.299884
     15          6           0        1.225520   -1.295876    1.046868
     16          6           0        1.489006   -1.946008   -1.255947
     17          6           0        2.111838   -2.294501    1.431653
     18          1           0        0.744874   -0.654122    1.800957
     19          6           0        2.372632   -2.947259   -0.869282
     20          1           0        1.248429   -1.815044   -2.317625
     21          6           0        2.688681   -3.121203    0.473760
     22          1           0        2.354262   -2.429341    2.490665
     23          1           0        2.821338   -3.599246   -1.625776
     24          1           0        3.387861   -3.907324    0.776013
     25          6           0        0.494339    1.334215   -0.308305
     26          6           0        0.076463    1.947402    0.872340
     27          6           0        1.436531    1.982675   -1.113340
     28          6           0        0.589342    3.186363    1.242162
     29          1           0       -0.668478    1.455191    1.510460
     30          6           0        1.949121    3.218941   -0.740903
     31          1           0        1.777448    1.512441   -2.043174
     32          6           0        1.526307    3.824204    0.438178
     33          1           0        0.251267    3.658873    2.170163
     34          1           0        2.687333    3.717203   -1.377694
     35          1           0        1.929579    4.798920    0.730421
 ---------------------------------------------------------------------
 Rotational constants (GHZ):      0.4001183      0.3720050      0.2369068
 Standard basis: 6-311G (5D, 7F)
 There are   295 symmetry adapted basis functions of A   symmetry.
 Integral buffers will be    262144 words long.
 Raffenetti 1 integral format.
 Two-electron integral symmetry is turned on.
   295 basis functions,   574 primitive gaussians,   295 cartesian basis functions
    65 alpha electrons       65 beta electrons
       nuclear repulsion energy      1288.3828394572 Hartrees.
 NAtoms=   35 NActive=   35 NUniq=   35 SFac= 7.50D-01 NAtFMM=   80 NAOKFM=F Big=F
 One-electron integrals computed using PRISM.
 PrsmSu:  requested number of processors reduced to:  10 ShMem   1 Linda.
 NBasis=   295 RedAO= T  NBF=   295
 NBsUse=   295 1.00D-06 NBFU=   295
 Harris functional with IExCor=  205 diagonalized for initial guess.
 ExpMin= 1.03D-01 ExpMax= 4.56D+03 ExpMxC= 6.82D+02 IAcc=1 IRadAn=         1 AccDes= 0.00D+00
 HarFok:  IExCor=  205 AccDes= 0.00D+00 IRadAn=         1 IDoV= 1
 ScaDFX=  1.000000  1.000000  1.000000  1.000000
 FoFCou: FMM=F IPFlag=           0 FMFlag=      100000 FMFlg1=           0
         NFxFlg=           0 DoJE=T BraDBF=F KetDBF=T FulRan=T
         Omega=  0.000000  0.000000  1.000000  0.000000  0.000000 ICntrl=     500 IOpCl=  0
         NMat0=    1 NMatS0=    1 NMatT0=    0 NMatD0=    1 NMtDS0=    0 NMtDT0=    0
         I1Cent=           4 NGrid=           0.
 Petite list used in FoFCou.
 Initial guess orbital symmetries:
       Occupied  (A) (A) (A) (A) (A) (A) (A) (A) (A) (A) (A) (A)
                 (A) (A) (A) (A) (A) (A) (A) (A) (A) (A) (A) (A)
                 (A) (A) (A) (A) (A) (A) (A) (A) (A) (A) (A) (A)
                 (A) (A) (A) (A) (A) (A) (A) (A) (A) (A) (A) (A)
                 (A) (A) (A) (A) (A) (A) (A) (A) (A) (A) (A) (A)
                 (A) (A) (A) (A) (A)
       Virtual   (A) (A) (A) (A) (A) (A) (A) (A) (A) (A) (A) (A)
                 (A) (A) (A) (A) (A) (A) (A) (A) (A) (A) (A) (A)
                 (A) (A) (A) (A) (A) (A) (A) (A) (A) (A) (A) (A)
                 (A) (A) (A) (A) (A) (A) (A) (A) (A) (A) (A) (A)
                 (A) (A) (A) (A) (A) (A) (A) (A) (A) (A) (A) (A)
                 (A) (A) (A) (A) (A) (A) (A) (A) (A) (A) (A) (A)
                 (A) (A) (A) (A) (A) (A) (A) (A) (A) (A) (A) (A)
                 (A) (A) (A) (A) (A) (A) (A) (A) (A) (A) (A) (A)
                 (A) (A) (A) (A) (A) (A) (A) (A) (A) (A) (A) (A)
                 (A) (A) (A) (A) (A) (A) (A) (A) (A) (A) (A) (A)
                 (A) (A) (A) (A) (A) (A) (A) (A) (A) (A) (A) (A)
                 (A) (A) (A) (A) (A) (A) (A) (A) (A) (A) (A) (A)
                 (A) (A) (A) (A) (A) (A) (A) (A) (A) (A) (A) (A)
                 (A) (A) (A) (A) (A) (A) (A) (A) (A) (A) (A) (A)
                 (A) (A) (A) (A) (A) (A) (A) (A) (A) (A) (A) (A)
                 (A) (A) (A) (A) (A) (A) (A) (A) (A) (A) (A) (A)
                 (A) (A) (A) (A) (A) (A) (A) (A) (A) (A) (A) (A)
                 (A) (A) (A) (A) (A) (A) (A) (A) (A) (A) (A) (A)
                 (A) (A) (A) (A) (A) (A) (A) (A) (A) (A) (A) (A)
                 (A) (A)
 The electronic state of the initial guess is 1-A.
 Requested convergence on RMS density matrix=1.00D-08 within 128 cycles.
 Requested convergence on MAX density matrix=1.00D-06.
 Requested convergence on             energy=1.00D-06.
 No special actions if energy rises.
 Integral accuracy reduced to 1.0D-05 until final iterations.
 Initial convergence to 1.0D-05 achieved.  Increase integral accuracy.
 SCF Done:  E(RHF) =  -728.671708460     A.U. after   14 cycles
             Convg  =    0.6171D-08             -V/T =  2.0001

 **********************************************************************

            Population analysis using the SCF density.

 **********************************************************************

 Orbital symmetries:
       Occupied  (A) (A) (A) (A) (A) (A) (A) (A) (A) (A) (A) (A)
                 (A) (A) (A) (A) (A) (A) (A) (A) (A) (A) (A) (A)
                 (A) (A) (A) (A) (A) (A) (A) (A) (A) (A) (A) (A)
                 (A) (A) (A) (A) (A) (A) (A) (A) (A) (A) (A) (A)
                 (A) (A) (A) (A) (A) (A) (A) (A) (A) (A) (A) (A)
                 (A) (A) (A) (A) (A)
       Virtual   (A) (A) (A) (A) (A) (A) (A) (A) (A) (A) (A) (A)
                 (A) (A) (A) (A) (A) (A) (A) (A) (A) (A) (A) (A)
                 (A) (A) (A) (A) (A) (A) (A) (A) (A) (A) (A) (A)
                 (A) (A) (A) (A) (A) (A) (A) (A) (A) (A) (A) (A)
                 (A) (A) (A) (A) (A) (A) (A) (A) (A) (A) (A) (A)
                 (A) (A) (A) (A) (A) (A) (A) (A) (A) (A) (A) (A)
                 (A) (A) (A) (A) (A) (A) (A) (A) (A) (A) (A) (A)
                 (A) (A) (A) (A) (A) (A) (A) (A) (A) (A) (A) (A)
                 (A) (A) (A) (A) (A) (A) (A) (A) (A) (A) (A) (A)
                 (A) (A) (A) (A) (A) (A) (A) (A) (A) (A) (A) (A)
                 (A) (A) (A) (A) (A) (A) (A) (A) (A) (A) (A) (A)
                 (A) (A) (A) (A) (A) (A) (A) (A) (A) (A) (A) (A)
                 (A) (A) (A) (A) (A) (A) (A) (A) (A) (A) (A) (A)
                 (A) (A) (A) (A) (A) (A) (A) (A) (A) (A) (A) (A)
                 (A) (A) (A) (A) (A) (A) (A) (A) (A) (A) (A) (A)
                 (A) (A) (A) (A) (A) (A) (A) (A) (A) (A) (A) (A)
                 (A) (A) (A) (A) (A) (A) (A) (A) (A) (A) (A) (A)
                 (A) (A) (A) (A) (A) (A) (A) (A) (A) (A) (A) (A)
                 (A) (A) (A) (A) (A) (A) (A) (A) (A) (A) (A) (A)
                 (A) (A)
 The electronic state is 1-A.
 Alpha  occ. eigenvalues --  -11.25832 -11.25274 -11.25262 -11.25131 -11.24446
 Alpha  occ. eigenvalues --  -11.24432 -11.24357 -11.24349 -11.24210 -11.24190
 Alpha  occ. eigenvalues --  -11.24127 -11.24118 -11.24110 -11.24054 -11.24027
 Alpha  occ. eigenvalues --  -11.24018 -11.23914 -11.23833 -11.23737  -1.18591
 Alpha  occ. eigenvalues --   -1.15826  -1.15681  -1.09037  -1.02412  -1.02114
 Alpha  occ. eigenvalues --   -1.01891  -1.01496  -1.01388  -0.92962  -0.84537
 Alpha  occ. eigenvalues --   -0.82941  -0.82542  -0.81708  -0.81563  -0.77734
 Alpha  occ. eigenvalues --   -0.70731  -0.70448  -0.69109  -0.65999  -0.63616
 Alpha  occ. eigenvalues --   -0.63501  -0.62369  -0.62034  -0.61902  -0.59570
 Alpha  occ. eigenvalues --   -0.58772  -0.58518  -0.58432  -0.57613  -0.53917
 Alpha  occ. eigenvalues --   -0.51741  -0.51082  -0.50852  -0.49674  -0.49166
 Alpha  occ. eigenvalues --   -0.48681  -0.47792  -0.47473  -0.46763  -0.34692
 Alpha  occ. eigenvalues --   -0.34246  -0.33699  -0.33587  -0.33279  -0.31179
 Alpha virt. eigenvalues --    0.11652   0.12014   0.13585   0.13743   0.14052
 Alpha virt. eigenvalues --    0.14932   0.15135   0.16274   0.16375   0.16880
 Alpha virt. eigenvalues --    0.18807   0.19133   0.19284   0.21285   0.21419
 Alpha virt. eigenvalues --    0.21511   0.23640   0.24244   0.24981   0.27161
 Alpha virt. eigenvalues --    0.28521   0.29490   0.34027   0.34193   0.35874
 Alpha virt. eigenvalues --    0.37457   0.38512   0.39675   0.40954   0.43681
 Alpha virt. eigenvalues --    0.44101   0.44378   0.45031   0.45395   0.45577
 Alpha virt. eigenvalues --    0.45871   0.46407   0.48414   0.49898   0.50381
 Alpha virt. eigenvalues --    0.50799   0.51019   0.51447   0.54979   0.55777
 Alpha virt. eigenvalues --    0.56805   0.57908   0.58955   0.59055   0.59610
 Alpha virt. eigenvalues --    0.59684   0.60665   0.61069   0.61499   0.61698
 Alpha virt. eigenvalues --    0.61852   0.62382   0.62467   0.63287   0.63463
 Alpha virt. eigenvalues --    0.64131   0.64995   0.65163   0.65418   0.66901
 Alpha virt. eigenvalues --    0.67406   0.68223   0.68439   0.70106   0.71399
 Alpha virt. eigenvalues --    0.72344   0.73800   0.74455   0.75067   0.76223
 Alpha virt. eigenvalues --    0.77292   0.78317   0.78615   0.80472   0.81178
 Alpha virt. eigenvalues --    0.81859   0.82194   0.82342   0.82822   0.82910
 Alpha virt. eigenvalues --    0.83516   0.83924   0.84054   0.84781   0.85604
 Alpha virt. eigenvalues --    0.86040   0.86384   0.86907   0.87457   0.88063
 Alpha virt. eigenvalues --    0.89671   0.90553   0.91268   0.92976   0.94412
 Alpha virt. eigenvalues --    0.96097   0.96853   0.97680   0.98139   0.98946
 Alpha virt. eigenvalues --    0.99322   1.00301   1.02797   1.05753   1.06232
 Alpha virt. eigenvalues --    1.06802   1.07139   1.08015   1.08377   1.10506
 Alpha virt. eigenvalues --    1.11092   1.12216   1.12487   1.12990   1.14259
 Alpha virt. eigenvalues --    1.14643   1.15381   1.18590   1.19513   1.21714
 Alpha virt. eigenvalues --    1.25340   1.26745   1.27687   1.28219   1.28848
 Alpha virt. eigenvalues --    1.30334   1.35143   1.39511   1.45222   1.46619
 Alpha virt. eigenvalues --    1.51665   1.52272   1.56504   2.54617   2.55620
 Alpha virt. eigenvalues --    2.56172   2.59186   2.61967   2.62495   2.64463
 Alpha virt. eigenvalues --    2.66995   2.67721   2.68450   2.72313   2.76765
 Alpha virt. eigenvalues --    2.77771   2.83495   2.87937   2.88627   2.94131
 Alpha virt. eigenvalues --    2.94275   2.94422   2.97080   2.97452   2.98030
 Alpha virt. eigenvalues --    3.00370   3.00772   3.04044   3.05739   3.07140
 Alpha virt. eigenvalues --    3.08136   3.08427   3.08971   3.09977   3.14328
 Alpha virt. eigenvalues --    3.14778   3.16344   3.16835   3.17572   3.18823
 Alpha virt. eigenvalues --    3.22652   3.25644   3.25816   3.28296   3.28895
 Alpha virt. eigenvalues --    3.30924   3.33381   3.34269   3.35152   3.42630
 Alpha virt. eigenvalues --    3.43062   3.44421   3.46945   3.49484   3.52244
 Alpha virt. eigenvalues --    3.53435   3.54452   3.59233   3.60650   3.60676
 Alpha virt. eigenvalues --    3.63127   3.63505   3.63783   3.65967   3.66670
 Alpha virt. eigenvalues --    3.68377   3.70278   3.70470   3.71422   3.73486
 Alpha virt. eigenvalues --    3.74189   3.75551   3.80869   3.85851   3.86656
 Alpha virt. eigenvalues --    3.93030  24.24835  24.30689  24.31555  24.50537
 Alpha virt. eigenvalues --   24.50836  24.51118  24.53996  24.54666  24.56105
 Alpha virt. eigenvalues --   24.77290  24.78595  24.79146  24.79615  24.80642
 Alpha virt. eigenvalues --   24.81840  24.83244  25.05548  25.05809  25.06128
          Condensed to atoms (all electrons):
              1          2          3          4          5          6
     1  C    5.829705   0.463768   0.170963  -0.045167  -0.045932   0.008270
     2  H    0.463768   0.512436  -0.073777   0.002825   0.005107   0.001517
     3  C    0.170963  -0.073777   5.366599   0.495197   0.450100  -0.071587
     4  C   -0.045167   0.002825   0.495197   5.040923  -0.061462   0.471714
     5  C   -0.045932   0.005107   0.450100  -0.061462   5.121888  -0.031235
     6  C    0.008270   0.001517  -0.071587   0.471714  -0.031235   5.044539
     7  H   -0.000727   0.002689  -0.045657   0.394448   0.004755  -0.034676
     8  C    0.003562  -0.000275  -0.064422  -0.036140   0.473379  -0.075108
     9  H   -0.000287  -0.000140  -0.053068   0.004504   0.386598  -0.000212
    10  C    0.001139  -0.000016  -0.017753  -0.086733  -0.094839   0.494649
    11  H   -0.000389  -0.000029   0.007150  -0.039670  -0.000599   0.396658
    12  H   -0.000295   0.000014   0.006028  -0.000392  -0.036761   0.005896
    13  H   -0.000019  -0.000001  -0.001594   0.007488   0.008123  -0.042956
    14  C    0.185363  -0.074261  -0.112502   0.001932  -0.004626  -0.000680
    15  C   -0.054374   0.005549  -0.006301   0.000223  -0.017211   0.000029
    16  C   -0.026196   0.002060  -0.000338   0.000198   0.001488  -0.000004
    17  C    0.001400  -0.000282   0.001780   0.000028  -0.001734  -0.000001
    18  H    0.003099   0.000067  -0.003189  -0.000197   0.000296   0.000016
    19  C    0.007679   0.001758  -0.000601  -0.000009   0.000126   0.000001
    20  H   -0.000484   0.002416   0.000559   0.000136   0.000002   0.000003
    21  C    0.001273  -0.000013  -0.000035  -0.000001   0.000045   0.000000
    22  H   -0.000319   0.000012   0.000008   0.000000   0.000016   0.000000
    23  H   -0.000368  -0.000037   0.000020   0.000000  -0.000001   0.000000
    24  H   -0.000013  -0.000001  -0.000001   0.000000   0.000001   0.000000
    25  C    0.157789  -0.059874  -0.103933  -0.001458  -0.005820  -0.000715
    26  C   -0.040079   0.004911  -0.014334   0.001918  -0.007379   0.000224
    27  C   -0.050087  -0.003262   0.006365   0.000446  -0.000174   0.000003
    28  C    0.004828  -0.000248   0.000524  -0.000088   0.000015  -0.000003
    29  H   -0.001648  -0.000067  -0.003185  -0.000885   0.001092  -0.000135
    30  C    0.006263   0.001548  -0.000758  -0.000016   0.000025   0.000001
    31  H    0.001777   0.001066   0.000693   0.000013  -0.000038   0.000001
    32  C    0.000989   0.000009   0.000045  -0.000013  -0.000019   0.000000
    33  H   -0.000325   0.000013   0.000037   0.000007   0.000028   0.000001
    34  H   -0.000351  -0.000026   0.000011   0.000001   0.000000   0.000000
    35  H   -0.000012  -0.000002  -0.000001   0.000000   0.000001   0.000000
              7          8          9         10         11         12
     1  C   -0.000727   0.003562  -0.000287   0.001139  -0.000389  -0.000295
     2  H    0.002689  -0.000275  -0.000140  -0.000016  -0.000029   0.000014
     3  C   -0.045657  -0.064422  -0.053068  -0.017753   0.007150   0.006028
     4  C    0.394448  -0.036140   0.004504  -0.086733  -0.039670  -0.000392
     5  C    0.004755   0.473379   0.386598  -0.094839  -0.000599  -0.036761
     6  C   -0.034676  -0.075108  -0.000212   0.494649   0.396658   0.005896
     7  H    0.507682  -0.000401  -0.000243   0.005349  -0.004216   0.000022
     8  C   -0.000401   5.056500  -0.025324   0.495825   0.006228   0.395575
     9  H   -0.000243  -0.025324   0.498425   0.004794   0.000020  -0.003438
    10  C    0.005349   0.495825   0.004794   5.030328  -0.041062  -0.039648
    11  H   -0.004216   0.006228   0.000020  -0.041062   0.517939  -0.000212
    12  H    0.000022   0.395575  -0.003438  -0.039648  -0.000212   0.515470
    13  H   -0.000183  -0.042542  -0.000183   0.399172  -0.004549  -0.004354
    14  C    0.000362   0.001543  -0.003017   0.000021   0.000014   0.000011
    15  C   -0.000026  -0.000014   0.002884  -0.000004   0.000000   0.000031
    16  C   -0.000022   0.000042  -0.000258  -0.000011   0.000001   0.000002
    17  C    0.000002  -0.000089   0.001158   0.000001   0.000000   0.000000
    18  H   -0.000007   0.000862   0.003448  -0.000011   0.000000  -0.000053
    19  C    0.000001   0.000000  -0.000139   0.000000   0.000000   0.000000
    20  H   -0.000025   0.000003  -0.000004  -0.000001   0.000000   0.000000
    21  C    0.000000   0.000003   0.000079   0.000000   0.000000  -0.000001
    22  H    0.000000   0.000001  -0.000105   0.000000   0.000000   0.000001
    23  H    0.000000   0.000000   0.000000   0.000000   0.000000   0.000000
    24  H    0.000000   0.000000   0.000000   0.000000   0.000000   0.000000
    25  C    0.000479   0.000882  -0.000498   0.000023   0.000021  -0.000007
    26  C    0.000185  -0.001491   0.000342   0.000081  -0.000001   0.000013
    27  C    0.000117   0.000023  -0.000028  -0.000001   0.000000  -0.000001
    28  C    0.000009  -0.000031   0.000052   0.000004   0.000000   0.000001
    29  H   -0.000036   0.000960   0.000149   0.000048   0.000001  -0.000003
    30  C   -0.000008   0.000000   0.000006   0.000000   0.000000   0.000000
    31  H    0.000003   0.000000   0.000007   0.000000   0.000000   0.000000
    32  C   -0.000004   0.000000   0.000001   0.000000   0.000000   0.000000
    33  H    0.000000  -0.000001  -0.000017  -0.000001   0.000000   0.000000
    34  H    0.000000   0.000000   0.000000   0.000000   0.000000   0.000000
    35  H    0.000000   0.000000   0.000000   0.000000   0.000000   0.000000
             13         14         15         16         17         18
     1  C   -0.000019   0.185363  -0.054374  -0.026196   0.001400   0.003099
     2  H   -0.000001  -0.074261   0.005549   0.002060  -0.000282   0.000067
     3  C   -0.001594  -0.112502  -0.006301  -0.000338   0.001780  -0.003189
     4  C    0.007488   0.001932   0.000223   0.000198   0.000028  -0.000197
     5  C    0.008123  -0.004626  -0.017211   0.001488  -0.001734   0.000296
     6  C   -0.042956  -0.000680   0.000029  -0.000004  -0.000001   0.000016
     7  H   -0.000183   0.000362  -0.000026  -0.000022   0.000002  -0.000007
     8  C   -0.042542   0.001543  -0.000014   0.000042  -0.000089   0.000862
     9  H   -0.000183  -0.003017   0.002884  -0.000258   0.001158   0.003448
    10  C    0.399172   0.000021  -0.000004  -0.000011   0.000001  -0.000011
    11  H   -0.004549   0.000014   0.000000   0.000001   0.000000   0.000000
    12  H   -0.004354   0.000011   0.000031   0.000002   0.000000  -0.000053
    13  H    0.517640  -0.000002   0.000001   0.000000   0.000000   0.000000
    14  C   -0.000002   5.374779   0.439035   0.503566  -0.061689  -0.048463
    15  C    0.000001   0.439035   5.095270  -0.065444   0.479274   0.388551
    16  C    0.000000   0.503566  -0.065444   5.070143  -0.033446   0.004049
    17  C    0.000000  -0.061689   0.479274  -0.033446   5.035932  -0.027235
    18  H    0.000000  -0.048463   0.388551   0.004049  -0.027235   0.495277
    19  C    0.000000  -0.072776  -0.029611   0.459687  -0.076810  -0.000168
    20  H    0.000000  -0.046646   0.004627   0.395746  -0.000238  -0.000260
    21  C    0.000000  -0.017881  -0.092140  -0.086309   0.494296   0.004561
    22  H    0.000000   0.006067  -0.039045  -0.000449   0.396671  -0.003433
    23  H    0.000000   0.007067  -0.000618  -0.039726   0.006225   0.000021
    24  H    0.000000  -0.001593   0.008022   0.007535  -0.042931  -0.000169
    25  C    0.000001  -0.154332  -0.007716  -0.005682   0.000740  -0.001881
    26  C    0.000000  -0.014057  -0.000071  -0.000319  -0.000031   0.004750
    27  C    0.000000   0.000689   0.000795   0.002047  -0.000066  -0.000268
    28  C    0.000000   0.000633  -0.000661   0.000027  -0.000016   0.000445
    29  H    0.000001  -0.001026   0.000490  -0.000082   0.000062   0.001026
    30  C    0.000000  -0.000424   0.000194  -0.000036   0.000002  -0.000099
    31  H    0.000000   0.000556  -0.000050   0.001433  -0.000018  -0.000037
    32  C    0.000000   0.000075   0.000029  -0.000003   0.000003  -0.000011
    33  H    0.000000   0.000005   0.000014   0.000000   0.000000  -0.000001
    34  H    0.000000   0.000012   0.000003  -0.000001   0.000000   0.000001
    35  H    0.000000  -0.000001  -0.000001   0.000000   0.000000  -0.000001
             19         20         21         22         23         24
     1  C    0.007679  -0.000484   0.001273  -0.000319  -0.000368  -0.000013
     2  H    0.001758   0.002416  -0.000013   0.000012  -0.000037  -0.000001
     3  C   -0.000601   0.000559  -0.000035   0.000008   0.000020  -0.000001
     4  C   -0.000009   0.000136  -0.000001   0.000000   0.000000   0.000000
     5  C    0.000126   0.000002   0.000045   0.000016  -0.000001   0.000001
     6  C    0.000001   0.000003   0.000000   0.000000   0.000000   0.000000
     7  H    0.000001  -0.000025   0.000000   0.000000   0.000000   0.000000
     8  C    0.000000   0.000003   0.000003   0.000001   0.000000   0.000000
     9  H   -0.000139  -0.000004   0.000079  -0.000105   0.000000   0.000000
    10  C    0.000000  -0.000001   0.000000   0.000000   0.000000   0.000000
    11  H    0.000000   0.000000   0.000000   0.000000   0.000000   0.000000
    12  H    0.000000   0.000000  -0.000001   0.000001   0.000000   0.000000
    13  H    0.000000   0.000000   0.000000   0.000000   0.000000   0.000000
    14  C   -0.072776  -0.046646  -0.017881   0.006067   0.007067  -0.001593
    15  C   -0.029611   0.004627  -0.092140  -0.039045  -0.000618   0.008022
    16  C    0.459687   0.395746  -0.086309  -0.000449  -0.039726   0.007535
    17  C   -0.076810  -0.000238   0.494296   0.396671   0.006225  -0.042931
    18  H   -0.000168  -0.000260   0.004561  -0.003433   0.000021  -0.000169
    19  C    5.054949  -0.035033   0.497063   0.005995   0.396791  -0.042752
    20  H   -0.035033   0.510820   0.005159   0.000024  -0.004176  -0.000186
    21  C    0.497063   0.005159   5.031021  -0.039541  -0.040780   0.399627
    22  H    0.005995   0.000024  -0.039541   0.515330  -0.000211  -0.004455
    23  H    0.396791  -0.004176  -0.040780  -0.000211   0.518311  -0.004581
    24  H   -0.042752  -0.000186   0.399627  -0.004455  -0.004581   0.517503
    25  C   -0.000463   0.000152   0.000096   0.000018   0.000011  -0.000002
    26  C    0.000048  -0.000048  -0.000004  -0.000002   0.000000   0.000000
    27  C   -0.000099   0.000252  -0.000014   0.000006   0.000003   0.000000
    28  C   -0.000001   0.000000   0.000000  -0.000001   0.000000   0.000000
    29  H    0.000002   0.000000   0.000002  -0.000009   0.000000   0.000000
    30  C    0.000006  -0.000006   0.000000   0.000001   0.000000   0.000000
    31  H    0.000030   0.000254  -0.000012   0.000000  -0.000003   0.000000
    32  C    0.000000   0.000000   0.000000   0.000000   0.000000   0.000000
    33  H    0.000000   0.000000   0.000000   0.000000   0.000000   0.000000
    34  H    0.000000  -0.000001   0.000000   0.000000   0.000000   0.000000
    35  H    0.000000   0.000000   0.000000   0.000000   0.000000   0.000000
             25         26         27         28         29         30
     1  C    0.157789  -0.040079  -0.050087   0.004828  -0.001648   0.006263
     2  H   -0.059874   0.004911  -0.003262  -0.000248  -0.000067   0.001548
     3  C   -0.103933  -0.014334   0.006365   0.000524  -0.003185  -0.000758
     4  C   -0.001458   0.001918   0.000446  -0.000088  -0.000885  -0.000016
     5  C   -0.005820  -0.007379  -0.000174   0.000015   0.001092   0.000025
     6  C   -0.000715   0.000224   0.000003  -0.000003  -0.000135   0.000001
     7  H    0.000479   0.000185   0.000117   0.000009  -0.000036  -0.000008
     8  C    0.000882  -0.001491   0.000023  -0.000031   0.000960   0.000000
     9  H   -0.000498   0.000342  -0.000028   0.000052   0.000149   0.000006
    10  C    0.000023   0.000081  -0.000001   0.000004   0.000048   0.000000
    11  H    0.000021  -0.000001   0.000000   0.000000   0.000001   0.000000
    12  H   -0.000007   0.000013  -0.000001   0.000001  -0.000003   0.000000
    13  H    0.000001   0.000000   0.000000   0.000000   0.000001   0.000000
    14  C   -0.154332  -0.014057   0.000689   0.000633  -0.001026  -0.000424
    15  C   -0.007716  -0.000071   0.000795  -0.000661   0.000490   0.000194
    16  C   -0.005682  -0.000319   0.002047   0.000027  -0.000082  -0.000036
    17  C    0.000740  -0.000031  -0.000066  -0.000016   0.000062   0.000002
    18  H   -0.001881   0.004750  -0.000268   0.000445   0.001026  -0.000099
    19  C   -0.000463   0.000048  -0.000099  -0.000001   0.000002   0.000006
    20  H    0.000152  -0.000048   0.000252   0.000000   0.000000  -0.000006
    21  C    0.000096  -0.000004  -0.000014   0.000000   0.000002   0.000000
    22  H    0.000018  -0.000002   0.000006  -0.000001  -0.000009   0.000001
    23  H    0.000011   0.000000   0.000003   0.000000   0.000000   0.000000
    24  H   -0.000002   0.000000   0.000000   0.000000   0.000000   0.000000
    25  C    5.366254   0.485862   0.473164  -0.064558  -0.042671  -0.065329
    26  C    0.485862   5.087636  -0.071951   0.471542   0.390183  -0.027901
    27  C    0.473164  -0.071951   5.071629  -0.031587   0.004189   0.466337
    28  C   -0.064558   0.471542  -0.031587   5.050432  -0.029932  -0.076908
    29  H   -0.042671   0.390183   0.004189  -0.029932   0.481538  -0.000181
    30  C   -0.065329  -0.027901   0.466337  -0.076908  -0.000181   5.050231
    31  H   -0.050628   0.004144   0.399562  -0.000335  -0.000249  -0.035572
    32  C   -0.018522  -0.093479  -0.086101   0.499293   0.004712   0.488914
    33  H    0.006180  -0.037580  -0.000424   0.395904  -0.003334   0.005999
    34  H    0.006705  -0.000523  -0.039642   0.006125   0.000020   0.397085
    35  H   -0.001479   0.007825   0.007373  -0.042203  -0.000182  -0.042952
             31         32         33         34         35
     1  C    0.001777   0.000989  -0.000325  -0.000351  -0.000012
     2  H    0.001066   0.000009   0.000013  -0.000026  -0.000002
     3  C    0.000693   0.000045   0.000037   0.000011  -0.000001
     4  C    0.000013  -0.000013   0.000007   0.000001   0.000000
     5  C   -0.000038  -0.000019   0.000028   0.000000   0.000001
     6  C    0.000001   0.000000   0.000001   0.000000   0.000000
     7  H    0.000003  -0.000004   0.000000   0.000000   0.000000
     8  C    0.000000   0.000000  -0.000001   0.000000   0.000000
     9  H    0.000007   0.000001  -0.000017   0.000000   0.000000
    10  C    0.000000   0.000000  -0.000001   0.000000   0.000000
    11  H    0.000000   0.000000   0.000000   0.000000   0.000000
    12  H    0.000000   0.000000   0.000000   0.000000   0.000000
    13  H    0.000000   0.000000   0.000000   0.000000   0.000000
    14  C    0.000556   0.000075   0.000005   0.000012  -0.000001
    15  C   -0.000050   0.000029   0.000014   0.000003  -0.000001
    16  C    0.001433  -0.000003   0.000000  -0.000001   0.000000
    17  C   -0.000018   0.000003   0.000000   0.000000   0.000000
    18  H   -0.000037  -0.000011  -0.000001   0.000001  -0.000001
    19  C    0.000030   0.000000   0.000000   0.000000   0.000000
    20  H    0.000254   0.000000   0.000000  -0.000001   0.000000
    21  C   -0.000012   0.000000   0.000000   0.000000   0.000000
    22  H    0.000000   0.000000   0.000000   0.000000   0.000000
    23  H   -0.000003   0.000000   0.000000   0.000000   0.000000
    24  H    0.000000   0.000000   0.000000   0.000000   0.000000
    25  C   -0.050628  -0.018522   0.006180   0.006705  -0.001479
    26  C    0.004144  -0.093479  -0.037580  -0.000523   0.007825
    27  C    0.399562  -0.086101  -0.000424  -0.039642   0.007373
    28  C   -0.000335   0.499293   0.395904   0.006125  -0.042203
    29  H   -0.000249   0.004712  -0.003334   0.000020  -0.000182
    30  C   -0.035572   0.488914   0.005999   0.397085  -0.042952
    31  H    0.509950   0.005342   0.000024  -0.004288  -0.000185
    32  C    0.005342   5.033406  -0.040255  -0.040727   0.399193
    33  H    0.000024  -0.040255   0.516818  -0.000213  -0.004445
    34  H   -0.004288  -0.040727  -0.000213   0.518583  -0.004487
    35  H   -0.000185   0.399193  -0.004445  -0.004487   0.518521
 Mulliken atomic charges:
              1
     1  C   -0.580795
     2  H    0.204549
     3  C    0.066958
     4  C   -0.149767
     5  C   -0.145254
     6  C   -0.166209
     7  H    0.170128
     8  C   -0.189553
     9  H    0.184496
    10  C   -0.151353
    11  H    0.162695
    12  H    0.162099
    13  H    0.163958
    14  C    0.092244
    15  C   -0.111732
    16  C   -0.189700
    17  C   -0.172987
    18  H    0.179014
    19  C   -0.165673
    20  H    0.166955
    21  C   -0.156495
    22  H    0.163422
    23  H    0.162052
    24  H    0.163998
    25  C    0.087190
    26  C   -0.150414
    27  C   -0.149294
    28  C   -0.183263
    29  H    0.199152
    30  C   -0.166421
    31  H    0.166558
    32  C   -0.152875
    33  H    0.161565
    34  H    0.161713
    35  H    0.163038
 Sum of Mulliken atomic charges =   0.00000
 Mulliken charges with hydrogens summed into heavy atoms:
              1
     1  C   -0.376245
     3  C    0.066958
     4  C    0.020361
     5  C    0.039242
     6  C   -0.003514
     8  C   -0.027454
    10  C    0.012606
    14  C    0.092244
    15  C    0.067282
    16  C   -0.022745
    17  C   -0.009566
    19  C   -0.003620
    21  C    0.007503
    25  C    0.087190
    26  C    0.048738
    27  C    0.017264
    28  C   -0.021698
    30  C   -0.004709
    32  C    0.010163
 Sum of Mulliken charges with hydrogens summed into heavy atoms =   0.00000
 Electronic spatial extent (au):  <R**2>=           4939.6310
 Charge=              0.0000 electrons
 Dipole moment (field-independent basis, Debye):
    X=              0.0125    Y=             -0.0674    Z=             -0.0425  Tot=              0.0806
 Quadrupole moment (field-independent basis, Debye-Ang):
   XX=           -110.6145   YY=           -114.0652   ZZ=           -102.8478
   XY=             -0.8026   XZ=             -2.2714   YZ=             -0.1342
 Traceless Quadrupole moment (field-independent basis, Debye-Ang):
   XX=             -1.4387   YY=             -4.8893   ZZ=              6.3280
   XY=             -0.8026   XZ=             -2.2714   YZ=             -0.1342
 Octapole moment (field-independent basis, Debye-Ang**2):
  XXX=            -40.1236  YYY=             17.6779  ZZZ=             -0.1772  XYY=             44.8644
  XXY=            -13.6971  XXZ=             -6.4932  XZZ=             -0.7541  YZZ=             -4.8262
  YYZ=             10.3765  XYZ=             -0.0566
 Hexadecapole moment (field-independent basis, Debye-Ang**3):
 XXXX=          -3091.8942 YYYY=          -2907.3165 ZZZZ=           -786.9218 XXXY=              6.7138
 XXXZ=             -1.5930 YYYX=             -3.3521 YYYZ=             58.9719 ZZZX=             -6.2583
 ZZZY=             -3.9606 XXYY=           -972.9751 XXZZ=           -631.4705 YYZZ=           -601.1965
 XXYZ=            -50.0379 YYXZ=            -21.6047 ZZXY=            -15.6527
 N-N= 1.288382839457D+03 E-N=-4.272774914423D+03  KE= 7.285914007702D+02
 PrsmSu:  requested number of processors reduced to:  10 ShMem   1 Linda.
 Calling FoFJK, ICntrl=      2127 FMM=F ISym2X=0 I1Cent= 0 IOpClX= 0 NMat=1 NMatS=1 NMatT=0.
 ***** Axes restored to original set *****
 -------------------------------------------------------------------
 Center     Atomic                   Forces (Hartrees/Bohr)
 Number     Number              X              Y              Z
 -------------------------------------------------------------------
      1        6           0.000779264    0.000372788    0.023905709
      2        1          -0.001664762    0.001281426   -0.027412240
      3        6          -0.012296407   -0.001089955    0.005233182
      4        6           0.001588604   -0.002075454    0.005723990
      5        6           0.005700466    0.006269629   -0.010498835
      6        6          -0.008412788   -0.005085162    0.008595455
      7        1          -0.006005219    0.004727674   -0.016025430
      8        6          -0.004162238    0.002594942   -0.011097678
      9        1          -0.022859658   -0.009253634    0.018009856
     10        6          -0.013219001   -0.001908668   -0.001687510
     11        1           0.009837951    0.006296796   -0.011936327
     12        1           0.006261142   -0.004182045    0.014911229
     13        1           0.016369442    0.002132869    0.003008518
     14        6           0.005146313    0.012066328    0.005113490
     15        6          -0.002156589   -0.006799923   -0.009304437
     16        6          -0.000704397   -0.000998098    0.005953070
     17        6           0.000148366    0.000580858   -0.012405024
     18        1           0.016004282    0.017439775    0.013362364
     19        6           0.004076422    0.010250247    0.007547454
     20        1           0.001992863    0.002958198   -0.017366230
     21        6           0.005499352    0.012319380   -0.001854261
     22        1          -0.002144248   -0.003210613    0.016246907
     23        1          -0.004268947   -0.011149419   -0.011616101
     24        1          -0.006643679   -0.014706334    0.004732278
     25        6           0.007441099   -0.012500454    0.001165596
     26        6          -0.008949966    0.001887539   -0.006407621
     27        6           0.002875054    0.002018181    0.005404067
     28        6          -0.001295681   -0.005765217   -0.010609596
     29        1           0.017144281   -0.008043157    0.011130999
     30        6           0.010438537   -0.002650707    0.006941873
     31        1          -0.004473006   -0.008155448   -0.014723718
     32        6           0.007649198   -0.010201122   -0.004684342
     33        1           0.003707630    0.008022430    0.014185871
     34        1          -0.013480082    0.004179681   -0.008857922
     35        1          -0.009923598    0.012376670    0.005315362
 -------------------------------------------------------------------
 Cartesian Forces:  Max     0.027412240 RMS     0.009560400

 GradGradGradGradGradGradGradGradGradGradGradGradGradGradGradGradGradGrad
 Berny optimization.
 Internal  Forces:  Max     0.029869891 RMS     0.007841299
 Search for a local minimum.
 Step number   1 out of a maximum of  197
 All quantities printed in internal units (Hartrees-Bohrs-Radians)
 Mixed Optimization -- RFO/linear search
 Second derivative matrix not updated -- first step.
     Eigenvalues ---    0.00634   0.00645   0.00653   0.01530   0.01533
     Eigenvalues ---    0.01536   0.02137   0.02140   0.02146   0.02167
     Eigenvalues ---    0.02170   0.02172   0.02181   0.02185   0.02186
     Eigenvalues ---    0.02202   0.02203   0.02203   0.02213   0.02213
     Eigenvalues ---    0.02215   0.02215   0.02216   0.02217   0.02217
     Eigenvalues ---    0.02218   0.02219   0.02219   0.02221   0.02222
     Eigenvalues ---    0.04519   0.06372   0.06674   0.15996   0.15999
     Eigenvalues ---    0.15999   0.16000   0.16000   0.16000   0.16000
     Eigenvalues ---    0.16000   0.16000   0.16000   0.16000   0.16000
     Eigenvalues ---    0.16000   0.16000   0.16000   0.18938   0.19364
     Eigenvalues ---    0.22000   0.22000   0.22000   0.22000   0.22000
     Eigenvalues ---    0.22000   0.23476   0.23476   0.23477   0.24996
     Eigenvalues ---    0.24999   0.25000   0.31164   0.31352   0.31433
     Eigenvalues ---    0.31501   0.33464   0.33606   0.33965   0.34069
     Eigenvalues ---    0.34078   0.34091   0.34256   0.34256   0.34257
     Eigenvalues ---    0.34258   0.34260   0.34270   0.34284   0.34287
     Eigenvalues ---    0.34289   0.42415   0.42424   0.42488   0.42570
     Eigenvalues ---    0.42580   0.42618   0.46337   0.46356   0.46432
     Eigenvalues ---    0.46763   0.46765   0.46832   0.47222   0.47229
     Eigenvalues ---    0.47260   0.47325   0.47344   0.473701000.00000
     Eigenvalues --- 1000.000001000.000001000.000001000.000001000.00000
     Eigenvalues --- 1000.000001000.000001000.000001000.000001000.00000
     Eigenvalues --- 1000.000001000.000001000.000001000.000001000.00000
     Eigenvalues --- 1000.000001000.000001000.000001000.000001000.00000
     Eigenvalues --- 1000.000001000.000001000.000001000.000001000.00000
     Eigenvalues --- 1000.000001000.000001000.000001000.000001000.00000
     Eigenvalues --- 1000.000001000.000001000.000001000.000001000.00000
     Eigenvalues --- 1000.000001000.000001000.000001000.000001000.00000
     Eigenvalues --- 1000.000001000.000001000.000001000.000001000.00000
     Eigenvalues --- 1000.000001000.000001000.000001000.000001000.00000
     Eigenvalues --- 1000.000001000.000001000.000001000.000001000.00000
     Eigenvalues --- 1000.000001000.000001000.000001000.000001000.00000
     Eigenvalues --- 1000.000001000.000001000.000001000.000001000.00000
     Eigenvalues --- 1000.000001000.000001000.000001000.000001000.00000
     Eigenvalues --- 1000.000001000.000001000.000001000.000001000.00000
     Eigenvalues --- 1000.000001000.000001000.000001000.000001000.00000
     Eigenvalues --- 1000.000001000.000001000.000001000.000001000.00000
     Eigenvalues --- 1000.000001000.00000
 RFO step:  Lambda=-4.29529487D-02 EMin= 6.33886105D-03
 Linear search not attempted -- first point.
 Maximum step size (   0.300) exceeded in Quadratic search.
    -- Step size scaled by   0.575
 Iteration  1 RMS(Cart)=  0.12605019 RMS(Int)=  0.00284808
 Iteration  2 RMS(Cart)=  0.00586072 RMS(Int)=  0.00028946
 Iteration  3 RMS(Cart)=  0.00000909 RMS(Int)=  0.00028941
 Iteration  4 RMS(Cart)=  0.00000000 RMS(Int)=  0.00028941
 Variable       Old X    -DE/DX   Delta X   Delta X   Delta X     New X
                                 (Linear)    (Quad)   (Total)
    R1        2.12400  -0.02748   0.00000  -0.04454  -0.04454   2.07946
    R2        2.85066   0.02569   0.00000   0.04125   0.04125   2.89190
    R3        2.85193   0.02265   0.00000   0.03643   0.03643   2.88837
    R4        2.85346   0.02085   0.00000   0.03361   0.03361   2.88706
    R5        2.64239  -0.00359   0.00000  -0.00404  -0.00402   2.63836
    R6        2.63779   0.00075   0.00000   0.00104   0.00106   2.63884
    R7        2.62629  -0.00362   0.00000  -0.00415  -0.00415   2.62214
    R8        2.07214  -0.01774   0.00000  -0.02658  -0.02658   2.04556
    R9        2.62716  -0.00320   0.00000  -0.00344  -0.00345   2.62371
   R10        2.08244  -0.02987   0.00000  -0.04547  -0.04547   2.03697
   R11        2.62807  -0.00842   0.00000  -0.00958  -0.00959   2.61848
   R12        2.06899  -0.01670   0.00000  -0.02490  -0.02490   2.04410
   R13        2.62690  -0.00676   0.00000  -0.00759  -0.00761   2.61929
   R14        2.06894  -0.01670   0.00000  -0.02490  -0.02490   2.04403
   R15        2.06849  -0.01678   0.00000  -0.02500  -0.02500   2.04350
   R16        2.63800   0.00059   0.00000   0.00082   0.00084   2.63884
   R17        2.63978  -0.00414   0.00000  -0.00464  -0.00463   2.63515
   R18        2.62588  -0.00451   0.00000  -0.00495  -0.00494   2.62095
   R19        2.08000  -0.02548   0.00000  -0.03864  -0.03864   2.04136
   R20        2.62720  -0.00273   0.00000  -0.00311  -0.00312   2.62408
   R21        2.07198  -0.01772   0.00000  -0.02654  -0.02654   2.04544
   R22        2.62784  -0.00541   0.00000  -0.00611  -0.00612   2.62171
   R23        2.06876  -0.01670   0.00000  -0.02489  -0.02489   2.04387
   R24        2.62795  -0.00849   0.00000  -0.00962  -0.00964   2.61830
   R25        2.06897  -0.01666   0.00000  -0.02483  -0.02483   2.04414
   R26        2.06854  -0.01682   0.00000  -0.02505  -0.02505   2.04348
   R27        2.63516  -0.00247   0.00000  -0.00274  -0.00273   2.63243
   R28        2.64312  -0.00428   0.00000  -0.00493  -0.00492   2.63820
   R29        2.62858  -0.00274   0.00000  -0.00299  -0.00299   2.62559
   R30        2.07389  -0.02181   0.00000  -0.03276  -0.03276   2.04113
   R31        2.62516  -0.00414   0.00000  -0.00467  -0.00467   2.62050
   R32        2.07176  -0.01740   0.00000  -0.02606  -0.02606   2.04570
   R33        2.62606  -0.00625   0.00000  -0.00693  -0.00694   2.61912
   R34        2.06901  -0.01671   0.00000  -0.02492  -0.02492   2.04409
   R35        2.62892  -0.00600   0.00000  -0.00677  -0.00677   2.62215
   R36        2.06899  -0.01666   0.00000  -0.02484  -0.02484   2.04415
   R37        2.06846  -0.01673   0.00000  -0.02492  -0.02492   2.04354
    A1        1.85569  -0.00924   0.00000  -0.04553  -0.04458   1.81110
    A2        1.86780  -0.00594   0.00000  -0.03546  -0.03471   1.83309
    A3        1.85830  -0.00027   0.00000  -0.01899  -0.01882   1.83948
    A4        1.97501   0.01477   0.00000   0.05384   0.05267   2.02768
    A5        1.97347   0.00299   0.00000   0.02538   0.02347   1.99694
    A6        1.92515  -0.00404   0.00000   0.00961   0.00727   1.93242
    A7        2.06582  -0.01298   0.00000  -0.02549  -0.02550   2.04031
    A8        2.14215   0.02510   0.00000   0.04923   0.04921   2.19137
    A9        2.07521  -0.01212   0.00000  -0.02374  -0.02371   2.05151
   A10        2.10303   0.00831   0.00000   0.01759   0.01762   2.12065
   A11        2.09372  -0.00487   0.00000  -0.01084  -0.01085   2.08287
   A12        2.08643  -0.00343   0.00000  -0.00676  -0.00677   2.07966
   A13        2.10369   0.00440   0.00000   0.00978   0.00978   2.11347
   A14        2.08554   0.00422   0.00000   0.01328   0.01328   2.09882
   A15        2.09392  -0.00862   0.00000  -0.02309  -0.02309   2.07083
   A16        2.09754   0.00004   0.00000  -0.00098  -0.00098   2.09656
   A17        2.09144   0.00005   0.00000   0.00069   0.00069   2.09214
   A18        2.09420  -0.00009   0.00000   0.00028   0.00029   2.09449
   A19        2.09779   0.00243   0.00000   0.00498   0.00496   2.10274
   A20        2.09020  -0.00116   0.00000  -0.00233  -0.00231   2.08788
   A21        2.09520  -0.00128   0.00000  -0.00266  -0.00265   2.09255
   A22        2.08910  -0.00306   0.00000  -0.00763  -0.00766   2.08144
   A23        2.09684   0.00153   0.00000   0.00381   0.00383   2.10067
   A24        2.09724   0.00153   0.00000   0.00381   0.00383   2.10107
   A25        2.12693   0.01653   0.00000   0.03234   0.03226   2.15919
   A26        2.07796  -0.00633   0.00000  -0.01252  -0.01259   2.06538
   A27        2.07816  -0.01024   0.00000  -0.02011  -0.02011   2.05805
   A28        2.10369   0.00376   0.00000   0.00836   0.00830   2.11198
   A29        2.07581   0.00414   0.00000   0.01306   0.01294   2.08875
   A30        2.10346  -0.00784   0.00000  -0.02089  -0.02101   2.08245
   A31        2.10032   0.00700   0.00000   0.01495   0.01495   2.11527
   A32        2.09448  -0.00408   0.00000  -0.00911  -0.00912   2.08536
   A33        2.08839  -0.00292   0.00000  -0.00583  -0.00584   2.08254
   A34        2.09565   0.00217   0.00000   0.00437   0.00437   2.10001
   A35        2.09167  -0.00099   0.00000  -0.00192  -0.00193   2.08974
   A36        2.09587  -0.00118   0.00000  -0.00244  -0.00245   2.09341
   A37        2.09802  -0.00013   0.00000  -0.00107  -0.00109   2.09693
   A38        2.09115   0.00022   0.00000   0.00098   0.00099   2.09214
   A39        2.09402  -0.00010   0.00000   0.00008   0.00009   2.09411
   A40        2.09050  -0.00256   0.00000  -0.00639  -0.00643   2.08407
   A41        2.09636   0.00129   0.00000   0.00322   0.00322   2.09958
   A42        2.09632   0.00127   0.00000   0.00318   0.00319   2.09951
   A43        2.14071   0.00959   0.00000   0.01891   0.01891   2.15962
   A44        2.06494  -0.00204   0.00000  -0.00391  -0.00391   2.06103
   A45        2.07751  -0.00756   0.00000  -0.01501  -0.01500   2.06251
   A46        2.10166   0.00314   0.00000   0.00684   0.00684   2.10851
   A47        2.09265   0.00057   0.00000   0.00263   0.00263   2.09528
   A48        2.08883  -0.00371   0.00000  -0.00950  -0.00950   2.07933
   A49        2.10231   0.00530   0.00000   0.01112   0.01113   2.11344
   A50        2.09298  -0.00327   0.00000  -0.00731  -0.00731   2.08567
   A51        2.08788  -0.00203   0.00000  -0.00381  -0.00382   2.08406
   A52        2.09857   0.00131   0.00000   0.00277   0.00276   2.10133
   A53        2.08966  -0.00060   0.00000  -0.00123  -0.00122   2.08844
   A54        2.09495  -0.00071   0.00000  -0.00155  -0.00154   2.09341
   A55        2.09701   0.00010   0.00000  -0.00034  -0.00035   2.09667
   A56        2.09192   0.00001   0.00000   0.00033   0.00033   2.09225
   A57        2.09425  -0.00010   0.00000   0.00002   0.00002   2.09427
[...]
 ,0.00113440,0.00013913,-0.00006559,-0.00023284,-0.00035241,-0.00007842
 ,-0.00011480,-0.00020582,-0.00005723,-0.00017470,-0.00000039,0.0000109
 8,0.00012540,0.00022265,0.00000491,-0.00009096,-0.00002937,0.00005495,
 0.00000750,-0.00006060,-0.00011699,0.00019356,-0.00002125,-0.00000258,
 -0.00000365,-0.00000708,-0.00000175,-0.00000042,0.00000542,0.00000453,
 0.00001106,-0.00027468,-0.00063559,-0.00053404,-0.00016144,0.00021343,
 -0.00008599,-0.00028542,-0.00042524,-0.00002102,-0.00005342,-0.0004345
 6,-0.00014931,0.00022144,0.00002278,-0.00011174,0.00023260,0.00015521,
 -0.00023703,-0.00002769,0.00001537,-0.00001769,-0.00012813,0.00012521,
 0.00028335,-0.00001919,-0.00000463,0.00000328,0.00001752,-0.00002102,0
 .00001486,0.00000139,-0.00001785,0.00000024,0.03966365,0.02393648,0.06
 190531,0.01104388,-0.04979847,-0.04660610,-0.01715229,-0.05980683,-0.1
 5138823,-0.07574859,0.02718122,-0.02218545,0.00080411,-0.00026906,-0.0
 0078159,0.21246069,0.20458885,0.53567202,0.00028179,-0.00252312,-0.000
 25057,-0.00045561,0.00052871,0.00124325,-0.00006684,-0.00005585,0.0004
 0950,-0.00000403,0.00007487,-0.00007819,0.00016763,0.00008327,0.000068
 29,0.00001052,-0.00000980,0.00002303,-0.00003067,-0.00004771,0.0000109
 5,0.00003742,-0.00004710,0.00002920,-0.00000606,-0.00001800,0.00000105
 ,0.00002062,0.00000558,0.00000156,0.00000582,0.00000104,-0.00000654,0.
 00002207,-0.00001107,0.00000473,0.00001102,-0.00000346,0.00000377,0.00
 025394,0.00015344,-0.00006449,-0.00000039,-0.00011251,-0.00015320,-0.0
 0006113,-0.00002508,-0.00002177,-0.00005301,-0.00001859,0.00001443,-0.
 00000214,0.00001646,0.00008289,0.00003494,0.00006114,0.00001194,-0.000
 03952,0.00004001,0.00002423,-0.00005102,-0.00002399,0.00003975,-0.0000
 1068,-0.00001982,0.00002681,0.00000229,-0.00001644,-0.00000090,-0.0000
 0010,-0.00001181,0.00001452,-0.00450309,-0.01827912,-0.02504216,-0.003
 31044,0.00423099,-0.00472192,-0.09777589,-0.04578976,-0.08034679,-0.00
 091181,0.00050162,0.00051756,-0.00033308,-0.00096963,-0.00114310,0.011
 28951,0.01373508,0.01719188,0.09557577,-0.00051058,-0.00137537,0.00173
 184,0.00022710,0.00051928,0.00070261,-0.00009217,0.00020666,0.00017489
 ,-0.00010017,0.00006481,-0.00012841,-0.00000901,0.00002548,0.00003812,
 0.00002287,-0.00002243,0.00001289,-0.00000645,-0.00000993,0.00002838,0
 .00000052,-0.00004449,0.00001558,0.00000444,-0.00000209,0.00001311,-0.
 00002902,0.00000902,-0.00000749,-0.00001770,-0.00000748,0.00000308,-0.
 00000365,-0.00000454,-0.00000725,-0.00000409,-0.00000180,0.00000275,0.
 00011129,-0.00013635,0.00007164,-0.00002010,0.00000020,-0.00003621,-0.
 00007011,-0.00010665,-0.00006749,-0.00004332,-0.00001857,0.00004260,0.
 00001454,0.00005344,0.00001098,0.00002288,-0.00004127,-0.00002801,0.00
 000570,-0.00000189,0.00000371,0.00001679,0.00001989,0.00001714,0.00000
 354,-0.00000179,-0.00000949,0.00000023,0.00001158,0.00000871,0.0000026
 2,0.00001468,-0.00000384,0.00490031,0.00849056,0.00663001,0.00398970,0
 .00309749,-0.00167575,-0.04589371,-0.15403464,-0.13502282,0.00043595,-
 0.00045980,0.00080684,0.00015696,0.00019304,0.00040683,-0.01191948,-0.
 00921930,-0.02279640,0.04501367,0.15504606,0.00218823,0.00152248,-0.00
 106106,-0.00042179,0.00025869,0.00031897,0.00002403,-0.00023611,0.0002
 8324,0.00003563,0.00002816,0.00007185,0.00014543,0.00004271,0.00003565
 ,0.00000899,0.00003249,-0.00002832,-0.00000807,-0.00001663,-0.00003143
 ,0.00003233,-0.00000430,0.00004214,-0.00000512,-0.00001541,-0.00003716
 ,0.00000490,-0.00000476,0.00000449,0.00001210,-0.00000327,-0.00000433,
 0.00001161,-0.00000159,-0.00000279,0.00000182,-0.00000317,-0.00000451,
 -0.00027677,0.00034415,0.00040036,0.00022775,-0.00013191,-0.00008467,0
 .00016741,0.00037159,0.00007909,0.00012925,0.00018021,-0.00000930,-0.0
 0014446,-0.00010102,-0.00005455,-0.00006444,0.00001439,0.00013829,-0.0
 0002839,-0.00000820,-0.00003049,0.00003028,-0.00003539,-0.00009232,-0.
 00002319,0.00000153,-0.00000320,-0.00000207,0.00000054,-0.00001766,-0.
 00001430,-0.00000970,-0.00000210,-0.00207390,-0.01225562,-0.00771907,-
 0.00490190,-0.00124919,0.00317773,-0.08070974,-0.13406089,-0.23737032,
 0.00044742,0.00090213,0.00021650,-0.00013999,-0.00049125,-0.00061007,-
 0.00704862,-0.00387050,-0.00325863,0.09067811,0.15081906,0.24371740,-0
 .00017366,-0.00182694,-0.00047473,-0.00006890,0.00000083,0.00081081,0.
 00027075,0.00033492,-0.00036362,-0.00038143,0.00012687,0.00008183,0.00
 027326,0.00001964,0.00023546,0.00034087,-0.00001254,0.00016384,-0.0000
 0555,-0.00002055,-0.00005944,-0.00025030,-0.00014784,0.00008362,0.0000
 1927,-0.00002600,0.00001741,-0.00004621,0.00016493,-0.00028090,-0.0000
 1667,-0.00000585,0.00002229,-0.00001920,0.00000284,-0.00001760,-0.0000
 2126,0.00000220,-0.00000073,0.00067269,-0.00045287,0.00024902,0.000174
 14,-0.00002334,0.00010016,0.00026471,0.00031909,0.00002382,-0.00000062
 ,0.00036717,0.00011639,-0.00031438,0.00011671,0.00025832,-0.00018893,-
 0.00010845,0.00018318,0.00000312,-0.00001517,0.00000040,0.00010809,-0.
 00008439,-0.00023347,0.00002731,0.00003537,-0.00001475,-0.00002584,0.0
 0001997,-0.00002182,0.00000260,0.00001747,0.00000424,-0.05443787,-0.01
 623393,-0.05180682,-0.03496857,0.07474190,0.03795456,0.07377035,-0.029
 05227,0.01917036,-0.29975848,0.03471020,-0.13130282,0.00156049,0.00481
 938,-0.00081887,-0.16322350,0.01729707,-0.04467780,0.00013049,0.006158
 49,-0.00085629,0.64075799,-0.00105007,-0.00094878,0.00003539,0.0001945
 7,-0.00012580,0.00033517,-0.00006603,-0.00007910,-0.00022242,-0.000017
 58,-0.00002218,0.00009553,0.00010670,0.00004441,-0.00007092,0.00003406
 ,0.00001168,0.00006686,-0.00005121,-0.00004125,-0.00000407,-0.00005824
 ,-0.00001349,-0.00000849,-0.00000216,-0.00001096,-0.00000377,0.0000640
 8,0.00004446,-0.00001336,0.00003846,-0.00000175,-0.00002122,0.00002149
 ,-0.00001032,0.00000610,0.00001572,-0.00000471,-0.00000156,0.00092974,
 -0.00002061,-0.00018988,-0.00000343,-0.00019019,-0.00012102,-0.0000313
 7,-0.00011820,0.00022669,-0.00001372,0.00011611,0.00008294,-0.00003648
 ,-0.00000379,0.00001904,-0.00008213,-0.00003926,-0.00000551,0.00001859
 ,0.00002636,0.00000603,0.00000839,-0.00009195,-0.00005167,-0.00000575,
 -0.00003400,0.00003188,-0.00002316,-0.00003417,-0.00000248,-0.00000845
 ,-0.00000362,0.00000935,-0.01690926,-0.00593387,-0.01245544,0.03039871
 ,0.01026443,0.02354708,0.01491563,-0.03325058,-0.03029050,0.09195904,-
 0.14530193,0.01200305,0.00490364,-0.00074302,-0.00526093,-0.03936131,-
 0.19595301,-0.13721993,0.00576118,-0.00006913,-0.00439424,-0.21229273,
 0.59700612,-0.00039030,-0.00155296,-0.00108006,0.00030879,-0.00033496,
 0.00085502,0.00015331,0.00007949,-0.00050725,-0.00030850,0.00016577,0.
 00013927,0.00039043,0.00004850,0.00016100,0.00033064,0.00001882,0.0001
 8939,-0.00001534,-0.00004451,-0.00007706,-0.00027331,-0.00014246,0.000
 06351,0.00001199,-0.00001428,-0.00000101,0.00002466,0.00017524,-0.0002
 4967,0.00000520,-0.00000607,0.00000697,0.00000554,-0.00000694,-0.00000
 612,-0.00000561,0.00000020,-0.00000631,0.00113118,-0.00020814,0.000214
 83,0.00019177,-0.00037388,0.00003584,0.00022583,0.00026988,0.00026008,
 0.00004235,0.00042838,0.00009481,-0.00019494,-0.00004527,0.00006380,-0
 .00025330,-0.00015050,0.00019747,0.00000813,0.00001008,0.00000473,0.00
 009170,-0.00020805,-0.00026706,0.00001173,-0.00003304,0.00004762,-0.00
 004104,-0.00001232,-0.00001946,-0.00000787,-0.00000154,0.00000454,-0.0
 5253255,-0.01076662,-0.05892426,-0.00523875,0.05720940,0.06086881,0.06
 316206,-0.06359348,-0.00426459,-0.07766836,-0.03168018,-0.17239056,-0.
 00052939,-0.00559319,0.00340360,-0.09875495,-0.09346683,-0.24883467,-0
 .00133365,-0.00391718,0.00431317,0.15420114,0.23954191,0.52105371,0.00
 047910,0.00021130,0.00068048,-0.00007060,0.00013105,0.00012325,0.00009
 412,-0.00005276,-0.00001884,-0.00003316,-0.00000751,-0.00000489,0.0000
 2625,-0.00001145,-0.00002572,0.00000974,-0.00001707,0.00000573,0.00000
 138,0.00000974,0.00001107,-0.00002650,-0.00001329,-0.00001009,0.000003
 34,0.00000890,0.00000622,-0.00002956,-0.00000444,-0.00002076,-0.000008
 09,0.00000351,0.00000718,-0.00000414,0.00000661,0.00000413,-0.00000252
 ,0.00000587,0.00000375,-0.00006784,0.00003614,0.00003346,0.00001300,-0
 .00002492,-0.00002181,-0.00000800,0.00002990,-0.00000331,0.00001193,0.
 00000284,-0.00000863,0.00000664,0.00001289,-0.00002085,0.00000955,0.00
 000802,0.00000424,-0.00000446,-0.00000203,-0.00000422,-0.00000113,0.00
 000336,0.00000291,-0.00000307,-0.00000570,0.00000216,0.00000208,0.0000
 0271,0.00000170,-0.00000180,-0.00000033,-0.00000166,0.00003973,0.00590
 175,-0.00102181,0.01119039,0.01331085,0.01692575,-0.00105403,0.0005379
 5,0.00047707,-0.09890406,-0.04656456,-0.08195175,-0.00010962,-0.002265
 01,0.00155093,-0.00295207,0.00449287,-0.00479836,-0.00022913,-0.000427
 91,0.00037040,-0.00332636,-0.01973143,-0.02539998,0.09558874,-0.000674
 01,-0.00030144,-0.00080154,0.00017672,-0.00033021,-0.00012845,-0.00029
 575,0.00001056,0.00000920,0.00002309,0.00003679,0.00000403,0.00009752,
 0.00004115,0.00002466,0.00000958,-0.00000726,0.00001846,-0.00000961,-0
 .00001536,0.00002237,-0.00001817,0.00000141,0.00002002,-0.00001227,-0.
 00002009,-0.00001215,0.00004352,0.00002519,0.00000088,0.00000935,0.000
 00253,-0.00000517,0.00002398,-0.00001866,0.00000706,0.00001423,-0.0000
 0394,-0.00000252,0.00017323,0.00008103,-0.00018457,0.00001737,-0.00011
 684,0.00002080,-0.00006168,-0.00010929,0.00007126,0.00001359,0.0000080
 8,-0.00000704,-0.00000639,0.00003004,-0.00006219,-0.00000119,-0.000007
 71,-0.00000588,-0.00000970,0.00001950,0.00001499,-0.00001064,-0.000026
 25,0.00000795,-0.00001913,-0.00002255,0.00001664,-0.00000353,-0.000016
 62,0.00000090,-0.00000661,-0.00000964,0.00000160,0.00595805,-0.0000940
 6,-0.00372368,-0.01181410,-0.00910925,-0.02279931,0.00052138,-0.000449
 49,0.00087391,-0.04660114,-0.15524433,-0.13622403,-0.00136097,-0.00102
 774,0.00272342,0.00419825,0.00352524,-0.00194204,-0.00044312,-0.000464
 12,0.00041066,0.00557843,0.00948878,0.00788870,0.04664200,0.15503213,-
 0.00051717,0.00019469,-0.00032672,0.00004001,-0.00010495,-0.00008425,-
 0.00009796,-0.00007996,-0.00000542,0.00007668,-0.00000647,0.00000889,-
 0.00000002,0.00001934,-0.00003506,-0.00004114,0.00001569,0.00000647,-0
 .00002143,-0.00001936,-0.00000168,0.00002634,0.00002822,-0.00000254,-0
 .00001069,0.00000429,-0.00001080,0.00004486,-0.00000056,0.00004533,0.0
 0002425,0.00000030,-0.00002265,0.00001336,-0.00000923,0.00000428,0.000
 01830,-0.00000770,-0.00000248,0.00016103,-0.00002579,-0.00005492,-0.00
 002794,-0.00001381,0.00004933,-0.00001050,-0.00004905,0.00004944,0.000
 01620,0.00000605,-0.00002122,0.00000284,0.00000529,-0.00003555,-0.0000
 1664,-0.00001541,-0.00000077,0.00000326,0.00001060,-0.00000028,0.00000
 129,-0.00002126,-0.00000825,-0.00000910,-0.00000197,0.00000710,-0.0000
 0422,-0.00001563,-0.00000631,-0.00000348,-0.00001333,0.00000172,-0.000
 74461,-0.00428113,0.00404310,-0.00687037,-0.00357556,-0.00308269,0.000
 60185,0.00082353,0.00027682,-0.08171826,-0.13614417,-0.23957988,0.0021
 8553,0.00216502,-0.00129851,-0.00512477,-0.00164489,0.00350626,0.00036
 813,0.00041755,-0.00059333,-0.00161606,-0.01134990,-0.00632738,0.09186
 563,0.15138432,0.24542065,-0.00061397,-0.00026103,-0.00060540,-0.00000
 846,0.00003331,0.00006007,0.00008782,0.00023191,0.00015595,-0.00005357
 ,0.00002568,-0.00005285,-0.00009941,-0.00003212,0.00002214,-0.00000124
 ,0.00000711,-0.00002480,0.00001689,0.00000746,-0.00000529,0.00002654,-
 0.00001113,-0.00000203,0.00000652,-0.00000598,0.00000252,-0.00002745,-
 0.00001246,0.00001186,-0.00002036,-0.00001242,0.00000582,-0.00001362,0
 .00000373,-0.00001066,-0.00001474,-0.00000110,-0.00000144,-0.00012769,
 -0.00010115,0.00009282,0.00003831,0.00002373,-0.00004228,0.00006174,0.
 00007058,-0.00003306,-0.00001133,0.00000026,0.00001824,-0.00002040,-0.
 00001821,0.00003981,0.00000895,0.00001497,0.00001224,-0.00001162,-0.00
 001141,-0.00000309,0.00001017,0.00002409,0.00000487,0.00000299,0.00000
 714,-0.00001557,-0.00000378,0.00002241,0.00000206,0.00000240,0.0000165
 4,-0.00000369,0.00182205,0.00519080,-0.00064788,0.00049843,-0.00022520
 ,0.00087241,-0.01094988,0.00064644,-0.01213459,0.00299641,0.00073901,-
 0.00366206,-0.00036800,-0.00037035,0.00033278,-0.28963030,0.06262566,-
 0.12566802,-0.00026723,-0.00145867,0.00239836,-0.00394690,0.00585060,-
 0.00167705,-0.00044143,0.00015068,-0.00011964,0.30130718,0.00094951,0.
 00006910,0.00075422,-0.00004045,0.00008033,-0.00000288,0.00003064,-0.0
 0042088,-0.00008930,0.00007320,0.00001333,-0.00001556,0.00005053,0.000
 02932,-0.00000987,-0.00004987,0.00000903,0.00000462,-0.00000747,-0.000
 00270,0.00000155,0.00002869,0.00003866,0.00000711,-0.00000112,-0.00001
 614,-0.00000573,0.00003354,-0.00002388,0.00003679,0.00000675,0.0000042
 1,-0.00000557,0.00001315,-0.00000218,0.00000899,0.00000803,-0.00000178
 ,-0.00000027,0.00013718,0.00005790,-0.00007551,-0.00004223,-0.00004048
 ,0.00001381,-0.00002921,-0.00006542,0.00002807,-0.00001581,-0.00000899
 ,-0.00001525,0.00004210,0.00000740,-0.00000591,-0.00001364,-0.00000318
 ,-0.00001504,0.00000969,0.00000903,0.00001212,-0.00002345,-0.00003064,
 0.00000743,0.00000196,-0.00001425,0.00002168,0.00000275,-0.00001286,0.
 00000264,0.00000453,-0.00000969,0.00000533,0.00461556,-0.00064953,-0.0
 0555169,-0.00035838,-0.00104434,-0.00039710,0.02584335,0.00002545,0.01
 459609,0.00112202,0.00101298,-0.00643373,-0.00031028,-0.00040146,0.000
 56623,0.06251542,-0.07790783,0.02019483,-0.00230696,-0.00104420,0.0021
 5841,-0.01918920,0.00975775,-0.01065418,-0.00089247,0.00018193,-0.0004
 2710,-0.07097416,0.07138685,0.00054540,-0.00002611,0.00024077,-0.00001
 966,0.00002925,-0.00004507,-0.00001576,-0.00001857,-0.00010156,-0.0000
 1292,0.00000235,0.00003906,0.00003133,0.00001210,0.00003274,0.00003892
 ,0.00000865,0.00001240,0.00000267,-0.00000627,-0.00001798,-0.00002698,
 -0.00000565,0.00001731,0.00000166,-0.00000751,-0.00000397,0.00000692,0
 .00002303,-0.00002812,0.00000454,-0.00000122,0.00000102,0.00000006,-0.
 00000297,-0.00000506,-0.00000252,-0.00000202,-0.00000316,-0.00007671,0
 .00007719,0.00002040,0.00001400,0.00001816,-0.00001096,-0.00001874,-0.
 00000721,-0.00004024,0.00000274,-0.00001356,0.00002887,-0.00003031,-0.
 00001834,-0.00000162,0.00001483,0.00000494,-0.00000949,0.00000273,-0.0
 0000397,-0.00000338,0.00000461,0.00002227,0.00000899,-0.00000298,0.000
 00864,-0.00001692,0.00000312,0.00000276,0.00000150,-0.00000230,0.00000
 739,-0.00000193,-0.00084730,-0.00535959,0.00342290,0.00086773,-0.00039
 441,-0.00065549,0.01181242,-0.00488208,0.01013909,-0.00332499,-0.00667
 757,-0.00029001,0.00032938,0.00053873,-0.00049305,-0.12583929,0.020336
 12,-0.12645389,0.00158993,0.00274754,-0.00133292,-0.02548471,0.0086769
 2,-0.00589979,-0.00115236,0.00037781,-0.00058636,0.13926492,-0.0174157
 0,0.12319672,-0.00016092,-0.00043684,0.00033209,0.00000830,0.00008248,
 0.00013082,0.00004752,0.00003580,0.00002514,0.00000021,0.00002837,-0.0
 0003122,-0.00004358,0.00000704,0.00004598,0.00000293,0.00000808,-0.000
 01750,0.00001255,0.00000106,-0.00000418,0.00003402,0.00000645,0.000018
 35,0.00000507,-0.00002418,-0.00000117,-0.00000422,-0.00001348,0.000005
 23,-0.00001300,-0.00000530,0.00001002,-0.00000594,0.00000133,-0.000008
 74,-0.00001346,-0.00000025,-0.00000071,0.00000970,-0.00007572,-0.00001
 952,0.00002403,-0.00000349,-0.00003838,0.00000388,0.00000076,-0.000007
 89,-0.00001325,0.00000239,0.00002090,-0.00002144,-0.00000831,0.0000220
 9,0.00000402,0.00000381,-0.00000508,-0.00000240,-0.00000356,0.00000117
 ,-0.00000048,0.00000876,0.00000257,0.00000447,-0.00000059,-0.00000341,
 -0.00000132,0.00000763,0.00000354,0.00000253,0.00000914,-0.00000033,-0
 .00062665,-0.00083247,-0.00052589,-0.00233709,0.00267828,-0.00608716,0
 .00192894,0.00067958,-0.00455784,-0.01012473,0.02596715,0.01288723,-0.
 00071319,0.00109383,0.00055696,0.01103169,-0.01126221,-0.00610474,0.00
 026803,-0.00048147,-0.00019499,-0.15720153,0.13452393,0.04432845,-0.00
 019842,-0.00230295,0.00150445,-0.00025503,-0.00123390,0.00231959,0.158
 34876,-0.00027785,-0.00042800,0.00041085,0.00001891,0.00003590,0.00010
 942,-0.00002669,-0.00006900,-0.00000170,0.00002426,-0.00003230,-0.0000
 1339,0.00003056,0.00001108,-0.00004128,-0.00001683,-0.00001779,0.00001
 239,-0.00000909,0.00000018,0.00001893,-0.00001524,0.00000539,-0.000010
 36,-0.00000627,0.00000917,0.00000412,0.00001499,0.00000486,0.00000507,
 0.00000601,0.00000832,-0.00000371,0.00001010,-0.00000583,0.00000874,0.
 00001212,0.00000156,0.00000244,0.00012670,-0.00002885,-0.00010215,-0.0
 0002198,-0.00004454,0.00002440,-0.00003472,-0.00004786,0.00004869,0.00
 001702,0.00001702,-0.00003542,0.00003165,0.00002853,-0.00004306,-0.000
 01134,-0.00001077,0.00000193,-0.00000210,0.00001035,0.00000517,-0.0000
 0520,-0.00002417,-0.00000609,-0.00000662,-0.00001408,0.00001979,-0.000
 00111,-0.00001411,-0.00000218,-0.00000206,-0.00001483,0.00000221,-0.00
 092103,0.00031057,0.00046385,0.00314953,0.00416555,-0.00216204,0.00026
 868,0.00239503,-0.00578454,0.00054535,-0.00067169,-0.00514107,0.000050
 23,-0.00026935,-0.00013717,0.01386278,-0.00916176,-0.00285290,0.000525
 89,-0.00068637,-0.00019403,0.13465862,-0.24371443,-0.08302979,-0.00133
 739,-0.00108952,0.00273234,-0.00219670,-0.00098287,0.00194891,-0.14846
 116,0.25032463,0.00036387,0.00049749,-0.00037128,-0.00007815,-0.000021
 01,-0.00003812,-0.00005414,-0.00003536,0.00001235,0.00002585,0.0000350
 6,0.00001126,0.00004168,0.00001486,0.00003048,-0.00000281,0.00000468,0
 .00000252,-0.00001226,-0.00001120,-0.00000025,0.00001602,0.00000135,0.
 00000525,-0.00000243,-0.00000227,-0.00000865,0.00000631,-0.00000612,0.
 00000281,0.00000789,0.00000054,-0.00000454,0.00000266,0.00000109,0.000
 00203,0.00000358,-0.00000084,0.00000071,-0.00000690,0.00009221,0.00006
 728,0.00001586,-0.00000465,0.00001688,0.00001775,0.00002697,0.00000298
 ,0.00000618,0.00000651,-0.00000191,-0.00002124,-0.00000749,-0.00000799
 ,-0.00000272,0.00000372,0.00001324,-0.00000484,0.00000410,-0.00000323,
 0.00000020,-0.00000322,-0.00000765,-0.00000149,0.00000340,0.00000066,0
 .00000052,-0.00000357,-0.00000425,-0.00000231,-0.00000505,0.00000109,-
 0.00049762,0.00035904,-0.00102466,-0.00564601,-0.00244957,0.00241843,-
 0.00499028,-0.00547597,-0.00040489,-0.01090629,0.01417341,0.01032800,-
 0.00039184,0.00063979,0.00022250,0.01775591,-0.02227676,-0.00246409,0.
 00080776,-0.00100551,-0.00045068,0.04435360,-0.08299663,-0.09312293,0.
 00238898,0.00199892,-0.00133233,0.00141251,0.00270047,-0.00116080,-0.0
 4460581,0.09374161,0.08726978||-0.00001664,-0.00001172,-0.00000199,0.0
 0000695,0.00000252,-0.00000110,0.00001690,0.00002443,-0.00003937,-0.00
 003974,-0.00001774,0.00001315,0.00005062,-0.00001689,0.00003489,0.0000
 3882,-0.00000506,0.00002391,0.00000548,0.00000109,-0.00000052,-0.00005
 136,-0.00002060,0.00001617,0.00000164,0.00000670,-0.00000449,-0.000000
 26,0.00002740,-0.00004378,-0.00000275,0.00000022,-0.00000171,0.0000036
 3,0.00000192,-0.00000260,-0.00000182,-0.00000207,0.00000277,-0.0000032
 0,0.00000528,-0.00000590,-0.00000703,-0.00001291,0.00001591,0.00000399
 ,0.00000111,0.00000183,0.00000559,0.00001547,0.00000446,0.00000137,-0.
 00000107,-0.00000403,-0.00000529,-0.00000348,-0.00000018,-0.00000134,-
 0.00000071,0.00000069,0.00000083,-0.00000089,-0.00001202,-0.00000198,-
 0.00000159,-0.00000292,0.00000154,0.00000008,0.00000157,0.00000094,0.0
 0000131,0.00000130,-0.00001706,-0.00000132,-0.00003012,-0.00000621,0.0
 0003919,0.00003052,0.00002451,-0.00002060,0.00000859,0.00003351,-0.000
 03105,0.00000658,-0.00000675,-0.00000171,-0.00000100,-0.00001020,0.000
 02527,0.00002888,-0.00000360,0.00000271,0.00000033,-0.00002382,-0.0000
 0309,-0.00003782,-0.00000268,0.00000199,-0.00000132,0.00000110,-0.0000
 0368,-0.00000334,0.00000430,-0.00000048,0.00000267|||@


 Democracy is the recurrent suspicion that more than half of the people
 are right more than half of the time.
 -- E. B. White
 Job cpu time:  0 days  0 hours  6 minutes 50.0 seconds.
 File lengths (MBytes):  RWF=    350 Int=      0 D2E=      0 Chk=      7 Scr=      1
 Normal termination of Gaussian 09 at Mon Sep 06 15:08:34 2021.
