 Entering Link 1 = b:\programy\g09w\l1.exe PID=     12184.
  
 Copyright (c) 1988,1990,1992,1993,1995,1998,2003,2009, Gaussian, Inc.
                  All Rights Reserved.
  
 This is part of the Gaussian(R) 09 program.  It is based on
 the Gaussian(R) 03 system (copyright 2003, Gaussian, Inc.),
 the Gaussian(R) 98 system (copyright 1998, Gaussian, Inc.),
 the Gaussian(R) 94 system (copyright 1995, Gaussian, Inc.),
 the Gaussian 92(TM) system (copyright 1992, Gaussian, Inc.),
 the Gaussian 90(TM) system (copyright 1990, Gaussian, Inc.),
 the Gaussian 88(TM) system (copyright 1988, Gaussian, Inc.),
 the Gaussian 86(TM) system (copyright 1986, Carnegie Mellon
 University), and the Gaussian 82(TM) system (copyright 1983,
 Carnegie Mellon University). Gaussian is a federally registered
 trademark of Gaussian, Inc.
  
 This software contains proprietary and confidential information,
 including trade secrets, belonging to Gaussian, Inc.
  
 This software is provided under written license and may be
 used, copied, transmitted, or stored only in accord with that
 written license.
  
 The following legend is applicable only to US Government
 contracts under FAR:
  
                    RESTRICTED RIGHTS LEGEND
  
 Use, reproduction and disclosure by the US Government is
 subject to restrictions as set forth in subparagraphs (a)
 and (c) of the Commercial Computer Software - Restricted
 Rights clause in FAR 52.227-19.
  
 Gaussian, Inc.
 340 Quinnipiac St., Bldg. 40, Wallingford CT 06492
  
  
 ---------------------------------------------------------------
 Warning -- This program may not be used in any manner that
 competes with the business of Gaussian, Inc. or will provide
 assistance to any competitor of Gaussian, Inc.  The licensee
 of this program is prohibited from giving any competitor of
 Gaussian, Inc. access to this program.  By using this program,
 the user acknowledges that Gaussian, Inc. is engaged in the
 business of creating and licensing software in the field of
 computational chemistry and represents and warrants to the
 licensee that it is not a competitor of Gaussian, Inc. and that
 it will not use this program in any manner prohibited above.
 ---------------------------------------------------------------
  

 Cite this work as:
 Gaussian 09, Revision A.02,
 M. J. Frisch, G. W. Trucks, H. B. Schlegel, G. E. Scuseria, 
 M. A. Robb, J. R. Cheeseman, G. Scalmani, V. Barone, B. Mennucci, 
 G. A. Petersson, H. Nakatsuji, M. Caricato, X. Li, H. P. Hratchian, 
 A. F. Izmaylov, J. Bloino, G. Zheng, J. L. Sonnenberg, M. Hada, 
 M. Ehara, K. Toyota, R. Fukuda, J. Hasegawa, M. Ishida, T. Nakajima, 
 Y. Honda, O. Kitao, H. Nakai, T. Vreven, J. A. Montgomery, Jr., 
 J. E. Peralta, F. Ogliaro, M. Bearpark, J. J. Heyd, E. Brothers, 
 K. N. Kudin, V. N. Staroverov, R. Kobayashi, J. Normand, 
 K. Raghavachari, A. Rendell, J. C. Burant, S. S. Iyengar, J. Tomasi, 
 M. Cossi, N. Rega, J. M. Millam, M. Klene, J. E. Knox, J. B. Cross, 
 V. Bakken, C. Adamo, J. Jaramillo, R. Gomperts, R. E. Stratmann, 
 O. Yazyev, A. J. Austin, R. Cammi, C. Pomelli, J. W. Ochterski, 
 R. L. Martin, K. Morokuma, V. G. Zakrzewski, G. A. Voth, 
 P. Salvador, J. J. Dannenberg, S. Dapprich, A. D. Daniels, 
 O. Farkas, J. B. Foresman, J. V. Ortiz, J. Cioslowski, 
 and D. J. Fox, Gaussian, Inc., Wallingford CT, 2009.
 
 ******************************************
 Gaussian 09:  IA32W-G09RevA.02 11-Jun-2009
                06-Sep-2021 
 ******************************************
 %nprocshared=12
 Will use up to   12 processors via shared memory.
 ----------------------------------------------
 # opt freq=noraman hf/6-311g geom=connectivity
 ----------------------------------------------
 1/18=20,19=15,38=1,57=2/1,3;
 2/9=110,12=2,17=6,18=5,40=1/2;
 3/5=4,6=6,11=9,16=1,25=1,30=1,71=1/1,2,3;
 4//1;
 5/5=2,38=5/2;
 6/7=2,8=2,9=2,10=2,28=1/1;
 7//1,2,3,16;
 1/18=20,19=15/3(2);
 2/9=110/2;
 99//99;
 2/9=110/2;
 3/5=4,6=6,11=9,16=1,25=1,30=1,71=1/1,2,3;
 4/5=5,16=3/1;
 5/5=2,38=5/2;
 7//1,2,3,16;
 1/18=20,19=15/3(-5);
 2/9=110/2;
 6/7=2,8=2,9=2,10=2,19=2,28=1/1;
 99/9=1/99;
 -----
 M0001
 -----
 Symbolic Z-matrix:
 Charge =  0 Multiplicity = 1
 C                     0.        0.       -0.7951 
 H                     0.        0.       -1.91779 
 C                     1.15005  -0.87163  -0.35499 
 C                     1.57546  -1.90268  -1.19708 
 C                     1.79737  -0.67991   0.86637 
 C                     2.62953  -2.72659  -0.82061 
 H                     1.07537  -2.06633  -2.15873 
 C                     2.8534   -1.50415   1.23915 
 H                     1.47364   0.13392   1.52847 
 C                     3.27084  -2.52893   0.39767 
 H                     2.95534  -3.53264  -1.48601 
 H                     3.35678  -1.3428    2.19791 
 H                     4.10201  -3.17752   0.69214 
 C                     0.17983   1.43178  -0.35499 
 C                     0.86004   2.31573  -1.19708 
 C                    -0.30987   1.89652   0.86637 
 C                     1.04653   3.64054  -0.82061 
 H                     1.25181   1.96446  -2.15873 
 C                    -0.12407   3.22319   1.23915 
 H                    -0.8528    1.20925   1.52847 
 C                     0.5547    4.0971    0.39767 
 H                     1.58168   4.32572  -1.48601 
 H                    -0.51549   3.57846   2.19791 
 H                     0.70081   5.1412    0.69214 
 C                    -1.32987  -0.56016  -0.35499 
 C                    -2.4355   -0.41305  -1.19708 
 C                    -1.4875   -1.21661   0.86637 
 C                    -3.67606  -0.91395  -0.82061 
 H                    -2.32718   0.10187  -2.15873 
 C                    -2.72933  -1.71904   1.23915 
 H                    -0.62084  -1.34317   1.52847 
 C                    -3.82554  -1.56817   0.39767 
 H                    -4.53702  -0.79309  -1.48601 
 H                    -2.84129  -2.23565   2.19791 
 H                    -4.80281  -1.96369   0.69214 
 

 GradGradGradGradGradGradGradGradGradGradGradGradGradGradGradGradGradGrad
 Berny optimization.
 Initialization pass.
                           ----------------------------
                           !    Initial Parameters    !
                           ! (Angstroms and Degrees)  !
 --------------------------                            --------------------------
 ! Name  Definition              Value          Derivative Info.                !
 --------------------------------------------------------------------------------
 ! R1    R(1,2)                  1.1227         estimate D2E/DX2                !
 ! R2    R(1,3)                  1.5087         estimate D2E/DX2                !
 ! R3    R(1,14)                 1.5087         estimate D2E/DX2                !
 ! R4    R(1,25)                 1.5087         estimate D2E/DX2                !
 ! R5    R(3,4)                  1.3976         estimate D2E/DX2                !
 ! R6    R(3,5)                  1.3955         estimate D2E/DX2                !
 ! R7    R(4,6)                  1.3898         estimate D2E/DX2                !
 ! R8    R(4,7)                  1.0962         estimate D2E/DX2                !
 ! R9    R(5,8)                  1.3905         estimate D2E/DX2                !
 ! R10   R(5,9)                  1.098          estimate D2E/DX2                !
 ! R11   R(6,10)                 1.3909         estimate D2E/DX2                !
 ! R12   R(6,11)                 1.0948         estimate D2E/DX2                !
 ! R13   R(8,10)                 1.3902         estimate D2E/DX2                !
 ! R14   R(8,12)                 1.0948         estimate D2E/DX2                !
 ! R15   R(10,13)                1.0946         estimate D2E/DX2                !
 ! R16   R(14,15)                1.3976         estimate D2E/DX2                !
 ! R17   R(14,16)                1.3955         estimate D2E/DX2                !
 ! R18   R(15,17)                1.3898         estimate D2E/DX2                !
 ! R19   R(15,18)                1.0962         estimate D2E/DX2                !
 ! R20   R(16,19)                1.3905         estimate D2E/DX2                !
 ! R21   R(16,20)                1.098          estimate D2E/DX2                !
 ! R22   R(17,21)                1.3909         estimate D2E/DX2                !
 ! R23   R(17,22)                1.0948         estimate D2E/DX2                !
 ! R24   R(19,21)                1.3902         estimate D2E/DX2                !
 ! R25   R(19,23)                1.0948         estimate D2E/DX2                !
 ! R26   R(21,24)                1.0946         estimate D2E/DX2                !
 ! R27   R(25,26)                1.3976         estimate D2E/DX2                !
 ! R28   R(25,27)                1.3955         estimate D2E/DX2                !
 ! R29   R(26,28)                1.3898         estimate D2E/DX2                !
 ! R30   R(26,29)                1.0962         estimate D2E/DX2                !
 ! R31   R(27,30)                1.3905         estimate D2E/DX2                !
 ! R32   R(27,31)                1.098          estimate D2E/DX2                !
 ! R33   R(28,32)                1.3909         estimate D2E/DX2                !
 ! R34   R(28,33)                1.0948         estimate D2E/DX2                !
 ! R35   R(30,32)                1.3902         estimate D2E/DX2                !
 ! R36   R(30,34)                1.0948         estimate D2E/DX2                !
 ! R37   R(32,35)                1.0946         estimate D2E/DX2                !
 ! A1    A(2,1,3)              106.9611         estimate D2E/DX2                !
 ! A2    A(2,1,14)             106.9611         estimate D2E/DX2                !
 ! A3    A(2,1,25)             106.9611         estimate D2E/DX2                !
 ! A4    A(3,1,14)             111.8604         estimate D2E/DX2                !
 ! A5    A(3,1,25)             111.8604         estimate D2E/DX2                !
 ! A6    A(14,1,25)            111.8604         estimate D2E/DX2                !
 ! A7    A(1,3,4)              118.8491         estimate D2E/DX2                !
 ! A8    A(1,3,5)              121.9744         estimate D2E/DX2                !
 ! A9    A(4,3,5)              119.1763         estimate D2E/DX2                !
 ! A10   A(3,4,6)              120.3311         estimate D2E/DX2                !
 ! A11   A(3,4,7)              119.9906         estimate D2E/DX2                !
 ! A12   A(6,4,7)              119.6781         estimate D2E/DX2                !
 ! A13   A(3,5,8)              120.3629         estimate D2E/DX2                !
 ! A14   A(3,5,9)              119.527          estimate D2E/DX2                !
 ! A15   A(8,5,9)              120.1073         estimate D2E/DX2                !
 ! A16   A(4,6,10)             120.1797         estimate D2E/DX2                !
 ! A17   A(4,6,11)             119.8362         estimate D2E/DX2                !
 ! A18   A(10,6,11)            119.9842         estimate D2E/DX2                !
 ! A19   A(5,8,10)             120.1813         estimate D2E/DX2                !
 ! A20   A(5,8,12)             119.7754         estimate D2E/DX2                !
 ! A21   A(10,8,12)            120.0433         estimate D2E/DX2                !
 ! A22   A(6,10,8)             119.7685         estimate D2E/DX2                !
 ! A23   A(6,10,13)            120.1016         estimate D2E/DX2                !
 ! A24   A(8,10,13)            120.1298         estimate D2E/DX2                !
 ! A25   A(1,14,15)            118.8491         estimate D2E/DX2                !
 ! A26   A(1,14,16)            121.9744         estimate D2E/DX2                !
 ! A27   A(15,14,16)           119.1763         estimate D2E/DX2                !
 ! A28   A(14,15,17)           120.3311         estimate D2E/DX2                !
 ! A29   A(14,15,18)           119.9906         estimate D2E/DX2                !
 ! A30   A(17,15,18)           119.6781         estimate D2E/DX2                !
 ! A31   A(14,16,19)           120.3629         estimate D2E/DX2                !
 ! A32   A(14,16,20)           119.527          estimate D2E/DX2                !
 ! A33   A(19,16,20)           120.1073         estimate D2E/DX2                !
 ! A34   A(15,17,21)           120.1797         estimate D2E/DX2                !
 ! A35   A(15,17,22)           119.8362         estimate D2E/DX2                !
 ! A36   A(21,17,22)           119.9842         estimate D2E/DX2                !
 ! A37   A(16,19,21)           120.1813         estimate D2E/DX2                !
 ! A38   A(16,19,23)           119.7754         estimate D2E/DX2                !
 ! A39   A(21,19,23)           120.0433         estimate D2E/DX2                !
 ! A40   A(17,21,19)           119.7685         estimate D2E/DX2                !
 ! A41   A(17,21,24)           120.1016         estimate D2E/DX2                !
 ! A42   A(19,21,24)           120.1298         estimate D2E/DX2                !
 ! A43   A(1,25,26)            118.8491         estimate D2E/DX2                !
 ! A44   A(1,25,27)            121.9744         estimate D2E/DX2                !
 ! A45   A(26,25,27)           119.1763         estimate D2E/DX2                !
 ! A46   A(25,26,28)           120.3311         estimate D2E/DX2                !
 ! A47   A(25,26,29)           119.9906         estimate D2E/DX2                !
 ! A48   A(28,26,29)           119.6781         estimate D2E/DX2                !
 ! A49   A(25,27,30)           120.3629         estimate D2E/DX2                !
 ! A50   A(25,27,31)           119.527          estimate D2E/DX2                !
 ! A51   A(30,27,31)           120.1073         estimate D2E/DX2                !
 ! A52   A(26,28,32)           120.1797         estimate D2E/DX2                !
 ! A53   A(26,28,33)           119.8362         estimate D2E/DX2                !
 ! A54   A(32,28,33)           119.9842         estimate D2E/DX2                !
 ! A55   A(27,30,32)           120.1813         estimate D2E/DX2                !
 ! A56   A(27,30,34)           119.7754         estimate D2E/DX2                !
 ! A57   A(32,30,34)           120.0433         estimate D2E/DX2                !
 ! A58   A(28,32,30)           119.7685         estimate D2E/DX2                !
 ! A59   A(28,32,35)           120.1016         estimate D2E/DX2                !
 ! A60   A(30,32,35)           120.1298         estimate D2E/DX2                !
 ! D1    D(2,1,3,4)            -27.475          estimate D2E/DX2                !
 ! D2    D(2,1,3,5)            152.6544         estimate D2E/DX2                !
 ! D3    D(14,1,3,4)          -144.2815         estimate D2E/DX2                !
 ! D4    D(14,1,3,5)            35.8479         estimate D2E/DX2                !
 ! D5    D(25,1,3,4)            89.3315         estimate D2E/DX2                !
 ! D6    D(25,1,3,5)           -90.539          estimate D2E/DX2                !
 ! D7    D(2,1,14,15)          -27.475          estimate D2E/DX2                !
 ! D8    D(2,1,14,16)          152.6544         estimate D2E/DX2                !
 ! D9    D(3,1,14,15)           89.3315         estimate D2E/DX2                !
 ! D10   D(3,1,14,16)          -90.539          estimate D2E/DX2                !
 ! D11   D(25,1,14,15)        -144.2815         estimate D2E/DX2                !
 ! D12   D(25,1,14,16)          35.8479         estimate D2E/DX2                !
 ! D13   D(2,1,25,26)          -27.475          estimate D2E/DX2                !
 ! D14   D(2,1,25,27)          152.6544         estimate D2E/DX2                !
 ! D15   D(3,1,25,26)         -144.2815         estimate D2E/DX2                !
 ! D16   D(3,1,25,27)           35.8479         estimate D2E/DX2                !
 ! D17   D(14,1,25,26)          89.3315         estimate D2E/DX2                !
 ! D18   D(14,1,25,27)         -90.539          estimate D2E/DX2                !
 ! D19   D(1,3,4,6)           -179.8193         estimate D2E/DX2                !
 ! D20   D(1,3,4,7)              0.0192         estimate D2E/DX2                !
 ! D21   D(5,3,4,6)              0.055          estimate D2E/DX2                !
 ! D22   D(5,3,4,7)            179.8935         estimate D2E/DX2                !
 ! D23   D(1,3,5,8)            179.9429         estimate D2E/DX2                !
 ! D24   D(1,3,5,9)             -0.6639         estimate D2E/DX2                !
 ! D25   D(4,3,5,8)              0.0728         estimate D2E/DX2                !
 ! D26   D(4,3,5,9)            179.466          estimate D2E/DX2                !
 ! D27   D(3,4,6,10)            -0.1121         estimate D2E/DX2                !
 ! D28   D(3,4,6,11)           179.9241         estimate D2E/DX2                !
 ! D29   D(7,4,6,10)          -179.9511         estimate D2E/DX2                !
 ! D30   D(7,4,6,11)             0.0851         estimate D2E/DX2                !
 ! D31   D(3,5,8,10)            -0.1441         estimate D2E/DX2                !
 ! D32   D(3,5,8,12)           179.775          estimate D2E/DX2                !
 ! D33   D(9,5,8,10)          -179.5338         estimate D2E/DX2                !
 ! D34   D(9,5,8,12)             0.3853         estimate D2E/DX2                !
 ! D35   D(4,6,10,8)             0.041          estimate D2E/DX2                !
 ! D36   D(4,6,10,13)         -179.8951         estimate D2E/DX2                !
 ! D37   D(11,6,10,8)         -179.9953         estimate D2E/DX2                !
 ! D38   D(11,6,10,13)           0.0686         estimate D2E/DX2                !
 ! D39   D(5,8,10,6)             0.0867         estimate D2E/DX2                !
 ! D40   D(5,8,10,13)         -179.9772         estimate D2E/DX2                !
 ! D41   D(12,8,10,6)         -179.8321         estimate D2E/DX2                !
 ! D42   D(12,8,10,13)           0.1039         estimate D2E/DX2                !
 ! D43   D(1,14,15,17)        -179.8193         estimate D2E/DX2                !
 ! D44   D(1,14,15,18)           0.0192         estimate D2E/DX2                !
 ! D45   D(16,14,15,17)          0.055          estimate D2E/DX2                !
 ! D46   D(16,14,15,18)        179.8935         estimate D2E/DX2                !
 ! D47   D(1,14,16,19)         179.9429         estimate D2E/DX2                !
 ! D48   D(1,14,16,20)          -0.6639         estimate D2E/DX2                !
 ! D49   D(15,14,16,19)          0.0728         estimate D2E/DX2                !
 ! D50   D(15,14,16,20)        179.466          estimate D2E/DX2                !
 ! D51   D(14,15,17,21)         -0.1121         estimate D2E/DX2                !
 ! D52   D(14,15,17,22)        179.9241         estimate D2E/DX2                !
 ! D53   D(18,15,17,21)       -179.9511         estimate D2E/DX2                !
 ! D54   D(18,15,17,22)          0.0851         estimate D2E/DX2                !
 ! D55   D(14,16,19,21)         -0.1441         estimate D2E/DX2                !
 ! D56   D(14,16,19,23)        179.775          estimate D2E/DX2                !
 ! D57   D(20,16,19,21)       -179.5338         estimate D2E/DX2                !
 ! D58   D(20,16,19,23)          0.3853         estimate D2E/DX2                !
 ! D59   D(15,17,21,19)          0.041          estimate D2E/DX2                !
 ! D60   D(15,17,21,24)       -179.8951         estimate D2E/DX2                !
 ! D61   D(22,17,21,19)       -179.9953         estimate D2E/DX2                !
 ! D62   D(22,17,21,24)          0.0686         estimate D2E/DX2                !
 ! D63   D(16,19,21,17)          0.0867         estimate D2E/DX2                !
 ! D64   D(16,19,21,24)       -179.9772         estimate D2E/DX2                !
 ! D65   D(23,19,21,17)       -179.8321         estimate D2E/DX2                !
 ! D66   D(23,19,21,24)          0.1039         estimate D2E/DX2                !
 ! D67   D(1,25,26,28)        -179.8193         estimate D2E/DX2                !
 ! D68   D(1,25,26,29)           0.0192         estimate D2E/DX2                !
 ! D69   D(27,25,26,28)          0.055          estimate D2E/DX2                !
 ! D70   D(27,25,26,29)        179.8935         estimate D2E/DX2                !
 ! D71   D(1,25,27,30)         179.9429         estimate D2E/DX2                !
 ! D72   D(1,25,27,31)          -0.6639         estimate D2E/DX2                !
 ! D73   D(26,25,27,30)          0.0728         estimate D2E/DX2                !
 ! D74   D(26,25,27,31)        179.466          estimate D2E/DX2                !
 ! D75   D(25,26,28,32)         -0.1121         estimate D2E/DX2                !
 ! D76   D(25,26,28,33)        179.9241         estimate D2E/DX2                !
 ! D77   D(29,26,28,32)       -179.9511         estimate D2E/DX2                !
 ! D78   D(29,26,28,33)          0.0851         estimate D2E/DX2                !
 ! D79   D(25,27,30,32)         -0.1441         estimate D2E/DX2                !
 ! D80   D(25,27,30,34)        179.775          estimate D2E/DX2                !
 ! D81   D(31,27,30,32)       -179.5338         estimate D2E/DX2                !
 ! D82   D(31,27,30,34)          0.3853         estimate D2E/DX2                !
 ! D83   D(26,28,32,30)          0.041          estimate D2E/DX2                !
 ! D84   D(26,28,32,35)       -179.8951         estimate D2E/DX2                !
 ! D85   D(33,28,32,30)       -179.9953         estimate D2E/DX2                !
 ! D86   D(33,28,32,35)          0.0686         estimate D2E/DX2                !
 ! D87   D(27,30,32,28)          0.0867         estimate D2E/DX2                !
 ! D88   D(27,30,32,35)       -179.9772         estimate D2E/DX2                !
 ! D89   D(34,30,32,28)       -179.8321         estimate D2E/DX2                !
 ! D90   D(34,30,32,35)          0.1039         estimate D2E/DX2                !
 --------------------------------------------------------------------------------
 Trust Radius=3.00D-01 FncErr=1.00D-07 GrdErr=1.00D-07
 Number of steps in this run= 197 maximum allowed number of steps= 210.
 GradGradGradGradGradGradGradGradGradGradGradGradGradGradGradGradGradGrad

                          Input orientation:                          
 ---------------------------------------------------------------------
 Center     Atomic      Atomic             Coordinates (Angstroms)
 Number     Number       Type             X           Y           Z
 ---------------------------------------------------------------------
      1          6           0        0.000000    0.000000   -0.795101
      2          1           0        0.000000    0.000000   -1.917789
      3          6           0        1.150048   -0.871625   -0.354992
      4          6           0        1.575462   -1.902680   -1.197081
      5          6           0        1.797369   -0.679909    0.866367
      6          6           0        2.629534   -2.726587   -0.820609
      7          1           0        1.075369   -2.066330   -2.158726
      8          6           0        2.853398   -1.504146    1.239154
      9          1           0        1.473639    0.133919    1.528468
     10          6           0        3.270844   -2.528934    0.397674
     11          1           0        2.955344   -3.532635   -1.486008
     12          1           0        3.356778   -1.342801    2.197905
     13          1           0        4.102009   -3.177516    0.692143
     14          6           0        0.179825    1.431784   -0.354992
     15          6           0        0.860039    2.315730   -1.197081
     16          6           0       -0.309866    1.896522    0.866367
     17          6           0        1.046526    3.640537   -0.820609
     18          1           0        1.251810    1.964461   -2.158726
     19          6           0       -0.124070    3.223188    1.239154
     20          1           0       -0.852797    1.209249    1.528468
     21          6           0        0.554699    4.097101    0.397674
     22          1           0        1.581680    4.325721   -1.486008
     23          1           0       -0.515490    3.578456    2.197905
     24          1           0        0.700805    5.141202    0.692143
     25          6           0       -1.329874   -0.560159   -0.354992
     26          6           0       -2.435500   -0.413050   -1.197081
     27          6           0       -1.487503   -1.216613    0.866367
     28          6           0       -3.676060   -0.913950   -0.820609
     29          1           0       -2.327178    0.101868   -2.158726
     30          6           0       -2.729328   -1.719042    1.239154
     31          1           0       -0.620842   -1.343168    1.528468
     32          6           0       -3.825543   -1.568167    0.397674
     33          1           0       -4.537024   -0.793086   -1.486008
     34          1           0       -2.841289   -2.235655    2.197905
     35          1           0       -4.802815   -1.963686    0.692143
 ---------------------------------------------------------------------
                    Distance matrix (angstroms):
                    1          2          3          4          5
     1  C    0.000000
     2  H    1.122688   0.000000
     3  C    1.508654   2.127129   0.000000
     4  C    2.502770   2.573265   1.397557   0.000000
     5  C    2.540332   3.382948   1.395528   2.408782   0.000000
     6  C    3.788057   3.943670   2.417966   1.389828   2.779797
     7  H    2.699187   2.341834   2.164799   1.096192   3.405090
     8  C    3.813467   4.513383   2.417185   2.779783   1.390515
     9  H    2.754727   3.750498   2.159456   3.403927   1.097951
    10  C    4.303096   4.738702   2.794808   2.410344   2.410330
    11  H    4.657352   4.626014   3.408704   2.155066   3.874612
    12  H    4.693523   5.478140   3.407191   3.874595   2.155035
    13  H    5.397683   5.808170   3.889434   3.402619   3.402905
    14  C    1.508654   2.127129   2.499405   3.711545   2.927015
    15  C    2.502770   2.573265   3.309449   4.278646   3.756363
    16  C    2.540332   3.382948   3.359420   4.716589   3.328429
    17  C    3.788057   3.943670   4.537303   5.581107   4.698501
    18  H    2.699187   2.341834   3.362618   3.998036   4.054815
    19  C    3.813467   4.513383   4.575169   5.924371   4.366356
    20  H    2.754727   3.750498   3.448021   4.796786   3.321246
    21  C    4.303096   4.738702   5.060552   6.291468   4.958198
    22  H    4.657352   4.626014   5.336470   6.235102   5.535027
    23  H    4.693523   5.478140   5.393934   6.777969   5.025533
    24  H    5.397683   5.808170   6.119837   7.345099   5.926057
    25  C    1.508654   2.127129   2.499405   3.309449   3.359420
    26  C    2.502770   2.573265   3.711545   4.278646   4.716589
    27  C    2.540332   3.382948   2.927014   3.756363   3.328429
    28  C    3.788057   3.943670   4.848703   5.357033   5.732285
    29  H    2.699187   2.341834   4.036366   4.491500   5.174385
    30  C    3.813467   4.513383   4.278899   4.949765   4.659372
    31  H    2.754727   3.750498   2.627894   3.544774   2.593460
    32  C    4.303096   4.738702   5.080176   5.641453   5.711901
    33  H    4.657352   4.626014   5.798979   6.219096   6.758033
    34  H    4.693523   5.478140   4.930379   5.580725   5.070551
    35  H    5.397683   5.808170   6.142122   6.652465   6.726133
                    6          7          8          9         10
     6  C    0.000000
     7  H    2.154514   0.000000
     8  C    2.405639   3.875956   0.000000
     9  H    3.877725   4.312206   2.161179   0.000000
    10  C    1.390884   3.401367   1.390158   3.405793   0.000000
    11  H    1.094816   2.477279   3.398775   4.972538   2.157594
    12  H    3.399290   4.970771   1.094819   2.484967   2.157575
    13  H    2.158689   4.303806   2.158337   4.309684   1.094627
    14  C    4.848703   4.036366   4.278899   2.627894   5.080176
    15  C    5.357033   4.491500   4.949765   3.544774   5.641453
    16  C    5.732285   5.174385   4.659372   2.593460   5.711901
    17  C    6.560958   5.861716   5.828823   4.242282   6.670395
    18  H    5.068986   4.034651   5.112917   4.122559   5.549980
    19  C    6.872029   6.400253   5.586860   3.489980   6.732045
    20  H    5.756353   5.295530   4.602401   2.562936   5.679535
    21  C    7.235459   6.692844   6.112780   4.222553   7.161130
    22  H    7.160712   6.447264   6.559812   5.164295   7.306697
    23  H    7.665257   7.305797   6.172637   4.033561   7.407925
    24  H    8.240784   7.759915   7.006678   5.135134   8.094615
    25  C    4.537303   3.362618   4.575169   3.448021   5.060552
    26  C    5.581107   3.998036   5.924371   4.796786   6.291468
    27  C    4.698501   4.054815   4.366356   3.321246   4.958198
    28  C    6.560958   5.068986   6.872029   5.756353   7.235459
    29  H    5.861716   4.034651   6.400253   5.295530   6.692844
    30  C    5.828823   5.112917   5.586860   4.602401   6.112780
    31  H    4.242282   4.122560   3.489980   2.562936   4.222553
    32  C    6.670395   5.549980   6.732045   5.679535   7.161130
    33  H    7.452566   5.794191   7.908884   6.787818   8.217313
    34  H    6.267563   5.860812   5.820976   4.968061   6.378481
    35  H    7.623008   6.533837   7.689472   6.670326   8.098777
                   11         12         13         14         15
    11  H    0.000000
    12  H    4.304386   0.000000
    13  H    2.487025   2.487744   0.000000
    14  C    5.798979   4.930379   6.142122   0.000000
    15  C    6.219096   5.580725   6.652465   1.397557   0.000000
    16  C    6.758033   5.070551   6.726133   1.395528   2.408782
    17  C    7.452566   6.267563   7.623008   2.417966   1.389828
    18  H    5.794191   5.860812   6.533837   2.164799   1.096192
    19  C    7.908884   5.820976   7.689472   2.417185   2.779783
    20  H    6.787818   4.968061   6.670326   2.159456   3.403927
    21  C    8.217313   6.378481   8.098777   2.794808   2.410344
    22  H    7.977513   6.989587   8.209444   3.408704   2.155066
    23  H    8.728432   6.262046   8.320563   3.407191   3.874595
    24  H    9.222947   7.166855   8.987173   3.889434   3.402619
    25  C    5.336470   5.393934   6.119837   2.499405   3.711545
    26  C    6.235102   6.777969   7.345099   3.309449   4.278646
    27  C    5.535027   5.025533   5.926057   3.359420   4.716589
    28  C    7.160712   7.665257   8.240784   4.537303   5.581107
    29  H    6.447264   7.305797   7.759915   3.362618   3.998036
    30  C    6.559812   6.172637   7.006678   4.575169   5.924371
    31  H    5.164295   4.033561   5.135134   3.448021   4.796786
    32  C    7.306697   7.407925   8.094615   5.060552   6.291468
    33  H    7.977513   8.728432   9.222947   5.336470   6.235102
    34  H    6.989587   6.262046   7.166855   5.393934   6.777969
    35  H    8.209444   8.320563   8.987173   6.119837   7.345099
                   16         17         18         19         20
    16  C    0.000000
    17  C    2.779798   0.000000
    18  H    3.405090   2.154514   0.000000
    19  C    1.390516   2.405639   3.875956   0.000000
    20  H    1.097951   3.877725   4.312206   2.161179   0.000000
    21  C    2.410330   1.390884   3.401367   1.390158   3.405793
    22  H    3.874612   1.094816   2.477279   3.398775   4.972538
    23  H    2.155035   3.399290   4.970771   1.094819   2.484967
    24  H    3.402905   2.158689   4.303806   2.158337   4.309684
    25  C    2.927015   4.848703   4.036366   4.278899   2.627894
    26  C    3.756363   5.357033   4.491500   4.949765   3.544774
    27  C    3.328429   5.732285   5.174385   4.659372   2.593460
    28  C    4.698501   6.560958   5.861716   5.828823   4.242282
    29  H    4.054815   5.068986   4.034651   5.112917   4.122560
    30  C    4.366356   6.872029   6.400253   5.586860   3.489980
    31  H    3.321246   5.756353   5.295530   4.602401   2.562936
    32  C    4.958198   7.235459   6.692844   6.112780   4.222553
    33  H    5.535027   7.160712   6.447264   6.559812   5.164295
    34  H    5.025533   7.665257   7.305797   6.172637   4.033561
    35  H    5.926057   8.240784   7.759915   7.006678   5.135134
                   21         22         23         24         25
    21  C    0.000000
    22  H    2.157595   0.000000
    23  H    2.157575   4.304386   0.000000
    24  H    1.094627   2.487025   2.487744   0.000000
    25  C    5.080176   5.798979   4.930379   6.142122   0.000000
    26  C    5.641453   6.219096   5.580725   6.652465   1.397557
    27  C    5.711901   6.758033   5.070551   6.726133   1.395528
    28  C    6.670395   7.452566   6.267563   7.623008   2.417966
    29  H    5.549980   5.794191   5.860812   6.533837   2.164799
    30  C    6.732045   7.908884   5.820976   7.689472   2.417185
    31  H    5.679535   6.787818   4.968061   6.670326   2.159456
    32  C    7.161130   8.217313   6.378481   8.098777   2.794808
    33  H    7.306697   7.977513   6.989587   8.209444   3.408704
    34  H    7.407925   8.728432   6.262046   8.320563   3.407191
    35  H    8.094615   9.222947   7.166855   8.987173   3.889434
                   26         27         28         29         30
    26  C    0.000000
    27  C    2.408782   0.000000
    28  C    1.389828   2.779797   0.000000
    29  H    1.096192   3.405090   2.154514   0.000000
    30  C    2.779783   1.390515   2.405639   3.875956   0.000000
    31  H    3.403927   1.097951   3.877725   4.312206   2.161179
    32  C    2.410344   2.410330   1.390884   3.401367   1.390158
    33  H    2.155066   3.874612   1.094816   2.477279   3.398775
    34  H    3.874595   2.155035   3.399290   4.970771   1.094819
    35  H    3.402619   3.402905   2.158689   4.303806   2.158337
                   31         32         33         34         35
    31  H    0.000000
    32  C    3.405793   0.000000
    33  H    4.972538   2.157595   0.000000
    34  H    2.484967   2.157575   4.304386   0.000000
    35  H    4.309684   1.094627   2.487025   2.487744   0.000000
 Stoichiometry    C19H16
 Framework group  C3[C3(CH),X(C18H15)]
 Deg. of freedom    33
 Full point group                 C3      NOp   3
 Largest Abelian subgroup         C1      NOp   1
 Largest concise Abelian subgroup C1      NOp   1
                         Standard orientation:                         
 ---------------------------------------------------------------------
 Center     Atomic      Atomic             Coordinates (Angstroms)
 Number     Number       Type             X           Y           Z
 ---------------------------------------------------------------------
      1          6           0        0.000000    0.000000    0.779579
      2          1           0        0.000000    0.000000    1.902268
      3          6           0        0.000000    1.443032    0.339470
      4          6           0       -0.564757    2.404853    1.181559
      5          6           0        0.543788    1.843124   -0.881889
      6          6           0       -0.584698    3.742573    0.805087
      7          1           0       -0.997248    2.105144    2.143205
      8          6           0        0.524764    3.182602   -1.254676
      9          1           0        0.996841    1.093551   -1.543990
     10          6           0       -0.039809    4.134289   -0.413195
     11          1           0       -1.030295    4.489105    1.470486
     12          1           0        0.957405    3.486323   -2.213427
     13          1           0       -0.054665    5.188459   -0.707665
     14          6           0        1.249703   -0.721516    0.339470
     15          6           0        2.365043   -0.713333    1.181559
     16          6           0        1.324299   -1.392496   -0.881889
     17          6           0        3.533512   -1.364923    0.805087
     18          1           0        2.321732   -0.188930    2.143205
     19          6           0        2.493832   -2.045760   -1.254676
     20          1           0        0.448622   -1.410065   -1.543990
     21          6           0        3.600304   -2.032668   -0.413195
     22          1           0        4.402827   -1.352291    1.470486
     23          1           0        2.540542   -2.572299   -2.213427
     24          1           0        4.520669   -2.546888   -0.707665
     25          6           0       -1.249703   -0.721516    0.339470
     26          6           0       -1.800286   -1.691521    1.181559
     27          6           0       -1.868086   -0.450628   -0.881889
     28          6           0       -2.948814   -2.377650    0.805087
     29          1           0       -1.324484   -1.916214    2.143205
     30          6           0       -3.018597   -1.136842   -1.254676
     31          1           0       -1.445463    0.316515   -1.543990
     32          6           0       -3.560494   -2.101620   -0.413195
     33          1           0       -3.372531   -3.136814    1.470486
     34          1           0       -3.497947   -0.914025   -2.213427
     35          1           0       -4.466004   -2.641571   -0.707665
 ---------------------------------------------------------------------
 Rotational constants (GHZ):      0.3903932      0.3903932      0.2359198
 Standard basis: 6-311G (5D, 7F)
 There are   295 symmetry adapted basis functions of A   symmetry.
 Integral buffers will be    262144 words long.
 Raffenetti 1 integral format.
 Two-electron integral symmetry is turned on.
   295 basis functions,   574 primitive gaussians,   295 cartesian basis functions
    65 alpha electrons       65 beta electrons
       nuclear repulsion energy      1290.4596734238 Hartrees.
 NAtoms=   35 NActive=   35 NUniq=   13 SFac= 3.00D+00 NAtFMM=   80 NAOKFM=F Big=F
 One-electron integrals computed using PRISM.
 PrsmSu:  requested number of processors reduced to:  10 ShMem   1 Linda.
 NBasis=   295 RedAO= T  NBF=   295
 NBsUse=   295 1.00D-06 NBFU=   295
 Harris functional with IExCor=  205 diagonalized for initial guess.
 ExpMin= 1.03D-01 ExpMax= 4.56D+03 ExpMxC= 6.82D+02 IAcc=1 IRadAn=         1 AccDes= 0.00D+00
 HarFok:  IExCor=  205 AccDes= 0.00D+00 IRadAn=         1 IDoV= 1
 ScaDFX=  1.000000  1.000000  1.000000  1.000000
 FoFCou: FMM=F IPFlag=           0 FMFlag=      100000 FMFlg1=           0
         NFxFlg=           0 DoJE=T BraDBF=F KetDBF=T FulRan=T
         Omega=  0.000000  0.000000  1.000000  0.000000  0.000000 ICntrl=     500 IOpCl=  0
         NMat0=    1 NMatS0=    1 NMatT0=    0 NMatD0=    1 NMtDS0=    0 NMtDT0=    0
         I1Cent=           4 NGrid=           0.
 Petite list used in FoFCou.
 Initial guess orbital symmetries:
       Occupied  (E) (E) (A) (A) (E) (E) (A) (E) (E) (E) (E) (A)
                 (E) (E) (A) (E) (E) (A) (A) (A) (E) (E) (A) (A)
                 (E) (E) (E) (E) (A) (A) (E) (E) (E) (E) (A) (E)
                 (E) (A) (A) (E) (E) (E) (E) (A) (E) (E) (A) (E)
                 (E) (A) (E) (E) (A) (A) (E) (E) (E) (E) (A) (E)
                 (E) (A) (E) (E) (A)
       Virtual   (E) (E) (A) (E) (E) (A) (A) (A) (E) (E) (E) (E)
                 (A) (A) (E) (E) (E) (E) (A) (A) (E) (E) (E) (E)
                 (A) (A) (E) (E) (A) (E) (E) (A) (E) (E) (E) (E)
                 (A) (E) (E) (A) (E) (E) (A) (E) (E) (A) (A) (E)
                 (E) (E) (E) (A) (A) (E) (E) (A) (E) (E) (E) (E)
                 (A) (E) (E) (A) (E) (E) (A) (A) (E) (E) (E) (E)
                 (A) (A) (E) (E) (A) (A) (E) (E) (A) (E) (E) (A)
                 (E) (E) (A) (A) (E) (E) (E) (E) (A) (E) (E) (A)
                 (E) (E) (A) (E) (E) (A) (E) (E) (E) (E) (A) (E)
                 (E) (A) (E) (E) (E) (E) (A) (A) (E) (E) (A) (E)
                 (E) (A) (A) (E) (E) (E) (E) (A) (E) (E) (A) (A)
                 (E) (E) (A) (E) (E) (A) (E) (E) (A) (A) (E) (E)
                 (E) (E) (A) (A) (E) (E) (A) (E) (E) (A) (E) (E)
                 (A) (E) (E) (E) (E) (A) (A) (A) (E) (E) (A) (E)
                 (E) (A) (E) (E) (A) (E) (E) (A) (E) (E) (E) (E)
                 (A) (A) (E) (E) (E) (E) (A) (E) (E) (E) (E) (A)
                 (E) (E) (A) (A) (E) (E) (E) (E) (E) (E) (A) (A)
                 (E) (E) (A) (A) (E) (E) (A) (A) (E) (E) (E) (E)
                 (A) (A) (E) (E) (A) (E) (E) (A) (E) (E) (A) (A)
                 (E) (E)
 The electronic state of the initial guess is 1-A.
 Requested convergence on RMS density matrix=1.00D-08 within 128 cycles.
 Requested convergence on MAX density matrix=1.00D-06.
 Requested convergence on             energy=1.00D-06.
 No special actions if energy rises.
 Integral accuracy reduced to 1.0D-05 until final iterations.
 Initial convergence to 1.0D-05 achieved.  Increase integral accuracy.
 SCF Done:  E(RHF) =  -728.678082646     A.U. after   14 cycles
             Convg  =    0.6750D-08             -V/T =  2.0001

 **********************************************************************

            Population analysis using the SCF density.

 **********************************************************************

 Orbital symmetries:
       Occupied  (A) (E) (E) (A) (E) (E) (A) (A) (E) (E) (E) (E)
                 (A) (E) (E) (A) (E) (E) (A) (A) (E) (E) (A) (A)
                 (E) (E) (E) (E) (A) (A) (E) (E) (E) (E) (A) (E)
                 (E) (A) (A) (E) (E) (E) (E) (A) (A) (E) (E) (E)
                 (E) (A) (A) (E) (E) (A) (E) (E) (A) (E) (E) (E)
                 (E) (A) (E) (E) (A)
       Virtual   (E) (E) (A) (A) (E) (E) (A) (E) (E) (A) (A) (E)
                 (E) (E) (E) (A) (E) (E) (A) (E) (E) (A) (E) (E)
                 (A) (E) (E) (A) (A) (A) (E) (E) (E) (E) (E) (E)
                 (A) (A) (E) (E) (A) (E) (E) (E) (E) (A) (E) (E)
                 (A) (A) (E) (E) (A) (E) (E) (A) (E) (E) (A) (E)
                 (E) (E) (E) (A) (A) (E) (E) (A) (E) (E) (A) (E)
                 (E) (A) (E) (E) (A) (E) (E) (A) (A) (E) (E) (E)
                 (E) (A) (E) (E) (A) (E) (E) (A) (A) (E) (E) (A)
                 (E) (E) (A) (E) (E) (E) (E) (A) (E) (E) (A) (E)
                 (E) (A) (E) (E) (E) (E) (A) (A) (A) (E) (E) (A)
                 (E) (E) (A) (E) (E) (A) (E) (E) (A) (E) (E) (A)
                 (E) (E) (A) (E) (E) (A) (E) (E) (A) (E) (E) (A)
                 (E) (E) (A) (E) (E) (A) (A) (E) (E) (A) (A) (E)
                 (E) (E) (E) (A) (E) (E) (A) (A) (E) (E) (E) (E)
                 (A) (E) (E) (A) (A) (E) (E) (A) (E) (E) (E) (E)
                 (A) (A) (E) (E) (E) (E) (A) (E) (E) (A) (E) (E)
                 (A) (E) (E) (A) (E) (E) (E) (E) (E) (E) (A) (A)
                 (A) (E) (E) (A) (E) (E) (A) (A) (E) (E) (E) (E)
                 (A) (A) (E) (E) (A) (E) (E) (A) (E) (E) (A) (A)
                 (E) (E)
 The electronic state is 1-A.
 Alpha  occ. eigenvalues --  -11.25722 -11.25092 -11.25092 -11.25086 -11.24306
 Alpha  occ. eigenvalues --  -11.24306 -11.24306 -11.24283 -11.24283 -11.24283
 Alpha  occ. eigenvalues --  -11.24020 -11.24020 -11.24020 -11.23961 -11.23961
 Alpha  occ. eigenvalues --  -11.23961 -11.23816 -11.23816 -11.23816  -1.18580
 Alpha  occ. eigenvalues --   -1.15714  -1.15714  -1.09022  -1.02187  -1.02043
 Alpha  occ. eigenvalues --   -1.02043  -1.01368  -1.01368  -0.92883  -0.84081
 Alpha  occ. eigenvalues --   -0.82993  -0.82993  -0.81453  -0.81453  -0.77511
 Alpha  occ. eigenvalues --   -0.70625  -0.70625  -0.68787  -0.65637  -0.63791
 Alpha  occ. eigenvalues --   -0.63791  -0.61931  -0.61931  -0.61740  -0.59098
 Alpha  occ. eigenvalues --   -0.58735  -0.58735  -0.58059  -0.58059  -0.54340
 Alpha  occ. eigenvalues --   -0.51184  -0.50835  -0.50835  -0.49663  -0.49106
 Alpha  occ. eigenvalues --   -0.49106  -0.47443  -0.47177  -0.47177  -0.34453
 Alpha  occ. eigenvalues --   -0.34453  -0.34003  -0.33231  -0.33231  -0.31222
 Alpha virt. eigenvalues --    0.12203   0.12203   0.12401   0.14449   0.14462
 Alpha virt. eigenvalues --    0.14462   0.15132   0.16316   0.16316   0.17111
 Alpha virt. eigenvalues --    0.19071   0.19126   0.19126   0.21253   0.21253
 Alpha virt. eigenvalues --    0.21553   0.23845   0.23845   0.24466   0.26744
 Alpha virt. eigenvalues --    0.26744   0.28540   0.34016   0.34016   0.35101
 Alpha virt. eigenvalues --    0.39178   0.39178   0.39348   0.41079   0.43772
 Alpha virt. eigenvalues --    0.43878   0.43878   0.44971   0.44971   0.45562
 Alpha virt. eigenvalues --    0.45562   0.45804   0.48352   0.49762   0.49762
 Alpha virt. eigenvalues --    0.50694   0.50884   0.50884   0.55387   0.55387
 Alpha virt. eigenvalues --    0.57220   0.58703   0.58703   0.58771   0.59463
 Alpha virt. eigenvalues --    0.60070   0.60070   0.61459   0.61556   0.61556
 Alpha virt. eigenvalues --    0.61703   0.62245   0.62245   0.63516   0.63794
 Alpha virt. eigenvalues --    0.63794   0.65425   0.65425   0.66731   0.67116
 Alpha virt. eigenvalues --    0.67862   0.67862   0.69139   0.70649   0.70649
 Alpha virt. eigenvalues --    0.73049   0.74592   0.74592   0.74986   0.75571
 Alpha virt. eigenvalues --    0.75571   0.78133   0.80265   0.80265   0.80277
 Alpha virt. eigenvalues --    0.81938   0.82008   0.82008   0.82968   0.82968
 Alpha virt. eigenvalues --    0.83742   0.84371   0.84371   0.85143   0.86016
 Alpha virt. eigenvalues --    0.86016   0.86224   0.87294   0.87738   0.87738
 Alpha virt. eigenvalues --    0.88554   0.90864   0.90864   0.92780   0.94585
 Alpha virt. eigenvalues --    0.94585   0.97228   0.97228   0.97797   1.00025
 Alpha virt. eigenvalues --    1.00025   1.00722   1.04038   1.04038   1.06246
 Alpha virt. eigenvalues --    1.07005   1.07005   1.08773   1.08773   1.09873
 Alpha virt. eigenvalues --    1.11097   1.12258   1.12937   1.12937   1.14199
 Alpha virt. eigenvalues --    1.14658   1.14658   1.17902   1.20742   1.20742
 Alpha virt. eigenvalues --    1.26737   1.27479   1.27479   1.28639   1.30056
 Alpha virt. eigenvalues --    1.30056   1.39634   1.40629   1.40629   1.49108
 Alpha virt. eigenvalues --    1.52304   1.52304   1.54952   2.55828   2.55828
 Alpha virt. eigenvalues --    2.56440   2.61665   2.61665   2.61690   2.66494
 Alpha virt. eigenvalues --    2.66494   2.67962   2.70420   2.70420   2.70894
 Alpha virt. eigenvalues --    2.78492   2.84847   2.84847   2.88563   2.94548
 Alpha virt. eigenvalues --    2.94640   2.94640   2.97628   2.97628   2.97660
 Alpha virt. eigenvalues --    3.01461   3.01461   3.04377   3.06188   3.07547
 Alpha virt. eigenvalues --    3.07547   3.08645   3.08645   3.09325   3.15406
 Alpha virt. eigenvalues --    3.15406   3.15650   3.17436   3.18987   3.18987
 Alpha virt. eigenvalues --    3.23289   3.25373   3.25373   3.28847   3.28847
 Alpha virt. eigenvalues --    3.29671   3.33102   3.34954   3.34954   3.42273
 Alpha virt. eigenvalues --    3.42273   3.43262   3.48636   3.48636   3.53942
 Alpha virt. eigenvalues --    3.54093   3.54093   3.59954   3.60366   3.60366
 Alpha virt. eigenvalues --    3.63124   3.63608   3.63608   3.65839   3.65839
 Alpha virt. eigenvalues --    3.69795   3.69795   3.70496   3.70705   3.75207
 Alpha virt. eigenvalues --    3.75899   3.75899   3.84523   3.87415   3.87415
 Alpha virt. eigenvalues --    3.91513  24.25948  24.31580  24.31580  24.50735
 Alpha virt. eigenvalues --   24.50735  24.51251  24.54558  24.55837  24.55837
 Alpha virt. eigenvalues --   24.77635  24.79320  24.79320  24.79929  24.80806
 Alpha virt. eigenvalues --   24.80806  24.83365  25.05346  25.06161  25.06161
          Condensed to atoms (all electrons):
              1          2          3          4          5          6
     1  C    5.860212   0.483641   0.145089  -0.054843  -0.040970   0.007231
     2  H    0.483641   0.515250  -0.072084  -0.001101   0.005307   0.001485
     3  C    0.145089  -0.072084   5.357994   0.483908   0.479867  -0.065739
     4  C   -0.054843  -0.001101   0.483908   5.058883  -0.068617   0.463621
     5  C   -0.040970   0.005307   0.479867  -0.068617   5.114078  -0.029439
     6  C    0.007231   0.001485  -0.065739   0.463621  -0.029439   5.055093
     7  H    0.000502   0.001466  -0.048780   0.399247   0.004434  -0.036074
     8  C    0.004233  -0.000240  -0.067556  -0.031795   0.469000  -0.075886
     9  H   -0.000853  -0.000120  -0.042520   0.004189   0.392280  -0.000228
    10  C    0.001168  -0.000011  -0.016431  -0.087568  -0.093795   0.490270
    11  H   -0.000372  -0.000026   0.006680  -0.039639  -0.000533   0.397081
    12  H   -0.000337   0.000014   0.006123  -0.000380  -0.037822   0.005937
    13  H   -0.000017  -0.000001  -0.001541   0.007432   0.007821  -0.042928
    14  C    0.145089  -0.072084  -0.097057   0.005728  -0.018616  -0.000777
    15  C   -0.054843  -0.001101  -0.001122   0.000843   0.000224  -0.000034
    16  C   -0.040970   0.005307  -0.008163  -0.000167  -0.005057   0.000027
    17  C    0.007231   0.001485  -0.000633   0.000003   0.000383   0.000002
    18  H    0.000502   0.001466   0.000952   0.000233   0.000222  -0.000005
    19  C    0.004233  -0.000240   0.000678   0.000022  -0.001063   0.000000
    20  H   -0.000853  -0.000120  -0.000787  -0.000017   0.000735   0.000003
    21  C    0.001168  -0.000011   0.000038  -0.000001   0.000069   0.000000
    22  H   -0.000372  -0.000026   0.000024   0.000000   0.000003   0.000000
    23  H   -0.000337   0.000014  -0.000003   0.000000   0.000016   0.000000
    24  H   -0.000017  -0.000001   0.000000   0.000000  -0.000001   0.000000
    25  C    0.145089  -0.072084  -0.097057  -0.001122  -0.008163  -0.000633
    26  C   -0.054843  -0.001101   0.005728   0.000843  -0.000167   0.000003
    27  C   -0.040970   0.005307  -0.018616   0.000224  -0.005057   0.000383
    28  C    0.007231   0.001485  -0.000777  -0.000034   0.000027   0.000002
    29  H    0.000502   0.001466   0.000485   0.000044  -0.000031   0.000001
    30  C    0.004233  -0.000240   0.000093  -0.000168  -0.000019  -0.000009
    31  H   -0.000853  -0.000120  -0.001931  -0.000874   0.001456  -0.000191
    32  C    0.001168  -0.000011   0.000097  -0.000008  -0.000017   0.000000
    33  H   -0.000372  -0.000026   0.000011   0.000001   0.000000   0.000000
    34  H   -0.000337   0.000014   0.000029   0.000007   0.000018   0.000001
    35  H   -0.000017  -0.000001  -0.000001   0.000000   0.000000   0.000000
              7          8          9         10         11         12
     1  C    0.000502   0.004233  -0.000853   0.001168  -0.000372  -0.000337
     2  H    0.001466  -0.000240  -0.000120  -0.000011  -0.000026   0.000014
     3  C   -0.048780  -0.067556  -0.042520  -0.016431   0.006680   0.006123
     4  C    0.399247  -0.031795   0.004189  -0.087568  -0.039639  -0.000380
     5  C    0.004434   0.469000   0.392280  -0.093795  -0.000533  -0.037822
     6  C   -0.036074  -0.075886  -0.000228   0.490270   0.397081   0.005937
     7  H    0.507651  -0.000423  -0.000239   0.005357  -0.004230   0.000022
     8  C   -0.000423   5.051862  -0.029863   0.496668   0.006121   0.396196
     9  H   -0.000239  -0.029863   0.474277   0.004628   0.000018  -0.003312
    10  C    0.005357   0.496668   0.004628   5.033105  -0.040650  -0.040241
    11  H   -0.004230   0.006121   0.000018  -0.040650   0.517987  -0.000211
    12  H    0.000022   0.396196  -0.003312  -0.040241  -0.000211   0.515678
    13  H   -0.000179  -0.042464  -0.000174   0.399534  -0.004495  -0.004405
    14  C    0.000485   0.000093  -0.001931   0.000097   0.000011   0.000029
    15  C    0.000044  -0.000168  -0.000874  -0.000008   0.000001   0.000007
    16  C   -0.000031  -0.000019   0.001456  -0.000017   0.000000   0.000018
    17  C    0.000001  -0.000009  -0.000191   0.000000   0.000000   0.000001
    18  H   -0.000001   0.000007  -0.000038  -0.000009   0.000000   0.000000
    19  C    0.000000  -0.000021   0.000919   0.000000   0.000000   0.000000
    20  H    0.000000   0.000043   0.000215   0.000000   0.000000  -0.000007
    21  C    0.000000   0.000005   0.000000   0.000000   0.000000  -0.000001
    22  H    0.000000   0.000000   0.000003   0.000000   0.000000   0.000000
    23  H    0.000000   0.000001   0.000008   0.000000   0.000000   0.000000
    24  H    0.000000   0.000000   0.000000   0.000000   0.000000   0.000000
    25  C    0.000952   0.000678  -0.000787   0.000038   0.000024  -0.000003
    26  C    0.000233   0.000022  -0.000017  -0.000001   0.000000   0.000000
    27  C    0.000222  -0.001063   0.000735   0.000069   0.000003   0.000016
    28  C   -0.000005   0.000000   0.000003   0.000000   0.000000   0.000000
    29  H   -0.000001   0.000000   0.000000   0.000000   0.000000   0.000000
    30  C    0.000007  -0.000021   0.000043   0.000005   0.000000   0.000001
    31  H   -0.000038   0.000919   0.000215   0.000000   0.000003   0.000008
    32  C   -0.000009   0.000000   0.000000   0.000000   0.000000   0.000000
    33  H    0.000000   0.000000   0.000000   0.000000   0.000000   0.000000
    34  H    0.000000   0.000000  -0.000007  -0.000001   0.000000   0.000000
    35  H    0.000000   0.000000   0.000000   0.000000   0.000000   0.000000
             13         14         15         16         17         18
     1  C   -0.000017   0.145089  -0.054843  -0.040970   0.007231   0.000502
     2  H   -0.000001  -0.072084  -0.001101   0.005307   0.001485   0.001466
     3  C   -0.001541  -0.097057  -0.001122  -0.008163  -0.000633   0.000952
     4  C    0.007432   0.005728   0.000843  -0.000167   0.000003   0.000233
     5  C    0.007821  -0.018616   0.000224  -0.005057   0.000383   0.000222
     6  C   -0.042928  -0.000777  -0.000034   0.000027   0.000002  -0.000005
     7  H   -0.000179   0.000485   0.000044  -0.000031   0.000001  -0.000001
     8  C   -0.042464   0.000093  -0.000168  -0.000019  -0.000009   0.000007
     9  H   -0.000174  -0.001931  -0.000874   0.001456  -0.000191  -0.000038
    10  C    0.399534   0.000097  -0.000008  -0.000017   0.000000  -0.000009
    11  H   -0.004495   0.000011   0.000001   0.000000   0.000000   0.000000
    12  H   -0.004405   0.000029   0.000007   0.000018   0.000001   0.000000
    13  H    0.517915  -0.000001   0.000000   0.000000   0.000000   0.000000
    14  C   -0.000001   5.357994   0.483908   0.479867  -0.065739  -0.048780
    15  C    0.000000   0.483908   5.058883  -0.068617   0.463621   0.399247
    16  C    0.000000   0.479867  -0.068617   5.114078  -0.029439   0.004434
    17  C    0.000000  -0.065739   0.463621  -0.029439   5.055093  -0.036074
    18  H    0.000000  -0.048780   0.399247   0.004434  -0.036074   0.507651
    19  C    0.000000  -0.067556  -0.031795   0.469000  -0.075886  -0.000423
    20  H    0.000000  -0.042520   0.004189   0.392280  -0.000228  -0.000239
    21  C    0.000000  -0.016431  -0.087568  -0.093795   0.490270   0.005357
    22  H    0.000000   0.006680  -0.039639  -0.000533   0.397081  -0.004230
    23  H    0.000000   0.006123  -0.000380  -0.037822   0.005937   0.000022
    24  H    0.000000  -0.001541   0.007432   0.007821  -0.042928  -0.000179
    25  C    0.000000  -0.097057   0.005728  -0.018616  -0.000777   0.000485
    26  C    0.000000  -0.001122   0.000843   0.000224  -0.000034   0.000044
    27  C   -0.000001  -0.008163  -0.000167  -0.005057   0.000027  -0.000031
    28  C    0.000000  -0.000633   0.000003   0.000383   0.000002   0.000001
    29  H    0.000000   0.000952   0.000233   0.000222  -0.000005  -0.000001
    30  C    0.000000   0.000678   0.000022  -0.001063   0.000000   0.000000
    31  H    0.000000  -0.000787  -0.000017   0.000735   0.000003   0.000000
    32  C    0.000000   0.000038  -0.000001   0.000069   0.000000   0.000000
    33  H    0.000000   0.000024   0.000000   0.000003   0.000000   0.000000
    34  H    0.000000  -0.000003   0.000000   0.000016   0.000000   0.000000
    35  H    0.000000   0.000000   0.000000  -0.000001   0.000000   0.000000
             19         20         21         22         23         24
     1  C    0.004233  -0.000853   0.001168  -0.000372  -0.000337  -0.000017
     2  H   -0.000240  -0.000120  -0.000011  -0.000026   0.000014  -0.000001
     3  C    0.000678  -0.000787   0.000038   0.000024  -0.000003   0.000000
     4  C    0.000022  -0.000017  -0.000001   0.000000   0.000000   0.000000
     5  C   -0.001063   0.000735   0.000069   0.000003   0.000016  -0.000001
     6  C    0.000000   0.000003   0.000000   0.000000   0.000000   0.000000
     7  H    0.000000   0.000000   0.000000   0.000000   0.000000   0.000000
     8  C   -0.000021   0.000043   0.000005   0.000000   0.000001   0.000000
     9  H    0.000919   0.000215   0.000000   0.000003   0.000008   0.000000
    10  C    0.000000   0.000000   0.000000   0.000000   0.000000   0.000000
    11  H    0.000000   0.000000   0.000000   0.000000   0.000000   0.000000
    12  H    0.000000  -0.000007  -0.000001   0.000000   0.000000   0.000000
    13  H    0.000000   0.000000   0.000000   0.000000   0.000000   0.000000
    14  C   -0.067556  -0.042520  -0.016431   0.006680   0.006123  -0.001541
    15  C   -0.031795   0.004189  -0.087568  -0.039639  -0.000380   0.007432
    16  C    0.469000   0.392280  -0.093795  -0.000533  -0.037822   0.007821
    17  C   -0.075886  -0.000228   0.490270   0.397081   0.005937  -0.042928
    18  H   -0.000423  -0.000239   0.005357  -0.004230   0.000022  -0.000179
    19  C    5.051862  -0.029863   0.496668   0.006121   0.396196  -0.042464
    20  H   -0.029863   0.474277   0.004628   0.000018  -0.003312  -0.000174
    21  C    0.496668   0.004628   5.033105  -0.040650  -0.040241   0.399534
    22  H    0.006121   0.000018  -0.040650   0.517987  -0.000211  -0.004495
    23  H    0.396196  -0.003312  -0.040241  -0.000211   0.515678  -0.004405
    24  H   -0.042464  -0.000174   0.399534  -0.004495  -0.004405   0.517915
    25  C    0.000093  -0.001931   0.000097   0.000011   0.000029  -0.000001
    26  C   -0.000168  -0.000874  -0.000008   0.000001   0.000007   0.000000
    27  C   -0.000019   0.001456  -0.000017   0.000000   0.000018   0.000000
    28  C   -0.000009  -0.000191   0.000000   0.000000   0.000001   0.000000
    29  H    0.000007  -0.000038  -0.000009   0.000000   0.000000   0.000000
    30  C   -0.000021   0.000919   0.000000   0.000000   0.000000   0.000000
    31  H    0.000043   0.000215   0.000000   0.000000  -0.000007   0.000000
    32  C    0.000005   0.000000   0.000000   0.000000  -0.000001   0.000000
    33  H    0.000000   0.000003   0.000000   0.000000   0.000000   0.000000
    34  H    0.000001   0.000008   0.000000   0.000000   0.000000   0.000000
    35  H    0.000000   0.000000   0.000000   0.000000   0.000000   0.000000
             25         26         27         28         29         30
     1  C    0.145089  -0.054843  -0.040970   0.007231   0.000502   0.004233
     2  H   -0.072084  -0.001101   0.005307   0.001485   0.001466  -0.000240
     3  C   -0.097057   0.005728  -0.018616  -0.000777   0.000485   0.000093
     4  C   -0.001122   0.000843   0.000224  -0.000034   0.000044  -0.000168
     5  C   -0.008163  -0.000167  -0.005057   0.000027  -0.000031  -0.000019
     6  C   -0.000633   0.000003   0.000383   0.000002   0.000001  -0.000009
     7  H    0.000952   0.000233   0.000222  -0.000005  -0.000001   0.000007
     8  C    0.000678   0.000022  -0.001063   0.000000   0.000000  -0.000021
     9  H   -0.000787  -0.000017   0.000735   0.000003   0.000000   0.000043
    10  C    0.000038  -0.000001   0.000069   0.000000   0.000000   0.000005
    11  H    0.000024   0.000000   0.000003   0.000000   0.000000   0.000000
    12  H   -0.000003   0.000000   0.000016   0.000000   0.000000   0.000001
    13  H    0.000000   0.000000  -0.000001   0.000000   0.000000   0.000000
    14  C   -0.097057  -0.001122  -0.008163  -0.000633   0.000952   0.000678
    15  C    0.005728   0.000843  -0.000167   0.000003   0.000233   0.000022
    16  C   -0.018616   0.000224  -0.005057   0.000383   0.000222  -0.001063
    17  C   -0.000777  -0.000034   0.000027   0.000002  -0.000005   0.000000
    18  H    0.000485   0.000044  -0.000031   0.000001  -0.000001   0.000000
    19  C    0.000093  -0.000168  -0.000019  -0.000009   0.000007  -0.000021
    20  H   -0.001931  -0.000874   0.001456  -0.000191  -0.000038   0.000919
    21  C    0.000097  -0.000008  -0.000017   0.000000  -0.000009   0.000000
    22  H    0.000011   0.000001   0.000000   0.000000   0.000000   0.000000
    23  H    0.000029   0.000007   0.000018   0.000001   0.000000   0.000000
    24  H   -0.000001   0.000000   0.000000   0.000000   0.000000   0.000000
    25  C    5.357994   0.483908   0.479867  -0.065739  -0.048780  -0.067556
    26  C    0.483908   5.058883  -0.068617   0.463621   0.399247  -0.031795
    27  C    0.479867  -0.068617   5.114078  -0.029439   0.004434   0.469000
    28  C   -0.065739   0.463621  -0.029439   5.055093  -0.036074  -0.075886
    29  H   -0.048780   0.399247   0.004434  -0.036074   0.507651  -0.000423
    30  C   -0.067556  -0.031795   0.469000  -0.075886  -0.000423   5.051862
    31  H   -0.042520   0.004189   0.392280  -0.000228  -0.000239  -0.029863
    32  C   -0.016431  -0.087568  -0.093795   0.490270   0.005357   0.496668
    33  H    0.006680  -0.039639  -0.000533   0.397081  -0.004230   0.006121
    34  H    0.006123  -0.000380  -0.037822   0.005937   0.000022   0.396196
    35  H   -0.001541   0.007432   0.007821  -0.042928  -0.000179  -0.042464
             31         32         33         34         35
     1  C   -0.000853   0.001168  -0.000372  -0.000337  -0.000017
     2  H   -0.000120  -0.000011  -0.000026   0.000014  -0.000001
     3  C   -0.001931   0.000097   0.000011   0.000029  -0.000001
     4  C   -0.000874  -0.000008   0.000001   0.000007   0.000000
     5  C    0.001456  -0.000017   0.000000   0.000018   0.000000
     6  C   -0.000191   0.000000   0.000000   0.000001   0.000000
     7  H   -0.000038  -0.000009   0.000000   0.000000   0.000000
     8  C    0.000919   0.000000   0.000000   0.000000   0.000000
     9  H    0.000215   0.000000   0.000000  -0.000007   0.000000
    10  C    0.000000   0.000000   0.000000  -0.000001   0.000000
    11  H    0.000003   0.000000   0.000000   0.000000   0.000000
    12  H    0.000008   0.000000   0.000000   0.000000   0.000000
    13  H    0.000000   0.000000   0.000000   0.000000   0.000000
    14  C   -0.000787   0.000038   0.000024  -0.000003   0.000000
    15  C   -0.000017  -0.000001   0.000000   0.000000   0.000000
    16  C    0.000735   0.000069   0.000003   0.000016  -0.000001
    17  C    0.000003   0.000000   0.000000   0.000000   0.000000
    18  H    0.000000   0.000000   0.000000   0.000000   0.000000
    19  C    0.000043   0.000005   0.000000   0.000001   0.000000
    20  H    0.000215   0.000000   0.000003   0.000008   0.000000
    21  C    0.000000   0.000000   0.000000   0.000000   0.000000
    22  H    0.000000   0.000000   0.000000   0.000000   0.000000
    23  H   -0.000007  -0.000001   0.000000   0.000000   0.000000
    24  H    0.000000   0.000000   0.000000   0.000000   0.000000
    25  C   -0.042520  -0.016431   0.006680   0.006123  -0.001541
    26  C    0.004189  -0.087568  -0.039639  -0.000380   0.007432
    27  C    0.392280  -0.093795  -0.000533  -0.037822   0.007821
    28  C   -0.000228   0.490270   0.397081   0.005937  -0.042928
    29  H   -0.000239   0.005357  -0.004230   0.000022  -0.000179
    30  C   -0.029863   0.496668   0.006121   0.396196  -0.042464
    31  H    0.474277   0.004628   0.000018  -0.003312  -0.000174
    32  C    0.004628   5.033105  -0.040650  -0.040241   0.399534
    33  H    0.000018  -0.040650   0.517987  -0.000211  -0.004495
    34  H   -0.003312  -0.040241  -0.000211   0.515678  -0.004405
    35  H   -0.000174   0.399534  -0.004495  -0.004405   0.517915
 Mulliken atomic charges:
              1
     1  C   -0.526350
     2  H    0.197049
     3  C    0.053002
     4  C   -0.138892
     5  C   -0.166571
     6  C   -0.169199
     7  H    0.169386
     8  C   -0.176318
     9  H    0.202163
    10  C   -0.152205
    11  H    0.162229
    12  H    0.162669
    13  H    0.163503
    14  C    0.053002
    15  C   -0.138892
    16  C   -0.166571
    17  C   -0.169199
    18  H    0.169386
    19  C   -0.176318
    20  H    0.202163
    21  C   -0.152205
    22  H    0.162229
    23  H    0.162669
    24  H    0.163503
    25  C    0.053002
    26  C   -0.138892
    27  C   -0.166571
    28  C   -0.169199
    29  H    0.169386
    30  C   -0.176318
    31  H    0.202163
    32  C   -0.152205
    33  H    0.162229
    34  H    0.162669
    35  H    0.163503
 Sum of Mulliken atomic charges =   0.00000
 Mulliken charges with hydrogens summed into heavy atoms:
              1
     1  C   -0.329301
     3  C    0.053002
     4  C    0.030494
     5  C    0.035592
     6  C   -0.006970
     8  C   -0.013649
    10  C    0.011298
    14  C    0.053002
    15  C    0.030494
    16  C    0.035592
    17  C   -0.006970
    19  C   -0.013649
    21  C    0.011298
    25  C    0.053002
    26  C    0.030494
    27  C    0.035592
    28  C   -0.006970
    30  C   -0.013649
    32  C    0.011298
 Sum of Mulliken charges with hydrogens summed into heavy atoms =   0.00000
 Electronic spatial extent (au):  <R**2>=           4916.9537
 Charge=              0.0000 electrons
 Dipole moment (field-independent basis, Debye):
    X=              0.0000    Y=              0.0000    Z=              0.0247  Tot=              0.0247
 Quadrupole moment (field-independent basis, Debye-Ang):
   XX=           -111.4673   YY=           -111.4673   ZZ=           -104.7153
   XY=              0.0000   XZ=              0.0000   YZ=              0.0000
 Traceless Quadrupole moment (field-independent basis, Debye-Ang):
   XX=             -2.2507   YY=             -2.2507   ZZ=              4.5013
   XY=              0.0000   XZ=              0.0000   YZ=              0.0000
 Octapole moment (field-independent basis, Debye-Ang**2):
  XXX=             13.7772  YYY=             39.4703  ZZZ=              0.7928  XYY=            -13.7772
  XXY=            -39.4703  XXZ=             -3.6264  XZZ=              0.0000  YZZ=              0.0000
  YYZ=             -3.6264  XYZ=              0.0000
 Hexadecapole moment (field-independent basis, Debye-Ang**3):
 XXXX=          -2985.3746 YYYY=          -2985.3746 ZZZZ=           -746.0502 XXXY=              0.0000
 XXXZ=             76.1207 YYYX=              0.0000 YYYZ=            -17.5844 ZZZX=              0.0000
 ZZZY=              0.0000 XXYY=           -995.1249 XXZZ=           -612.6536 YYZZ=           -612.6536
 XXYZ=             17.5844 YYXZ=            -76.1207 ZZXY=              0.0000
 N-N= 1.290459673424D+03 E-N=-4.277022025525D+03  KE= 7.285977361145D+02
 PrsmSu:  requested number of processors reduced to:  10 ShMem   1 Linda.
 Calling FoFJK, ICntrl=      2127 FMM=F ISym2X=1 I1Cent= 0 IOpClX= 0 NMat=1 NMatS=1 NMatT=0.
 ***** Axes restored to original set *****
 -------------------------------------------------------------------
 Center     Atomic                   Forces (Hartrees/Bohr)
 Number     Number              X              Y              Z
 -------------------------------------------------------------------
      1        6           0.000000000    0.000000000   -0.022520740
      2        1           0.000000000    0.000000000    0.025897095
      3        6           0.011652075   -0.006597093   -0.003183088
      4        6          -0.002021709   -0.002162271   -0.005434027
      5        6          -0.001445671    0.008252946    0.006218169
      6        6           0.003556815   -0.009900250   -0.007775329
      7        1           0.007529994    0.003204894    0.015281910
      8        6           0.005182096    0.001033682    0.011193510
      9        1           0.008803366   -0.015611732   -0.011980489
     10        6           0.010278097   -0.008129673    0.003701640
     11        1          -0.004760436    0.012324113    0.010097366
     12        1          -0.007599879   -0.002505820   -0.014633743
     13        1          -0.012585166    0.010044519   -0.004611371
     14        6          -0.000112787    0.013389539   -0.003183088
     15        6           0.002883436   -0.000669716   -0.005434027
     16        6          -0.006424425   -0.005378461    0.006218169
     17        6           0.006795461    0.008030417   -0.007775329
     18        1          -0.006540516    0.004918719    0.015281910
     19        6          -0.003486243    0.003970986    0.011193510
     20        1           0.009118473    0.015429805   -0.011980489
     21        6           0.001901455    0.012965930    0.003701640
     22        1          -0.008292777   -0.010284715    0.010097366
     23        1           0.005970043   -0.005328778   -0.014633743
     24        1          -0.002406225   -0.015921333   -0.004611371
     25        6          -0.011539287   -0.006792446   -0.003183088
     26        6          -0.000861727    0.002831987   -0.005434027
     27        6           0.007870096   -0.002874485    0.006218169
     28        6          -0.010352276    0.001869833   -0.007775329
     29        1          -0.000989478   -0.008123613    0.015281910
     30        6          -0.001695853   -0.005004668    0.011193510
     31        1          -0.017921839    0.000181927   -0.011980489
     32        6          -0.012179552   -0.004836257    0.003701640
     33        1           0.013053213   -0.002039398    0.010097366
     34        1           0.001629835    0.007834598   -0.014633743
     35        1           0.014991392    0.005876814   -0.004611371
 -------------------------------------------------------------------
 Cartesian Forces:  Max     0.025897095 RMS     0.009007084

 GradGradGradGradGradGradGradGradGradGradGradGradGradGradGradGradGradGrad
 Berny optimization.
 Internal  Forces:  Max     0.025897095 RMS     0.006563002
 Search for a local minimum.
 Step number   1 out of a maximum of  197
 All quantities printed in internal units (Hartrees-Bohrs-Radians)
 Mixed Optimization -- RFO/linear search
 Second derivative matrix not updated -- first step.
     Eigenvalues ---    0.00651   0.00651   0.00651   0.01538   0.01538
     Eigenvalues ---    0.01538   0.02143   0.02143   0.02143   0.02171
     Eigenvalues ---    0.02171   0.02171   0.02182   0.02182   0.02182
     Eigenvalues ---    0.02201   0.02201   0.02201   0.02213   0.02213
     Eigenvalues ---    0.02213   0.02215   0.02215   0.02215   0.02217
     Eigenvalues ---    0.02217   0.02217   0.02218   0.02218   0.02218
     Eigenvalues ---    0.04655   0.06498   0.06498   0.15999   0.15999
     Eigenvalues ---    0.15999   0.16000   0.16000   0.16000   0.16000
     Eigenvalues ---    0.16000   0.16000   0.16000   0.16000   0.16000
     Eigenvalues ---    0.16000   0.16000   0.16000   0.19009   0.19009
     Eigenvalues ---    0.22000   0.22000   0.22000   0.22000   0.22000
     Eigenvalues ---    0.22000   0.23478   0.23478   0.23478   0.25000
     Eigenvalues ---    0.25000   0.25000   0.31293   0.31486   0.31486
     Eigenvalues ---    0.31486   0.33910   0.33910   0.33910   0.34107
     Eigenvalues ---    0.34107   0.34107   0.34262   0.34262   0.34262
     Eigenvalues ---    0.34262   0.34262   0.34262   0.34283   0.34283
     Eigenvalues ---    0.34283   0.42463   0.42463   0.42463   0.42576
     Eigenvalues ---    0.42576   0.42576   0.46400   0.46400   0.46400
     Eigenvalues ---    0.46780   0.46780   0.46780   0.47232   0.47232
     Eigenvalues ---    0.47232   0.47303   0.47303   0.473031000.00000
     Eigenvalues --- 1000.000001000.000001000.000001000.000001000.00000
     Eigenvalues --- 1000.000001000.000001000.000001000.000001000.00000
     Eigenvalues --- 1000.000001000.000001000.000001000.000001000.00000
     Eigenvalues --- 1000.000001000.000001000.000001000.000001000.00000
     Eigenvalues --- 1000.000001000.000001000.000001000.000001000.00000
     Eigenvalues --- 1000.000001000.000001000.000001000.000001000.00000
     Eigenvalues --- 1000.000001000.000001000.000001000.000001000.00000
     Eigenvalues --- 1000.000001000.000001000.000001000.000001000.00000
     Eigenvalues --- 1000.000001000.000001000.000001000.000001000.00000
     Eigenvalues --- 1000.000001000.000001000.000001000.000001000.00000
     Eigenvalues --- 1000.000001000.000001000.000001000.000001000.00000
     Eigenvalues --- 1000.000001000.000001000.000001000.000001000.00000
     Eigenvalues --- 1000.000001000.000001000.000001000.000001000.00000
     Eigenvalues --- 1000.000001000.000001000.000001000.000001000.00000
     Eigenvalues --- 1000.000001000.000001000.000001000.000001000.00000
     Eigenvalues --- 1000.000001000.000001000.000001000.000001000.00000
     Eigenvalues --- 1000.000001000.000001000.000001000.000001000.00000
     Eigenvalues --- 1000.000001000.00000
 RFO step:  Lambda=-2.70678490D-02 EMin= 6.51467986D-03
 Linear search not attempted -- first point.
 Maximum step size (   0.300) exceeded in Quadratic search.
    -- Step size scaled by   0.784
 Iteration  1 RMS(Cart)=  0.10418360 RMS(Int)=  0.00167749
 Iteration  2 RMS(Cart)=  0.00450354 RMS(Int)=  0.00032012
 Iteration  3 RMS(Cart)=  0.00000478 RMS(Int)=  0.00032011
 Iteration  4 RMS(Cart)=  0.00000000 RMS(Int)=  0.00032011
 ClnCor:  largest displacement from symmetrization is 1.20D-10 for atom    34.
 Variable       Old X    -DE/DX   Delta X   Delta X   Delta X     New X
                                 (Linear)    (Quad)   (Total)
    R1        2.12157  -0.02590   0.00000  -0.05972  -0.05972   2.06186
    R2        2.85094   0.01965   0.00000   0.04505   0.04505   2.89599
    R3        2.85094   0.01965   0.00000   0.04505   0.04505   2.89599
    R4        2.85094   0.01965   0.00000   0.04505   0.04505   2.89599
    R5        2.64100  -0.00440   0.00000  -0.00712  -0.00710   2.63389
    R6        2.63716  -0.00236   0.00000  -0.00371  -0.00370   2.63346
    R7        2.62639  -0.00374   0.00000  -0.00596  -0.00595   2.62044
    R8        2.07150  -0.01732   0.00000  -0.03688  -0.03688   2.03462
    R9        2.62769  -0.00301   0.00000  -0.00463  -0.00463   2.62306
   R10        2.07483  -0.02139   0.00000  -0.04580  -0.04580   2.02902
   R11        2.62839  -0.00622   0.00000  -0.00985  -0.00985   2.61854
   R12        2.06890  -0.01663   0.00000  -0.03526  -0.03526   2.03364
   R13        2.62702  -0.00576   0.00000  -0.00899  -0.00900   2.61802
   R14        2.06891  -0.01668   0.00000  -0.03537  -0.03537   2.03354
   R15        2.06854  -0.01675   0.00000  -0.03550  -0.03550   2.03305
   R16        2.64100  -0.00440   0.00000  -0.00712  -0.00710   2.63389
   R17        2.63716  -0.00236   0.00000  -0.00371  -0.00370   2.63346
   R18        2.62639  -0.00374   0.00000  -0.00596  -0.00595   2.62044
   R19        2.07150  -0.01732   0.00000  -0.03688  -0.03688   2.03462
   R20        2.62769  -0.00301   0.00000  -0.00463  -0.00463   2.62306
   R21        2.07483  -0.02139   0.00000  -0.04580  -0.04580   2.02902
   R22        2.62839  -0.00622   0.00000  -0.00985  -0.00985   2.61854
   R23        2.06890  -0.01663   0.00000  -0.03526  -0.03526   2.03364
   R24        2.62702  -0.00576   0.00000  -0.00899  -0.00900   2.61802
   R25        2.06891  -0.01668   0.00000  -0.03537  -0.03537   2.03354
   R26        2.06854  -0.01675   0.00000  -0.03550  -0.03550   2.03305
   R27        2.64100  -0.00440   0.00000  -0.00712  -0.00710   2.63389
   R28        2.63716  -0.00236   0.00000  -0.00371  -0.00370   2.63346
   R29        2.62639  -0.00374   0.00000  -0.00596  -0.00595   2.62044
   R30        2.07150  -0.01732   0.00000  -0.03688  -0.03688   2.03462
   R31        2.62769  -0.00301   0.00000  -0.00463  -0.00463   2.62306
   R32        2.07483  -0.02139   0.00000  -0.04580  -0.04580   2.02902
   R33        2.62839  -0.00622   0.00000  -0.00985  -0.00985   2.61854
   R34        2.06890  -0.01663   0.00000  -0.03526  -0.03526   2.03364
   R35        2.62702  -0.00576   0.00000  -0.00899  -0.00900   2.61802
   R36        2.06891  -0.01668   0.00000  -0.03537  -0.03537   2.03354
   R37        2.06854  -0.01675   0.00000  -0.03550  -0.03550   2.03305
    A1        1.86682  -0.00347   0.00000  -0.03693  -0.03621   1.83062
    A2        1.86682  -0.00347   0.00000  -0.03693  -0.03621   1.83062
    A3        1.86682  -0.00347   0.00000  -0.03693  -0.03621   1.83062
    A4        1.95233   0.00313   0.00000   0.03331   0.03107   1.98340
    A5        1.95233   0.00313   0.00000   0.03331   0.03107   1.98340
    A6        1.95233   0.00313   0.00000   0.03331   0.03107   1.98340
    A7        2.07431  -0.00224   0.00000  -0.00615  -0.00616   2.06815
    A8        2.12885   0.00993   0.00000   0.02827   0.02826   2.15711
    A9        2.08002  -0.00769   0.00000  -0.02211  -0.02210   2.05792
   A10        2.10017   0.00547   0.00000   0.01661   0.01662   2.11679
   A11        2.09423  -0.00348   0.00000  -0.01143  -0.01144   2.08279
   A12        2.08878  -0.00199   0.00000  -0.00519  -0.00520   2.08358
   A13        2.10073   0.00327   0.00000   0.01028   0.01027   2.11100
   A14        2.08614   0.00075   0.00000   0.00484   0.00484   2.09098
   A15        2.09627  -0.00402   0.00000  -0.01515  -0.01515   2.08112
   A16        2.09753  -0.00006   0.00000  -0.00098  -0.00098   2.09655
   A17        2.09154   0.00014   0.00000   0.00095   0.00095   2.09248
   A18        2.09412  -0.00008   0.00000   0.00003   0.00004   2.09415
   A19        2.09756   0.00126   0.00000   0.00386   0.00383   2.10139
   A20        2.09048  -0.00054   0.00000  -0.00156  -0.00156   2.08892
   A21        2.09515  -0.00072   0.00000  -0.00230  -0.00229   2.09286
   A22        2.09035  -0.00225   0.00000  -0.00764  -0.00766   2.08269
   A23        2.09617   0.00111   0.00000   0.00374   0.00375   2.09992
   A24        2.09666   0.00114   0.00000   0.00389   0.00390   2.10056
   A25        2.07431  -0.00224   0.00000  -0.00615  -0.00616   2.06815
   A26        2.12885   0.00993   0.00000   0.02827   0.02826   2.15711
   A27        2.08002  -0.00769   0.00000  -0.02211  -0.02210   2.05792
   A28        2.10017   0.00547   0.00000   0.01661   0.01662   2.11679
   A29        2.09423  -0.00348   0.00000  -0.01143  -0.01144   2.08279
   A30        2.08878  -0.00199   0.00000  -0.00519  -0.00520   2.08358
   A31        2.10073   0.00327   0.00000   0.01028   0.01027   2.11100
   A32        2.08614   0.00075   0.00000   0.00484   0.00484   2.09098
   A33        2.09627  -0.00402   0.00000  -0.01515  -0.01515   2.08112
   A34        2.09753  -0.00006   0.00000  -0.00098  -0.00098   2.09655
   A35        2.09154   0.00014   0.00000   0.00095   0.00095   2.09248
   A36        2.09412  -0.00008   0.00000   0.00003   0.00004   2.09415
   A37        2.09756   0.00126   0.00000   0.00386   0.00383   2.10139
   A38        2.09048  -0.00054   0.00000  -0.00156  -0.00156   2.08892
   A39        2.09515  -0.00072   0.00000  -0.00230  -0.00229   2.09286
   A40        2.09035  -0.00225   0.00000  -0.00764  -0.00766   2.08269
   A41        2.09617   0.00111   0.00000   0.00374   0.00375   2.09992
   A42        2.09666   0.00114   0.00000   0.00389   0.00390   2.10056
   A43        2.07431  -0.00224   0.00000  -0.00615  -0.00616   2.06815
   A44        2.12885   0.00993   0.00000   0.02827   0.02826   2.15711
   A45        2.08002  -0.00769   0.00000  -0.02211  -0.02210   2.05792
   A46        2.10017   0.00547   0.00000   0.01661   0.01662   2.11679
   A47        2.09423  -0.00348   0.00000  -0.01143  -0.01144   2.08279
   A48        2.08878  -0.00199   0.00000  -0.00519  -0.00520   2.08358
   A49        2.10073   0.00327   0.00000   0.01028   0.01027   2.11100
   A50        2.08614   0.00075   0.00000   0.00484   0.00484   2.09098
   A51        2.09627  -0.00402   0.00000  -0.01515  -0.01515   2.08112
   A52        2.09753  -0.00006   0.00000  -0.00098  -0.00098   2.09655
   A53        2.09154   0.00014   0.00000   0.00095   0.00095   2.09248
   A54        2.09412  -0.00008   0.00000   0.00003   0.00004   2.09415
   A55        2.09756   0.00126   0.00000   0.00386   0.00383   2.10139
[...]
 4,-0.00026665,-0.00097887,0.07323763,0.41738330,-0.00195833,0.00550724
 ,-0.00057113,-0.00008426,0.00001268,-0.00023493,-0.00105121,-0.0000303
 7,0.00043403,0.00015552,-0.00027112,-0.00007522,-0.00015237,0.00000398
 ,0.00023251,-0.00008634,0.00005379,-0.00014622,0.00003781,0.00000731,0
 .00000475,0.00016708,-0.00019659,0.00008995,0.00008026,0.00010368,-0.0
 0000667,0.00008274,0.00010030,0.00010789,-0.00001641,0.00001379,0.0000
 3089,-0.00000573,-0.00000493,-0.00001995,-0.00003300,0.00001989,0.0000
 0113,0.00062595,0.00019552,-0.00081202,0.00006353,0.00037279,0.0001387
 2,0.00025048,0.00005048,-0.00019945,0.00001436,-0.00002763,-0.00006550
 ,-0.00003263,0.00000050,0.00004892,-0.00005102,0.00002541,0.00008995,-
 0.00003901,0.00009526,0.00008477,-0.00003849,-0.00003788,0.00003973,-0
 .00000440,0.00000910,0.00001417,0.00000261,0.00002182,-0.00000134,-0.0
 0001265,-0.00002067,0.00000949,0.03810744,0.00983659,0.00682622,-0.018
 22935,-0.00299064,-0.00732574,0.07221663,0.06137329,-0.14795761,-0.017
 10481,0.02817702,-0.03408865,-0.00011870,-0.00092723,0.00029799,0.0514
 1966,-0.30892244,0.61509823,-0.00043980,0.00080110,0.00034821,0.000023
 18,0.00014944,-0.00007501,-0.00159355,-0.00115606,0.00200265,-0.000192
 04,-0.00045571,0.00018664,-0.00102879,-0.00044261,0.00060370,0.0000571
 3,-0.00000577,0.00002588,0.00005354,0.00002730,-0.00010166,-0.00013920
 ,-0.00008931,-0.00006299,0.00008059,0.00006524,-0.00002038,-0.00000255
 ,0.00011618,-0.00003591,0.00000774,-0.00001631,-0.00002091,0.00002990,
 0.00001172,0.00000638,0.00002872,-0.00000821,-0.00000903,0.00020749,-0
 .00009087,-0.00019645,0.00001015,0.00009037,0.00006210,0.00022744,0.00
 008882,-0.00007115,-0.00000582,-0.00000231,0.00000034,-0.00001070,-0.0
 0000768,0.00000997,-0.00003131,-0.00002722,0.00004966,-0.00014560,0.00
 006535,-0.00000694,-0.00000147,0.00000697,-0.00000391,-0.00000160,0.00
 000855,0.00000148,-0.00000295,0.00002042,0.00000529,-0.00000672,-0.000
 00209,0.00000318,0.00750846,-0.00233908,0.00386634,0.00116769,-0.00185
 451,0.00090128,-0.26387447,0.05847547,-0.13574389,0.00018775,-0.000486
 23,0.00095055,0.00026526,-0.00015410,0.00023063,-0.01864229,0.01020057
 ,-0.02047600,0.28000158,0.00110326,-0.00252065,-0.00271738,0.00044885,
 0.00039410,-0.00026079,-0.00046431,0.00010205,0.00003152,-0.00027385,0
 .00036208,0.00013365,0.00004719,0.00011422,0.00001951,0.00028485,-0.00
 031966,0.00019601,0.00001138,0.00000335,-0.00013605,-0.00027555,0.0004
 0515,-0.00008141,-0.00023388,-0.00031835,0.00000587,-0.00004577,-0.000
 31782,-0.00023682,0.00004171,-0.00002168,-0.00003241,0.00000027,0.0000
 0790,0.00000761,0.00003515,-0.00002187,-0.00002279,-0.00065123,-0.0001
 5343,0.00048571,-0.00003139,-0.00021576,-0.00012764,-0.00034810,-0.000
 05253,0.00016628,0.00000208,0.00002976,0.00006098,0.00001142,0.0000025
 9,-0.00001467,0.00003890,-0.00001410,-0.00012135,0.00036447,-0.0000921
 6,0.00002878,0.00002946,0.00000609,-0.00002158,0.00001319,-0.00000869,
 -0.00000840,0.00000107,-0.00001352,0.00000900,0.00001501,0.00002120,-0
 .00000407,0.01929374,0.00066224,0.01152295,-0.00226826,0.00303709,0.00
 678215,0.05854377,-0.07757274,0.05341083,-0.00036756,-0.00091266,-0.00
 021395,0.00087130,-0.00026721,0.00056455,-0.01319742,0.00840720,-0.007
 54063,-0.06024938,0.06796338,-0.00054881,-0.00232386,-0.00116856,0.000
 20855,0.00008090,0.00005923,0.00024158,0.00047338,-0.00002264,-0.00000
 419,-0.00070461,-0.00016868,0.00006908,-0.00009024,0.00063096,0.000022
 87,-0.00018838,-0.00010843,0.00001347,0.00008908,-0.00006018,0.0002249
 1,-0.00012950,0.00008477,-0.00002146,-0.00002040,-0.00004281,0.0000192
 4,0.00021432,0.00006634,-0.00000054,0.00003771,-0.00000064,-0.00006316
 ,-0.00001481,-0.00003664,-0.00003906,0.00002136,-0.00000777,-0.0002576
 4,-0.00009898,0.00032589,0.00000570,-0.00009757,-0.00005980,-0.0000542
 6,-0.00004165,0.00009839,0.00001904,-0.00000575,0.00000220,-0.00001050
 ,0.00000937,-0.00003721,0.00005156,0.00002717,-0.00000667,0.00001527,0
 .00001471,-0.00004281,-0.00001524,-0.00001287,0.00000274,-0.00000043,-
 0.00000678,-0.00000326,-0.00000033,-0.00001548,-0.00001107,-0.00000209
 ,0.00000258,-0.00000887,-0.02475691,0.00623740,-0.00935991,0.00069021,
 0.00712757,-0.00088921,-0.13384640,0.05261722,-0.15563720,0.00108179,-
 0.00010775,-0.00057564,-0.00114859,0.00020679,-0.00074806,0.01058471,-
 0.00127870,0.00992481,0.14545105,-0.06275514,0.15560174,0.00086935,0.0
 0054074,-0.00025857,-0.00025503,0.00003531,0.00040732,0.00006241,-0.00
 040744,-0.00011726,-0.00029590,0.00005821,-0.00002613,0.00010160,-0.00
 005025,0.00023477,0.00020478,-0.00010250,0.00011228,0.00001960,-0.0000
 2103,-0.00003790,-0.00008538,0.00017308,0.00005205,0.00001998,0.000005
 41,0.00001876,-0.00009458,-0.00005787,-0.00021488,-0.00003048,0.000022
 21,0.00002518,-0.00002643,0.00000620,-0.00002057,-0.00002412,0.0000095
 1,-0.00000209,0.00013708,0.00032836,0.00028612,0.00004067,-0.00038062,
 -0.00009916,0.00003756,-0.00015797,0.00015714,-0.00006364,0.00010407,0
 .00012815,0.00000790,0.00002737,-0.00000391,-0.00011094,-0.00017871,0.
 00004550,-0.00026949,0.00003794,0.00017598,0.00008315,-0.00004474,-0.0
 0013575,-0.00002202,-0.00002846,-0.00001611,-0.00000162,-0.00005822,-0
 .00003102,-0.00000228,-0.00001834,-0.00000093,-0.01939521,0.02325628,-
 0.03516222,0.03895045,-0.02230045,0.03762936,-0.06676411,-0.02128070,0
 .00863000,-0.16279238,-0.04834723,0.04414132,-0.00535614,-0.00339342,0
 .00076097,-0.29613855,0.05378923,-0.13374527,-0.00374344,-0.00363906,0
 .00150624,0.81253735,-0.00005360,-0.00191872,0.00025410,-0.00007920,-0
 .00005240,-0.00066854,-0.00004654,0.00014207,0.00034059,0.00019648,-0.
 00007368,-0.00009384,-0.00015114,0.00014499,-0.00007464,-0.00014462,0.
 00009132,-0.00015142,0.00001359,-0.00005930,0.00003458,0.00010150,-0.0
 0015447,-0.00001439,-0.00001708,-0.00001536,-0.00000676,0.00001899,0.0
 0011995,0.00013913,-0.00002339,0.00000915,0.00000433,-0.00001099,-0.00
 000158,0.00000247,-0.00000406,-0.00000097,0.00000102,-0.00104930,0.000
 35338,-0.00007722,-0.00003853,0.00008149,-0.00020214,-0.00015063,-0.00
 009166,0.00004428,0.00009710,-0.00015312,-0.00006188,-0.00000667,0.000
 02074,-0.00000694,0.00016171,0.00021378,-0.00012181,0.00019988,-0.0000
 5088,-0.00012382,-0.00012160,-0.00005778,0.00014221,0.00001563,-0.0000
 3098,0.00001557,-0.00001028,-0.00000450,-0.00001817,0.00000870,0.00000
 176,-0.00000926,0.02374612,-0.02960646,0.03833829,-0.06255295,-0.00919
 777,0.01021348,0.01930644,0.04023521,-0.03689683,0.00341291,-0.1831615
 8,0.13841477,-0.00304829,0.00566367,0.00385409,0.00143451,-0.12389975,
 0.05504223,-0.00368820,0.00467449,0.00452373,0.10852599,0.39213427,0.0
 0067014,0.00163771,-0.00115346,0.00033197,0.00018058,0.00096818,0.0001
 4903,-0.00022236,-0.00051962,-0.00040354,0.00003294,0.00010569,0.00031
 100,-0.00024776,0.00023180,0.00028230,-0.00019205,0.00024532,0.0000189
 8,0.00004334,-0.00008395,-0.00018005,0.00029253,0.00003973,0.00002065,
 0.00000740,0.00000274,-0.00005528,-0.00018867,-0.00027670,0.00000511,0
 .00000465,0.00000988,0.00000687,0.00000348,-0.00000760,-0.00000647,0.0
 0000339,-0.00000719,0.00112415,-0.00037943,0.00037605,0.00003324,-0.00
 037806,0.00028444,0.00036631,0.00021474,0.00007314,-0.00017003,0.00028
 956,0.00018608,0.00000237,-0.00001098,0.00000558,-0.00021534,-0.000415
 49,0.00010789,-0.00018714,0.00014951,0.00006634,0.00022793,0.00011652,
 -0.00027670,-0.00002978,0.00002955,-0.00002641,0.00002284,0.00001937,0
 .00004701,-0.00000705,0.00000369,0.00000410,-0.03668733,0.03720771,-0.
 07029721,0.09470695,0.02022159,0.00650338,-0.04796436,-0.04765432,0.06
 269418,-0.02759897,0.12346376,-0.26232023,0.00008757,0.00365221,0.0040
 5992,-0.06238908,0.07021989,-0.19712816,0.00192890,0.00466817,0.003297
 47,0.03098480,-0.26866671,0.55410086,-0.00068374,0.00071758,-0.0010399
 2,0.00001591,0.00000871,0.00005854,-0.00018204,-0.00037776,0.00019178,
 -0.00007346,0.00002744,-0.00004988,-0.00007625,0.00009680,0.00000815,0
 .00001996,-0.00001240,-0.00002223,0.00001131,-0.00001656,-0.00000150,0
 .00002443,0.00001900,-0.00000568,0.00000249,-0.00000618,0.00000608,-0.
 00003430,0.00002137,-0.00001071,-0.00001235,0.00002212,0.00000539,-0.0
 0001669,0.00000481,-0.00001521,-0.00001400,0.00000823,-0.00000261,-0.0
 0009391,0.00020018,0.00009660,0.00001414,-0.00011867,-0.00003116,0.000
 02894,-0.00006301,-0.00003603,0.00000219,-0.00001764,0.00002040,-0.000
 00485,0.00001931,-0.00001011,-0.00000672,-0.00000335,0.00002014,-0.000
 02532,0.00003540,0.00003293,-0.00000025,-0.00003966,0.00000147,-0.0000
 1735,-0.00001924,-0.00000047,-0.00000268,-0.00001291,-0.00002248,-0.00
 000895,-0.00001597,-0.00000579,-0.00355923,-0.00403898,0.00184324,-0.0
 1892671,0.01037418,-0.02141694,0.00014545,-0.00054665,0.00106178,-0.26
 322258,0.05286730,-0.13452029,0.00108302,0.00047649,0.00114859,0.00153
 801,-0.00182832,0.00048323,-0.00007867,0.00023570,0.00001999,0.0077334
 9,-0.00362941,0.00564881,0.27529646,-0.00040558,0.00016137,-0.00037378
 ,0.00007892,0.00005123,-0.00002572,-0.00018449,-0.00016940,-0.00001840
 ,-0.00002209,0.00004156,0.00003838,0.00001220,0.00000198,-0.00000012,0
 .00004328,-0.00001342,0.00001448,-0.00000092,0.00000268,0.00000022,-0.
 00001897,0.00004381,-0.00000836,-0.00001082,-0.00001279,0.00000301,-0.
 00002272,-0.00001870,-0.00004057,0.00000260,-0.00000474,0.00000235,-0.
 00000329,0.00000222,-0.00000295,-0.00000063,-0.00000194,0.00000085,-0.
 00005262,0.00002419,0.00001166,-0.00001560,-0.00001320,-0.00001006,0.0
 0000162,-0.00002837,0.00001102,0.00000850,0.00000032,0.00000698,0.0000
 0010,0.00000244,-0.00000914,0.00001255,-0.00001563,0.00000732,-0.00002
 262,0.00001138,-0.00001839,0.00000594,-0.00002108,-0.00000675,0.000000
 28,0.00000026,-0.00000325,-0.00000637,-0.00000657,-0.00001182,-0.00000
 428,0.00000237,-0.00000335,-0.00348877,0.00485038,0.00469226,-0.012639
 12,0.00838282,-0.00748400,-0.00041609,-0.00090581,-0.00013550,0.052959
 54,-0.07391232,0.05007176,0.00125829,-0.00281879,-0.00289417,-0.002183
 24,0.00312495,0.00704281,0.00017926,-0.00075936,-0.00062806,0.01924820
 ,0.00105537,0.01160791,-0.05552935,0.06382623,0.00040937,-0.00018328,0
 .00021795,-0.00003007,-0.00001925,-0.00004029,-0.00000217,-0.00001009,
 -0.00008307,-0.00002233,0.00000719,0.00003059,0.00000892,-0.00001530,0
 .00003697,0.00002728,-0.00002743,0.00001371,0.00000852,0.00000129,-0.0
 0001780,-0.00001842,0.00001927,0.00001417,0.00000653,0.00000548,-0.000
 00326,-0.00000543,-0.00002174,-0.00002641,0.00000305,0.00000122,0.0000
 0196,0.00000060,0.00000263,-0.00000640,-0.00000216,0.00000380,-0.00000
 373,-0.00011440,-0.00000711,0.00002033,-0.00000605,0.00000260,-0.00004
 488,0.00000645,-0.00002825,-0.00001369,0.00001086,-0.00001419,-0.00000
 619,0.00000426,0.00000363,-0.00000358,0.00000519,0.00001228,0.00003089
 ,-0.00001761,0.00003432,-0.00000064,-0.00000884,-0.00002397,0.00000988
 ,-0.00000066,-0.00000584,0.00000196,-0.00000529,-0.00000775,-0.0000189
 4,-0.00000629,-0.00000701,-0.00000264,0.00154230,0.00457826,0.00329802
 ,0.01040949,-0.00076608,0.00975190,0.00104780,-0.00015070,-0.00044109,
 -0.13474777,0.05002649,-0.15684103,0.00011009,-0.00306235,-0.00090429,
 0.00091755,0.00711444,-0.00093617,0.00003431,-0.00059728,-0.00042462,-
 0.02597087,0.00496053,-0.00887129,0.14638999,-0.05938842,0.15675107,0.
 00042170,-0.00063097,0.00110686,-0.00030065,-0.00016127,0.00015912,0.0
 0023002,-0.00008916,0.00000723,-0.00002723,0.00004537,-0.00001226,-0.0
 0000369,0.00004095,-0.00003377,0.00001325,0.00000644,-0.00000434,-0.00
 000213,-0.00001988,-0.00000114,-0.00000396,0.00001988,-0.00002020,-0.0
 0000157,-0.00001962,0.00001357,-0.00003344,0.00003984,-0.00002820,-0.0
 0001395,0.00000640,0.00000936,-0.00002295,-0.00000504,-0.00000259,-0.0
 0001410,-0.00000064,0.00000338,-0.00014719,0.00009779,0.00011011,-0.00
 001814,-0.00009000,-0.00004179,-0.00001334,-0.00003891,-0.00003366,0.0
 0000184,-0.00001553,0.00000777,0.00000848,0.00000995,-0.00001106,0.000
 00268,0.00000115,-0.00000140,0.00000821,0.00000080,0.00001876,-0.00000
 571,-0.00001816,-0.00000042,-0.00000316,-0.00001262,0.00000197,0.00000
 407,-0.00001056,-0.00000654,-0.00000098,-0.00000643,-0.00000219,-0.005
 42264,-0.00315100,0.00027592,-0.00134869,0.00010432,-0.00021274,0.0027
 8604,-0.02102123,0.02802065,-0.00432543,0.00010492,-0.00388881,0.00006
 711,0.00015223,0.00016209,-0.07452270,-0.01831583,0.01803449,0.0011607
 0,0.00118268,0.00009828,0.00837227,0.01915138,-0.02537749,0.00015363,0
 .00086312,-0.00115383,0.07193703,0.00014473,-0.00027648,0.00035154,-0.
 00020891,-0.00011975,0.00002805,0.00016283,-0.00011446,0.00002370,0.00
 001545,0.00002337,-0.00000016,-0.00006694,0.00007361,-0.00002029,-0.00
 001933,-0.00000663,-0.00002013,0.00000425,-0.00001071,-0.00002410,0.00
 002350,-0.00002234,-0.00000865,-0.00000027,-0.00001490,0.00000746,-0.0
 0000810,0.00002732,0.00001009,-0.00000014,0.00000470,-0.00000070,-0.00
 002054,-0.00000169,-0.00000996,-0.00000845,0.00000514,-0.00000102,-0.0
 0005714,0.00013778,0.00012594,0.00001452,-0.00009679,-0.00005057,-0.00
 007697,-0.00008446,-0.00000723,-0.00000519,0.00000115,0.00000225,0.000
 01802,0.00000686,-0.00000932,-0.00001115,0.00001609,0.00000743,0.00001
 225,0.00002959,0.00006211,-0.00000097,-0.00002230,-0.00000769,-0.00000
 452,-0.00001131,-0.00000183,0.00000494,-0.00002871,-0.00001307,0.00000
 151,-0.00000994,0.00000024,-0.00314452,0.00557380,0.00334668,0.0001230
 7,-0.00024610,-0.00096007,0.00195637,-0.00217268,0.01105647,0.00036751
 ,0.00606302,0.00405181,0.00016646,-0.00084214,-0.00051562,-0.01829636,
 -0.16506827,0.15402221,0.00034242,-0.00270184,-0.00304282,-0.00400068,
 0.00071914,0.00555105,-0.00009027,-0.00027416,0.00024392,0.02144139,0.
 16221253,-0.00047685,0.00003354,-0.00029391,0.00007799,0.00005550,-0.0
 0006466,-0.00002729,0.00011627,-0.00001648,0.00006459,-0.00003025,0.00
 001639,-0.00000343,-0.00001825,-0.00003752,-0.00004167,0.00000904,0.00
 000236,-0.00000856,0.00002622,-0.00000283,0.00000654,-0.00003488,-0.00
 000134,-0.00001044,0.00000009,-0.00001107,0.00003124,-0.00001778,0.000
 04701,0.00002148,-0.00001356,-0.00001894,0.00001459,0.00000087,0.00000
 611,0.00001894,-0.00000327,0.00000003,0.00014505,-0.00006128,-0.000032
 17,0.00000899,0.00004642,0.00004700,-0.00001891,0.00002944,0.00004327,
 -0.00000575,0.00002019,-0.00000190,-0.00000277,-0.00001020,-0.00000059
 ,0.00001370,-0.00001540,-0.00001995,0.00000340,-0.00000933,-0.00003664
 ,0.00001243,0.00001658,-0.00000760,0.00000505,0.00001465,-0.00000640,-
 0.00000733,0.00000723,0.00000611,0.00000359,0.00001325,0.00000119,0.00
 080442,0.00368118,0.00384419,-0.00008376,-0.00098346,0.00036804,-0.003
 53918,0.00448614,-0.00161174,-0.00433594,0.00394083,0.00233462,0.00015
 552,-0.00052180,-0.00051144,0.01819121,0.15382551,-0.25411485,0.000975
 63,-0.00280610,-0.00089873,0.00619040,0.01216368,-0.00926270,0.0001981
 1,0.00050020,-0.00072526,-0.01842601,-0.17143977,0.26187263,0.00006741
 ,0.00019249,0.00010473,-0.00002920,-0.00004558,0.00005850,0.00001276,-
 0.00008905,0.00002710,-0.00002986,-0.00002539,-0.00002259,-0.00005362,
 0.00003323,0.00005063,0.00000384,-0.00002032,-0.00002024,0.00001444,-0
 .00001084,-0.00001134,0.00002661,-0.00001925,0.00002423,0.00001981,0.0
 0001741,-0.00000119,-0.00000342,0.00001768,0.00000032,-0.00000923,0.00
 001581,0.00000921,-0.00000983,0.00000132,-0.00001327,-0.00001470,0.000
 00996,-0.00000393,-0.00002065,0.00008079,0.00002325,0.00000801,-0.0000
 3109,-0.00002988,0.00001977,-0.00003546,-0.00004337,0.00000444,-0.0000
 1244,-0.00000557,0.00000426,0.00000770,-0.00000135,-0.00001737,0.00001
 882,0.00003373,-0.00002089,0.00003686,0.00003803,-0.00000911,-0.000018
 17,0.00000617,-0.00000825,-0.00001155,0.00000438,0.00000427,-0.0000099
 7,-0.00001230,-0.00000512,-0.00001549,-0.00000124,0.00051724,0.0007487
 6,-0.00057664,0.00184448,-0.00097361,-0.00062484,-0.00236405,0.0010227
 0,-0.00462141,0.00211224,0.00184162,-0.00338508,-0.00012575,0.00002431
 ,-0.00003507,-0.01875142,-0.01335136,0.01149821,-0.00107636,-0.0005297
 0,0.00044607,-0.31370591,-0.10156445,0.06434199,0.00097062,0.00035317,
 0.00116964,0.00106463,0.00122122,0.00004502,0.32955991,0.00002427,-0.0
 0073081,-0.00050412,0.00003353,0.00006761,-0.00016418,-0.00002267,-0.0
 0003162,-0.00001149,-0.00002706,-0.00000140,0.00002560,0.00000359,0.00
 001216,0.00001314,0.00000511,-0.00001631,-0.00000020,0.00000266,0.,-0.
 00001389,0.00000107,0.00000848,-0.00000062,0.00000031,-0.00000534,-0.0
 0000310,-0.00000936,0.00000290,-0.00000795,0.00000412,0.00000265,-0.00
 000194,-0.00000662,-0.00000108,-0.00000352,-0.00000199,0.00000267,-0.0
 0000204,-0.00014211,0.00000520,0.00008717,0.00000643,-0.00005266,-0.00
 003429,-0.00001421,-0.00003776,0.00000026,0.00000239,-0.00001014,0.000
 00242,0.00000640,0.00000415,-0.00000481,-0.00000030,0.00001808,0.00001
 863,-0.00000651,0.00002774,0.00002314,-0.00000460,-0.00001597,0.000003
 91,-0.00000269,-0.00000770,-0.00000003,-0.00000215,-0.00001323,-0.0000
 1477,-0.00000354,-0.00000690,-0.00000167,0.00084872,-0.00072109,-0.000
 05838,-0.00059645,0.00344169,0.00708164,0.00058572,0.00552767,0.004899
 75,-0.02110987,-0.00186677,0.00347132,-0.00089278,-0.00037743,0.000175
 16,0.00990266,0.00806627,-0.00111758,0.00042645,0.00009113,-0.00011996
 ,-0.10170041,-0.09712980,0.03873459,0.00123173,-0.00260931,-0.00268131
 ,0.00033826,-0.00276848,-0.00302151,0.11111989,0.08912535,0.00009568,-
 0.00057870,-0.00029647,-0.00005686,0.00004841,-0.00003243,-0.00002676,
 0.00005197,0.00000975,0.00000136,-0.00004556,0.00001033,0.00001932,-0.
 00003002,0.00003937,-0.00000506,-0.00000358,0.00000010,-0.00000336,0.0
 0001488,-0.00000195,0.00001513,-0.00001163,0.00000949,0.00000193,0.000
 00479,-0.00000887,0.00000848,0.00000382,0.00000410,0.00000579,-0.00000
 334,-0.00000264,0.00000088,-0.00000202,0.00000119,0.00000207,-0.000000
 23,0.00000083,-0.00005494,-0.00006459,0.00006363,0.00000137,-0.0000325
 6,0.00000368,0.00001705,-0.00000481,0.00001432,-0.00000527,-0.00000181
 ,0.00001222,-0.00000586,-0.00000066,-0.00000368,0.00000040,-0.00000798
 ,0.00000113,-0.00001522,0.00001921,-0.00000777,0.00000193,0.00000130,-
 0.00000719,0.00000204,0.00000184,-0.00000373,-0.00000257,-0.00000242,0
 .00000003,0.00000020,0.00000442,0.00000083,-0.00050177,0.00000606,-0.0
 0113696,-0.00117461,0.00700164,-0.00136016,-0.00407039,0.00496621,0.00
 107636,0.02833159,0.01018443,-0.00083326,0.00129279,0.00044777,-0.0003
 6583,-0.02012445,-0.00780127,0.01020943,-0.00081994,-0.00039512,0.0002
 2489,0.06435630,0.03870527,-0.08317855,-0.00004423,-0.00294840,-0.0007
 6411,0.00122886,-0.00275797,-0.00091225,-0.06847191,-0.04676938,0.0772
 3418||0.,0.,0.00004250,0.,0.,0.00001829,0.00000751,-0.00002754,-0.0000
 7003,-0.00002487,0.00004995,0.00001399,0.00005543,-0.00003442,0.000046
 42,0.00004192,-0.00001546,0.00003924,-0.00000628,-0.00000946,-0.000011
 28,-0.00005175,0.00004880,0.00000523,-0.00000502,0.00001180,0.00000584
 ,-0.00001568,-0.00002734,-0.00005372,-0.00000463,-0.00000595,-0.000007
 63,0.00001048,0.00000125,0.00000420,0.00001209,-0.00000193,0.00000749,
 0.00002009,0.00002027,-0.00007003,-0.00003083,-0.00004651,0.00001399,0
 .00000210,0.00006521,0.00004642,-0.00000757,0.00004404,0.00003924,0.00
 001134,-0.00000071,-0.00001128,-0.00001639,-0.00006922,0.00000523,-0.0
 0000771,-0.00001025,0.00000584,0.00003151,0.00000009,-0.00005372,0.000
 00746,-0.00000103,-0.00000763,-0.00000632,0.00000845,0.00000420,-0.000
 00437,0.00001143,0.00000749,-0.00002760,0.00000727,-0.00007003,0.00005
 570,-0.00000344,0.00001399,-0.00005753,-0.00003079,0.00004642,-0.00003
 435,-0.00002858,0.00003924,-0.00000505,0.00001017,-0.00001128,0.000068
 14,0.00002042,0.00000523,0.00001273,-0.00000155,0.00000584,-0.00001584
 ,0.00002724,-0.00005372,-0.00000284,0.00000698,-0.00000763,-0.00000415
 ,-0.00000970,0.00000420,-0.00000772,-0.00000950,0.00000749|||@


 TO ERR IS HUMAN - AND TO BLAME IT ON A COMPUTER IS EVEN MORE SO.
 Job cpu time:  0 days  0 hours  3 minutes 24.0 seconds.
 File lengths (MBytes):  RWF=    178 Int=      0 D2E=      0 Chk=      7 Scr=      1
 Normal termination of Gaussian 09 at Mon Sep 06 13:21:59 2021.
