 Entering Link 1 = b:\programy\g09w\l1.exe PID=      4960.
  
 Copyright (c) 1988,1990,1992,1993,1995,1998,2003,2009, Gaussian, Inc.
                  All Rights Reserved.
  
 This is part of the Gaussian(R) 09 program.  It is based on
 the Gaussian(R) 03 system (copyright 2003, Gaussian, Inc.),
 the Gaussian(R) 98 system (copyright 1998, Gaussian, Inc.),
 the Gaussian(R) 94 system (copyright 1995, Gaussian, Inc.),
 the Gaussian 92(TM) system (copyright 1992, Gaussian, Inc.),
 the Gaussian 90(TM) system (copyright 1990, Gaussian, Inc.),
 the Gaussian 88(TM) system (copyright 1988, Gaussian, Inc.),
 the Gaussian 86(TM) system (copyright 1986, Carnegie Mellon
 University), and the Gaussian 82(TM) system (copyright 1983,
 Carnegie Mellon University). Gaussian is a federally registered
 trademark of Gaussian, Inc.
  
 This software contains proprietary and confidential information,
 including trade secrets, belonging to Gaussian, Inc.
  
 This software is provided under written license and may be
 used, copied, transmitted, or stored only in accord with that
 written license.
  
 The following legend is applicable only to US Government
 contracts under FAR:
  
                    RESTRICTED RIGHTS LEGEND
  
 Use, reproduction and disclosure by the US Government is
 subject to restrictions as set forth in subparagraphs (a)
 and (c) of the Commercial Computer Software - Restricted
 Rights clause in FAR 52.227-19.
  
 Gaussian, Inc.
 340 Quinnipiac St., Bldg. 40, Wallingford CT 06492
  
  
 ---------------------------------------------------------------
 Warning -- This program may not be used in any manner that
 competes with the business of Gaussian, Inc. or will provide
 assistance to any competitor of Gaussian, Inc.  The licensee
 of this program is prohibited from giving any competitor of
 Gaussian, Inc. access to this program.  By using this program,
 the user acknowledges that Gaussian, Inc. is engaged in the
 business of creating and licensing software in the field of
 computational chemistry and represents and warrants to the
 licensee that it is not a competitor of Gaussian, Inc. and that
 it will not use this program in any manner prohibited above.
 ---------------------------------------------------------------
  

 Cite this work as:
 Gaussian 09, Revision A.02,
 M. J. Frisch, G. W. Trucks, H. B. Schlegel, G. E. Scuseria, 
 M. A. Robb, J. R. Cheeseman, G. Scalmani, V. Barone, B. Mennucci, 
 G. A. Petersson, H. Nakatsuji, M. Caricato, X. Li, H. P. Hratchian, 
 A. F. Izmaylov, J. Bloino, G. Zheng, J. L. Sonnenberg, M. Hada, 
 M. Ehara, K. Toyota, R. Fukuda, J. Hasegawa, M. Ishida, T. Nakajima, 
 Y. Honda, O. Kitao, H. Nakai, T. Vreven, J. A. Montgomery, Jr., 
 J. E. Peralta, F. Ogliaro, M. Bearpark, J. J. Heyd, E. Brothers, 
 K. N. Kudin, V. N. Staroverov, R. Kobayashi, J. Normand, 
 K. Raghavachari, A. Rendell, J. C. Burant, S. S. Iyengar, J. Tomasi, 
 M. Cossi, N. Rega, J. M. Millam, M. Klene, J. E. Knox, J. B. Cross, 
 V. Bakken, C. Adamo, J. Jaramillo, R. Gomperts, R. E. Stratmann, 
 O. Yazyev, A. J. Austin, R. Cammi, C. Pomelli, J. W. Ochterski, 
 R. L. Martin, K. Morokuma, V. G. Zakrzewski, G. A. Voth, 
 P. Salvador, J. J. Dannenberg, S. Dapprich, A. D. Daniels, 
 O. Farkas, J. B. Foresman, J. V. Ortiz, J. Cioslowski, 
 and D. J. Fox, Gaussian, Inc., Wallingford CT, 2009.
 
 ******************************************
 Gaussian 09:  IA32W-G09RevA.02 11-Jun-2009
                06-Sep-2021 
 ******************************************
 %nprocshared=12
 Will use up to   12 processors via shared memory.
 ----------------------------------------------
 # opt freq=noraman hf/6-311g geom=connectivity
 ----------------------------------------------
 1/18=20,19=15,38=1,57=2/1,3;
 2/9=110,12=2,17=6,18=5,40=1/2;
 3/5=4,6=6,11=9,16=1,25=1,30=1,71=1/1,2,3;
 4//1;
 5/5=2,38=5/2;
 6/7=2,8=2,9=2,10=2,28=1/1;
 7//1,2,3,16;
 1/18=20,19=15/3(2);
 2/9=110/2;
 99//99;
 2/9=110/2;
 3/5=4,6=6,11=9,16=1,25=1,30=1,71=1/1,2,3;
 4/5=5,16=3/1;
 5/5=2,38=5/2;
 7//1,2,3,16;
 1/18=20,19=15/3(-5);
 2/9=110/2;
 6/7=2,8=2,9=2,10=2,19=2,28=1/1;
 99/9=1/99;
 -----
 M0001
 -----
 Symbolic Z-matrix:
 Charge =  0 Multiplicity = 1
 C                    -0.13148  -0.76343   0.03735 
 H                    -0.35918  -1.863     0.05715 
 C                    -1.43975  -0.02035  -0.0889 
 C                    -1.4738    1.36162  -0.28584 
 C                    -2.64117  -0.72786  -0.01173 
 C                    -2.68853   2.02443  -0.41084 
 H                    -0.52583   1.91986  -0.32254 
 C                    -3.85578  -0.06186  -0.13446 
 H                    -2.63021  -1.81258   0.14708 
 C                    -3.88188   1.31347  -0.33673 
 H                    -2.70455   3.10797  -0.56661 
 H                    -4.79337  -0.62373  -0.07175 
 H                    -4.83883   1.83573  -0.43561 
 C                     0.54984  -0.419     1.33803 
 C                     0.94133   0.88748   1.6394 
 C                     0.78813  -1.43178   2.26985 
 C                     1.56055   1.17585   2.84938 
 H                     0.7395    1.68808   0.9103 
 C                     1.408    -1.14092   3.48027 
 H                     0.48585  -2.46232   2.04888 
 C                     1.79591   0.16184   3.77201 
 H                     1.8615    2.20381   3.07574 
 H                     1.58979  -1.9414    4.20475 
 H                     2.28358   0.38934   4.72528 
 C                     0.73196  -0.57078  -1.18486 
 C                     0.15907  -0.7721   -2.44534 
 C                     2.0879   -0.25649  -1.10136 
 C                     0.92723  -0.65437  -3.59595 
 H                    -0.90677  -1.01926  -2.51946 
 C                     2.85621  -0.14042  -2.25552 
 H                     2.55364  -0.09905  -0.12017 
 C                     2.27928  -0.33797  -3.50379 
 H                     0.46718  -0.81169  -4.57685 
 H                     3.91983   0.10691  -2.1762 
 H                     2.88485  -0.24606  -4.41095 
 

 GradGradGradGradGradGradGradGradGradGradGradGradGradGradGradGradGradGrad
 Berny optimization.
 Initialization pass.
                           ----------------------------
                           !    Initial Parameters    !
                           ! (Angstroms and Degrees)  !
 --------------------------                            --------------------------
 ! Name  Definition              Value          Derivative Info.                !
 --------------------------------------------------------------------------------
 ! R1    R(1,2)                  1.1231         estimate D2E/DX2                !
 ! R2    R(1,3)                  1.5099         estimate D2E/DX2                !
 ! R3    R(1,14)                 1.5082         estimate D2E/DX2                !
 ! R4    R(1,25)                 1.5088         estimate D2E/DX2                !
 ! R5    R(3,4)                  1.3964         estimate D2E/DX2                !
 ! R6    R(3,5)                  1.3964         estimate D2E/DX2                !
 ! R7    R(4,6)                  1.3894         estimate D2E/DX2                !
 ! R8    R(4,7)                  1.1007         estimate D2E/DX2                !
 ! R9    R(5,8)                  1.3906         estimate D2E/DX2                !
 ! R10   R(5,9)                  1.0963         estimate D2E/DX2                !
 ! R11   R(6,10)                 1.3911         estimate D2E/DX2                !
 ! R12   R(6,11)                 1.0948         estimate D2E/DX2                !
 ! R13   R(8,10)                 1.3904         estimate D2E/DX2                !
 ! R14   R(8,12)                 1.0949         estimate D2E/DX2                !
 ! R15   R(10,13)                1.0947         estimate D2E/DX2                !
 ! R16   R(14,15)                1.3968         estimate D2E/DX2                !
 ! R17   R(14,16)                1.3967         estimate D2E/DX2                !
 ! R18   R(15,17)                1.3895         estimate D2E/DX2                !
 ! R19   R(15,18)                1.1015         estimate D2E/DX2                !
 ! R20   R(16,19)                1.3907         estimate D2E/DX2                !
 ! R21   R(16,20)                1.0965         estimate D2E/DX2                !
 ! R22   R(17,21)                1.391          estimate D2E/DX2                !
 ! R23   R(17,22)                1.0948         estimate D2E/DX2                !
 ! R24   R(19,21)                1.3902         estimate D2E/DX2                !
 ! R25   R(19,23)                1.0948         estimate D2E/DX2                !
 ! R26   R(21,24)                1.0947         estimate D2E/DX2                !
 ! R27   R(25,26)                1.3991         estimate D2E/DX2                !
 ! R28   R(25,27)                1.3944         estimate D2E/DX2                !
 ! R29   R(26,28)                1.3885         estimate D2E/DX2                !
 ! R30   R(26,29)                1.0966         estimate D2E/DX2                !
 ! R31   R(27,30)                1.3913         estimate D2E/DX2                !
 ! R32   R(27,31)                1.0975         estimate D2E/DX2                !
 ! R33   R(28,32)                1.3916         estimate D2E/DX2                !
 ! R34   R(28,33)                1.0948         estimate D2E/DX2                !
 ! R35   R(30,32)                1.3893         estimate D2E/DX2                !
 ! R36   R(30,34)                1.0949         estimate D2E/DX2                !
 ! R37   R(32,35)                1.0946         estimate D2E/DX2                !
 ! A1    A(2,1,3)              107.9181         estimate D2E/DX2                !
 ! A2    A(2,1,14)             107.457          estimate D2E/DX2                !
 ! A3    A(2,1,25)             104.7926         estimate D2E/DX2                !
 ! A4    A(3,1,14)             110.5579         estimate D2E/DX2                !
 ! A5    A(3,1,25)             111.4251         estimate D2E/DX2                !
 ! A6    A(14,1,25)            114.2625         estimate D2E/DX2                !
 ! A7    A(1,3,4)              121.3332         estimate D2E/DX2                !
 ! A8    A(1,3,5)              119.44           estimate D2E/DX2                !
 ! A9    A(4,3,5)              119.2265         estimate D2E/DX2                !
 ! A10   A(3,4,6)              120.4069         estimate D2E/DX2                !
 ! A11   A(3,4,7)              119.0533         estimate D2E/DX2                !
 ! A12   A(6,4,7)              120.5308         estimate D2E/DX2                !
 ! A13   A(3,5,8)              120.2601         estimate D2E/DX2                !
 ! A14   A(3,5,9)              120.0465         estimate D2E/DX2                !
 ! A15   A(8,5,9)              119.6934         estimate D2E/DX2                !
 ! A16   A(4,6,10)             120.0928         estimate D2E/DX2                !
 ! A17   A(4,6,11)             119.85           estimate D2E/DX2                !
 ! A18   A(10,6,11)            120.0572         estimate D2E/DX2                !
 ! A19   A(5,8,10)             120.1967         estimate D2E/DX2                !
 ! A20   A(5,8,12)             119.81           estimate D2E/DX2                !
 ! A21   A(10,8,12)            119.9933         estimate D2E/DX2                !
 ! A22   A(6,10,8)             119.8159         estimate D2E/DX2                !
 ! A23   A(6,10,13)            120.0861         estimate D2E/DX2                !
 ! A24   A(8,10,13)            120.0978         estimate D2E/DX2                !
 ! A25   A(1,14,15)            121.7569         estimate D2E/DX2                !
 ! A26   A(1,14,16)            119.1325         estimate D2E/DX2                !
 ! A27   A(15,14,16)           119.1093         estimate D2E/DX2                !
 ! A28   A(14,15,17)           120.4595         estimate D2E/DX2                !
 ! A29   A(14,15,18)           119.0561         estimate D2E/DX2                !
 ! A30   A(17,15,18)           120.479          estimate D2E/DX2                !
 ! A31   A(14,16,19)           120.3356         estimate D2E/DX2                !
 ! A32   A(14,16,20)           120.0029         estimate D2E/DX2                !
 ! A33   A(19,16,20)           119.6616         estimate D2E/DX2                !
 ! A34   A(15,17,21)           120.1134         estimate D2E/DX2                !
 ! A35   A(15,17,22)           119.8313         estimate D2E/DX2                !
 ! A36   A(21,17,22)           120.0552         estimate D2E/DX2                !
 ! A37   A(16,19,21)           120.1996         estimate D2E/DX2                !
 ! A38   A(16,19,23)           119.8046         estimate D2E/DX2                !
 ! A39   A(21,19,23)           119.9958         estimate D2E/DX2                !
 ! A40   A(17,21,19)           119.7825         estimate D2E/DX2                !
 ! A41   A(17,21,24)           120.0984         estimate D2E/DX2                !
 ! A42   A(19,21,24)           120.119          estimate D2E/DX2                !
 ! A43   A(1,25,26)            118.4954         estimate D2E/DX2                !
 ! A44   A(1,25,27)            122.4639         estimate D2E/DX2                !
 ! A45   A(26,25,27)           118.9833         estimate D2E/DX2                !
 ! A46   A(25,26,28)           120.52           estimate D2E/DX2                !
 ! A47   A(25,26,29)           119.4254         estimate D2E/DX2                !
 ! A48   A(28,26,29)           120.0537         estimate D2E/DX2                !
 ! A49   A(25,27,30)           120.4049         estimate D2E/DX2                !
 ! A50   A(25,27,31)           119.9038         estimate D2E/DX2                !
 ! A51   A(30,27,31)           119.6913         estimate D2E/DX2                !
 ! A52   A(26,28,32)           120.1266         estimate D2E/DX2                !
 ! A53   A(26,28,33)           119.8559         estimate D2E/DX2                !
 ! A54   A(32,28,33)           120.0175         estimate D2E/DX2                !
 ! A55   A(27,30,32)           120.2756         estimate D2E/DX2                !
 ! A56   A(27,30,34)           119.6827         estimate D2E/DX2                !
 ! A57   A(32,30,34)           120.0416         estimate D2E/DX2                !
 ! A58   A(28,32,30)           119.6888         estimate D2E/DX2                !
 ! A59   A(28,32,35)           120.1139         estimate D2E/DX2                !
 ! A60   A(30,32,35)           120.1972         estimate D2E/DX2                !
 ! D1    D(2,1,3,4)           -172.9291         estimate D2E/DX2                !
 ! D2    D(2,1,3,5)              6.865          estimate D2E/DX2                !
 ! D3    D(14,1,3,4)            69.8134         estimate D2E/DX2                !
 ! D4    D(14,1,3,5)          -110.3925         estimate D2E/DX2                !
 ! D5    D(25,1,3,4)           -58.4013         estimate D2E/DX2                !
 ! D6    D(25,1,3,5)           121.3928         estimate D2E/DX2                !
 ! D7    D(2,1,14,15)         -178.6828         estimate D2E/DX2                !
 ! D8    D(2,1,14,16)            0.9013         estimate D2E/DX2                !
 ! D9    D(3,1,14,15)          -61.1416         estimate D2E/DX2                !
 ! D10   D(3,1,14,16)          118.4425         estimate D2E/DX2                !
 ! D11   D(25,1,14,15)          65.5115         estimate D2E/DX2                !
 ! D12   D(25,1,14,16)        -114.9045         estimate D2E/DX2                !
 ! D13   D(2,1,25,26)           67.1598         estimate D2E/DX2                !
 ! D14   D(2,1,25,27)         -110.0538         estimate D2E/DX2                !
 ! D15   D(3,1,25,26)          -49.2922         estimate D2E/DX2                !
 ! D16   D(3,1,25,27)          133.4942         estimate D2E/DX2                !
 ! D17   D(14,1,25,26)        -175.4943         estimate D2E/DX2                !
 ! D18   D(14,1,25,27)           7.292          estimate D2E/DX2                !
 ! D19   D(1,3,4,6)            179.4496         estimate D2E/DX2                !
 ! D20   D(1,3,4,7)             -1.6319         estimate D2E/DX2                !
 ! D21   D(5,3,4,6)             -0.3448         estimate D2E/DX2                !
 ! D22   D(5,3,4,7)            178.5736         estimate D2E/DX2                !
 ! D23   D(1,3,5,8)           -179.5826         estimate D2E/DX2                !
 ! D24   D(1,3,5,9)              0.4724         estimate D2E/DX2                !
 ! D25   D(4,3,5,8)              0.2158         estimate D2E/DX2                !
 ! D26   D(4,3,5,9)           -179.7291         estimate D2E/DX2                !
 ! D27   D(3,4,6,10)             0.1724         estimate D2E/DX2                !
 ! D28   D(3,4,6,11)          -179.9027         estimate D2E/DX2                !
 ! D29   D(7,4,6,10)          -178.73           estimate D2E/DX2                !
 ! D30   D(7,4,6,11)             1.195          estimate D2E/DX2                !
 ! D31   D(3,5,8,10)             0.0857         estimate D2E/DX2                !
 ! D32   D(3,5,8,12)          -179.9357         estimate D2E/DX2                !
 ! D33   D(9,5,8,10)          -179.9691         estimate D2E/DX2                !
 ! D34   D(9,5,8,12)             0.0094         estimate D2E/DX2                !
 ! D35   D(4,6,10,8)             0.1321         estimate D2E/DX2                !
 ! D36   D(4,6,10,13)         -179.976          estimate D2E/DX2                !
 ! D37   D(11,6,10,8)         -179.7926         estimate D2E/DX2                !
 ! D38   D(11,6,10,13)           0.0992         estimate D2E/DX2                !
 ! D39   D(5,8,10,6)            -0.2608         estimate D2E/DX2                !
 ! D40   D(5,8,10,13)          179.8473         estimate D2E/DX2                !
 ! D41   D(12,8,10,6)          179.7607         estimate D2E/DX2                !
 ! D42   D(12,8,10,13)          -0.1312         estimate D2E/DX2                !
 ! D43   D(1,14,15,17)         179.6381         estimate D2E/DX2                !
 ! D44   D(1,14,15,18)           0.4857         estimate D2E/DX2                !
 ! D45   D(16,14,15,17)          0.054          estimate D2E/DX2                !
 ! D46   D(16,14,15,18)       -179.0984         estimate D2E/DX2                !
 ! D47   D(1,14,16,19)        -179.6478         estimate D2E/DX2                !
 ! D48   D(1,14,16,20)           0.3369         estimate D2E/DX2                !
 ! D49   D(15,14,16,19)         -0.0526         estimate D2E/DX2                !
 ! D50   D(15,14,16,20)        179.9321         estimate D2E/DX2                !
 ! D51   D(14,15,17,21)          0.0129         estimate D2E/DX2                !
 ! D52   D(14,15,17,22)       -179.8887         estimate D2E/DX2                !
 ! D53   D(18,15,17,21)        179.1531         estimate D2E/DX2                !
 ! D54   D(18,15,17,22)         -0.7485         estimate D2E/DX2                !
 ! D55   D(14,16,19,21)         -0.0156         estimate D2E/DX2                !
 ! D56   D(14,16,19,23)        179.9488         estimate D2E/DX2                !
 ! D57   D(20,16,19,21)        179.9997         estimate D2E/DX2                !
 ! D58   D(20,16,19,23)         -0.036          estimate D2E/DX2                !
 ! D59   D(15,17,21,19)         -0.0815         estimate D2E/DX2                !
 ! D60   D(15,17,21,24)       -179.987          estimate D2E/DX2                !
 ! D61   D(22,17,21,19)        179.8199         estimate D2E/DX2                !
 ! D62   D(22,17,21,24)         -0.0856         estimate D2E/DX2                !
 ! D63   D(16,19,21,17)          0.0829         estimate D2E/DX2                !
 ! D64   D(16,19,21,24)        179.9884         estimate D2E/DX2                !
 ! D65   D(23,19,21,17)       -179.8814         estimate D2E/DX2                !
 ! D66   D(23,19,21,24)          0.0241         estimate D2E/DX2                !
 ! D67   D(1,25,26,28)        -177.625          estimate D2E/DX2                !
 ! D68   D(1,25,26,29)           2.709          estimate D2E/DX2                !
 ! D69   D(27,25,26,28)         -0.3125         estimate D2E/DX2                !
 ! D70   D(27,25,26,29)       -179.9784         estimate D2E/DX2                !
 ! D71   D(1,25,27,30)         177.4422         estimate D2E/DX2                !
 ! D72   D(1,25,27,31)          -2.5767         estimate D2E/DX2                !
 ! D73   D(26,25,27,30)          0.2416         estimate D2E/DX2                !
 ! D74   D(26,25,27,31)       -179.7773         estimate D2E/DX2                !
 ! D75   D(25,26,28,32)          0.1983         estimate D2E/DX2                !
 ! D76   D(25,26,28,33)       -179.8433         estimate D2E/DX2                !
 ! D77   D(29,26,28,32)        179.8622         estimate D2E/DX2                !
 ! D78   D(29,26,28,33)         -0.1794         estimate D2E/DX2                !
 ! D79   D(25,27,30,32)         -0.0572         estimate D2E/DX2                !
 ! D80   D(25,27,30,34)        179.9953         estimate D2E/DX2                !
 ! D81   D(31,27,30,32)        179.9617         estimate D2E/DX2                !
 ! D82   D(31,27,30,34)          0.0142         estimate D2E/DX2                !
 ! D83   D(26,28,32,30)         -0.0096         estimate D2E/DX2                !
 ! D84   D(26,28,32,35)        179.9467         estimate D2E/DX2                !
 ! D85   D(33,28,32,30)       -179.9679         estimate D2E/DX2                !
 ! D86   D(33,28,32,35)         -0.0116         estimate D2E/DX2                !
 ! D87   D(27,30,32,28)         -0.0608         estimate D2E/DX2                !
 ! D88   D(27,30,32,35)        179.983          estimate D2E/DX2                !
 ! D89   D(34,30,32,28)        179.8864         estimate D2E/DX2                !
 ! D90   D(34,30,32,35)         -0.0698         estimate D2E/DX2                !
 --------------------------------------------------------------------------------
 Trust Radius=3.00D-01 FncErr=1.00D-07 GrdErr=1.00D-07
 Number of steps in this run= 197 maximum allowed number of steps= 210.
 GradGradGradGradGradGradGradGradGradGradGradGradGradGradGradGradGradGrad

                          Input orientation:                          
 ---------------------------------------------------------------------
 Center     Atomic      Atomic             Coordinates (Angstroms)
 Number     Number       Type             X           Y           Z
 ---------------------------------------------------------------------
      1          6           0       -0.131483   -0.763435    0.037352
      2          1           0       -0.359177   -1.863002    0.057146
      3          6           0       -1.439748   -0.020350   -0.088903
      4          6           0       -1.473803    1.361623   -0.285844
      5          6           0       -2.641168   -0.727864   -0.011730
      6          6           0       -2.688531    2.024434   -0.410842
      7          1           0       -0.525830    1.919861   -0.322536
      8          6           0       -3.855779   -0.061858   -0.134464
      9          1           0       -2.630206   -1.812577    0.147076
     10          6           0       -3.881876    1.313474   -0.336726
     11          1           0       -2.704554    3.107970   -0.566610
     12          1           0       -4.793369   -0.623726   -0.071748
     13          1           0       -4.838835    1.835727   -0.435613
     14          6           0        0.549844   -0.418997    1.338028
     15          6           0        0.941334    0.887476    1.639405
     16          6           0        0.788127   -1.431783    2.269849
     17          6           0        1.560551    1.175851    2.849376
     18          1           0        0.739497    1.688079    0.910301
     19          6           0        1.408002   -1.140919    3.480268
     20          1           0        0.485850   -2.462321    2.048877
     21          6           0        1.795908    0.161839    3.772011
     22          1           0        1.861503    2.203812    3.075743
     23          1           0        1.589791   -1.941395    4.204745
     24          1           0        2.283575    0.389343    4.725283
     25          6           0        0.731962   -0.570777   -1.184860
     26          6           0        0.159073   -0.772104   -2.445337
     27          6           0        2.087900   -0.256487   -1.101361
     28          6           0        0.927230   -0.654366   -3.595945
     29          1           0       -0.906766   -1.019257   -2.519458
     30          6           0        2.856208   -0.140416   -2.255515
     31          1           0        2.553638   -0.099050   -0.120169
     32          6           0        2.279280   -0.337965   -3.503794
     33          1           0        0.467179   -0.811692   -4.576855
     34          1           0        3.919827    0.106911   -2.176204
     35          1           0        2.884846   -0.246058   -4.410945
 ---------------------------------------------------------------------
                    Distance matrix (angstroms):
                    1          2          3          4          5
     1  C    0.000000
     2  H    1.123069   0.000000
     3  C    1.509859   2.141106   0.000000
     4  C    2.534196   3.429029   1.396350   0.000000
     5  C    2.510417   2.549660   1.396403   2.409115   0.000000
     6  C    3.809407   4.555992   2.417487   1.389426   2.781488
     7  H    2.735892   3.805520   2.157370   1.100740   3.403189
     8  C    3.793694   3.937900   2.416817   2.779033   1.390650
     9  H    2.712260   2.273368   2.164475   3.405911   1.096331
    10  C    4.303363   4.759679   2.793652   2.409091   2.410817
    11  H    4.687562   5.531766   3.407979   2.154833   3.876278
    12  H    4.665255   4.605918   3.407511   3.873882   2.155555
    13  H    5.398009   5.830158   3.888318   3.401565   3.403147
    14  C    1.508178   2.133571   2.480630   3.146858   3.478477
    15  C    2.538310   3.429285   3.079082   3.124786   4.262615
    16  C    2.505277   2.529488   3.538260   4.410330   4.178656
    17  C    3.811992   4.551541   4.366483   4.367084   5.428121
    18  H    2.744188   3.813808   2.943849   2.536934   4.256267
    19  C    3.790275   3.919450   4.701525   5.362007   5.362877
    20  H    2.704357   2.245048   3.773759   4.890164   4.127067
    21  C    4.303330   4.748114   5.040766   5.347587   5.898806
    22  H    4.691308   5.530129   5.085287   4.809763   6.196875
    23  H    4.660209   4.583361   5.594993   6.360891   6.095272
    24  H    5.397972   5.817963   6.099785   6.338345   6.923911
    25  C    1.508793   2.098336   2.494076   3.067213   3.574761
    26  C    2.499649   2.778681   2.945190   3.447098   3.710222
    27  C    2.545452   3.148208   3.677654   3.996133   4.875815
    28  C    3.785976   4.057182   4.278307   4.559160   5.058208
    29  H    2.683987   2.765981   2.681321   3.313480   3.062965
    30  C    3.817288   4.319075   4.812885   4.988458   5.966641
    31  H    2.770577   3.409906   3.994284   4.287342   5.233849
    32  C    4.304941   4.686949   5.059005   5.227756   6.046267
    33  H    4.653131   4.823079   4.940072   5.186857   5.523515
    34  H    4.697919   5.213280   5.753092   5.851411   6.959055
    35  H    5.399377   5.753437   6.118261   6.212803   7.079694
                    6          7          8          9         10
     6  C    0.000000
     7  H    2.167027   0.000000
     8  C    2.406547   3.879580   0.000000
     9  H    3.877799   4.310455   2.155530   0.000000
    10  C    1.391053   3.410418   1.390370   3.401902   0.000000
    11  H    1.094793   2.493595   3.399982   4.972590   2.158506
    12  H    3.399717   4.974396   1.094853   2.478009   2.157261
    13  H    2.158711   4.315307   2.158221   4.304380   1.094667
    14  C    4.417688   3.063462   4.658894   3.670578   5.044442
    15  C    4.321123   2.658496   5.201936   4.719452   5.229715
    16  C    5.587368   4.436266   5.405855   4.041802   6.011622
    17  C    5.422527   3.868793   6.306492   5.813395   6.307947
    18  H    3.689163   1.781758   5.026964   4.918536   4.801301
    19  C    6.476247   5.250657   6.475959   5.279054   6.969670
    20  H    6.021451   5.084349   5.420234   3.707939   6.246980
    21  C    6.409033   5.024582   6.874020   6.052186   7.102480
    22  H    5.735090   4.162726   6.937291   6.699546   6.739737
    23  H    7.438783   6.315175   7.212186   5.855737   7.820376
    24  H    7.333153   5.976263   7.842983   7.067791   8.030613
    25  C    4.362796   2.920431   4.733888   3.823649   5.055416
    26  C    4.479803   3.496005   4.686536   3.947564   5.012498
    27  C    5.337950   3.489218   6.024956   5.122551   6.219941
    28  C    5.513128   4.410583   5.933810   5.292165   6.133710
    29  H    4.109136   3.689172   3.911711   3.272614   4.365458
    30  C    6.231654   4.406737   7.039588   6.218464   7.155230
    31  H    5.663392   3.687828   6.409541   5.466245   6.592266
    32  C    6.310818   4.804875   7.004825   6.293360   7.121616
    33  H    5.946241   5.152347   6.243802   5.736818   6.435006
    34  H    7.103787   5.146527   8.040972   7.210062   8.105926
    35  H    7.226237   5.747957   7.984877   7.324298   8.051083
                   11         12         13         14         15
    11  H    0.000000
    12  H    4.305065   0.000000
    13  H    2.488155   2.486639   0.000000
    14  C    5.163163   5.529856   6.104706   0.000000
    15  C    4.805164   6.172405   6.214115   1.396769   0.000000
    16  C    6.391688   6.106482   7.046903   1.396712   2.408296
    17  C    5.795961   7.221062   7.223484   2.418521   1.389467
    18  H    4.007349   6.076303   5.740302   2.158399   1.101497
    19  C    7.165431   7.165285   7.950944   2.418016   2.778659
    20  H    6.931637   5.978932   7.279984   2.164388   3.405330
    21  C    6.910679   7.668779   8.032796   2.795411   2.409327
    22  H    5.910424   7.886000   7.573614   3.408700   2.154651
    23  H    8.167211   7.795472   8.782187   3.408410   3.873497
    24  H    7.763794   8.609353   8.913787   3.890082   3.401822
    25  C    5.071987   5.636586   6.114443   2.534002   3.185405
    26  C    5.175417   5.493871   5.984885   3.819848   4.477863
    27  C    5.879894   6.967556   7.266377   2.888364   3.183561
    28  C    6.043335   6.719089   7.031057   4.953979   5.457689
    29  H    4.907103   4.610142   5.287202   4.166800   4.934292
    30  C    6.657814   7.969846   8.150513   4.279074   4.460236
    31  H    6.175182   7.365877   7.647975   2.498779   2.582413
    32  C    6.733508   7.866573   8.050232   5.142058   5.453834
    33  H    6.442492   6.928542   7.232738   5.928480   6.461724
    34  H    7.448461   8.993461   9.095747   4.897264   4.903017
    35  H    7.567682   8.827585   8.932656   6.207482   6.455144
                   16         17         18         19         20
    16  C    0.000000
    17  C    2.780691   0.000000
    18  H    3.403567   2.167145   0.000000
    19  C    1.390670   2.405976   3.880060   0.000000
    20  H    1.096453   3.877122   4.311208   2.155307   0.000000
    21  C    2.410756   1.390996   3.410982   1.390239   3.401714
    22  H    3.875455   1.094769   2.492793   3.399490   4.971889
    23  H    2.155504   3.399281   4.974882   1.094841   2.477463
    24  H    3.403237   2.158793   4.315667   2.158331   4.304295
    25  C    3.560828   4.473514   3.080939   4.748212   3.754406
    26  C    4.802485   5.813145   4.201154   6.067013   4.812648
    27  C    3.799445   4.235329   3.105851   4.715486   4.166085
    28  C    5.918721   6.730004   5.082179   7.109197   5.943697
    29  H    5.097087   6.303216   4.669378   6.431925   4.989137
    30  C    5.140380   5.428738   4.224482   5.999793   5.434853
    31  H    3.256592   3.380798   2.747145   3.919327   3.816485
    32  C    6.062584   6.570463   5.095098   7.083854   6.209785
    33  H    6.882214   7.764965   6.035883   8.118545   6.828268
    34  H    5.651770   5.653783   4.705433   6.313638   6.020337
    35  H    7.101773   7.515840   6.054674   8.077939   7.238529
                   21         22         23         24         25
    21  C    0.000000
    22  H    2.158413   0.000000
    23  H    2.157160   4.304791   0.000000
    24  H    1.094671   2.488257   2.486893   0.000000
    25  C    5.122429   5.208353   5.626928   6.185396   0.000000
    26  C    6.496684   6.498975   6.902014   7.568373   1.399121
    27  C    4.900001   4.853095   5.589436   5.865592   1.394388
    28  C    7.463751   7.318024   7.933865   8.495401   2.420423
    29  H    6.948526   7.025508   7.231739   8.040442   2.160490
    30  C    6.127533   5.908228   6.825123   7.024251   2.417423
    31  H    3.973825   3.999510   4.798763   4.877486   2.162082
    32  C    7.308953   7.065797   7.903668   8.261157   2.797472
    33  H    8.509809   8.342641   8.924852   9.553614   3.410833
    34  H    6.316273   6.018026   7.095149   7.098423   3.406539
    35  H    8.265164   7.943526   8.875892   9.178013   3.892041
                   26         27         28         29         30
    26  C    0.000000
    27  C    2.406763   0.000000
    28  C    1.388462   2.780003   0.000000
    29  H    1.096627   3.400124   2.157664   0.000000
    30  C    2.776616   1.391345   2.404548   3.873242   0.000000
    31  H    3.404901   1.097468   3.877448   4.310194   2.157073
    32  C    2.409167   2.411421   1.391633   3.403523   1.389270
    33  H    2.154034   3.874796   1.094797   2.482679   3.398041
    34  H    3.871482   2.154832   3.398654   4.968106   1.094873
    35  H    3.401497   3.404200   2.159445   4.307191   2.158207
                   31         32         33         34         35
    31  H    0.000000
    32  C    3.403127   0.000000
    33  H    4.972245   2.158607   0.000000
    34  H    2.477129   2.156804   4.304385   0.000000
    35  H    4.306050   1.094568   2.488490   2.487939   0.000000
 Stoichiometry    C19H16
 Framework group  C1[X(C19H16)]
 Deg. of freedom    99
 Full point group                 C1      NOp   1
 Largest Abelian subgroup         C1      NOp   1
 Largest concise Abelian subgroup C1      NOp   1
                         Standard orientation:                         
 ---------------------------------------------------------------------
 Center     Atomic      Atomic             Coordinates (Angstroms)
 Number     Number       Type             X           Y           Z
 ---------------------------------------------------------------------
      1          6           0        0.011528    0.012949   -0.761038
      2          1           0       -0.017778    0.016101   -1.883720
      3          6           0       -0.746222   -1.201167   -0.279987
      4          6           0       -1.010004   -1.402103    1.076420
      5          6           0       -1.197049   -2.141353   -1.208828
      6          6           0       -1.719000   -2.520636    1.496793
      7          1           0       -0.632876   -0.671496    1.808278
      8          6           0       -1.904158   -3.261446   -0.785395
      9          1           0       -0.993576   -1.999238   -2.276697
     10          6           0       -2.168604   -3.451763    0.566262
     11          1           0       -1.922069   -2.668316    2.562403
     12          1           0       -2.253262   -3.994476   -1.519900
     13          1           0       -2.727519   -4.332766    0.897540
     14          6           0        1.459357   -0.067797   -0.346464
     15          6           0        1.837604   -0.117918    0.997181
     16          6           0        2.448071   -0.101991   -1.332404
     17          6           0        3.179412   -0.199557    1.348615
     18          1           0        1.056415   -0.106024    1.773646
     19          6           0        3.790448   -0.183744   -0.978424
     20          1           0        2.167554   -0.064595   -2.391707
     21          6           0        4.158711   -0.231780    0.361292
     22          1           0        3.464224   -0.240116    2.404908
     23          1           0        4.558246   -0.210848   -1.758442
     24          1           0        5.215750   -0.296315    0.638436
     25          6           0       -0.679568    1.290918   -0.354052
     26          6           0       -2.049224    1.419525   -0.609085
     27          6           0        0.005991    2.364903    0.212414
     28          6           0       -2.717154    2.596075   -0.296954
     29          1           0       -2.595610    0.579280   -1.054104
     30          6           0       -0.664917    3.543548    0.523090
     31          1           0        1.081302    2.281764    0.415465
     32          6           0       -2.025857    3.662275    0.270467
     33          1           0       -3.789585    2.683980   -0.498809
     34          1           0       -0.114978    4.379428    0.967632
     35          1           0       -2.552437    4.590005    0.515643
 ---------------------------------------------------------------------
 Rotational constants (GHZ):      0.4042303      0.3815072      0.2327134
 Standard basis: 6-311G (5D, 7F)
 There are   295 symmetry adapted basis functions of A   symmetry.
 Integral buffers will be    262144 words long.
 Raffenetti 1 integral format.
 Two-electron integral symmetry is turned on.
   295 basis functions,   574 primitive gaussians,   295 cartesian basis functions
    65 alpha electrons       65 beta electrons
       nuclear repulsion energy      1290.6589166018 Hartrees.
 NAtoms=   35 NActive=   35 NUniq=   35 SFac= 7.50D-01 NAtFMM=   80 NAOKFM=F Big=F
 One-electron integrals computed using PRISM.
 PrsmSu:  requested number of processors reduced to:  10 ShMem   1 Linda.
 NBasis=   295 RedAO= T  NBF=   295
 NBsUse=   295 1.00D-06 NBFU=   295
 Harris functional with IExCor=  205 diagonalized for initial guess.
 ExpMin= 1.03D-01 ExpMax= 4.56D+03 ExpMxC= 6.82D+02 IAcc=1 IRadAn=         1 AccDes= 0.00D+00
 HarFok:  IExCor=  205 AccDes= 0.00D+00 IRadAn=         1 IDoV= 1
 ScaDFX=  1.000000  1.000000  1.000000  1.000000
 FoFCou: FMM=F IPFlag=           0 FMFlag=      100000 FMFlg1=           0
         NFxFlg=           0 DoJE=T BraDBF=F KetDBF=T FulRan=T
         Omega=  0.000000  0.000000  1.000000  0.000000  0.000000 ICntrl=     500 IOpCl=  0
         NMat0=    1 NMatS0=    1 NMatT0=    0 NMatD0=    1 NMtDS0=    0 NMtDT0=    0
         I1Cent=           4 NGrid=           0.
 Petite list used in FoFCou.
 Initial guess orbital symmetries:
       Occupied  (A) (A) (A) (A) (A) (A) (A) (A) (A) (A) (A) (A)
                 (A) (A) (A) (A) (A) (A) (A) (A) (A) (A) (A) (A)
                 (A) (A) (A) (A) (A) (A) (A) (A) (A) (A) (A) (A)
                 (A) (A) (A) (A) (A) (A) (A) (A) (A) (A) (A) (A)
                 (A) (A) (A) (A) (A) (A) (A) (A) (A) (A) (A) (A)
                 (A) (A) (A) (A) (A)
       Virtual   (A) (A) (A) (A) (A) (A) (A) (A) (A) (A) (A) (A)
                 (A) (A) (A) (A) (A) (A) (A) (A) (A) (A) (A) (A)
                 (A) (A) (A) (A) (A) (A) (A) (A) (A) (A) (A) (A)
                 (A) (A) (A) (A) (A) (A) (A) (A) (A) (A) (A) (A)
                 (A) (A) (A) (A) (A) (A) (A) (A) (A) (A) (A) (A)
                 (A) (A) (A) (A) (A) (A) (A) (A) (A) (A) (A) (A)
                 (A) (A) (A) (A) (A) (A) (A) (A) (A) (A) (A) (A)
                 (A) (A) (A) (A) (A) (A) (A) (A) (A) (A) (A) (A)
                 (A) (A) (A) (A) (A) (A) (A) (A) (A) (A) (A) (A)
                 (A) (A) (A) (A) (A) (A) (A) (A) (A) (A) (A) (A)
                 (A) (A) (A) (A) (A) (A) (A) (A) (A) (A) (A) (A)
                 (A) (A) (A) (A) (A) (A) (A) (A) (A) (A) (A) (A)
                 (A) (A) (A) (A) (A) (A) (A) (A) (A) (A) (A) (A)
                 (A) (A) (A) (A) (A) (A) (A) (A) (A) (A) (A) (A)
                 (A) (A) (A) (A) (A) (A) (A) (A) (A) (A) (A) (A)
                 (A) (A) (A) (A) (A) (A) (A) (A) (A) (A) (A) (A)
                 (A) (A) (A) (A) (A) (A) (A) (A) (A) (A) (A) (A)
                 (A) (A) (A) (A) (A) (A) (A) (A) (A) (A) (A) (A)
                 (A) (A) (A) (A) (A) (A) (A) (A) (A) (A) (A) (A)
                 (A) (A)
 The electronic state of the initial guess is 1-A.
 Requested convergence on RMS density matrix=1.00D-08 within 128 cycles.
 Requested convergence on MAX density matrix=1.00D-06.
 Requested convergence on             energy=1.00D-06.
 No special actions if energy rises.
 Integral accuracy reduced to 1.0D-05 until final iterations.
 Initial convergence to 1.0D-05 achieved.  Increase integral accuracy.
 SCF Done:  E(RHF) =  -728.672391911     A.U. after   14 cycles
             Convg  =    0.8688D-08             -V/T =  2.0001

 **********************************************************************

            Population analysis using the SCF density.

 **********************************************************************

 Orbital symmetries:
       Occupied  (A) (A) (A) (A) (A) (A) (A) (A) (A) (A) (A) (A)
                 (A) (A) (A) (A) (A) (A) (A) (A) (A) (A) (A) (A)
                 (A) (A) (A) (A) (A) (A) (A) (A) (A) (A) (A) (A)
                 (A) (A) (A) (A) (A) (A) (A) (A) (A) (A) (A) (A)
                 (A) (A) (A) (A) (A) (A) (A) (A) (A) (A) (A) (A)
                 (A) (A) (A) (A) (A)
       Virtual   (A) (A) (A) (A) (A) (A) (A) (A) (A) (A) (A) (A)
                 (A) (A) (A) (A) (A) (A) (A) (A) (A) (A) (A) (A)
                 (A) (A) (A) (A) (A) (A) (A) (A) (A) (A) (A) (A)
                 (A) (A) (A) (A) (A) (A) (A) (A) (A) (A) (A) (A)
                 (A) (A) (A) (A) (A) (A) (A) (A) (A) (A) (A) (A)
                 (A) (A) (A) (A) (A) (A) (A) (A) (A) (A) (A) (A)
                 (A) (A) (A) (A) (A) (A) (A) (A) (A) (A) (A) (A)
                 (A) (A) (A) (A) (A) (A) (A) (A) (A) (A) (A) (A)
                 (A) (A) (A) (A) (A) (A) (A) (A) (A) (A) (A) (A)
                 (A) (A) (A) (A) (A) (A) (A) (A) (A) (A) (A) (A)
                 (A) (A) (A) (A) (A) (A) (A) (A) (A) (A) (A) (A)
                 (A) (A) (A) (A) (A) (A) (A) (A) (A) (A) (A) (A)
                 (A) (A) (A) (A) (A) (A) (A) (A) (A) (A) (A) (A)
                 (A) (A) (A) (A) (A) (A) (A) (A) (A) (A) (A) (A)
                 (A) (A) (A) (A) (A) (A) (A) (A) (A) (A) (A) (A)
                 (A) (A) (A) (A) (A) (A) (A) (A) (A) (A) (A) (A)
                 (A) (A) (A) (A) (A) (A) (A) (A) (A) (A) (A) (A)
                 (A) (A) (A) (A) (A) (A) (A) (A) (A) (A) (A) (A)
                 (A) (A) (A) (A) (A) (A) (A) (A) (A) (A) (A) (A)
                 (A) (A)
 The electronic state is 1-A.
 Alpha  occ. eigenvalues --  -11.25761 -11.25232 -11.25187 -11.24921 -11.24522
 Alpha  occ. eigenvalues --  -11.24434 -11.24420 -11.24372 -11.24222 -11.24167
 Alpha  occ. eigenvalues --  -11.24142 -11.24121 -11.24076 -11.24034 -11.24034
 Alpha  occ. eigenvalues --  -11.23972 -11.23732 -11.23636 -11.23502  -1.18617
 Alpha  occ. eigenvalues --   -1.15873  -1.15573  -1.09029  -1.02378  -1.02238
 Alpha  occ. eigenvalues --   -1.01876  -1.01488  -1.01093  -0.92921  -0.84289
 Alpha  occ. eigenvalues --   -0.83353  -0.82335  -0.81912  -0.81140  -0.77588
 Alpha  occ. eigenvalues --   -0.70868  -0.70368  -0.68985  -0.65691  -0.63897
 Alpha  occ. eigenvalues --   -0.63610  -0.62512  -0.61707  -0.61587  -0.59719
 Alpha  occ. eigenvalues --   -0.58848  -0.58490  -0.58317  -0.56788  -0.55056
 Alpha  occ. eigenvalues --   -0.51725  -0.50922  -0.50230  -0.49857  -0.49380
 Alpha  occ. eigenvalues --   -0.48430  -0.47947  -0.47506  -0.46320  -0.35017
 Alpha  occ. eigenvalues --   -0.34319  -0.33950  -0.33330  -0.32563  -0.31449
 Alpha virt. eigenvalues --    0.11530   0.12289   0.12763   0.13524   0.14981
 Alpha virt. eigenvalues --    0.15110   0.15627   0.16238   0.16483   0.16920
 Alpha virt. eigenvalues --    0.18904   0.19187   0.19231   0.21241   0.21297
 Alpha virt. eigenvalues --    0.21587   0.23568   0.23999   0.24961   0.25413
 Alpha virt. eigenvalues --    0.26849   0.31452   0.33175   0.34246   0.35775
 Alpha virt. eigenvalues --    0.37560   0.39813   0.40521   0.41508   0.43111
 Alpha virt. eigenvalues --    0.44092   0.44427   0.44921   0.45450   0.45617
 Alpha virt. eigenvalues --    0.45861   0.46747   0.47225   0.47985   0.50593
 Alpha virt. eigenvalues --    0.51073   0.51433   0.52160   0.54950   0.56061
 Alpha virt. eigenvalues --    0.57331   0.57839   0.58499   0.58917   0.59354
 Alpha virt. eigenvalues --    0.60199   0.60449   0.60624   0.61142   0.61464
 Alpha virt. eigenvalues --    0.62059   0.62226   0.62958   0.63441   0.63694
 Alpha virt. eigenvalues --    0.64268   0.64560   0.65221   0.65931   0.66405
 Alpha virt. eigenvalues --    0.67214   0.67817   0.68583   0.69856   0.72359
 Alpha virt. eigenvalues --    0.73121   0.73921   0.74412   0.75293   0.75742
 Alpha virt. eigenvalues --    0.76757   0.78867   0.79357   0.79907   0.81292
 Alpha virt. eigenvalues --    0.81510   0.82205   0.82497   0.82912   0.83279
 Alpha virt. eigenvalues --    0.83830   0.84363   0.84817   0.84922   0.85472
 Alpha virt. eigenvalues --    0.85956   0.86225   0.86468   0.87723   0.88156
 Alpha virt. eigenvalues --    0.90260   0.90827   0.92157   0.93452   0.95023
 Alpha virt. eigenvalues --    0.95947   0.96362   0.97045   0.98203   0.99708
 Alpha virt. eigenvalues --    0.99995   1.02329   1.03030   1.04759   1.06211
 Alpha virt. eigenvalues --    1.07118   1.08167   1.09295   1.10171   1.10816
 Alpha virt. eigenvalues --    1.11473   1.11731   1.12437   1.12743   1.13815
 Alpha virt. eigenvalues --    1.14989   1.16533   1.19671   1.20573   1.21067
 Alpha virt. eigenvalues --    1.23810   1.25771   1.27315   1.28156   1.29057
 Alpha virt. eigenvalues --    1.29445   1.32014   1.32912   1.46792   1.47713
 Alpha virt. eigenvalues --    1.52050   1.54170   1.57030   2.53533   2.55699
 Alpha virt. eigenvalues --    2.56076   2.57753   2.62080   2.62314   2.63899
 Alpha virt. eigenvalues --    2.66394   2.67126   2.68477   2.72021   2.74298
 Alpha virt. eigenvalues --    2.78337   2.83420   2.86623   2.91693   2.94354
 Alpha virt. eigenvalues --    2.94605   2.94745   2.96023   2.98086   2.98570
 Alpha virt. eigenvalues --    2.99973   3.02240   3.03911   3.04437   3.06474
 Alpha virt. eigenvalues --    3.08503   3.09239   3.09786   3.10091   3.13194
 Alpha virt. eigenvalues --    3.15154   3.16191   3.17719   3.18414   3.19396
 Alpha virt. eigenvalues --    3.21624   3.24102   3.25084   3.27669   3.28775
 Alpha virt. eigenvalues --    3.31401   3.33874   3.34310   3.35695   3.40942
 Alpha virt. eigenvalues --    3.41351   3.44164   3.45083   3.49924   3.52503
 Alpha virt. eigenvalues --    3.53508   3.55947   3.57562   3.58284   3.59590
 Alpha virt. eigenvalues --    3.62364   3.64098   3.65052   3.66251   3.66725
 Alpha virt. eigenvalues --    3.67677   3.69215   3.71261   3.72364   3.74221
 Alpha virt. eigenvalues --    3.76269   3.77502   3.78528   3.85554   3.87992
 Alpha virt. eigenvalues --    3.91121  24.26042  24.30031  24.31765  24.50525
 Alpha virt. eigenvalues --   24.50786  24.51035  24.53067  24.54601  24.56497
 Alpha virt. eigenvalues --   24.76222  24.77073  24.79109  24.80205  24.80708
 Alpha virt. eigenvalues --   24.82780  24.87390  25.04652  25.05792  25.07120
          Condensed to atoms (all electrons):
              1          2          3          4          5          6
     1  C    6.104370   0.472978   0.149790  -0.055664  -0.024626   0.003239
     2  H    0.472978   0.502919  -0.070498   0.005497   0.001618  -0.000263
     3  C    0.149790  -0.070498   5.390780   0.447259   0.492614  -0.058254
     4  C   -0.055664   0.005497   0.447259   5.069062  -0.072124   0.478916
     5  C   -0.024626   0.001618   0.492614  -0.072124   5.091877  -0.030646
     6  C    0.003239  -0.000263  -0.058254   0.478916  -0.030646   5.040487
     7  H    0.000196   0.000109  -0.044599   0.388801   0.004087  -0.028465
     8  C    0.006848   0.001561  -0.073712  -0.026488   0.454235  -0.078620
     9  H   -0.000080   0.002360  -0.050706   0.004331   0.400454  -0.000281
    10  C    0.001270  -0.000001  -0.018783  -0.091255  -0.086362   0.491151
    11  H   -0.000349   0.000011   0.006021  -0.038910  -0.000477   0.397226
    12  H   -0.000340  -0.000039   0.006927  -0.000685  -0.039675   0.006241
    13  H   -0.000012  -0.000001  -0.001547   0.007890   0.007488  -0.042914
    14  C    0.118194  -0.075601  -0.140699  -0.003437  -0.002060   0.001902
    15  C   -0.071538   0.004442  -0.003232  -0.011869   0.000522  -0.000418
    16  C   -0.024403   0.006457  -0.004452   0.000743   0.000621   0.000029
    17  C    0.002550  -0.000225   0.001979  -0.000100   0.000044  -0.000101
    18  H    0.000803  -0.000028  -0.003710   0.001981  -0.000214   0.001143
    19  C    0.008232   0.001461  -0.000592   0.000054  -0.000012  -0.000001
    20  H   -0.002065   0.002826   0.000158  -0.000025   0.000203   0.000001
    21  C    0.001708   0.000005  -0.000058  -0.000004  -0.000013   0.000002
    22  H   -0.000372   0.000012   0.000027   0.000038   0.000002  -0.000001
    23  H   -0.000410  -0.000034   0.000020  -0.000001   0.000001   0.000000
    24  H   -0.000026  -0.000002  -0.000003   0.000001   0.000000   0.000000
    25  C    0.035022  -0.062453  -0.095687  -0.007324  -0.001516  -0.000561
    26  C   -0.085769  -0.004816  -0.006851  -0.008664   0.000600  -0.000339
    27  C   -0.030056   0.000912   0.000908   0.001652  -0.000444   0.000020
    28  C    0.008271   0.000643  -0.001597  -0.000267  -0.000048  -0.000008
    29  H   -0.002841  -0.000141   0.004035  -0.000590   0.001656  -0.000248
    30  C    0.012172  -0.000122  -0.000806   0.000051   0.000007   0.000004
    31  H   -0.011268  -0.000274   0.000419   0.000064  -0.000017   0.000000
    32  C    0.000399   0.000033   0.000128   0.000035  -0.000003   0.000002
    33  H   -0.000355   0.000004   0.000015   0.000014  -0.000005   0.000002
    34  H   -0.000362   0.000014   0.000012   0.000000   0.000000   0.000000
    35  H   -0.000014  -0.000002   0.000002   0.000000   0.000000   0.000000
              7          8          9         10         11         12
     1  C    0.000196   0.006848  -0.000080   0.001270  -0.000349  -0.000340
     2  H    0.000109   0.001561   0.002360  -0.000001   0.000011  -0.000039
     3  C   -0.044599  -0.073712  -0.050706  -0.018783   0.006021   0.006927
     4  C    0.388801  -0.026488   0.004331  -0.091255  -0.038910  -0.000685
     5  C    0.004087   0.454235   0.400454  -0.086362  -0.000477  -0.039675
     6  C   -0.028465  -0.078620  -0.000281   0.491151   0.397226   0.006241
     7  H    0.497031   0.000020  -0.000272   0.004552  -0.003326   0.000015
     8  C    0.000020   5.059389  -0.034841   0.497721   0.005971   0.396944
     9  H   -0.000272  -0.034841   0.509706   0.005239   0.000025  -0.004204
    10  C    0.004552   0.497721   0.005239   5.034146  -0.039837  -0.040683
    11  H   -0.003326   0.005971   0.000025  -0.039837   0.514813  -0.000206
    12  H    0.000015   0.396944  -0.004204  -0.040683  -0.000206   0.518096
    13  H   -0.000173  -0.042557  -0.000184   0.399662  -0.004470  -0.004586
    14  C   -0.002836  -0.000516   0.000358  -0.000088   0.000027   0.000025
    15  C   -0.000999   0.000129  -0.000007  -0.000025   0.000056   0.000000
    16  C   -0.000198  -0.000017   0.000270  -0.000009   0.000000   0.000001
    17  C    0.000875   0.000001  -0.000001   0.000001   0.000002   0.000000
    18  H    0.001606  -0.000060   0.000001   0.000005  -0.000059   0.000001
    19  C    0.000001   0.000002   0.000007   0.000000   0.000000   0.000000
    20  H   -0.000002  -0.000002   0.000064  -0.000001   0.000000   0.000000
    21  C   -0.000014   0.000000  -0.000002   0.000000   0.000000   0.000000
    22  H   -0.000033   0.000000   0.000000   0.000000   0.000001   0.000000
    23  H    0.000000   0.000000   0.000000   0.000000   0.000000   0.000000
    24  H    0.000000   0.000000   0.000000   0.000000   0.000000   0.000000
    25  C    0.001119  -0.000423   0.000143   0.000045   0.000024   0.000011
    26  C    0.000264  -0.000103   0.000293   0.000109   0.000017  -0.000002
    27  C   -0.000123   0.000020  -0.000035  -0.000002   0.000000   0.000000
    28  C    0.000056   0.000013  -0.000008   0.000002   0.000001   0.000000
    29  H   -0.000064   0.000118   0.000204  -0.000088   0.000005   0.000006
    30  C   -0.000098   0.000000   0.000000   0.000000   0.000000   0.000000
    31  H    0.000022   0.000000   0.000001   0.000000   0.000000   0.000000
    32  C   -0.000041   0.000000   0.000001   0.000000   0.000000   0.000000
    33  H    0.000005  -0.000001   0.000000   0.000000   0.000000   0.000000
    34  H    0.000000   0.000000   0.000000   0.000000   0.000000   0.000000
    35  H    0.000001   0.000000   0.000000   0.000000   0.000000   0.000000
             13         14         15         16         17         18
     1  C   -0.000012   0.118194  -0.071538  -0.024403   0.002550   0.000803
     2  H   -0.000001  -0.075601   0.004442   0.006457  -0.000225  -0.000028
     3  C   -0.001547  -0.140699  -0.003232  -0.004452   0.001979  -0.003710
     4  C    0.007890  -0.003437  -0.011869   0.000743  -0.000100   0.001981
     5  C    0.007488  -0.002060   0.000522   0.000621   0.000044  -0.000214
     6  C   -0.042914   0.001902  -0.000418   0.000029  -0.000101   0.001143
     7  H   -0.000173  -0.002836  -0.000999  -0.000198   0.000875   0.001606
     8  C   -0.042557  -0.000516   0.000129  -0.000017   0.000001  -0.000060
     9  H   -0.000184   0.000358  -0.000007   0.000270  -0.000001   0.000001
    10  C    0.399662  -0.000088  -0.000025  -0.000009   0.000001   0.000005
    11  H   -0.004470   0.000027   0.000056   0.000000   0.000002  -0.000059
    12  H   -0.004586   0.000025   0.000000   0.000001   0.000000   0.000001
    13  H    0.517397  -0.000003   0.000000   0.000000   0.000000   0.000000
    14  C   -0.000003   5.393546   0.450979   0.498919  -0.064031  -0.047662
    15  C    0.000000   0.450979   5.097885  -0.063287   0.480274   0.386300
    16  C    0.000000   0.498919  -0.063287   5.048104  -0.033999   0.004606
    17  C    0.000000  -0.064031   0.480274  -0.033999   5.046477  -0.027078
    18  H    0.000000  -0.047662   0.386300   0.004606  -0.027078   0.497268
    19  C    0.000000  -0.076806  -0.029554   0.468380  -0.077359  -0.000128
    20  H    0.000000  -0.045640   0.004765   0.394499  -0.000287  -0.000270
    21  C    0.000000  -0.016089  -0.093564  -0.088957   0.490242   0.004633
    22  H    0.000000   0.005974  -0.038547  -0.000377   0.397002  -0.003389
    23  H    0.000000   0.007021  -0.000633  -0.039457   0.006274   0.000016
    24  H    0.000000  -0.001679   0.007984   0.007565  -0.042957  -0.000170
    25  C    0.000001  -0.065698   0.006688  -0.000519   0.000778   0.001379
    26  C    0.000000   0.011442   0.000820  -0.000273   0.000016   0.000017
    27  C    0.000000  -0.012522  -0.018247   0.000876  -0.001449   0.001619
    28  C    0.000000  -0.000881  -0.000022   0.000009   0.000000  -0.000050
    29  H    0.000001   0.000821  -0.000041  -0.000006   0.000000   0.000021
    30  C    0.000000  -0.001560  -0.000942  -0.000114  -0.000041   0.000109
    31  H    0.000000   0.000928  -0.001061  -0.001093   0.000326   0.000023
    32  C    0.000000   0.000121  -0.000017  -0.000004   0.000000   0.000001
    33  H    0.000000   0.000012   0.000000   0.000000   0.000000  -0.000001
    34  H    0.000000   0.000058   0.000027   0.000004  -0.000001   0.000000
    35  H    0.000000   0.000001   0.000001   0.000000   0.000000   0.000000
             19         20         21         22         23         24
     1  C    0.008232  -0.002065   0.001708  -0.000372  -0.000410  -0.000026
     2  H    0.001461   0.002826   0.000005   0.000012  -0.000034  -0.000002
     3  C   -0.000592   0.000158  -0.000058   0.000027   0.000020  -0.000003
     4  C    0.000054  -0.000025  -0.000004   0.000038  -0.000001   0.000001
     5  C   -0.000012   0.000203  -0.000013   0.000002   0.000001   0.000000
     6  C   -0.000001   0.000001   0.000002  -0.000001   0.000000   0.000000
     7  H    0.000001  -0.000002  -0.000014  -0.000033   0.000000   0.000000
     8  C    0.000002  -0.000002   0.000000   0.000000   0.000000   0.000000
     9  H    0.000007   0.000064  -0.000002   0.000000   0.000000   0.000000
    10  C    0.000000  -0.000001   0.000000   0.000000   0.000000   0.000000
    11  H    0.000000   0.000000   0.000000   0.000001   0.000000   0.000000
    12  H    0.000000   0.000000   0.000000   0.000000   0.000000   0.000000
    13  H    0.000000   0.000000   0.000000   0.000000   0.000000   0.000000
    14  C   -0.076806  -0.045640  -0.016089   0.005974   0.007021  -0.001679
    15  C   -0.029554   0.004765  -0.093564  -0.038547  -0.000633   0.007984
    16  C    0.468380   0.394499  -0.088957  -0.000377  -0.039457   0.007565
    17  C   -0.077359  -0.000287   0.490242   0.397002   0.006274  -0.042957
    18  H   -0.000128  -0.000270   0.004633  -0.003389   0.000016  -0.000170
    19  C    5.047191  -0.033764   0.499705   0.005901   0.396365  -0.042545
    20  H   -0.033764   0.506553   0.005066   0.000025  -0.004073  -0.000178
    21  C    0.499705   0.005066   5.033694  -0.039801  -0.041046   0.399444
    22  H    0.005901   0.000025  -0.039801   0.514415  -0.000206  -0.004367
    23  H    0.396365  -0.004073  -0.041046  -0.000206   0.517969  -0.004556
    24  H   -0.042545  -0.000178   0.399444  -0.004367  -0.004556   0.516900
    25  C   -0.000768   0.000500  -0.000068   0.000019   0.000024   0.000002
    26  C    0.000005   0.000013   0.000000   0.000000   0.000000   0.000000
    27  C    0.000354   0.000135   0.000135   0.000004  -0.000008  -0.000003
    28  C    0.000000   0.000000   0.000000   0.000000   0.000000   0.000000
    29  H    0.000000  -0.000001   0.000000   0.000000   0.000000   0.000000
    30  C    0.000004   0.000004   0.000004  -0.000002   0.000000   0.000000
    31  H   -0.000125   0.000086   0.000099   0.000039   0.000011   0.000009
    32  C    0.000000   0.000000   0.000000   0.000000   0.000000   0.000000
    33  H    0.000000   0.000000   0.000000   0.000000   0.000000   0.000000
    34  H    0.000000   0.000000  -0.000001   0.000000   0.000000   0.000000
    35  H    0.000000   0.000000   0.000000   0.000000   0.000000   0.000000
             25         26         27         28         29         30
     1  C    0.035022  -0.085769  -0.030056   0.008271  -0.002841   0.012172
     2  H   -0.062453  -0.004816   0.000912   0.000643  -0.000141  -0.000122
     3  C   -0.095687  -0.006851   0.000908  -0.001597   0.004035  -0.000806
     4  C   -0.007324  -0.008664   0.001652  -0.000267  -0.000590   0.000051
     5  C   -0.001516   0.000600  -0.000444  -0.000048   0.001656   0.000007
     6  C   -0.000561  -0.000339   0.000020  -0.000008  -0.000248   0.000004
     7  H    0.001119   0.000264  -0.000123   0.000056  -0.000064  -0.000098
     8  C   -0.000423  -0.000103   0.000020   0.000013   0.000118   0.000000
     9  H    0.000143   0.000293  -0.000035  -0.000008   0.000204   0.000000
    10  C    0.000045   0.000109  -0.000002   0.000002  -0.000088   0.000000
    11  H    0.000024   0.000017   0.000000   0.000001   0.000005   0.000000
    12  H    0.000011  -0.000002   0.000000   0.000000   0.000006   0.000000
    13  H    0.000001   0.000000   0.000000   0.000000   0.000001   0.000000
    14  C   -0.065698   0.011442  -0.012522  -0.000881   0.000821  -0.001560
    15  C    0.006688   0.000820  -0.018247  -0.000022  -0.000041  -0.000942
    16  C   -0.000519  -0.000273   0.000876   0.000009  -0.000006  -0.000114
    17  C    0.000778   0.000016  -0.001449   0.000000   0.000000  -0.000041
    18  H    0.001379   0.000017   0.001619  -0.000050   0.000021   0.000109
    19  C   -0.000768   0.000005   0.000354   0.000000   0.000000   0.000004
    20  H    0.000500   0.000013   0.000135   0.000000  -0.000001   0.000004
    21  C   -0.000068   0.000000   0.000135   0.000000   0.000000   0.000004
    22  H    0.000019   0.000000   0.000004   0.000000   0.000000  -0.000002
    23  H    0.000024   0.000000  -0.000008   0.000000   0.000000   0.000000
    24  H    0.000002   0.000000  -0.000003   0.000000   0.000000   0.000000
    25  C    5.352672   0.471291   0.500905  -0.056835  -0.045250  -0.069082
    26  C    0.471291   5.123919  -0.083486   0.463713   0.397545  -0.033339
    27  C    0.500905  -0.083486   5.096018  -0.030091   0.004466   0.454427
    28  C   -0.056835   0.463713  -0.030091   5.061705  -0.035150  -0.073926
    29  H   -0.045250   0.397545   0.004466  -0.035150   0.490105  -0.000467
    30  C   -0.069082  -0.033339   0.454427  -0.073926  -0.000467   5.078491
    31  H   -0.034798   0.004959   0.393908  -0.000433  -0.000197  -0.036342
    32  C   -0.020601  -0.085072  -0.090068   0.480514   0.005228   0.495837
    33  H    0.006151  -0.038369  -0.000439   0.397114  -0.003877   0.006001
    34  H    0.006481  -0.000407  -0.036824   0.006011   0.000017   0.395601
    35  H   -0.001456   0.007444   0.007669  -0.043222  -0.000173  -0.042140
             31         32         33         34         35
     1  C   -0.011268   0.000399  -0.000355  -0.000362  -0.000014
     2  H   -0.000274   0.000033   0.000004   0.000014  -0.000002
     3  C    0.000419   0.000128   0.000015   0.000012   0.000002
     4  C    0.000064   0.000035   0.000014   0.000000   0.000000
     5  C   -0.000017  -0.000003  -0.000005   0.000000   0.000000
     6  C    0.000000   0.000002   0.000002   0.000000   0.000000
     7  H    0.000022  -0.000041   0.000005   0.000000   0.000001
     8  C    0.000000   0.000000  -0.000001   0.000000   0.000000
     9  H    0.000001   0.000001   0.000000   0.000000   0.000000
    10  C    0.000000   0.000000   0.000000   0.000000   0.000000
    11  H    0.000000   0.000000   0.000000   0.000000   0.000000
    12  H    0.000000   0.000000   0.000000   0.000000   0.000000
    13  H    0.000000   0.000000   0.000000   0.000000   0.000000
    14  C    0.000928   0.000121   0.000012   0.000058   0.000001
    15  C   -0.001061  -0.000017   0.000000   0.000027   0.000001
    16  C   -0.001093  -0.000004   0.000000   0.000004   0.000000
    17  C    0.000326   0.000000   0.000000  -0.000001   0.000000
    18  H    0.000023   0.000001  -0.000001   0.000000   0.000000
    19  C   -0.000125   0.000000   0.000000   0.000000   0.000000
    20  H    0.000086   0.000000   0.000000   0.000000   0.000000
    21  C    0.000099   0.000000   0.000000  -0.000001   0.000000
    22  H    0.000039   0.000000   0.000000   0.000000   0.000000
    23  H    0.000011   0.000000   0.000000   0.000000   0.000000
    24  H    0.000009   0.000000   0.000000   0.000000   0.000000
    25  C   -0.034798  -0.020601   0.006151   0.006481  -0.001456
    26  C    0.004959  -0.085072  -0.038369  -0.000407   0.007444
    27  C    0.393908  -0.090068  -0.000439  -0.036824   0.007669
    28  C   -0.000433   0.480514   0.397114   0.006011  -0.043222
    29  H   -0.000197   0.005228  -0.003877   0.000017  -0.000173
    30  C   -0.036342   0.495837   0.006001   0.395601  -0.042140
    31  H    0.477284   0.005031   0.000017  -0.003514  -0.000170
    32  C    0.005031   5.042694  -0.040843  -0.041242   0.399488
    33  H    0.000017  -0.040843   0.517601  -0.000213  -0.004407
    34  H   -0.003514  -0.041242  -0.000213   0.517790  -0.004466
    35  H   -0.000170   0.399488  -0.004407  -0.004466   0.519367
 Mulliken atomic charges:
              1
     1  C   -0.615494
     2  H    0.210635
     3  C    0.074692
     4  C   -0.088982
     5  C   -0.197789
     6  C   -0.179246
     7  H    0.182483
     8  C   -0.165633
     9  H    0.167163
    10  C   -0.156771
    11  H    0.163433
    12  H    0.162153
    13  H    0.164009
    14  C    0.067482
    15  C   -0.106867
    16  C   -0.173919
    17  C   -0.179213
    18  H    0.181288
    19  C   -0.166008
    20  H    0.171412
    21  C   -0.155119
    22  H    0.163638
    23  H    0.162722
    24  H    0.164582
    25  C    0.079785
    26  C   -0.134975
    27  C   -0.160233
    28  C   -0.175513
    29  H    0.184904
    30  C   -0.183730
    31  H    0.206066
    32  C   -0.151619
    33  H    0.161572
    34  H    0.161015
    35  H    0.162078
 Sum of Mulliken atomic charges =   0.00000
 Mulliken charges with hydrogens summed into heavy atoms:
              1
     1  C   -0.404859
     3  C    0.074692
     4  C    0.093501
     5  C   -0.030626
     6  C   -0.015813
     8  C   -0.003480
    10  C    0.007238
    14  C    0.067482
    15  C    0.074421
    16  C   -0.002507
    17  C   -0.015575
    19  C   -0.003286
    21  C    0.009462
    25  C    0.079785
    26  C    0.049929
    27  C    0.045833
    28  C   -0.013942
    30  C   -0.022716
    32  C    0.010459
 Sum of Mulliken charges with hydrogens summed into heavy atoms =   0.00000
 Electronic spatial extent (au):  <R**2>=           4931.7140
 Charge=              0.0000 electrons
 Dipole moment (field-independent basis, Debye):
    X=              0.0944    Y=             -0.1663    Z=             -0.0183  Tot=              0.1921
 Quadrupole moment (field-independent basis, Debye-Ang):
   XX=           -107.7183   YY=           -113.2572   ZZ=           -106.7886
   XY=              2.7689   XZ=              0.9591   YZ=              2.6486
 Traceless Quadrupole moment (field-independent basis, Debye-Ang):
   XX=              1.5364   YY=             -4.0025   ZZ=              2.4661
   XY=              2.7689   XZ=              0.9591   YZ=              2.6486
 Octapole moment (field-independent basis, Debye-Ang**2):
  XXX=             27.9588  YYY=              8.8447  ZZZ=              0.7490  XYY=            -36.9897
  XXY=              1.7882  XXZ=             -3.0611  XZZ=             10.0018  YZZ=            -18.3664
  YYZ=             12.0328  XYZ=              1.4557
 Hexadecapole moment (field-independent basis, Debye-Ang**3):
 XXXX=          -3054.7217 YYYY=          -2911.5187 ZZZZ=           -667.7832 XXXY=            -62.0405
 XXXZ=             15.6355 YYYX=             65.4562 YYYZ=             74.9314 ZZZX=             -6.6450
 ZZZY=             -2.5874 XXYY=          -1018.6554 XXZZ=           -628.4800 YYZZ=           -634.9048
 XXYZ=             -9.3441 YYXZ=            -10.5245 ZZXY=             33.3111
 N-N= 1.290658916602D+03 E-N=-4.277393031727D+03  KE= 7.286018952763D+02
 PrsmSu:  requested number of processors reduced to:  10 ShMem   1 Linda.
 Calling FoFJK, ICntrl=      2127 FMM=F ISym2X=0 I1Cent= 0 IOpClX= 0 NMat=1 NMatS=1 NMatT=0.
 ***** Axes restored to original set *****
 -------------------------------------------------------------------
 Center     Atomic                   Forces (Hartrees/Bohr)
 Number     Number              X              Y              Z
 -------------------------------------------------------------------
      1        6          -0.004851273   -0.022639330    0.001796604
      2        1           0.002280257    0.025067709    0.003011398
      3        6          -0.014027981   -0.003289763   -0.000752213
      4        6           0.008507422    0.007488813   -0.001125812
      5        6           0.000383952   -0.005723492    0.001216314
      6        6           0.002516615    0.012094237   -0.001276497
      7        1          -0.025415513   -0.009568783   -0.006320033
      8        6          -0.012817910   -0.004735968    0.000579262
      9        1           0.000484892    0.017353761   -0.002601189
     10        6          -0.012940747    0.004563189   -0.000921176
     11        1           0.000154818   -0.016558566    0.002394018
     12        1           0.014135205    0.008687195   -0.001058990
     13        1           0.014689693   -0.008055815    0.001470480
     14        6           0.003838261   -0.007253917    0.011080789
     15        6          -0.002549564    0.010788448   -0.005613554
     16        6          -0.001484078   -0.005507546   -0.001889528
     17        6           0.002527867    0.012261709    0.000263667
     18        1           0.010892387   -0.017151732    0.021555157
     19        6           0.003204575   -0.008217645    0.010454378
     20        1           0.004802220    0.016886044    0.003013726
     21        6           0.005909299    0.000624663    0.012330994
     22        1          -0.004564026   -0.015694142   -0.003382012
     23        1          -0.002725576    0.012304855   -0.010913716
     24        1          -0.007529313   -0.003522354   -0.014622296
     25        6           0.010295477    0.001146740   -0.010895211
     26        6          -0.007695619   -0.002138252   -0.003302979
     27        6           0.005434059    0.001083371    0.010849580
     28        6          -0.007037796   -0.002586473   -0.010255290
     29        1           0.018179943    0.004334594    0.000220077
     30        6           0.012245597    0.002790928   -0.002403191
     31        1          -0.007710906   -0.003831642   -0.020320330
     32        6           0.009252477    0.001752505   -0.010016390
     33        1           0.007004617    0.002328717    0.014905547
     34        1          -0.016197047   -0.003783784   -0.001272431
     35        1          -0.009192284   -0.001298272    0.013800846
 -------------------------------------------------------------------
 Cartesian Forces:  Max     0.025415513 RMS     0.009555146

 GradGradGradGradGradGradGradGradGradGradGradGradGradGradGradGradGradGrad
 Berny optimization.
 Internal  Forces:  Max     0.028730139 RMS     0.007790979
 Search for a local minimum.
 Step number   1 out of a maximum of  197
 All quantities printed in internal units (Hartrees-Bohrs-Radians)
 Mixed Optimization -- RFO/linear search
 Second derivative matrix not updated -- first step.
     Eigenvalues ---    0.00636   0.00650   0.00658   0.01533   0.01538
     Eigenvalues ---    0.01539   0.02137   0.02142   0.02146   0.02170
     Eigenvalues ---    0.02172   0.02173   0.02181   0.02183   0.02184
     Eigenvalues ---    0.02200   0.02201   0.02202   0.02211   0.02211
     Eigenvalues ---    0.02212   0.02214   0.02214   0.02215   0.02215
     Eigenvalues ---    0.02217   0.02219   0.02219   0.02220   0.02226
     Eigenvalues ---    0.04558   0.06394   0.06633   0.15997   0.15998
     Eigenvalues ---    0.16000   0.16000   0.16000   0.16000   0.16000
     Eigenvalues ---    0.16000   0.16000   0.16000   0.16000   0.16000
     Eigenvalues ---    0.16000   0.16000   0.16000   0.18861   0.19343
     Eigenvalues ---    0.22000   0.22000   0.22000   0.22000   0.22000
     Eigenvalues ---    0.22000   0.23466   0.23477   0.23478   0.24970
     Eigenvalues ---    0.24999   0.25000   0.31255   0.31365   0.31472
     Eigenvalues ---    0.31534   0.33517   0.33600   0.33964   0.34058
     Eigenvalues ---    0.34077   0.34091   0.34256   0.34258   0.34259
     Eigenvalues ---    0.34264   0.34265   0.34267   0.34278   0.34279
     Eigenvalues ---    0.34290   0.42395   0.42466   0.42486   0.42554
     Eigenvalues ---    0.42573   0.42614   0.46328   0.46392   0.46437
     Eigenvalues ---    0.46736   0.46752   0.46804   0.47202   0.47212
     Eigenvalues ---    0.47212   0.47334   0.47337   0.474471000.00000
     Eigenvalues --- 1000.000001000.000001000.000001000.000001000.00000
     Eigenvalues --- 1000.000001000.000001000.000001000.000001000.00000
     Eigenvalues --- 1000.000001000.000001000.000001000.000001000.00000
     Eigenvalues --- 1000.000001000.000001000.000001000.000001000.00000
     Eigenvalues --- 1000.000001000.000001000.000001000.000001000.00000
     Eigenvalues --- 1000.000001000.000001000.000001000.000001000.00000
     Eigenvalues --- 1000.000001000.000001000.000001000.000001000.00000
     Eigenvalues --- 1000.000001000.000001000.000001000.000001000.00000
     Eigenvalues --- 1000.000001000.000001000.000001000.000001000.00000
     Eigenvalues --- 1000.000001000.000001000.000001000.000001000.00000
     Eigenvalues --- 1000.000001000.000001000.000001000.000001000.00000
     Eigenvalues --- 1000.000001000.000001000.000001000.000001000.00000
     Eigenvalues --- 1000.000001000.000001000.000001000.000001000.00000
     Eigenvalues --- 1000.000001000.000001000.000001000.000001000.00000
     Eigenvalues --- 1000.000001000.000001000.000001000.000001000.00000
     Eigenvalues --- 1000.000001000.000001000.000001000.000001000.00000
     Eigenvalues --- 1000.000001000.000001000.000001000.000001000.00000
     Eigenvalues --- 1000.000001000.00000
 RFO step:  Lambda=-4.19086583D-02 EMin= 6.35531041D-03
 Linear search not attempted -- first point.
 Maximum step size (   0.300) exceeded in Quadratic search.
    -- Step size scaled by   0.591
 Iteration  1 RMS(Cart)=  0.12554366 RMS(Int)=  0.00303035
 Iteration  2 RMS(Cart)=  0.00612827 RMS(Int)=  0.00028189
 Iteration  3 RMS(Cart)=  0.00001068 RMS(Int)=  0.00028183
 Iteration  4 RMS(Cart)=  0.00000000 RMS(Int)=  0.00028183
 Variable       Old X    -DE/DX   Delta X   Delta X   Delta X     New X
                                 (Linear)    (Quad)   (Total)
    R1        2.12229  -0.02495   0.00000  -0.04162  -0.04162   2.08067
    R2        2.85322   0.02289   0.00000   0.03807   0.03807   2.89129
    R3        2.85004   0.02376   0.00000   0.03932   0.03932   2.88936
    R4        2.85121   0.02346   0.00000   0.03889   0.03889   2.89009
    R5        2.63872  -0.00008   0.00000   0.00001   0.00003   2.63875
    R6        2.63882  -0.00427   0.00000  -0.00495  -0.00494   2.63388
    R7        2.62564  -0.00471   0.00000  -0.00535  -0.00534   2.62029
    R8        2.08010  -0.02653   0.00000  -0.04151  -0.04151   2.03859
    R9        2.62795  -0.00233   0.00000  -0.00273  -0.00273   2.62522
   R10        2.07177  -0.01754   0.00000  -0.02709  -0.02709   2.04467
   R11        2.62871  -0.00532   0.00000  -0.00619  -0.00620   2.62251
   R12        2.06886  -0.01673   0.00000  -0.02572  -0.02572   2.04313
   R13        2.62742  -0.00875   0.00000  -0.01016  -0.01018   2.61724
   R14        2.06897  -0.01662   0.00000  -0.02556  -0.02556   2.04341
   R15        2.06862  -0.01682   0.00000  -0.02585  -0.02585   2.04277
   R16        2.63951   0.00082   0.00000   0.00111   0.00113   2.64064
   R17        2.63940  -0.00423   0.00000  -0.00491  -0.00489   2.63452
   R18        2.62571  -0.00448   0.00000  -0.00505  -0.00505   2.62066
   R19        2.08153  -0.02873   0.00000  -0.04505  -0.04505   2.03648
   R20        2.62798  -0.00252   0.00000  -0.00298  -0.00298   2.62501
   R21        2.07200  -0.01780   0.00000  -0.02750  -0.02750   2.04449
   R22        2.62860  -0.00561   0.00000  -0.00653  -0.00655   2.62206
   R23        2.06881  -0.01669   0.00000  -0.02566  -0.02566   2.04315
   R24        2.62717  -0.00912   0.00000  -0.01062  -0.01064   2.61654
   R25        2.06895  -0.01667   0.00000  -0.02563  -0.02563   2.04331
   R26        2.06863  -0.01682   0.00000  -0.02585  -0.02585   2.04278
   R27        2.64395  -0.00202   0.00000  -0.00234  -0.00233   2.64162
   R28        2.63501  -0.00235   0.00000  -0.00260  -0.00260   2.63241
   R29        2.62381  -0.00488   0.00000  -0.00565  -0.00565   2.61817
   R30        2.07233  -0.01866   0.00000  -0.02885  -0.02885   2.04348
   R31        2.62926  -0.00131   0.00000  -0.00143  -0.00143   2.62783
   R32        2.07391  -0.02199   0.00000  -0.03408  -0.03408   2.03984
   R33        2.62980  -0.00496   0.00000  -0.00586  -0.00586   2.62394
   R34        2.06887  -0.01663   0.00000  -0.02557  -0.02557   2.04329
   R35        2.62534  -0.00746   0.00000  -0.00859  -0.00860   2.61674
   R36        2.06901  -0.01668   0.00000  -0.02565  -0.02565   2.04336
   R37        2.06843  -0.01663   0.00000  -0.02556  -0.02556   2.04288
    A1        1.88353  -0.00859   0.00000  -0.04805  -0.04724   1.83629
    A2        1.87548  -0.01001   0.00000  -0.05141  -0.05049   1.82499
    A3        1.82898   0.00372   0.00000  -0.00028  -0.00002   1.82895
    A4        1.92960   0.01532   0.00000   0.05432   0.05316   1.98276
    A5        1.94474  -0.00332   0.00000   0.01190   0.00972   1.95446
    A6        1.99426   0.00098   0.00000   0.02193   0.02003   2.01429
    A7        2.11766   0.01852   0.00000   0.03755   0.03748   2.15515
    A8        2.08462  -0.00783   0.00000  -0.01582  -0.01588   2.06874
    A9        2.08090  -0.01070   0.00000  -0.02177  -0.02177   2.05913
   A10        2.10150   0.00418   0.00000   0.00939   0.00934   2.11084
   A11        2.07787   0.00373   0.00000   0.01249   0.01239   2.09026
   A12        2.10366  -0.00787   0.00000  -0.02148  -0.02158   2.08208
   A13        2.09893   0.00736   0.00000   0.01622   0.01623   2.11516
   A14        2.09521  -0.00436   0.00000  -0.01011  -0.01012   2.08508
   A15        2.08904  -0.00300   0.00000  -0.00611  -0.00613   2.08292
   A16        2.09601   0.00225   0.00000   0.00464   0.00463   2.10064
   A17        2.09178  -0.00103   0.00000  -0.00205  -0.00205   2.08972
   A18        2.09539  -0.00121   0.00000  -0.00258  -0.00259   2.09281
   A19        2.09783  -0.00030   0.00000  -0.00139  -0.00141   2.09642
   A20        2.09108   0.00035   0.00000   0.00130   0.00131   2.09239
   A21        2.09428  -0.00006   0.00000   0.00009   0.00010   2.09438
   A22        2.09118  -0.00278   0.00000  -0.00701  -0.00705   2.08413
   A23        2.09590   0.00142   0.00000   0.00360   0.00360   2.09950
   A24        2.09610   0.00136   0.00000   0.00343   0.00343   2.09954
   A25        2.12506   0.02293   0.00000   0.04649   0.04646   2.17152
   A26        2.07925  -0.01109   0.00000  -0.02242  -0.02245   2.05681
   A27        2.07885  -0.01184   0.00000  -0.02403  -0.02399   2.05486
   A28        2.10241   0.00451   0.00000   0.01019   0.01018   2.11259
   A29        2.07792   0.00442   0.00000   0.01450   0.01447   2.09239
   A30        2.10276  -0.00891   0.00000  -0.02451  -0.02455   2.07821
   A31        2.10025   0.00814   0.00000   0.01788   0.01790   2.11815
   A32        2.09444  -0.00469   0.00000  -0.01073  -0.01075   2.08370
   A33        2.08849  -0.00346   0.00000  -0.00714  -0.00716   2.08133
   A34        2.09637   0.00238   0.00000   0.00495   0.00492   2.10130
   A35        2.09145  -0.00111   0.00000  -0.00224  -0.00223   2.08922
   A36        2.09536  -0.00127   0.00000  -0.00270  -0.00269   2.09267
   A37        2.09788  -0.00022   0.00000  -0.00142  -0.00143   2.09645
   A38        2.09098   0.00029   0.00000   0.00122   0.00122   2.09221
   A39        2.09432  -0.00006   0.00000   0.00020   0.00021   2.09453
   A40        2.09060  -0.00296   0.00000  -0.00756  -0.00759   2.08301
   A41        2.09611   0.00152   0.00000   0.00388   0.00390   2.10001
   A42        2.09647   0.00145   0.00000   0.00368   0.00369   2.10016
   A43        2.06813   0.00049   0.00000   0.00089   0.00088   2.06902
   A44        2.13740   0.00743   0.00000   0.01496   0.01495   2.15235
   A45        2.07665  -0.00794   0.00000  -0.01610  -0.01608   2.06057
   A46        2.10347   0.00473   0.00000   0.01034   0.01035   2.11382
   A47        2.08437  -0.00129   0.00000  -0.00203  -0.00203   2.08233
   A48        2.09533  -0.00344   0.00000  -0.00832  -0.00832   2.08701
   A49        2.10146   0.00348   0.00000   0.00797   0.00797   2.10943
   A50        2.09272  -0.00008   0.00000   0.00086   0.00086   2.09358
   A51        2.08901  -0.00339   0.00000  -0.00883  -0.00884   2.08017
   A52        2.09660   0.00081   0.00000   0.00111   0.00111   2.09771
   A53        2.09188  -0.00040   0.00000  -0.00055  -0.00055   2.09133
   A54        2.09470  -0.00040   0.00000  -0.00056  -0.00056   2.09414
   A55        2.09921   0.00114   0.00000   0.00233   0.00232   2.10153
   A56        2.08886  -0.00050   0.00000  -0.00097  -0.00097   2.08789
   A57        2.09512  -0.00064   0.00000  -0.00136  -0.00136   2.09376
[...]
 0,0.00026480,0.00003795,-0.00021785,0.00045937,0.00019112,-0.00025561,
 0.00025859,-0.00002254,-0.00001058,-0.00002520,0.00022750,0.00027736,-
 0.00022688,-0.00000160,-0.00003645,-0.00003361,0.00003102,0.00001475,0
 .00004210,-0.00002651,-0.00000762,0.00001550,0.00004202,0.00077065,-0.
 00056490,-0.00011664,0.00001798,-0.00056185,0.00021000,-0.00025499,0.0
 0067723,0.00042806,-0.00013081,0.00049775,-0.00005679,-0.00003843,-0.0
 0001607,-0.00026591,-0.00032391,-0.00048437,0.00007290,0.00013474,-0.0
 0000199,-0.00017078,0.00053566,0.00006299,-0.00000025,0.00000236,0.000
 00508,-0.00000691,-0.00001073,-0.00000725,-0.00000497,0.00000762,0.000
 01125,0.07226950,0.06979505,0.05828413,0.01949997,-0.02274969,-0.09927
 042,0.07038901,-0.03408983,-0.28172945,-0.09441449,-0.04821390,0.04497
 087,0.00008843,-0.00004305,-0.00117585,-0.08431344,0.14872001,0.683796
 13,-0.00044200,0.00234805,-0.00137048,0.00049997,0.00012335,-0.0002677
 7,-0.00031213,-0.00022090,0.00044073,-0.00010242,-0.00008111,0.0002499
 0,-0.00011758,0.00013133,-0.00000252,0.00000951,0.00010279,-0.00001797
 ,-0.00002343,-0.00003151,-0.00031331,0.00000784,-0.00006170,0.00001093
 ,0.00000025,-0.00000038,-0.00001200,0.00002356,0.00001508,-0.00002875,
 -0.00000730,-0.00001117,-0.00000131,0.00000056,0.00000668,-0.00001259,
 0.00001973,-0.00000631,-0.00000914,-0.00056847,-0.00027130,0.00074412,
 0.00002765,0.00005794,0.00018867,0.00031015,-0.00033383,0.00038077,0.0
 0033641,0.00000531,0.00043096,-0.00029823,0.00008379,0.00013215,-0.000
 23739,-0.00015179,-0.00031232,0.00002543,0.00012557,-0.00001992,-0.000
 24558,0.00034437,-0.00002112,0.00001211,-0.00002514,-0.00002295,-0.000
 01393,0.00004087,-0.00004665,-0.00001000,0.00002529,-0.00005554,-0.000
 92569,-0.01474919,-0.02717069,-0.00242373,-0.00631604,0.00203745,-0.08
 575266,-0.04706102,-0.06026291,-0.00102523,0.00015935,0.00044665,-0.00
 033441,-0.00073183,-0.00127743,0.01019383,0.01142820,0.02109787,0.0819
 2461,0.00214753,-0.00277781,0.00040349,-0.00027180,0.00005773,0.000289
 26,0.00036735,0.00035314,-0.00039356,0.00012120,0.00010895,-0.00013273
 ,0.00011455,-0.00013709,0.00002778,-0.00004311,-0.00002955,0.00005351,
 -0.00002402,-0.00002634,0.00011985,-0.00000034,0.00002255,0.00001724,-
 0.00001972,-0.00003471,-0.00000899,0.00000869,-0.00000765,-0.00000307,
 0.00001406,-0.00001252,0.00000347,0.00000547,-0.00000784,0.00000531,-0
 .00001181,-0.00000602,0.00000037,-0.00034246,0.00023230,-0.00009801,0.
 00027265,0.00058384,0.00003768,0.00052423,-0.00028950,0.00001993,-0.00
 000720,0.00005513,0.00011524,0.00011196,-0.00007959,-0.00006337,0.0002
 2398,-0.00011788,0.00017061,-0.00011859,-0.00007206,0.00000051,-0.0001
 0712,0.00002128,-0.00001935,0.00001136,-0.00003719,-0.00005466,-0.0000
 3233,-0.00000189,0.00000697,-0.00001193,-0.00001174,-0.00002645,-0.003
 78377,-0.00388962,-0.01783153,-0.00660701,0.00366469,-0.00155503,-0.04
 668018,-0.12996214,-0.12855318,0.00002739,-0.00060203,0.00098357,-0.00
 010237,-0.00050594,-0.00080497,-0.00098548,0.00641849,0.00425706,0.055
 44548,0.12438911,-0.00077816,0.00121465,-0.00091063,-0.00005270,-0.000
 00178,-0.00008115,-0.00010637,-0.00027317,0.00033905,-0.00018161,-0.00
 004916,0.00026685,-0.00009819,0.00012488,-0.00001083,0.00005288,0.0000
 5998,-0.00003214,-0.00003789,0.00000035,-0.00023033,0.00000506,-0.0000
 1467,-0.00000417,0.00001396,0.00000857,-0.00001088,-0.00000336,0.00000
 190,-0.00000860,-0.00001935,0.00001001,-0.00000774,-0.00000751,0.00000
 591,-0.00000629,0.00000909,0.00000108,-0.00000813,0.00198187,0.0014006
 1,-0.00118159,0.00081478,0.00035460,-0.00089553,0.00056290,-0.00002661
 ,-0.00001943,0.00016082,-0.00010085,-0.00004040,-0.00015260,0.00002811
 ,0.00009764,-0.00005960,0.00000357,-0.00001508,-0.00005758,-0.00005660
 ,0.00004318,-0.00016459,0.00007070,-0.00003056,-0.00001331,0.00000905,
 0.00002620,0.00000623,-0.00001663,0.00000121,-0.00000228,-0.00000374,0
 .00002081,0.00200502,0.00070812,0.00362760,0.00173244,-0.00115786,0.00
 207528,-0.06084501,-0.13049001,-0.28141034,0.00052423,0.00084541,0.000
 32651,0.00010625,0.00007338,0.00009033,-0.01045753,-0.01578351,-0.0169
 2199,0.06111326,0.14236021,0.29729621,-0.00222915,0.00017060,-0.000368
 22,0.00013385,0.00084912,0.00021037,0.00026011,0.00004575,0.00138366,-
 0.00023626,0.00002751,0.00020554,0.00020007,0.00024676,0.00006449,0.00
 035714,0.00002617,-0.00013014,-0.00001097,0.00011132,-0.00020496,-0.00
 014286,0.00014595,-0.00017263,0.00002787,-0.00000004,0.00001112,-0.000
 18786,-0.00014161,0.00014367,-0.00001151,0.00004398,0.00001248,-0.0000
 4301,-0.00000610,-0.00002846,0.00000219,0.00000991,-0.00001029,-0.0000
 4956,-0.00046789,0.00009977,0.00017602,0.00004111,0.00025739,0.0000279
 4,0.00012511,-0.00026024,-0.00015570,0.00007020,-0.00017372,-0.0000170
 1,0.00000923,0.00001490,0.00014295,0.00015794,0.00020684,-0.00008200,-
 0.00002654,-0.00002554,0.00009567,-0.00021689,0.00001606,-0.00000496,0
 .00000087,0.00001697,0.00000288,-0.00000731,0.00003103,-0.00000229,-0.
 00000227,0.00000629,-0.04259429,-0.03925298,-0.03676769,-0.03870431,-0
 .00307412,0.07469027,0.06554866,0.03337057,-0.00923858,-0.27744623,-0.
 13929289,-0.02687567,0.00160270,-0.00312693,0.00451884,-0.15274438,-0.
 04091283,0.00979927,-0.00008754,-0.00362884,0.00508892,0.62055535,-0.0
 0137090,-0.00062566,0.00044668,0.00003465,0.00075891,0.00024058,0.0001
 7548,0.00030445,0.00077614,-0.00018309,0.00015857,0.00026220,0.0003892
 2,0.00007904,0.00009638,0.00036541,-0.00005261,-0.00008584,-0.00008189
 ,0.00006471,-0.00015412,-0.00013612,0.00022089,-0.00017866,0.00000283,
 0.00000202,0.00000109,-0.00019146,-0.00017452,0.00015890,-0.00000422,0
 .00004035,0.00001536,-0.00001720,-0.00001631,-0.00002769,-0.00000166,0
 .00000150,-0.00000463,0.00002497,-0.00042344,0.00016532,0.00019497,0.0
 0015427,0.00028886,0.00007837,0.00004851,-0.00033312,-0.00018133,0.000
 10061,-0.00019012,-0.00000490,0.00000324,0.00001458,0.00016257,0.00014
 579,0.00026338,-0.00004692,-0.00005928,0.00001819,0.00007028,-0.000267
 78,-0.00002231,-0.00000570,-0.00000619,0.00000073,-0.00000321,0.000014
 05,-0.00000599,-0.00000360,-0.00000573,-0.00000943,-0.03783367,-0.0468
 0424,-0.03386406,-0.02443527,0.02011100,0.06781405,0.05536518,0.032515
 08,-0.03516387,-0.11012983,-0.17601727,-0.04712020,-0.00279326,0.00634
 716,-0.00218598,-0.07021550,-0.16313177,-0.08242153,-0.00385654,0.0062
 0354,-0.00071459,0.23475159,0.38663781,-0.00113959,0.00005114,0.000651
 42,0.00017673,0.00051499,-0.00023226,-0.00020368,0.00038158,0.00030155
 ,0.00015701,0.00009962,0.00009784,0.00033634,-0.00017055,0.00012796,0.
 00025650,-0.00001169,-0.00009384,0.00007915,0.00018426,-0.00030871,-0.
 00006437,0.00016957,-0.00010889,-0.00002334,0.00000535,0.00000429,-0.0
 0004521,-0.00015870,0.00011119,0.00004325,-0.00004242,0.00001213,0.000
 01847,-0.00002636,-0.00002016,0.00001805,-0.00000503,-0.00000022,0.000
 32289,-0.00030913,0.00015836,0.00012730,0.00021635,0.00014792,-0.00000
 287,-0.00000263,-0.00034035,-0.00014981,0.00010860,-0.00014513,-0.0000
 0620,0.00002278,0.00002107,0.00011122,0.00011155,0.00025271,-0.0000101
 5,-0.00004402,0.00001757,0.00001874,-0.00025989,-0.00007889,-0.0000079
 0,-0.00001902,-0.00002447,-0.00000583,0.00002727,-0.00002838,-0.000005
 06,-0.00000058,-0.00002429,-0.03589094,-0.03283041,-0.02989969,0.01921
 226,0.02981388,0.05484988,0.04635761,0.00213353,-0.06189794,0.04381658
 ,-0.00020155,-0.15480162,0.00504548,-0.00171235,-0.00358170,-0.0613199
 4,-0.12875143,-0.30132542,0.00491839,-0.00106159,-0.00188819,-0.146058
 90,0.13880713,0.75163228,0.00039662,0.00051814,0.00070489,0.00006808,-
 0.00002326,-0.00007254,0.00004607,-0.00004056,0.00004320,-0.00002896,0
 .00000198,-0.00001130,-0.00003542,0.00001315,0.00000194,-0.00001622,0.
 00000464,-0.00001240,0.00000537,0.00000893,0.00002134,-0.00000180,-0.0
 0001253,-0.00000453,0.00000711,0.00000743,0.00000325,-0.00001372,0.000
 01432,-0.00001213,-0.00000366,0.00001109,0.00000342,-0.00000097,0.0000
 0425,0.00000256,0.00000153,0.00000305,0.00000393,-0.00026796,0.0000393
 4,0.00015418,0.00002600,0.00000203,0.00001194,0.00002800,-0.00002640,0
 .00003583,0.00003832,0.00000113,0.00001471,-0.00001765,0.00000058,0.00
 000826,-0.00000014,-0.00000463,-0.00003587,-0.00000318,-0.00000486,0.0
 0000102,-0.00000087,0.00003315,0.00002445,0.00000191,0.00000322,0.0000
 0688,-0.00000141,-0.00000229,0.00000090,-0.00000228,-0.00000079,0.0000
 0232,0.00001325,-0.00389633,0.00477330,0.01018019,0.01152029,0.0205621
 3,-0.00104225,0.00011049,0.00048915,-0.08301791,-0.04540799,-0.0549314
 1,-0.00046380,0.00245179,-0.00162090,-0.00237882,-0.00651362,0.0019774
 7,-0.00026205,0.00055659,-0.00023009,-0.00045741,-0.01519741,-0.027446
 95,0.07791581,0.00003841,0.00001282,0.00023074,-0.00001167,-0.00004109
 ,-0.00000254,0.00002315,0.00002340,-0.00013029,0.00003128,-0.00002300,
 0.00001630,-0.00000510,-0.00004848,-0.00000801,0.00000276,0.00003364,0
 .00000710,-0.00003184,0.00000631,-0.00003276,0.00000999,-0.00000605,0.
 00001579,-0.00000793,-0.00000460,0.00000254,0.00003306,-0.00000343,0.0
 0000023,0.00000350,-0.00002546,-0.00000504,0.00000670,-0.00000142,-0.0
 0000017,0.00000666,-0.00000633,-0.00000627,0.00007022,-0.00010041,-0.0
 0005221,0.00001724,0.00003161,0.00000941,-0.00000136,0.00004080,-0.000
 03613,-0.00002307,0.00001899,-0.00002833,-0.00000188,-0.00000126,0.000
 00270,0.00002582,0.00000813,0.00004633,-0.00000807,-0.00001514,0.00000
 797,0.00001391,-0.00004523,-0.00000906,-0.00000547,-0.00000649,-0.0000
 0221,-0.00000058,0.00000326,0.00000270,-0.00000372,-0.00000234,-0.0000
 0377,-0.00372465,0.00624036,-0.00098910,-0.00150214,0.00637908,0.00414
 469,0.00012679,-0.00046762,0.00094507,-0.04531898,-0.13264945,-0.13073
 770,0.00282669,-0.00275602,0.00132162,-0.00667135,0.00369528,-0.001298
 76,0.00052378,-0.00081051,0.00024228,-0.00228468,-0.00376035,-0.018713
 12,0.05371511,0.12729914,-0.00080342,-0.00071451,-0.00071385,0.0000222
 6,0.00005831,-0.00000020,-0.00013108,0.00014241,-0.00011882,0.00003422
 ,-0.00005157,0.00003885,0.00009241,-0.00006173,0.00003999,0.00000767,0
 .00001689,-0.00000884,-0.00001459,0.00004312,-0.00002630,0.00002197,0.
 00001203,0.00000415,-0.00001868,-0.00000210,-0.00000849,0.00003328,-0.
 00000821,0.00000569,0.00000445,-0.00002228,0.00000092,0.00002096,-0.00
 000677,-0.00001274,0.00001495,-0.00001028,-0.00000442,0.00039878,0.000
 06737,-0.00006642,-0.00006936,0.00003268,-0.00009490,-0.00002164,-0.00
 005196,-0.00007004,-0.00001560,0.00000116,0.00002514,0.00000388,0.0000
 0426,0.00000534,-0.00000121,-0.00002572,0.00001230,0.00001275,-0.00000
 610,0.00001451,-0.00001783,0.00000390,-0.00003337,-0.00000543,-0.00001
 317,-0.00001627,-0.00001693,0.00001088,-0.00001699,-0.00000604,-0.0000
 0077,-0.00001506,0.00538263,-0.00091018,-0.00166345,-0.01084319,-0.016
 63700,-0.01735072,0.00061684,0.00091292,0.00030844,-0.05477410,-0.1305
 6576,-0.27832699,-0.00056386,0.00200012,0.00057919,0.00150899,-0.00157
 322,0.00240947,-0.00028625,0.00025324,-0.00019009,0.00376741,0.0019355
 8,0.00413533,0.05718007,0.14396665,0.29067687,-0.00049423,-0.00050448,
 -0.00044752,-0.00022895,-0.00000673,0.00023824,0.00008119,-0.00018559,
 0.00015941,-0.00009303,0.00005998,0.00004680,-0.00008950,0.00010452,-0
 .00003181,0.00001160,-0.00001777,0.00001798,0.00000729,-0.00007951,-0.
 00000575,-0.00000975,-0.00000119,0.00000078,0.00001796,0.00000525,-0.0
 0001638,-0.00002704,0.00001419,-0.00000022,-0.00002227,0.00002382,-0.0
 0001390,-0.00001788,0.00000525,0.00000263,-0.00001345,0.00000518,-0.00
 000310,-0.00011755,0.00001086,-0.00023423,0.00006819,-0.00000927,0.000
 07746,0.00003750,-0.00000450,0.00001986,0.00000225,0.00001160,-0.00001
 962,-0.00002007,-0.00000706,-0.00000648,-0.00000106,0.00002176,0.00000
 044,-0.00001246,0.00002711,-0.00001061,0.00003490,-0.00000007,0.000031
 73,-0.00000450,0.00001370,0.00002712,0.00000497,-0.00000942,0.00001159
 ,0.00000205,-0.00000051,0.00001752,0.00165541,-0.00262240,0.00483776,0
 .00041083,0.00096784,0.00015189,-0.01158552,-0.01327030,-0.00510051,0.
 00351047,-0.00354725,0.00004020,-0.00042645,0.00044316,-0.00023420,-0.
 27098236,-0.14866182,-0.00732781,-0.00041839,0.00279604,-0.00049796,-0
 .00125774,-0.00285089,0.00404028,-0.00032182,-0.00013395,0.00006231,0.
 28080762,0.00012963,-0.00014797,-0.00035364,-0.00001656,-0.00003947,-0
 .00001116,-0.00000877,0.00001894,0.00011012,0.00002116,0.00003179,-0.0
 0004162,-0.00000148,0.00002802,0.00001021,0.00000156,-0.00001817,0.000
 01128,-0.00000644,-0.00001268,0.00000724,-0.00001603,0.00000484,-0.000
 01066,0.00000436,-0.00000590,0.00000488,-0.00001234,-0.00000609,0.0000
 0927,0.00000405,0.00000001,-0.00000444,-0.00001157,-0.00000298,0.00000
 107,-0.00000879,0.00000408,0.00000187,-0.00007398,0.00001666,0.0000240
 4,-0.00001692,-0.00004052,-0.00002603,0.00000914,0.00001205,0.00006699
 ,0.00003173,-0.00001634,0.00002111,0.00000502,-0.00000937,-0.00000869,
 0.00000109,-0.00000472,-0.00004527,-0.00002072,-0.00000384,-0.00001102
 ,0.00001514,0.00004330,0.00002595,-0.00000037,0.00000273,0.00000585,0.
 00000069,-0.00001894,0.00002122,-0.00000148,0.00000032,0.00001443,-0.0
 0305926,0.00601583,-0.00156004,0.00096375,-0.00029050,0.00008937,-0.00
 044631,0.00402041,-0.00296683,-0.00334614,0.00459828,-0.00531096,0.000
 45040,-0.00082679,0.00035073,-0.14850473,-0.15157440,-0.01358236,0.002
 38751,-0.00272117,0.00177875,-0.01571457,-0.00374561,0.00227377,-0.000
 65862,-0.00049576,0.00006953,0.16508822,0.14789187,0.00076621,0.000801
 77,0.00049371,0.00022028,0.00008464,-0.00021642,-0.00000962,0.00009017
 ,-0.00014190,0.00000839,-0.00003577,0.00000681,0.00005718,-0.00005113,
 -0.00000640,0.00000016,-0.00000329,0.00000538,0.00000558,0.00000360,0.
 00000651,0.00001592,0.00000209,0.00000598,-0.00001140,-0.00000554,0.00
 000269,0.00001351,-0.00000334,-0.00000250,0.00000227,-0.00000464,0.000
 00373,0.00001034,-0.00000109,0.,0.00000339,-0.00000345,-0.00000037,0.0
 0002095,-0.00000612,0.00020008,-0.00003420,-0.00001918,0.00000474,-0.0
 0003442,-0.00000067,-0.00003703,-0.00002614,-0.00001008,-0.00001356,0.
 00001895,0.00000591,0.00000190,-0.00001051,0.00000340,0.00001475,0.000
 01764,-0.00000188,0.00000061,-0.00003406,-0.00001929,-0.00003722,0.000
 00769,-0.00000295,-0.00001676,0.00000079,0.00000952,-0.00001423,0.0000
 0507,0.00000207,-0.00001130,0.00469774,-0.00198425,-0.00367714,0.00012
 835,-0.00004189,-0.00134716,0.02619218,0.01761170,0.00656668,0.0004223
 4,-0.00500308,-0.00403583,-0.00021895,0.00035095,-0.00003324,-0.007367
 76,-0.01377338,-0.07117085,-0.00155545,0.00128193,0.00070006,-0.027420
 74,-0.01824695,0.00483290,-0.00125061,-0.00082688,-0.00002816,0.005769
 62,0.01779594,0.06734413,-0.00030652,0.00047525,-0.00009694,0.00008557
 ,0.00010860,-0.00003387,-0.00000583,-0.00006747,0.00012372,-0.00003625
 ,0.00002589,0.00000609,-0.00002738,0.00005039,-0.00001597,0.00001303,-
 0.00002937,0.00000842,0.00001375,-0.00003797,0.00001058,-0.00000863,0.
 00000589,-0.00000698,0.00000801,0.00000108,-0.00000729,-0.00002104,-0.
 00000045,0.00000260,-0.00000737,0.00001954,-0.00000237,-0.00001087,0.0
 0000152,0.00000259,-0.00001029,0.00000563,0.00000203,-0.00005821,0.000
 02857,-0.00000343,0.00001970,-0.00001689,0.00001881,-0.00000365,-0.000
 01577,0.00003240,0.00000712,-0.00000366,0.00000024,-0.00000201,0.00000
 098,-0.00000414,-0.00001391,0.00000920,-0.00001069,-0.00000050,0.00001
 551,-0.00000761,0.00000496,0.00000736,0.00001289,0.00000026,0.00000648
 ,0.00000820,0.00000591,-0.00000293,0.00000124,0.00000406,0.00000169,0.
 00000625,-0.00033738,-0.00008443,-0.00113543,-0.00146476,-0.00675891,-
 0.00007231,0.00268145,-0.00436398,-0.00059406,-0.01077728,0.00049763,0
 .02662157,-0.00079054,-0.00002772,0.00113551,0.00979300,-0.00110532,-0
 .01011377,0.00021653,0.00002954,-0.00041205,-0.17266836,-0.02207095,0.
 14732447,-0.00038995,0.00226138,-0.00159662,-0.00050819,0.00281162,-0.
 00041069,0.17459556,0.00055086,-0.00064514,0.00025628,-0.00007598,-0.0
 0005714,-0.00005786,0.00009864,0.00006133,-0.00008394,0.00001820,0.000
 00541,0.00001652,0.00004202,-0.00002390,0.00001390,0.00000373,0.000008
 22,-0.00000055,-0.00002280,0.00001019,-0.00002341,0.00000986,0.0000093
 7,-0.00000266,-0.00000204,-0.00000465,-0.00000347,0.00000287,-0.000006
 50,0.00000083,0.00000539,-0.00000747,-0.00000136,0.00000011,-0.0000035
 0,0.00000084,-0.00000070,0.00000044,-0.00000143,-0.00002275,0.00001548
 ,-0.00003802,0.00003197,0.00003607,0.00002083,0.00004884,0.00000090,0.
 00000055,0.00000882,0.00000774,0.00001792,-0.00000725,-0.00000754,0.00
 000218,0.00000927,-0.00000434,-0.00000081,-0.00001437,-0.00000242,-0.0
 0000426,-0.00000570,0.00000332,0.00000362,0.00000212,-0.00000154,-0.00
 000136,-0.00000078,-0.00000247,0.00000636,-0.00000125,0.00000032,0.000
 00018,-0.00016458,-0.00113752,-0.00014471,-0.00656866,0.00318872,-0.00
 274232,-0.00453910,0.00397638,-0.00506619,-0.01249374,0.00420832,0.017
 98799,-0.00056405,-0.00012477,0.00085062,0.01183833,0.00667521,-0.0154
 7820,0.00055502,0.00003008,-0.00061293,-0.02204719,-0.05882076,0.00939
 911,0.00276858,-0.00252238,0.00113029,0.00231422,-0.00270793,0.0020011
 4,0.02822208,0.04784249,-0.00025779,0.00030361,-0.00000820,0.00009027,
 0.00006572,-0.00002248,-0.00007197,0.00002973,-0.00000737,0.00000692,-
 0.00004726,0.00002723,0.00000987,-0.00002674,0.00001034,-0.00000088,0.
 00003119,-0.00001942,-0.00001404,0.00003905,-0.00002487,0.00000672,-0.
 00000851,0.00000579,-0.00000684,0.00000194,0.00000135,0.00001664,-0.00
 000012,-0.00000476,0.00000273,-0.00001043,0.00000591,0.00001184,0.0000
 0053,-0.00000530,0.00001326,-0.00000538,-0.00000135,0.00008022,0.00000
 333,0.00003340,-0.00000204,0.00005073,-0.00005781,0.00001898,-0.000035
 16,-0.00001809,0.00002166,0.00001773,0.00002977,-0.00002082,0.00000632
 ,0.00001513,0.00000847,-0.00002376,0.00000593,0.00000441,-0.00001027,0
 .00001539,-0.00001458,0.00000705,-0.00000477,-0.00000368,-0.00001163,-
 0.00000844,-0.00000885,0.00001298,-0.00001267,-0.00000685,-0.00000120,
 -0.00001558,-0.00106058,-0.00023226,0.00013400,0.00045318,-0.00237028,
 0.00220131,-0.00117836,-0.00542266,-0.00241689,-0.00469100,-0.00271502
 ,0.00598152,-0.00013432,-0.00003181,0.00004630,0.02145697,0.00504575,-
 0.01694247,0.00087522,0.00019925,-0.00100683,0.14719053,0.00942394,-0.
 26255425,-0.00039841,0.00192022,0.00050994,-0.00160351,0.00123911,0.00
 059943,-0.16079337,-0.00744570,0.27350881||-0.00001481,0.00000592,-0.0
 0000667,0.00000261,0.00000250,0.00000075,0.00000252,-0.00000387,0.0000
 0228,0.00000346,-0.00000247,0.00000026,-0.00000436,-0.00000075,0.00000
 343,-0.00000346,0.00000173,-0.00000068,0.00000185,0.00000028,0.0000016
 7,0.00000176,-0.00000702,-0.00000006,0.00000082,0.00000044,0.00000049,
 0.00000331,0.00000470,-0.00000221,-0.00000021,0.00000001,-0.00000038,0
 .00000022,0.00000064,0.00000024,0.00000055,0.00000015,0.00000012,0.000
 02933,-0.00004067,-0.00000058,0.00000146,0.00002200,0.00003299,-0.0000
 3470,0.00001317,-0.00002560,-0.00002043,0.00001623,-0.00003070,-0.0000
 0459,0.00000002,-0.00000454,0.00001573,0.00002241,0.00002775,0.0000019
 1,-0.00000152,0.00000215,0.00001101,-0.00003736,-0.00000133,0.00000231
 ,-0.00000122,0.00000194,-0.00000126,-0.00000129,-0.00000198,-0.0000009
 2,0.00000237,0.00000061,-0.00001911,-0.00003303,-0.00001669,-0.0000146
 0,0.00002031,0.00005225,0.00004415,0.00002554,-0.00003156,0.00004602,0
 .00002208,-0.00002752,-0.00000096,-0.00000329,-0.00000372,-0.00001607,
 0.00001581,0.00005324,-0.00000207,-0.00000288,0.00000089,-0.00003114,-
 0.00004151,-0.00002820,-0.00000513,-0.00000229,0.00000296,0.00000146,-
 0.00000176,-0.00000431,0.00000333,0.00000460,0.00000272|||@


 IT IS BY EATING THE LIGHT OF A STAR THAT WE EXIST, 
 IN THE FINAL ANALYSIS, 
 JUST AS IT IS BY PERCEIVING THE LIGHT OF STARS
 THAT WE DEFINE THE WORLD AROUND US.

                                    -- GILBERT GROSVENOR
 Job cpu time:  0 days  0 hours  6 minutes 37.0 seconds.
 File lengths (MBytes):  RWF=    350 Int=      0 D2E=      0 Chk=      7 Scr=      1
 Normal termination of Gaussian 09 at Mon Sep 06 21:30:06 2021.
