 Entering Link 1 = b:\programy\g09w\l1.exe PID=     22328.
  
 Copyright (c) 1988,1990,1992,1993,1995,1998,2003,2009, Gaussian, Inc.
                  All Rights Reserved.
  
 This is part of the Gaussian(R) 09 program.  It is based on
 the Gaussian(R) 03 system (copyright 2003, Gaussian, Inc.),
 the Gaussian(R) 98 system (copyright 1998, Gaussian, Inc.),
 the Gaussian(R) 94 system (copyright 1995, Gaussian, Inc.),
 the Gaussian 92(TM) system (copyright 1992, Gaussian, Inc.),
 the Gaussian 90(TM) system (copyright 1990, Gaussian, Inc.),
 the Gaussian 88(TM) system (copyright 1988, Gaussian, Inc.),
 the Gaussian 86(TM) system (copyright 1986, Carnegie Mellon
 University), and the Gaussian 82(TM) system (copyright 1983,
 Carnegie Mellon University). Gaussian is a federally registered
 trademark of Gaussian, Inc.
  
 This software contains proprietary and confidential information,
 including trade secrets, belonging to Gaussian, Inc.
  
 This software is provided under written license and may be
 used, copied, transmitted, or stored only in accord with that
 written license.
  
 The following legend is applicable only to US Government
 contracts under FAR:
  
                    RESTRICTED RIGHTS LEGEND
  
 Use, reproduction and disclosure by the US Government is
 subject to restrictions as set forth in subparagraphs (a)
 and (c) of the Commercial Computer Software - Restricted
 Rights clause in FAR 52.227-19.
  
 Gaussian, Inc.
 340 Quinnipiac St., Bldg. 40, Wallingford CT 06492
  
  
 ---------------------------------------------------------------
 Warning -- This program may not be used in any manner that
 competes with the business of Gaussian, Inc. or will provide
 assistance to any competitor of Gaussian, Inc.  The licensee
 of this program is prohibited from giving any competitor of
 Gaussian, Inc. access to this program.  By using this program,
 the user acknowledges that Gaussian, Inc. is engaged in the
 business of creating and licensing software in the field of
 computational chemistry and represents and warrants to the
 licensee that it is not a competitor of Gaussian, Inc. and that
 it will not use this program in any manner prohibited above.
 ---------------------------------------------------------------
  

 Cite this work as:
 Gaussian 09, Revision A.02,
 M. J. Frisch, G. W. Trucks, H. B. Schlegel, G. E. Scuseria, 
 M. A. Robb, J. R. Cheeseman, G. Scalmani, V. Barone, B. Mennucci, 
 G. A. Petersson, H. Nakatsuji, M. Caricato, X. Li, H. P. Hratchian, 
 A. F. Izmaylov, J. Bloino, G. Zheng, J. L. Sonnenberg, M. Hada, 
 M. Ehara, K. Toyota, R. Fukuda, J. Hasegawa, M. Ishida, T. Nakajima, 
 Y. Honda, O. Kitao, H. Nakai, T. Vreven, J. A. Montgomery, Jr., 
 J. E. Peralta, F. Ogliaro, M. Bearpark, J. J. Heyd, E. Brothers, 
 K. N. Kudin, V. N. Staroverov, R. Kobayashi, J. Normand, 
 K. Raghavachari, A. Rendell, J. C. Burant, S. S. Iyengar, J. Tomasi, 
 M. Cossi, N. Rega, J. M. Millam, M. Klene, J. E. Knox, J. B. Cross, 
 V. Bakken, C. Adamo, J. Jaramillo, R. Gomperts, R. E. Stratmann, 
 O. Yazyev, A. J. Austin, R. Cammi, C. Pomelli, J. W. Ochterski, 
 R. L. Martin, K. Morokuma, V. G. Zakrzewski, G. A. Voth, 
 P. Salvador, J. J. Dannenberg, S. Dapprich, A. D. Daniels, 
 O. Farkas, J. B. Foresman, J. V. Ortiz, J. Cioslowski, 
 and D. J. Fox, Gaussian, Inc., Wallingford CT, 2009.
 
 ******************************************
 Gaussian 09:  IA32W-G09RevA.02 11-Jun-2009
                07-Sep-2021 
 ******************************************
 %nprocshared=12
 Will use up to   12 processors via shared memory.
 ----------------------------------------------
 # opt freq=noraman hf/6-311g geom=connectivity
 ----------------------------------------------
 1/18=20,19=15,38=1,57=2/1,3;
 2/9=110,12=2,17=6,18=5,40=1/2;
 3/5=4,6=6,11=9,16=1,25=1,30=1,71=1/1,2,3;
 4//1;
 5/5=2,38=5/2;
 6/7=2,8=2,9=2,10=2,28=1/1;
 7//1,2,3,16;
 1/18=20,19=15/3(2);
 2/9=110/2;
 99//99;
 2/9=110/2;
 3/5=4,6=6,11=9,16=1,25=1,30=1,71=1/1,2,3;
 4/5=5,16=3/1;
 5/5=2,38=5/2;
 7//1,2,3,16;
 1/18=20,19=15/3(-5);
 2/9=110/2;
 6/7=2,8=2,9=2,10=2,19=2,28=1/1;
 99/9=1/99;
 -----
 M0001
 -----
 Symbolic Z-matrix:
 Charge =  0 Multiplicity = 1
 C                    -0.07455  -0.05493  -0.77162 
 H                    -0.18375  -0.0964   -1.8885 
 C                    -1.48711   0.05421  -0.2531 
 C                    -2.17105   1.26555  -0.39836 
 C                    -2.15441  -1.03578   0.30617 
 C                    -3.49164   1.3836    0.01496 
 H                    -1.65469   2.12743  -0.83835 
 C                    -3.47758  -0.91582   0.71805 
 H                    -1.6324   -1.99378   0.42405 
 C                    -4.1488    0.29246   0.57473 
 H                    -4.01549   2.33789  -0.10148 
 H                    -3.98993  -1.7789    1.15559 
 H                    -5.18979   0.38565   0.89986 
 C                     0.64375  -1.30799  -0.33635 
 C                     0.91566  -1.56638   1.00914 
 C                     1.05492  -2.22905  -1.3024 
 C                     1.58418  -2.72578   1.38224 
 H                     0.60609  -0.83056   1.76796 
 C                     1.72452  -3.38861  -0.92663 
 H                     0.85066  -2.03965  -2.36287 
 C                     1.98916  -3.63977   0.41488 
 H                     1.79314  -2.91773   2.43961 
 H                     2.04387  -4.1046   -1.69094 
 H                     2.51607  -4.55307   0.70908 
 C                     0.74609   1.16531  -0.42912 
 C                     1.31571   1.91995  -1.45671 
 C                     0.94742   1.55637   0.89625 
 C                     2.07066   3.04976  -1.16075 
 H                     1.16968   1.62258  -2.50183 
 C                     1.70029   2.68672   1.18928 
 H                     0.51574   0.94671   1.70479 
 C                     2.26225   3.43631   0.161 
 H                     2.51459   3.63565  -1.97217 
 H                     1.85156   2.98563   2.23154 
 H                     2.85516   4.32703   0.39199 
 

 GradGradGradGradGradGradGradGradGradGradGradGradGradGradGradGradGradGrad
 Berny optimization.
 Initialization pass.
                           ----------------------------
                           !    Initial Parameters    !
                           ! (Angstroms and Degrees)  !
 --------------------------                            --------------------------
 ! Name  Definition              Value          Derivative Info.                !
 --------------------------------------------------------------------------------
 ! R1    R(1,2)                  1.123          estimate D2E/DX2                !
 ! R2    R(1,3)                  1.5087         estimate D2E/DX2                !
 ! R3    R(1,14)                 1.5085         estimate D2E/DX2                !
 ! R4    R(1,25)                 1.5099         estimate D2E/DX2                !
 ! R5    R(3,4)                  1.3987         estimate D2E/DX2                !
 ! R6    R(3,5)                  1.395          estimate D2E/DX2                !
 ! R7    R(4,6)                  1.3888         estimate D2E/DX2                !
 ! R8    R(4,7)                  1.0968         estimate D2E/DX2                !
 ! R9    R(5,8)                  1.391          estimate D2E/DX2                !
 ! R10   R(5,9)                  1.0973         estimate D2E/DX2                !
 ! R11   R(6,10)                 1.3913         estimate D2E/DX2                !
 ! R12   R(6,11)                 1.0948         estimate D2E/DX2                !
 ! R13   R(8,10)                 1.3896         estimate D2E/DX2                !
 ! R14   R(8,12)                 1.0949         estimate D2E/DX2                !
 ! R15   R(10,13)                1.0946         estimate D2E/DX2                !
 ! R16   R(14,15)                1.3968         estimate D2E/DX2                !
 ! R17   R(14,16)                1.3967         estimate D2E/DX2                !
 ! R18   R(15,17)                1.3894         estimate D2E/DX2                !
 ! R19   R(15,18)                1.1014         estimate D2E/DX2                !
 ! R20   R(16,19)                1.3907         estimate D2E/DX2                !
 ! R21   R(16,20)                1.0964         estimate D2E/DX2                !
 ! R22   R(17,21)                1.3911         estimate D2E/DX2                !
 ! R23   R(17,22)                1.0948         estimate D2E/DX2                !
 ! R24   R(19,21)                1.3902         estimate D2E/DX2                !
 ! R25   R(19,23)                1.0949         estimate D2E/DX2                !
 ! R26   R(21,24)                1.0947         estimate D2E/DX2                !
 ! R27   R(25,26)                1.3964         estimate D2E/DX2                !
 ! R28   R(25,27)                1.3965         estimate D2E/DX2                !
 ! R29   R(26,28)                1.3907         estimate D2E/DX2                !
 ! R30   R(26,29)                1.0964         estimate D2E/DX2                !
 ! R31   R(27,30)                1.3894         estimate D2E/DX2                !
 ! R32   R(27,31)                1.1008         estimate D2E/DX2                !
 ! R33   R(28,32)                1.3904         estimate D2E/DX2                !
 ! R34   R(28,33)                1.0949         estimate D2E/DX2                !
 ! R35   R(30,32)                1.3911         estimate D2E/DX2                !
 ! R36   R(30,34)                1.0948         estimate D2E/DX2                !
 ! R37   R(32,35)                1.0947         estimate D2E/DX2                !
 ! A1    A(2,1,3)              104.6821         estimate D2E/DX2                !
 ! A2    A(2,1,14)             107.6141         estimate D2E/DX2                !
 ! A3    A(2,1,25)             107.9572         estimate D2E/DX2                !
 ! A4    A(3,1,14)             114.0007         estimate D2E/DX2                !
 ! A5    A(3,1,25)             111.8677         estimate D2E/DX2                !
 ! A6    A(14,1,25)            110.3077         estimate D2E/DX2                !
 ! A7    A(1,3,4)              118.9998         estimate D2E/DX2                !
 ! A8    A(1,3,5)              121.9466         estimate D2E/DX2                !
 ! A9    A(4,3,5)              118.9743         estimate D2E/DX2                !
 ! A10   A(3,4,6)              120.5108         estimate D2E/DX2                !
 ! A11   A(3,4,7)              119.4721         estimate D2E/DX2                !
 ! A12   A(6,4,7)              120.0165         estimate D2E/DX2                !
 ! A13   A(3,5,8)              120.4209         estimate D2E/DX2                !
 ! A14   A(3,5,9)              119.8434         estimate D2E/DX2                !
 ! A15   A(8,5,9)              119.7356         estimate D2E/DX2                !
 ! A16   A(4,6,10)             120.1461         estimate D2E/DX2                !
 ! A17   A(4,6,11)             119.8294         estimate D2E/DX2                !
 ! A18   A(10,6,11)            120.0245         estimate D2E/DX2                !
 ! A19   A(5,8,10)             120.2604         estimate D2E/DX2                !
 ! A20   A(5,8,12)             119.7006         estimate D2E/DX2                !
 ! A21   A(10,8,12)            120.0389         estimate D2E/DX2                !
 ! A22   A(6,10,8)             119.6866         estimate D2E/DX2                !
 ! A23   A(6,10,13)            120.1291         estimate D2E/DX2                !
 ! A24   A(8,10,13)            120.1844         estimate D2E/DX2                !
 ! A25   A(1,14,15)            121.6211         estimate D2E/DX2                !
 ! A26   A(1,14,16)            119.2352         estimate D2E/DX2                !
 ! A27   A(15,14,16)           119.1424         estimate D2E/DX2                !
 ! A28   A(14,15,17)           120.4452         estimate D2E/DX2                !
 ! A29   A(14,15,18)           119.0359         estimate D2E/DX2                !
 ! A30   A(17,15,18)           120.5124         estimate D2E/DX2                !
 ! A31   A(14,16,19)           120.3114         estimate D2E/DX2                !
 ! A32   A(14,16,20)           120.0155         estimate D2E/DX2                !
 ! A33   A(19,16,20)           119.6731         estimate D2E/DX2                !
 ! A34   A(15,17,21)           120.1065         estimate D2E/DX2                !
 ! A35   A(15,17,22)           119.8362         estimate D2E/DX2                !
 ! A36   A(21,17,22)           120.0572         estimate D2E/DX2                !
 ! A37   A(16,19,21)           120.1988         estimate D2E/DX2                !
 ! A38   A(16,19,23)           119.8051         estimate D2E/DX2                !
 ! A39   A(21,19,23)           119.9961         estimate D2E/DX2                !
 ! A40   A(17,21,19)           119.7955         estimate D2E/DX2                !
 ! A41   A(17,21,24)           120.0929         estimate D2E/DX2                !
 ! A42   A(19,21,24)           120.1115         estimate D2E/DX2                !
 ! A43   A(1,25,26)            119.4418         estimate D2E/DX2                !
 ! A44   A(1,25,27)            121.3303         estimate D2E/DX2                !
 ! A45   A(26,25,27)           119.2279         estimate D2E/DX2                !
 ! A46   A(25,26,28)           120.2573         estimate D2E/DX2                !
 ! A47   A(25,26,29)           120.0384         estimate D2E/DX2                !
 ! A48   A(28,26,29)           119.7043         estimate D2E/DX2                !
 ! A49   A(25,27,30)           120.4059         estimate D2E/DX2                !
 ! A50   A(25,27,31)           119.0443         estimate D2E/DX2                !
 ! A51   A(30,27,31)           120.5415         estimate D2E/DX2                !
 ! A52   A(26,28,32)           120.1976         estimate D2E/DX2                !
 ! A53   A(26,28,33)           119.8103         estimate D2E/DX2                !
 ! A54   A(32,28,33)           119.9921         estimate D2E/DX2                !
 ! A55   A(27,30,32)           120.0932         estimate D2E/DX2                !
 ! A56   A(27,30,34)           119.8537         estimate D2E/DX2                !
 ! A57   A(32,30,34)           120.053          estimate D2E/DX2                !
 ! A58   A(28,32,30)           119.8172         estimate D2E/DX2                !
 ! A59   A(28,32,35)           120.0963         estimate D2E/DX2                !
 ! A60   A(30,32,35)           120.0864         estimate D2E/DX2                !
 ! D1    D(2,1,3,4)            -73.3981         estimate D2E/DX2                !
 ! D2    D(2,1,3,5)            103.3292         estimate D2E/DX2                !
 ! D3    D(14,1,3,4)           169.274          estimate D2E/DX2                !
 ! D4    D(14,1,3,5)           -13.9987         estimate D2E/DX2                !
 ! D5    D(25,1,3,4)            43.2545         estimate D2E/DX2                !
 ! D6    D(25,1,3,5)          -140.0181         estimate D2E/DX2                !
 ! D7    D(2,1,14,15)         -178.9932         estimate D2E/DX2                !
 ! D8    D(2,1,14,16)            1.4179         estimate D2E/DX2                !
 ! D9    D(3,1,14,15)          -63.37           estimate D2E/DX2                !
 ! D10   D(3,1,14,16)          117.0411         estimate D2E/DX2                !
 ! D11   D(25,1,14,15)          63.4645         estimate D2E/DX2                !
 ! D12   D(25,1,14,16)        -116.1244         estimate D2E/DX2                !
 ! D13   D(2,1,25,26)           -6.0498         estimate D2E/DX2                !
 ! D14   D(2,1,25,27)          173.9203         estimate D2E/DX2                !
 ! D15   D(3,1,25,26)         -120.7055         estimate D2E/DX2                !
 ! D16   D(3,1,25,27)           59.2646         estimate D2E/DX2                !
 ! D17   D(14,1,25,26)         111.2804         estimate D2E/DX2                !
 ! D18   D(14,1,25,27)         -68.7495         estimate D2E/DX2                !
 ! D19   D(1,3,4,6)            177.1981         estimate D2E/DX2                !
 ! D20   D(1,3,4,7)             -3.0902         estimate D2E/DX2                !
 ! D21   D(5,3,4,6)              0.3723         estimate D2E/DX2                !
 ! D22   D(5,3,4,7)           -179.916          estimate D2E/DX2                !
 ! D23   D(1,3,5,8)           -177.0254         estimate D2E/DX2                !
 ! D24   D(1,3,5,9)              3.0903         estimate D2E/DX2                !
 ! D25   D(4,3,5,8)             -0.2973         estimate D2E/DX2                !
 ! D26   D(4,3,5,9)            179.8184         estimate D2E/DX2                !
 ! D27   D(3,4,6,10)            -0.2216         estimate D2E/DX2                !
 ! D28   D(3,4,6,11)           179.83           estimate D2E/DX2                !
 ! D29   D(7,4,6,10)          -179.9318         estimate D2E/DX2                !
 ! D30   D(7,4,6,11)             0.1198         estimate D2E/DX2                !
 ! D31   D(3,5,8,10)             0.072          estimate D2E/DX2                !
 ! D32   D(3,5,8,12)          -179.9926         estimate D2E/DX2                !
 ! D33   D(9,5,8,10)           179.9565         estimate D2E/DX2                !
 ! D34   D(9,5,8,12)            -0.1081         estimate D2E/DX2                !
 ! D35   D(4,6,10,8)            -0.0089         estimate D2E/DX2                !
 ! D36   D(4,6,10,13)         -179.9647         estimate D2E/DX2                !
 ! D37   D(11,6,10,8)          179.9395         estimate D2E/DX2                !
 ! D38   D(11,6,10,13)          -0.0164         estimate D2E/DX2                !
 ! D39   D(5,8,10,6)             0.0835         estimate D2E/DX2                !
 ! D40   D(5,8,10,13)         -179.9607         estimate D2E/DX2                !
 ! D41   D(12,8,10,6)         -179.8517         estimate D2E/DX2                !
 ! D42   D(12,8,10,13)           0.1041         estimate D2E/DX2                !
 ! D43   D(1,14,15,17)        -179.7134         estimate D2E/DX2                !
 ! D44   D(1,14,15,18)          -0.6377         estimate D2E/DX2                !
 ! D45   D(16,14,15,17)         -0.1241         estimate D2E/DX2                !
 ! D46   D(16,14,15,18)        178.9515         estimate D2E/DX2                !
 ! D47   D(1,14,16,19)         179.692          estimate D2E/DX2                !
 ! D48   D(1,14,16,20)          -0.2825         estimate D2E/DX2                !
 ! D49   D(15,14,16,19)          0.0928         estimate D2E/DX2                !
 ! D50   D(15,14,16,20)       -179.8817         estimate D2E/DX2                !
 ! D51   D(14,15,17,21)          0.0338         estimate D2E/DX2                !
 ! D52   D(14,15,17,22)        179.9296         estimate D2E/DX2                !
 ! D53   D(18,15,17,21)       -179.0281         estimate D2E/DX2                !
 ! D54   D(18,15,17,22)          0.8677         estimate D2E/DX2                !
 ! D55   D(14,16,19,21)          0.0288         estimate D2E/DX2                !
 ! D56   D(14,16,19,23)       -179.9477         estimate D2E/DX2                !
 ! D57   D(20,16,19,21)       -179.9966         estimate D2E/DX2                !
 ! D58   D(20,16,19,23)          0.0269         estimate D2E/DX2                !
 ! D59   D(15,17,21,19)          0.0889         estimate D2E/DX2                !
 ! D60   D(15,17,21,24)        179.9855         estimate D2E/DX2                !
 ! D61   D(22,17,21,19)       -179.8066         estimate D2E/DX2                !
 ! D62   D(22,17,21,24)          0.09           estimate D2E/DX2                !
 ! D63   D(16,19,21,17)         -0.1201         estimate D2E/DX2                !
 ! D64   D(16,19,21,24)        179.9833         estimate D2E/DX2                !
 ! D65   D(23,19,21,17)        179.8563         estimate D2E/DX2                !
 ! D66   D(23,19,21,24)         -0.0403         estimate D2E/DX2                !
 ! D67   D(1,25,26,28)         179.7665         estimate D2E/DX2                !
 ! D68   D(1,25,26,29)          -0.2869         estimate D2E/DX2                !
 ! D69   D(27,25,26,28)         -0.2042         estimate D2E/DX2                !
 ! D70   D(27,25,26,29)        179.7424         estimate D2E/DX2                !
 ! D71   D(1,25,27,30)        -179.6631         estimate D2E/DX2                !
 ! D72   D(1,25,27,31)           1.3746         estimate D2E/DX2                !
 ! D73   D(26,25,27,30)          0.3071         estimate D2E/DX2                !
 ! D74   D(26,25,27,31)       -178.6553         estimate D2E/DX2                !
 ! D75   D(25,26,28,32)         -0.0627         estimate D2E/DX2                !
 ! D76   D(25,26,28,33)        179.9525         estimate D2E/DX2                !
 ! D77   D(29,26,28,32)        179.9906         estimate D2E/DX2                !
 ! D78   D(29,26,28,33)          0.0057         estimate D2E/DX2                !
 ! D79   D(25,27,30,32)         -0.1429         estimate D2E/DX2                !
 ! D80   D(25,27,30,34)        179.9396         estimate D2E/DX2                !
 ! D81   D(31,27,30,32)        178.8038         estimate D2E/DX2                !
 ! D82   D(31,27,30,34)         -1.1137         estimate D2E/DX2                !
 ! D83   D(26,28,32,30)          0.2292         estimate D2E/DX2                !
 ! D84   D(26,28,32,35)       -179.88           estimate D2E/DX2                !
 ! D85   D(33,28,32,30)       -179.786          estimate D2E/DX2                !
 ! D86   D(33,28,32,35)          0.1048         estimate D2E/DX2                !
 ! D87   D(27,30,32,28)         -0.1266         estimate D2E/DX2                !
 ! D88   D(27,30,32,35)        179.9825         estimate D2E/DX2                !
 ! D89   D(34,30,32,28)        179.7907         estimate D2E/DX2                !
 ! D90   D(34,30,32,35)         -0.1002         estimate D2E/DX2                !
 --------------------------------------------------------------------------------
 Trust Radius=3.00D-01 FncErr=1.00D-07 GrdErr=1.00D-07
 Number of steps in this run= 197 maximum allowed number of steps= 210.
 GradGradGradGradGradGradGradGradGradGradGradGradGradGradGradGradGradGrad

                          Input orientation:                          
 ---------------------------------------------------------------------
 Center     Atomic      Atomic             Coordinates (Angstroms)
 Number     Number       Type             X           Y           Z
 ---------------------------------------------------------------------
      1          6           0       -0.074550   -0.054926   -0.771620
      2          1           0       -0.183747   -0.096399   -1.888499
      3          6           0       -1.487107    0.054211   -0.253099
      4          6           0       -2.171055    1.265553   -0.398362
      5          6           0       -2.154411   -1.035777    0.306167
      6          6           0       -3.491644    1.383603    0.014957
      7          1           0       -1.654693    2.127426   -0.838351
      8          6           0       -3.477576   -0.915817    0.718053
      9          1           0       -1.632396   -1.993781    0.424047
     10          6           0       -4.148801    0.292462    0.574735
     11          1           0       -4.015486    2.337888   -0.101477
     12          1           0       -3.989926   -1.778904    1.155595
     13          1           0       -5.189791    0.385649    0.899863
     14          6           0        0.643748   -1.307995   -0.336348
     15          6           0        0.915658   -1.566379    1.009137
     16          6           0        1.054918   -2.229049   -1.302402
     17          6           0        1.584176   -2.725783    1.382245
     18          1           0        0.606090   -0.830560    1.767956
     19          6           0        1.724525   -3.388613   -0.926631
     20          1           0        0.850660   -2.039648   -2.362871
     21          6           0        1.989156   -3.639773    0.414882
     22          1           0        1.793139   -2.917734    2.439613
     23          1           0        2.043869   -4.104599   -1.690936
     24          1           0        2.516069   -4.553069    0.709078
     25          6           0        0.746092    1.165306   -0.429122
     26          6           0        1.315715    1.919948   -1.456713
     27          6           0        0.947422    1.556366    0.896252
     28          6           0        2.070660    3.049756   -1.160752
     29          1           0        1.169685    1.622582   -2.501826
     30          6           0        1.700294    2.686722    1.189279
     31          1           0        0.515745    0.946714    1.704790
     32          6           0        2.262254    3.436311    0.161004
     33          1           0        2.514587    3.635648   -1.972170
     34          1           0        1.851560    2.985630    2.231541
     35          1           0        2.855161    4.327029    0.391986
 ---------------------------------------------------------------------
                    Distance matrix (angstroms):
                    1          2          3          4          5
     1  C    0.000000
     2  H    1.122971   0.000000
     3  C    1.508673   2.096655   0.000000
     4  C    2.505658   2.832811   1.398655   0.000000
     5  C    2.539590   3.095562   1.395044   2.406814   0.000000
     6  C    3.790066   4.093377   2.420187   1.388785   2.779639
     7  H    2.695175   2.865640   2.160746   1.096834   3.400807
     8  C    3.813246   4.279587   2.417862   2.777004   1.390973
     9  H    2.759649   3.323629   2.161922   3.404375   1.097346
    10  C    4.304982   4.684056   2.797621   2.409420   2.411210
    11  H    4.658930   4.878670   3.410406   2.154058   3.874453
    12  H    4.692167   5.155999   3.407174   3.871924   2.154734
    13  H    5.399412   5.750461   3.892176   3.401821   3.403888
    14  C    1.508508   2.135857   2.530431   3.814461   2.883856
    15  C    2.536946   3.430135   3.161144   4.419127   3.193905
    16  C    2.506838   2.534954   3.574381   4.841119   3.783013
    17  C    3.811034   4.553787   4.453706   5.762212   4.241592
    18  H    2.741227   3.812151   3.041210   4.098677   3.130385
    19  C    3.791328   3.924967   4.756182   6.092280   4.701253
    20  H    2.706882   2.251941   3.781605   4.890236   4.142701
    21  C    4.303231   4.752112   5.116261   6.483128   4.895076
    22  H    4.689983   5.531777   5.181039   6.424081   4.865851
    23  H    4.661834   4.589877   5.641886   6.948012   5.570606
    24  H    5.397876   5.822226   6.178854   7.553272   5.860638
    25  C    1.509875   2.141561   2.500539   2.919031   3.714611
    26  C    2.510441   2.549605   3.575678   3.702149   4.887313
    27  C    2.534262   3.430163   3.082923   3.389026   4.085190
    28  C    3.793732   3.938307   4.738653   4.664415   6.057612
    29  H    2.712151   2.272190   3.817735   3.963909   5.099148
    30  C    3.809438   4.557202   4.378366   4.419011   5.430988
    31  H    2.735751   3.806455   2.939610   3.426923   3.607790
    32  C    4.303391   4.760612   5.066339   4.967827   6.287096
    33  H    4.665328   4.606103   5.638745   5.481739   6.986600
    34  H    4.687628   5.533183   5.090516   5.104555   5.993879
    35  H    5.398029   5.831149   6.126043   5.938025   7.339133
                    6          7          8          9         10
     6  C    0.000000
     7  H    2.157729   0.000000
     8  C    2.404553   3.873838   0.000000
     9  H    3.876968   4.310278   2.157113   0.000000
    10  C    1.391329   3.403598   1.389611   3.403220   0.000000
    11  H    1.094818   2.482059   3.398172   4.971785   2.158426
    12  H    3.398646   4.968757   1.094927   2.477757   2.157127
    13  H    2.159322   4.307214   2.158367   4.306175   1.094556
    14  C    4.946674   4.163767   4.272105   2.495864   5.134205
    15  C    5.395840   4.864577   4.450669   2.649071   5.412276
    16  C    5.954654   5.151331   5.133256   3.202754   6.079502
    17  C    6.672367   6.242993   5.416499   3.435157   6.529081
    18  H    4.976640   4.544629   4.217332   2.858320   5.029308
    19  C    7.132254   6.469435   5.990122   3.877990   7.092275
    20  H    6.018996   5.095631   5.430351   3.732905   6.250029
    21  C    7.445362   6.936052   6.115310   3.978067   7.291265
    22  H    7.232522   6.934423   5.895071   4.080500   7.006409
    23  H    7.979495   7.296876   6.816004   4.737471   7.925690
    24  H    8.474579   8.026133   7.010953   4.882721   8.241220
    25  C    4.266528   2.618570   4.846282   4.045359   5.072431
    26  C    5.056103   3.041175   5.978863   5.248418   6.052803
    27  C    4.529000   3.178987   5.071889   4.413840   5.260449
    28  C    5.924321   3.851349   7.073797   6.454570   7.021131
    29  H    5.302763   3.316493   6.197429   5.430513   6.286552
    30  C    5.480270   3.959801   6.325399   5.796508   6.349965
    31  H    4.370992   3.545765   4.515449   3.860222   4.843868
    32  C    6.110833   4.249043   7.224747   6.687555   7.152383
    33  H    6.715295   4.576371   7.991192   7.391197   7.878093
    34  H    6.002463   4.738625   6.775812   6.340309   6.782514
    35  H    7.006272   5.166311   8.227838   7.751892   8.084963
                   11         12         13         14         15
    11  H    0.000000
    12  H    4.304517   0.000000
    13  H    2.488556   2.488045   0.000000
    14  C    5.920818   4.890663   6.198937   0.000000
    15  C    6.386934   4.912368   6.410838   1.396791   0.000000
    16  C    6.928789   5.629815   7.119199   1.396661   2.408679
    17  C    7.694050   5.658494   7.469961   2.418282   1.389369
    18  H    5.907013   4.732621   5.985397   2.158114   1.101393
    19  C    8.149933   6.291404   8.086340   2.417743   2.778849
    20  H    6.925034   5.989896   7.281108   2.164469   3.405678
    21  C    8.488509   6.305625   8.244787   2.794934   2.409254
    22  H    8.235218   6.032368   7.876831   3.408565   2.154622
    23  H    8.985978   7.065286   8.899460   3.408261   3.873734
    24  H    9.529087   7.086842   9.154650   3.889603   3.401717
    25  C    4.914765   5.797376   6.132599   2.477155   3.091835
    26  C    5.516615   6.975348   7.087251   3.482294   4.288932
    27  C    5.122177   5.963950   6.247878   3.133063   3.124946
    28  C    6.218520   8.087776   8.003608   4.658939   5.229833
    29  H    5.758414   7.181115   7.317405   3.681601   4.749828
    30  C    5.870082   7.233363   7.269935   4.404723   4.328622
    31  H    5.072476   5.294495   5.789286   3.044066   2.638086
    32  C    6.378514   8.202282   8.086125   5.037396   5.249720
    33  H    6.915600   9.022692   8.841295   5.533133   6.205308
    34  H    6.347028   7.614552   7.623247   5.146657   4.805306
    35  H    7.169796   9.204387   8.972941   6.097074   6.234966
                   16         17         18         19         20
    16  C    0.000000
    17  C    2.781041   0.000000
    18  H    3.403573   2.167325   0.000000
    19  C    1.390743   2.406231   3.880120   0.000000
    20  H    1.096443   3.877463   4.311083   2.155489   0.000000
    21  C    2.410811   1.391107   3.411064   1.390240   3.401835
    22  H    3.875814   1.094777   2.493291   3.399710   4.972238
    23  H    2.155614   3.399543   4.974985   1.094888   2.477755
    24  H    3.403246   2.158832   4.315822   2.158250   4.304387
    25  C    3.518471   4.373101   2.971571   4.684338   3.744603
    26  C    4.160048   5.451107   4.297365   5.350601   4.088496
    27  C    4.378927   4.356426   2.563941   5.327251   4.854128
    28  C    5.377507   6.329325   5.077317   6.451916   5.369872
    29  H    4.035697   5.845177   4.956469   5.282155   3.678725
    30  C    5.548854   5.417188   3.728729   6.433300   5.973124
    31  H    4.406742   3.838334   1.780689   5.213500   5.057310
    32  C    5.974573   6.318435   4.850913   6.931933   6.192630
    33  H    6.080616   7.251591   6.130083   7.145460   5.927081
    34  H    6.349509   5.780401   4.040967   7.114855   6.882139
    35  H    7.006710   7.234513   5.792438   7.908743   7.220931
                   21         22         23         24         25
    21  C    0.000000
    22  H    2.158541   0.000000
    23  H    2.157203   4.304991   0.000000
    24  H    1.094668   2.488313   2.486798   0.000000
    25  C    5.034514   5.098741   5.572100   6.093286   0.000000
    26  C    5.904819   6.229964   6.072910   6.930473   1.396388
    27  C    5.321352   4.807782   6.319989   6.310380   1.396452
    28  C    6.873068   6.974997   7.174024   7.842042   2.416799
    29  H    6.072158   6.739509   5.849987   7.089522   2.164402
    30  C    6.380256   5.742985   7.384830   7.301415   2.417525
    31  H    4.987049   4.135898   6.275498   5.936359   2.157411
    32  C    7.085902   6.766536   7.768057   8.012179   2.793646
    33  H    7.675014   7.932914   7.759645   8.616507   3.407516
    34  H    6.871328   5.907318   8.105193   7.719550   3.408045
    35  H    8.013764   7.603108   8.722908   8.892226   3.888301
                   26         27         28         29         30
    26  C    0.000000
    27  C    2.409206   0.000000
    28  C    1.390684   2.779054   0.000000
    29  H    1.096363   3.405983   2.155704   0.000000
    30  C    2.781567   1.389382   2.406576   3.877911   0.000000
    31  H    3.403269   1.100798   3.879676   4.310459   2.167149
    32  C    2.410872   2.409059   1.390386   3.402056   1.391054
    33  H    2.155601   3.873921   1.094870   2.478252   3.399749
    34  H    3.876342   2.154822   3.399967   4.972688   1.094778
    35  H    3.403179   3.401518   2.158209   4.304534   2.158704
                   31         32         33         34         35
    31  H    0.000000
    32  C    3.410523   0.000000
    33  H    4.974513   2.157276   0.000000
    34  H    2.493802   2.158450   4.305034   0.000000
    35  H    4.315421   1.094655   2.486611   2.488078   0.000000
 Stoichiometry    C19H16
 Framework group  C1[X(C19H16)]
 Deg. of freedom    99
 Full point group                 C1      NOp   1
 Largest Abelian subgroup         C1      NOp   1
 Largest concise Abelian subgroup C1      NOp   1
                         Standard orientation:                         
 ---------------------------------------------------------------------
 Center     Atomic      Atomic             Coordinates (Angstroms)
 Number     Number       Type             X           Y           Z
 ---------------------------------------------------------------------
      1          6           0       -0.006842    0.013228   -0.762613
      2          1           0        0.017729    0.021360   -1.885285
      3          6           0        0.606208    1.330755   -0.357169
      4          6           0        1.987269    1.506074   -0.491961
      5          6           0       -0.170992    2.401635    0.084786
      6          6           0        2.576739    2.725038   -0.183132
      7          1           0        2.605943    0.669973   -0.840132
      8          6           0        0.421233    3.622145    0.392082
      9          1           0       -1.256297    2.280757    0.192813
     10          6           0        1.794705    3.786999    0.260106
     11          1           0        3.659234    2.849108   -0.290073
     12          1           0       -0.200002    4.454741    0.738081
     13          1           0        2.259506    4.747766    0.502878
     14          6           0       -1.445265   -0.150527   -0.338680
     15          6           0       -1.813188   -0.177306    1.008518
     16          6           0       -2.433209   -0.287278   -1.316395
     17          6           0       -3.144935   -0.335309    1.371602
     18          1           0       -1.030659   -0.086813    1.778275
     19          6           0       -3.765561   -0.445972   -0.950579
     20          1           0       -2.160176   -0.270256   -2.378163
     21          6           0       -4.124003   -0.469046    0.392460
     22          1           0       -3.422013   -0.356051    2.430533
     23          1           0       -4.533170   -0.553307   -1.723906
     24          1           0       -5.173176   -0.593760    0.678784
     25          6           0        0.816307   -1.159966   -0.287467
     26          6           0        1.327637   -2.062972   -1.221822
     27          6           0        1.078173   -1.361204    1.069371
     28          6           0        2.092024   -3.146756   -0.803341
     29          1           0        1.126659   -1.920096   -2.290095
     30          6           0        1.843895   -2.443553    1.484791
     31          1           0        0.654987   -0.660165    1.805043
     32          6           0        2.353378   -3.337684    0.548848
     33          1           0        2.488668   -3.850709   -1.542167
     34          1           0        2.044428   -2.592117    2.550743
     35          1           0        2.956894   -4.190238    0.876246
 ---------------------------------------------------------------------
 Rotational constants (GHZ):      0.4026053      0.3846258      0.2322159
 Standard basis: 6-311G (5D, 7F)
 There are   295 symmetry adapted basis functions of A   symmetry.
 Integral buffers will be    262144 words long.
 Raffenetti 1 integral format.
 Two-electron integral symmetry is turned on.
   295 basis functions,   574 primitive gaussians,   295 cartesian basis functions
    65 alpha electrons       65 beta electrons
       nuclear repulsion energy      1290.9390590677 Hartrees.
 NAtoms=   35 NActive=   35 NUniq=   35 SFac= 7.50D-01 NAtFMM=   80 NAOKFM=F Big=F
 One-electron integrals computed using PRISM.
 PrsmSu:  requested number of processors reduced to:  10 ShMem   1 Linda.
 NBasis=   295 RedAO= T  NBF=   295
 NBsUse=   295 1.00D-06 NBFU=   295
 Harris functional with IExCor=  205 diagonalized for initial guess.
 ExpMin= 1.03D-01 ExpMax= 4.56D+03 ExpMxC= 6.82D+02 IAcc=1 IRadAn=         1 AccDes= 0.00D+00
 HarFok:  IExCor=  205 AccDes= 0.00D+00 IRadAn=         1 IDoV= 1
 ScaDFX=  1.000000  1.000000  1.000000  1.000000
 FoFCou: FMM=F IPFlag=           0 FMFlag=      100000 FMFlg1=           0
         NFxFlg=           0 DoJE=T BraDBF=F KetDBF=T FulRan=T
         Omega=  0.000000  0.000000  1.000000  0.000000  0.000000 ICntrl=     500 IOpCl=  0
         NMat0=    1 NMatS0=    1 NMatT0=    0 NMatD0=    1 NMtDS0=    0 NMtDT0=    0
         I1Cent=           4 NGrid=           0.
 Petite list used in FoFCou.
 Initial guess orbital symmetries:
       Occupied  (A) (A) (A) (A) (A) (A) (A) (A) (A) (A) (A) (A)
                 (A) (A) (A) (A) (A) (A) (A) (A) (A) (A) (A) (A)
                 (A) (A) (A) (A) (A) (A) (A) (A) (A) (A) (A) (A)
                 (A) (A) (A) (A) (A) (A) (A) (A) (A) (A) (A) (A)
                 (A) (A) (A) (A) (A) (A) (A) (A) (A) (A) (A) (A)
                 (A) (A) (A) (A) (A)
       Virtual   (A) (A) (A) (A) (A) (A) (A) (A) (A) (A) (A) (A)
                 (A) (A) (A) (A) (A) (A) (A) (A) (A) (A) (A) (A)
                 (A) (A) (A) (A) (A) (A) (A) (A) (A) (A) (A) (A)
                 (A) (A) (A) (A) (A) (A) (A) (A) (A) (A) (A) (A)
                 (A) (A) (A) (A) (A) (A) (A) (A) (A) (A) (A) (A)
                 (A) (A) (A) (A) (A) (A) (A) (A) (A) (A) (A) (A)
                 (A) (A) (A) (A) (A) (A) (A) (A) (A) (A) (A) (A)
                 (A) (A) (A) (A) (A) (A) (A) (A) (A) (A) (A) (A)
                 (A) (A) (A) (A) (A) (A) (A) (A) (A) (A) (A) (A)
                 (A) (A) (A) (A) (A) (A) (A) (A) (A) (A) (A) (A)
                 (A) (A) (A) (A) (A) (A) (A) (A) (A) (A) (A) (A)
                 (A) (A) (A) (A) (A) (A) (A) (A) (A) (A) (A) (A)
                 (A) (A) (A) (A) (A) (A) (A) (A) (A) (A) (A) (A)
                 (A) (A) (A) (A) (A) (A) (A) (A) (A) (A) (A) (A)
                 (A) (A) (A) (A) (A) (A) (A) (A) (A) (A) (A) (A)
                 (A) (A) (A) (A) (A) (A) (A) (A) (A) (A) (A) (A)
                 (A) (A) (A) (A) (A) (A) (A) (A) (A) (A) (A) (A)
                 (A) (A) (A) (A) (A) (A) (A) (A) (A) (A) (A) (A)
                 (A) (A) (A) (A) (A) (A) (A) (A) (A) (A) (A) (A)
                 (A) (A)
 The electronic state of the initial guess is 1-A.
 Requested convergence on RMS density matrix=1.00D-08 within 128 cycles.
 Requested convergence on MAX density matrix=1.00D-06.
 Requested convergence on             energy=1.00D-06.
 No special actions if energy rises.
 Integral accuracy reduced to 1.0D-05 until final iterations.
 Initial convergence to 1.0D-05 achieved.  Increase integral accuracy.
 SCF Done:  E(RHF) =  -728.672538174     A.U. after   14 cycles
             Convg  =    0.8996D-08             -V/T =  2.0001

 **********************************************************************

            Population analysis using the SCF density.

 **********************************************************************

 Orbital symmetries:
       Occupied  (A) (A) (A) (A) (A) (A) (A) (A) (A) (A) (A) (A)
                 (A) (A) (A) (A) (A) (A) (A) (A) (A) (A) (A) (A)
                 (A) (A) (A) (A) (A) (A) (A) (A) (A) (A) (A) (A)
                 (A) (A) (A) (A) (A) (A) (A) (A) (A) (A) (A) (A)
                 (A) (A) (A) (A) (A) (A) (A) (A) (A) (A) (A) (A)
                 (A) (A) (A) (A) (A)
       Virtual   (A) (A) (A) (A) (A) (A) (A) (A) (A) (A) (A) (A)
                 (A) (A) (A) (A) (A) (A) (A) (A) (A) (A) (A) (A)
                 (A) (A) (A) (A) (A) (A) (A) (A) (A) (A) (A) (A)
                 (A) (A) (A) (A) (A) (A) (A) (A) (A) (A) (A) (A)
                 (A) (A) (A) (A) (A) (A) (A) (A) (A) (A) (A) (A)
                 (A) (A) (A) (A) (A) (A) (A) (A) (A) (A) (A) (A)
                 (A) (A) (A) (A) (A) (A) (A) (A) (A) (A) (A) (A)
                 (A) (A) (A) (A) (A) (A) (A) (A) (A) (A) (A) (A)
                 (A) (A) (A) (A) (A) (A) (A) (A) (A) (A) (A) (A)
                 (A) (A) (A) (A) (A) (A) (A) (A) (A) (A) (A) (A)
                 (A) (A) (A) (A) (A) (A) (A) (A) (A) (A) (A) (A)
                 (A) (A) (A) (A) (A) (A) (A) (A) (A) (A) (A) (A)
                 (A) (A) (A) (A) (A) (A) (A) (A) (A) (A) (A) (A)
                 (A) (A) (A) (A) (A) (A) (A) (A) (A) (A) (A) (A)
                 (A) (A) (A) (A) (A) (A) (A) (A) (A) (A) (A) (A)
                 (A) (A) (A) (A) (A) (A) (A) (A) (A) (A) (A) (A)
                 (A) (A) (A) (A) (A) (A) (A) (A) (A) (A) (A) (A)
                 (A) (A) (A) (A) (A) (A) (A) (A) (A) (A) (A) (A)
                 (A) (A) (A) (A) (A) (A) (A) (A) (A) (A) (A) (A)
                 (A) (A)
 The electronic state is 1-A.
 Alpha  occ. eigenvalues --  -11.25754 -11.25219 -11.25182 -11.24901 -11.24512
 Alpha  occ. eigenvalues --  -11.24432 -11.24429 -11.24383 -11.24215 -11.24160
 Alpha  occ. eigenvalues --  -11.24134 -11.24134 -11.24080 -11.24050 -11.24011
 Alpha  occ. eigenvalues --  -11.23961 -11.23727 -11.23602 -11.23508  -1.18617
 Alpha  occ. eigenvalues --   -1.15872  -1.15564  -1.09025  -1.02368  -1.02246
 Alpha  occ. eigenvalues --   -1.01877  -1.01485  -1.01062  -0.92915  -0.84251
 Alpha  occ. eigenvalues --   -0.83394  -0.82289  -0.81963  -0.81092  -0.77572
 Alpha  occ. eigenvalues --   -0.70880  -0.70358  -0.68978  -0.65647  -0.63919
 Alpha  occ. eigenvalues --   -0.63626  -0.62525  -0.61685  -0.61545  -0.59735
 Alpha  occ. eigenvalues --   -0.58843  -0.58501  -0.58306  -0.56634  -0.55229
 Alpha  occ. eigenvalues --   -0.51723  -0.50888  -0.50183  -0.49884  -0.49371
 Alpha  occ. eigenvalues --   -0.48377  -0.48008  -0.47484  -0.46295  -0.35050
 Alpha  occ. eigenvalues --   -0.34313  -0.34020  -0.33308  -0.32386  -0.31550
 Alpha virt. eigenvalues --    0.11591   0.12307   0.12643   0.13400   0.15056
 Alpha virt. eigenvalues --    0.15197   0.15738   0.16237   0.16493   0.16894
 Alpha virt. eigenvalues --    0.18903   0.19179   0.19252   0.21210   0.21284
 Alpha virt. eigenvalues --    0.21615   0.23531   0.24075   0.24831   0.25387
 Alpha virt. eigenvalues --    0.26584   0.31805   0.33006   0.34194   0.35784
 Alpha virt. eigenvalues --    0.37736   0.39563   0.40681   0.41467   0.43040
 Alpha virt. eigenvalues --    0.44103   0.44431   0.45023   0.45400   0.45545
 Alpha virt. eigenvalues --    0.45940   0.46767   0.47275   0.47772   0.50584
 Alpha virt. eigenvalues --    0.51070   0.51371   0.52423   0.55020   0.56193
 Alpha virt. eigenvalues --    0.57185   0.57811   0.58530   0.58742   0.59370
 Alpha virt. eigenvalues --    0.60330   0.60518   0.60698   0.61107   0.61529
 Alpha virt. eigenvalues --    0.61993   0.62118   0.62886   0.63093   0.63572
 Alpha virt. eigenvalues --    0.64233   0.64708   0.65224   0.65950   0.66344
 Alpha virt. eigenvalues --    0.67323   0.67861   0.68628   0.69768   0.72285
 Alpha virt. eigenvalues --    0.73056   0.73829   0.74848   0.75387   0.75741
 Alpha virt. eigenvalues --    0.76963   0.78785   0.79621   0.80074   0.81093
 Alpha virt. eigenvalues --    0.81481   0.82291   0.82473   0.82820   0.83439
 Alpha virt. eigenvalues --    0.83851   0.84397   0.84979   0.85177   0.85485
 Alpha virt. eigenvalues --    0.85819   0.86149   0.86647   0.87882   0.88072
 Alpha virt. eigenvalues --    0.89973   0.90783   0.92266   0.93586   0.95160
 Alpha virt. eigenvalues --    0.95838   0.96314   0.96903   0.98480   0.99813
 Alpha virt. eigenvalues --    1.00370   1.02477   1.03267   1.05166   1.06251
 Alpha virt. eigenvalues --    1.07152   1.07932   1.09510   1.09931   1.11061
 Alpha virt. eigenvalues --    1.11561   1.11888   1.12284   1.12979   1.13772
 Alpha virt. eigenvalues --    1.14987   1.16491   1.20017   1.20435   1.21907
 Alpha virt. eigenvalues --    1.23172   1.24773   1.27582   1.27877   1.29112
 Alpha virt. eigenvalues --    1.29503   1.31775   1.32560   1.47366   1.47956
 Alpha virt. eigenvalues --    1.51634   1.54509   1.56429   2.53449   2.55727
 Alpha virt. eigenvalues --    2.55910   2.57730   2.62102   2.62490   2.63807
 Alpha virt. eigenvalues --    2.66494   2.67086   2.68351   2.72428   2.74236
 Alpha virt. eigenvalues --    2.78397   2.83284   2.86952   2.92068   2.94322
 Alpha virt. eigenvalues --    2.94652   2.94749   2.96032   2.98310   2.98596
 Alpha virt. eigenvalues --    2.99809   3.02349   3.03906   3.04347   3.06836
 Alpha virt. eigenvalues --    3.08409   3.09396   3.09847   3.10103   3.13234
 Alpha virt. eigenvalues --    3.14998   3.15939   3.17817   3.18298   3.19581
 Alpha virt. eigenvalues --    3.21663   3.24046   3.24762   3.27775   3.28787
 Alpha virt. eigenvalues --    3.31672   3.33864   3.34513   3.35832   3.40544
 Alpha virt. eigenvalues --    3.41004   3.44156   3.44847   3.50129   3.52695
 Alpha virt. eigenvalues --    3.53584   3.56056   3.57912   3.58648   3.59339
 Alpha virt. eigenvalues --    3.62534   3.63832   3.65200   3.66211   3.67125
 Alpha virt. eigenvalues --    3.67752   3.69225   3.71283   3.71769   3.74710
 Alpha virt. eigenvalues --    3.77010   3.77466   3.78337   3.85780   3.88492
 Alpha virt. eigenvalues --    3.90829  24.26222  24.30003  24.31603  24.50563
 Alpha virt. eigenvalues --   24.50769  24.51072  24.52885  24.54639  24.56428
 Alpha virt. eigenvalues --   24.76013  24.77050  24.79116  24.80227  24.80844
 Alpha virt. eigenvalues --   24.83008  24.87712  25.04653  25.05785  25.07098
          Condensed to atoms (all electrons):
              1          2          3          4          5          6
     1  C    6.132563   0.470513   0.028178  -0.083313  -0.037822   0.009270
     2  H    0.470513   0.500335  -0.061582  -0.004288  -0.000022   0.000444
     3  C    0.028178  -0.061582   5.347685   0.473946   0.496263  -0.057317
     4  C   -0.083313  -0.004288   0.473946   5.128628  -0.085649   0.461365
     5  C   -0.037822  -0.000022   0.496263  -0.085649   5.104745  -0.030770
     6  C    0.009270   0.000444  -0.057317   0.461365  -0.030770   5.065824
     7  H   -0.005051  -0.000123  -0.043155   0.397126   0.004610  -0.035309
     8  C    0.012455  -0.000075  -0.066937  -0.033248   0.453960  -0.073402
     9  H   -0.011582  -0.000253  -0.035369   0.005010   0.394768  -0.000472
    10  C    0.000275   0.000043  -0.021013  -0.085347  -0.088926   0.481582
    11  H   -0.000357   0.000007   0.006143  -0.037996  -0.000418   0.396877
    12  H   -0.000364   0.000014   0.006446  -0.000401  -0.036931   0.005997
    13  H   -0.000014  -0.000002  -0.001445   0.007463   0.007619  -0.043074
    14  C    0.116330  -0.073467  -0.063906   0.011369  -0.013114  -0.000886
    15  C   -0.074206   0.004458   0.006370   0.001034  -0.018911  -0.000023
    16  C   -0.023287   0.006050  -0.000131  -0.000327   0.000936   0.000009
    17  C    0.003258  -0.000225   0.000504   0.000013  -0.001379   0.000000
    18  H    0.000076   0.000007   0.001769  -0.000044   0.001933  -0.000084
    19  C    0.008016   0.001434  -0.000725   0.000006   0.000287   0.000000
    20  H   -0.001891   0.002861   0.000467   0.000010   0.000131   0.000000
    21  C    0.001601   0.000008  -0.000059   0.000000   0.000175   0.000000
    22  H   -0.000371   0.000011   0.000022   0.000000  -0.000002   0.000000
    23  H   -0.000396  -0.000035   0.000021   0.000000  -0.000008   0.000000
    24  H   -0.000026  -0.000002   0.000002   0.000000  -0.000003   0.000000
    25  C    0.143266  -0.070136  -0.086697  -0.008995   0.003855  -0.001840
    26  C   -0.024226   0.002432  -0.001152   0.000510  -0.000446  -0.000052
    27  C   -0.059474   0.005164  -0.004587  -0.010928   0.001592  -0.000469
    28  C    0.006880   0.001518  -0.000440  -0.000066   0.000017   0.000013
    29  H   -0.000305   0.002492   0.000186   0.000269  -0.000028  -0.000008
    30  C    0.003568  -0.000252  -0.000448  -0.000414   0.000014  -0.000017
    31  H   -0.000196   0.000085   0.001311   0.000699  -0.000318   0.000134
    32  C    0.001292   0.000001   0.000018   0.000141  -0.000001   0.000002
    33  H   -0.000342  -0.000038   0.000011  -0.000003   0.000000   0.000000
    34  H   -0.000354   0.000011   0.000027   0.000013   0.000000   0.000000
    35  H   -0.000014  -0.000002   0.000001  -0.000001   0.000000   0.000000
              7          8          9         10         11         12
     1  C   -0.005051   0.012455  -0.011582   0.000275  -0.000357  -0.000364
     2  H   -0.000123  -0.000075  -0.000253   0.000043   0.000007   0.000014
     3  C   -0.043155  -0.066937  -0.035369  -0.021013   0.006143   0.006446
     4  C    0.397126  -0.033248   0.005010  -0.085347  -0.037996  -0.000401
     5  C    0.004610   0.453960   0.394768  -0.088926  -0.000418  -0.036931
     6  C   -0.035309  -0.073402  -0.000472   0.481582   0.396877   0.005997
     7  H    0.487017  -0.000488  -0.000190   0.005222  -0.003801   0.000017
     8  C   -0.000488   5.079002  -0.036644   0.493089   0.005977   0.395760
     9  H   -0.000190  -0.036644   0.478622   0.005107   0.000017  -0.003585
    10  C    0.005222   0.493089   0.005107   5.043301  -0.040878  -0.041249
    11  H   -0.003801   0.005977   0.000017  -0.040878   0.517474  -0.000213
    12  H    0.000017   0.395760  -0.003585  -0.041249  -0.000213   0.517770
    13  H   -0.000172  -0.042246  -0.000170   0.399468  -0.004403  -0.004451
    14  C    0.000754  -0.001867   0.001715   0.000131   0.000012   0.000057
    15  C   -0.000038  -0.001045  -0.000699  -0.000009   0.000000   0.000020
    16  C   -0.000007  -0.000104  -0.000802  -0.000004   0.000000   0.000003
    17  C    0.000000  -0.000040  -0.000025   0.000000   0.000000  -0.000001
    18  H    0.000023   0.000171   0.000148  -0.000002  -0.000001   0.000002
    19  C    0.000000   0.000006  -0.000127   0.000000   0.000000   0.000000
    20  H   -0.000001   0.000002   0.000116   0.000000   0.000000   0.000000
    21  C    0.000000   0.000004   0.000135   0.000000   0.000000  -0.000001
    22  H    0.000000  -0.000003   0.000029   0.000000   0.000000   0.000000
    23  H    0.000000   0.000000   0.000012   0.000000   0.000000   0.000000
    24  H    0.000000   0.000000   0.000010   0.000000   0.000000   0.000000
    25  C    0.004281  -0.000853   0.000477   0.000136   0.000021   0.000012
    26  C    0.001171   0.000007  -0.000015  -0.000003  -0.000003   0.000000
    27  C   -0.000681   0.000042   0.000027   0.000027   0.000014   0.000000
    28  C    0.000107   0.000000   0.000000   0.000000   0.000000   0.000000
    29  H    0.000195   0.000000   0.000001   0.000001   0.000000   0.000000
    30  C   -0.000319   0.000003   0.000001   0.000002   0.000002   0.000000
    31  H   -0.000010  -0.000145   0.000031  -0.000032   0.000004  -0.000001
    32  C   -0.000059   0.000000   0.000000   0.000000   0.000000   0.000000
    33  H    0.000009   0.000000   0.000000   0.000000   0.000000   0.000000
    34  H    0.000006   0.000000   0.000000   0.000000   0.000000   0.000000
    35  H    0.000002   0.000000   0.000000   0.000000   0.000000   0.000000
             13         14         15         16         17         18
     1  C   -0.000014   0.116330  -0.074206  -0.023287   0.003258   0.000076
     2  H   -0.000002  -0.073467   0.004458   0.006050  -0.000225   0.000007
     3  C   -0.001445  -0.063906   0.006370  -0.000131   0.000504   0.001769
     4  C    0.007463   0.011369   0.001034  -0.000327   0.000013  -0.000044
     5  C    0.007619  -0.013114  -0.018911   0.000936  -0.001379   0.001933
     6  C   -0.043074  -0.000886  -0.000023   0.000009   0.000000  -0.000084
     7  H   -0.000172   0.000754  -0.000038  -0.000007   0.000000   0.000023
     8  C   -0.042246  -0.001867  -0.001045  -0.000104  -0.000040   0.000171
     9  H   -0.000170   0.001715  -0.000699  -0.000802  -0.000025   0.000148
    10  C    0.399468   0.000131  -0.000009  -0.000004   0.000000  -0.000002
    11  H   -0.004403   0.000012   0.000000   0.000000   0.000000  -0.000001
    12  H   -0.004451   0.000057   0.000020   0.000003  -0.000001   0.000002
    13  H    0.519418   0.000001   0.000001   0.000000   0.000000   0.000000
    14  C    0.000001   5.401151   0.451439   0.495525  -0.061930  -0.046339
    15  C    0.000001   0.451439   5.091680  -0.064801   0.479780   0.386455
    16  C    0.000000   0.495525  -0.064801   5.055511  -0.033430   0.004580
    17  C    0.000000  -0.061930   0.479780  -0.033430   5.046116  -0.027677
    18  H    0.000000  -0.046339   0.386455   0.004580  -0.027677   0.497388
    19  C    0.000000  -0.076324  -0.029228   0.466366  -0.077576  -0.000097
    20  H    0.000000  -0.046502   0.004754   0.395374  -0.000289  -0.000272
    21  C    0.000000  -0.016557  -0.093291  -0.088904   0.490365   0.004616
    22  H    0.000000   0.005990  -0.038584  -0.000393   0.397054  -0.003382
    23  H    0.000000   0.006959  -0.000637  -0.039392   0.006255   0.000015
    24  H    0.000000  -0.001686   0.007996   0.007579  -0.043021  -0.000168
    25  C    0.000002  -0.145960  -0.003010  -0.004694   0.001942  -0.003827
    26  C    0.000000  -0.002672   0.000526   0.000630   0.000037  -0.000207
    27  C    0.000000  -0.002731  -0.011381   0.000774  -0.000114   0.001389
    28  C    0.000000  -0.000525   0.000116  -0.000017   0.000001  -0.000045
    29  H    0.000000   0.000305  -0.000010   0.000281  -0.000001   0.000001
    30  C    0.000000   0.001890  -0.000280   0.000028  -0.000101   0.001104
    31  H    0.000001  -0.003060  -0.000520  -0.000202   0.000935   0.001183
    32  C    0.000000  -0.000089  -0.000026  -0.000010   0.000001  -0.000004
    33  H    0.000000   0.000026   0.000000   0.000001   0.000000   0.000001
    34  H    0.000000   0.000029   0.000054   0.000001   0.000001  -0.000050
    35  H    0.000000  -0.000003   0.000000   0.000000   0.000000   0.000000
             19         20         21         22         23         24
     1  C    0.008016  -0.001891   0.001601  -0.000371  -0.000396  -0.000026
     2  H    0.001434   0.002861   0.000008   0.000011  -0.000035  -0.000002
     3  C   -0.000725   0.000467  -0.000059   0.000022   0.000021   0.000002
     4  C    0.000006   0.000010   0.000000   0.000000   0.000000   0.000000
     5  C    0.000287   0.000131   0.000175  -0.000002  -0.000008  -0.000003
     6  C    0.000000   0.000000   0.000000   0.000000   0.000000   0.000000
     7  H    0.000000  -0.000001   0.000000   0.000000   0.000000   0.000000
     8  C    0.000006   0.000002   0.000004  -0.000003   0.000000   0.000000
     9  H   -0.000127   0.000116   0.000135   0.000029   0.000012   0.000010
    10  C    0.000000   0.000000   0.000000   0.000000   0.000000   0.000000
    11  H    0.000000   0.000000   0.000000   0.000000   0.000000   0.000000
    12  H    0.000000   0.000000  -0.000001   0.000000   0.000000   0.000000
    13  H    0.000000   0.000000   0.000000   0.000000   0.000000   0.000000
    14  C   -0.076324  -0.046502  -0.016557   0.005990   0.006959  -0.001686
    15  C   -0.029228   0.004754  -0.093291  -0.038584  -0.000637   0.007996
    16  C    0.466366   0.395374  -0.088904  -0.000393  -0.039392   0.007579
    17  C   -0.077576  -0.000289   0.490365   0.397054   0.006255  -0.043021
    18  H   -0.000097  -0.000272   0.004616  -0.003382   0.000015  -0.000168
    19  C    5.048861  -0.033789   0.499920   0.005907   0.396354  -0.042556
    20  H   -0.033789   0.506847   0.005078   0.000025  -0.004076  -0.000178
    21  C    0.499920   0.005078   5.033330  -0.039786  -0.040926   0.399485
    22  H    0.005907   0.000025  -0.039786   0.514313  -0.000206  -0.004384
    23  H    0.396354  -0.004076  -0.040926  -0.000206   0.517895  -0.004556
    24  H   -0.042556  -0.000178   0.399485  -0.004384  -0.004556   0.516987
    25  C   -0.000565   0.000144  -0.000075   0.000030   0.000022  -0.000002
    26  C   -0.000013   0.000253  -0.000013   0.000001   0.000001   0.000000
    27  C    0.000063  -0.000024  -0.000010   0.000042   0.000000   0.000000
    28  C    0.000002  -0.000002   0.000000   0.000000   0.000000   0.000000
    29  H    0.000005   0.000077  -0.000001   0.000000   0.000000   0.000000
    30  C    0.000000   0.000000   0.000002   0.000000   0.000000   0.000000
    31  H   -0.000006  -0.000001  -0.000016  -0.000031   0.000001   0.000000
    32  C    0.000000  -0.000001   0.000000   0.000000   0.000000   0.000000
    33  H    0.000000   0.000000   0.000000   0.000000   0.000000   0.000000
    34  H    0.000000   0.000000   0.000000   0.000001   0.000000   0.000000
    35  H    0.000000   0.000000   0.000000   0.000000   0.000000   0.000000
             25         26         27         28         29         30
     1  C    0.143266  -0.024226  -0.059474   0.006880  -0.000305   0.003568
     2  H   -0.070136   0.002432   0.005164   0.001518   0.002492  -0.000252
     3  C   -0.086697  -0.001152  -0.004587  -0.000440   0.000186  -0.000448
     4  C   -0.008995   0.000510  -0.010928  -0.000066   0.000269  -0.000414
     5  C    0.003855  -0.000446   0.001592   0.000017  -0.000028   0.000014
     6  C   -0.001840  -0.000052  -0.000469   0.000013  -0.000008  -0.000017
     7  H    0.004281   0.001171  -0.000681   0.000107   0.000195  -0.000319
     8  C   -0.000853   0.000007   0.000042   0.000000   0.000000   0.000003
     9  H    0.000477  -0.000015   0.000027   0.000000   0.000001   0.000001
    10  C    0.000136  -0.000003   0.000027   0.000000   0.000001   0.000002
    11  H    0.000021  -0.000003   0.000014   0.000000   0.000000   0.000002
    12  H    0.000012   0.000000   0.000000   0.000000   0.000000   0.000000
    13  H    0.000002   0.000000   0.000000   0.000000   0.000000   0.000000
    14  C   -0.145960  -0.002672  -0.002731  -0.000525   0.000305   0.001890
    15  C   -0.003010   0.000526  -0.011381   0.000116  -0.000010  -0.000280
    16  C   -0.004694   0.000630   0.000774  -0.000017   0.000281   0.000028
    17  C    0.001942   0.000037  -0.000114   0.000001  -0.000001  -0.000101
    18  H   -0.003827  -0.000207   0.001389  -0.000045   0.000001   0.001104
    19  C   -0.000565  -0.000013   0.000063   0.000002   0.000005   0.000000
    20  H    0.000144   0.000253  -0.000024  -0.000002   0.000077   0.000000
    21  C   -0.000075  -0.000013  -0.000010   0.000000  -0.000001   0.000002
    22  H    0.000030   0.000001   0.000042   0.000000   0.000000   0.000000
    23  H    0.000022   0.000001   0.000000   0.000000   0.000000   0.000000
    24  H   -0.000002   0.000000   0.000000   0.000000   0.000000   0.000000
    25  C    5.398552   0.491606   0.450771  -0.074744  -0.050312  -0.057773
    26  C    0.491606   5.089275  -0.071979   0.455807   0.399979  -0.030813
    27  C    0.450771  -0.071979   5.065654  -0.026296   0.004383   0.478534
    28  C   -0.074744   0.455807  -0.026296   5.057606  -0.034569  -0.078885
    29  H   -0.050312   0.399979   0.004383  -0.034569   0.509038  -0.000281
    30  C   -0.057773  -0.030813   0.478534  -0.078885  -0.000281   5.042175
    31  H   -0.044253   0.004174   0.387982   0.000036  -0.000273  -0.028770
    32  C   -0.018680  -0.086841  -0.091687   0.498602   0.005206   0.490954
    33  H    0.006908  -0.039622  -0.000689   0.396861  -0.004184   0.006249
    34  H    0.006019  -0.000467  -0.038804   0.005951   0.000025   0.397254
    35  H   -0.001563   0.007501   0.007910  -0.042557  -0.000183  -0.042932
             31         32         33         34         35
     1  C   -0.000196   0.001292  -0.000342  -0.000354  -0.000014
     2  H    0.000085   0.000001  -0.000038   0.000011  -0.000002
     3  C    0.001311   0.000018   0.000011   0.000027   0.000001
     4  C    0.000699   0.000141  -0.000003   0.000013  -0.000001
     5  C   -0.000318  -0.000001   0.000000   0.000000   0.000000
     6  C    0.000134   0.000002   0.000000   0.000000   0.000000
     7  H   -0.000010  -0.000059   0.000009   0.000006   0.000002
     8  C   -0.000145   0.000000   0.000000   0.000000   0.000000
     9  H    0.000031   0.000000   0.000000   0.000000   0.000000
    10  C   -0.000032   0.000000   0.000000   0.000000   0.000000
    11  H    0.000004   0.000000   0.000000   0.000000   0.000000
    12  H   -0.000001   0.000000   0.000000   0.000000   0.000000
    13  H    0.000001   0.000000   0.000000   0.000000   0.000000
    14  C   -0.003060  -0.000089   0.000026   0.000029  -0.000003
    15  C   -0.000520  -0.000026   0.000000   0.000054   0.000000
    16  C   -0.000202  -0.000010   0.000001   0.000001   0.000000
    17  C    0.000935   0.000001   0.000000   0.000001   0.000000
    18  H    0.001183  -0.000004   0.000001  -0.000050   0.000000
    19  C   -0.000006   0.000000   0.000000   0.000000   0.000000
    20  H   -0.000001  -0.000001   0.000000   0.000000   0.000000
    21  C   -0.000016   0.000000   0.000000   0.000000   0.000000
    22  H   -0.000031   0.000000   0.000000   0.000001   0.000000
    23  H    0.000001   0.000000   0.000000   0.000000   0.000000
    24  H    0.000000   0.000000   0.000000   0.000000   0.000000
    25  C   -0.044253  -0.018680   0.006908   0.006019  -0.001563
    26  C    0.004174  -0.086841  -0.039622  -0.000467   0.007501
    27  C    0.387982  -0.091687  -0.000689  -0.038804   0.007910
    28  C    0.000036   0.498602   0.396861   0.005951  -0.042557
    29  H   -0.000273   0.005206  -0.004184   0.000025  -0.000183
    30  C   -0.028770   0.490954   0.006249   0.397254  -0.042932
    31  H    0.498122   0.004567   0.000014  -0.003321  -0.000174
    32  C    0.004567   5.034063  -0.040699  -0.039850   0.399626
    33  H    0.000014  -0.040699   0.518044  -0.000205  -0.004584
    34  H   -0.003321  -0.039850  -0.000205   0.514653  -0.004457
    35  H   -0.000174   0.399626  -0.004584  -0.004457   0.517354
 Mulliken atomic charges:
              1
     1  C   -0.613952
     2  H    0.212613
     3  C    0.075591
     4  C   -0.136582
     5  C   -0.156154
     6  C   -0.177795
     7  H    0.188863
     8  C   -0.183382
     9  H    0.203708
    10  C   -0.150922
    11  H    0.161520
    12  H    0.161098
    13  H    0.162003
    14  C    0.063933
    15  C   -0.097984
    16  C   -0.177145
    17  C   -0.180452
    18  H    0.181337
    19  C   -0.166221
    20  H    0.170885
    21  C   -0.155077
    22  H    0.163717
    23  H    0.162697
    24  H    0.164522
    25  C    0.065934
    26  C   -0.195388
    27  C   -0.084515
    28  C   -0.165370
    29  H    0.167712
    30  C   -0.180493
    31  H    0.182048
    32  C   -0.156526
    33  H    0.162241
    34  H    0.163462
    35  H    0.164074
 Sum of Mulliken atomic charges =   0.00000
 Mulliken charges with hydrogens summed into heavy atoms:
              1
     1  C   -0.401339
     3  C    0.075591
     4  C    0.052281
     5  C    0.047553
     6  C   -0.016275
     8  C   -0.022284
    10  C    0.011082
    14  C    0.063933
    15  C    0.083353
    16  C   -0.006261
    17  C   -0.016736
    19  C   -0.003524
    21  C    0.009445
    25  C    0.065934
    26  C   -0.027676
    27  C    0.097533
    28  C   -0.003129
    30  C   -0.017030
    32  C    0.007548
 Sum of Mulliken charges with hydrogens summed into heavy atoms =   0.00000
 Electronic spatial extent (au):  <R**2>=           4930.7254
 Charge=              0.0000 electrons
 Dipole moment (field-independent basis, Debye):
    X=             -0.0877    Y=             -0.1754    Z=             -0.0173  Tot=              0.1969
 Quadrupole moment (field-independent basis, Debye-Ang):
   XX=           -107.2195   YY=           -113.3191   ZZ=           -107.2508
   XY=             -2.6938   XZ=             -0.5805   YZ=              2.5583
 Traceless Quadrupole moment (field-independent basis, Debye-Ang):
   XX=              2.0436   YY=             -4.0560   ZZ=              2.0123
   XY=             -2.6938   XZ=             -0.5805   YZ=              2.5583
 Octapole moment (field-independent basis, Debye-Ang**2):
  XXX=            -26.4950  YYY=             16.8793  ZZZ=              0.9898  XYY=             34.6029
  XXY=             -4.4348  XXZ=             -1.1243  XZZ=             -9.5127  YZZ=            -20.4226
  YYZ=             10.5225  XYZ=             -1.4868
 Hexadecapole moment (field-independent basis, Debye-Ang**3):
 XXXX=          -3053.8853 YYYY=          -2941.6041 ZZZZ=           -651.3704 XXXY=             68.3906
 XXXZ=             -9.4501 YYYX=            -72.7347 YYYZ=             68.9344 ZZZX=              5.6806
 ZZZY=             -1.2357 XXYY=          -1006.5396 XXZZ=           -623.4377 YYZZ=           -645.6241
 XXYZ=             -3.0709 YYXZ=              9.6893 ZZXY=            -31.0262
 N-N= 1.290939059068D+03 E-N=-4.277959640407D+03  KE= 7.286012171525D+02
 PrsmSu:  requested number of processors reduced to:  10 ShMem   1 Linda.
 Calling FoFJK, ICntrl=      2127 FMM=F ISym2X=0 I1Cent= 0 IOpClX= 0 NMat=1 NMatS=1 NMatT=0.
 ***** Axes restored to original set *****
 -------------------------------------------------------------------
 Center     Atomic                   Forces (Hartrees/Bohr)
 Number     Number              X              Y              Z
 -------------------------------------------------------------------
      1        6          -0.001115825   -0.001400798   -0.023003863
      2        1           0.007211145    0.000938635    0.024016956
      3        6          -0.013981281   -0.000590453    0.005100464
      4        6           0.002066309    0.008291369   -0.003556437
      5        6           0.004944673   -0.010686619    0.000825808
      6        6          -0.004960230    0.011330051   -0.002395439
      7        1          -0.009953028   -0.014400128    0.008005886
      8        6          -0.008121643   -0.008312995    0.005159707
      9        1          -0.011757267    0.018022560   -0.002407442
     10        6          -0.012812301   -0.000487227    0.004665423
     11        1           0.007946352   -0.014525731    0.001740828
     12        1           0.007784548    0.013217645   -0.006646194
     13        1           0.015841074   -0.001403176   -0.004816496
     14        6           0.004964659   -0.011129287   -0.006708858
     15        6          -0.001097596    0.007089575    0.009887691
     16        6          -0.001719368    0.001524276   -0.005509490
     17        6           0.001171309    0.000140841    0.012473914
     18        1           0.006768994   -0.024505912   -0.014644258
     19        6           0.005021589   -0.010259053   -0.007616251
     20        1           0.002899941   -0.002621674    0.017354817
     21        6           0.006602627   -0.011930965    0.001400111
     22        1          -0.003136381    0.002859359   -0.016151984
     23        1          -0.004792178    0.010818801    0.011778881
     24        1          -0.008078988    0.014027386   -0.004550779
     25        6           0.006629957    0.010479891   -0.007262574
     26        6          -0.000769417   -0.002152553   -0.005429416
     27        6          -0.003860648   -0.004730737    0.009731596
     28        6           0.006619848    0.008788972   -0.008236711
     29        1           0.001901830    0.004336204    0.016942816
     30        6           0.000425915    0.000991616    0.012386928
     31        1           0.007731945    0.021816350   -0.016065792
     32        6           0.007731491    0.011364445    0.000592778
     33        1          -0.006716315   -0.008745737    0.012458945
     34        1          -0.002258069   -0.004507479   -0.015943161
     35        1          -0.009133670   -0.013647451   -0.003578404
 -------------------------------------------------------------------
 Cartesian Forces:  Max     0.024505912 RMS     0.009544521

 GradGradGradGradGradGradGradGradGradGradGradGradGradGradGradGradGradGrad
 Berny optimization.
 Internal  Forces:  Max     0.028363808 RMS     0.007774201
 Search for a local minimum.
 Step number   1 out of a maximum of  197
 All quantities printed in internal units (Hartrees-Bohrs-Radians)
 Mixed Optimization -- RFO/linear search
 Second derivative matrix not updated -- first step.
     Eigenvalues ---    0.00635   0.00651   0.00653   0.01533   0.01537
     Eigenvalues ---    0.01541   0.02138   0.02142   0.02146   0.02170
     Eigenvalues ---    0.02172   0.02173   0.02182   0.02182   0.02184
     Eigenvalues ---    0.02200   0.02201   0.02202   0.02211   0.02211
     Eigenvalues ---    0.02212   0.02214   0.02214   0.02214   0.02215
     Eigenvalues ---    0.02217   0.02218   0.02220   0.02220   0.02224
     Eigenvalues ---    0.04567   0.06420   0.06599   0.15997   0.15998
     Eigenvalues ---    0.16000   0.16000   0.16000   0.16000   0.16000
     Eigenvalues ---    0.16000   0.16000   0.16000   0.16000   0.16000
     Eigenvalues ---    0.16000   0.16000   0.16000   0.18866   0.19316
     Eigenvalues ---    0.22000   0.22000   0.22000   0.22000   0.22000
     Eigenvalues ---    0.22000   0.23462   0.23478   0.23478   0.24958
     Eigenvalues ---    0.24999   0.25000   0.31264   0.31363   0.31484
     Eigenvalues ---    0.31501   0.33529   0.33594   0.33977   0.34035
     Eigenvalues ---    0.34079   0.34087   0.34249   0.34254   0.34256
     Eigenvalues ---    0.34262   0.34266   0.34266   0.34279   0.34280
     Eigenvalues ---    0.34291   0.42414   0.42462   0.42482   0.42556
     Eigenvalues ---    0.42571   0.42597   0.46345   0.46393   0.46432
     Eigenvalues ---    0.46730   0.46748   0.46780   0.47199   0.47203
     Eigenvalues ---    0.47222   0.47340   0.47341   0.474111000.00000
     Eigenvalues --- 1000.000001000.000001000.000001000.000001000.00000
     Eigenvalues --- 1000.000001000.000001000.000001000.000001000.00000
     Eigenvalues --- 1000.000001000.000001000.000001000.000001000.00000
     Eigenvalues --- 1000.000001000.000001000.000001000.000001000.00000
     Eigenvalues --- 1000.000001000.000001000.000001000.000001000.00000
     Eigenvalues --- 1000.000001000.000001000.000001000.000001000.00000
     Eigenvalues --- 1000.000001000.000001000.000001000.000001000.00000
     Eigenvalues --- 1000.000001000.000001000.000001000.000001000.00000
     Eigenvalues --- 1000.000001000.000001000.000001000.000001000.00000
     Eigenvalues --- 1000.000001000.000001000.000001000.000001000.00000
     Eigenvalues --- 1000.000001000.000001000.000001000.000001000.00000
     Eigenvalues --- 1000.000001000.000001000.000001000.000001000.00000
     Eigenvalues --- 1000.000001000.000001000.000001000.000001000.00000
     Eigenvalues --- 1000.000001000.000001000.000001000.000001000.00000
     Eigenvalues --- 1000.000001000.000001000.000001000.000001000.00000
     Eigenvalues --- 1000.000001000.000001000.000001000.000001000.00000
     Eigenvalues --- 1000.000001000.000001000.000001000.000001000.00000
     Eigenvalues --- 1000.000001000.00000
 RFO step:  Lambda=-4.16831152D-02 EMin= 6.35317921D-03
 Linear search not attempted -- first point.
 Maximum step size (   0.300) exceeded in Quadratic search.
    -- Step size scaled by   0.594
 Iteration  1 RMS(Cart)=  0.12558900 RMS(Int)=  0.00304812
 Iteration  2 RMS(Cart)=  0.00616945 RMS(Int)=  0.00028194
 Iteration  3 RMS(Cart)=  0.00001079 RMS(Int)=  0.00028188
 Iteration  4 RMS(Cart)=  0.00000000 RMS(Int)=  0.00028188
 Variable       Old X    -DE/DX   Delta X   Delta X   Delta X     New X
                                 (Linear)    (Quad)   (Total)
    R1        2.12211  -0.02462   0.00000  -0.04130  -0.04130   2.08081
    R2        2.85098   0.02352   0.00000   0.03921   0.03921   2.89018
    R3        2.85067   0.02336   0.00000   0.03892   0.03892   2.88959
    R4        2.85325   0.02290   0.00000   0.03831   0.03831   2.89156
    R5        2.64307  -0.00194   0.00000  -0.00223  -0.00222   2.64085
    R6        2.63625  -0.00218   0.00000  -0.00243  -0.00242   2.63383
    R7        2.62442  -0.00440   0.00000  -0.00511  -0.00511   2.61931
    R8        2.07272  -0.01921   0.00000  -0.02989  -0.02989   2.04283
    R9        2.62856  -0.00170   0.00000  -0.00191  -0.00191   2.62664
   R10        2.07368  -0.02159   0.00000  -0.03363  -0.03363   2.04006
   R11        2.62923  -0.00524   0.00000  -0.00620  -0.00621   2.62302
   R12        2.06891  -0.01665   0.00000  -0.02574  -0.02574   2.04316
   R13        2.62598  -0.00723   0.00000  -0.00841  -0.00841   2.61757
   R14        2.06911  -0.01672   0.00000  -0.02586  -0.02586   2.04325
   R15        2.06841  -0.01662   0.00000  -0.02567  -0.02567   2.04274
   R16        2.63955   0.00065   0.00000   0.00090   0.00092   2.64047
   R17        2.63931  -0.00443   0.00000  -0.00517  -0.00515   2.63416
   R18        2.62553  -0.00456   0.00000  -0.00517  -0.00518   2.62035
   R19        2.08133  -0.02836   0.00000  -0.04471  -0.04471   2.03662
   R20        2.62812  -0.00243   0.00000  -0.00289  -0.00289   2.62524
   R21        2.07198  -0.01778   0.00000  -0.02762  -0.02762   2.04435
   R22        2.62881  -0.00553   0.00000  -0.00646  -0.00648   2.62233
   R23        2.06883  -0.01670   0.00000  -0.02582  -0.02582   2.04301
   R24        2.62717  -0.00911   0.00000  -0.01065  -0.01067   2.61650
   R25        2.06904  -0.01669   0.00000  -0.02582  -0.02582   2.04322
   R26        2.06862  -0.01682   0.00000  -0.02599  -0.02599   2.04263
   R27        2.63879  -0.00427   0.00000  -0.00498  -0.00497   2.63382
   R28        2.63891  -0.00010   0.00000  -0.00001   0.00001   2.63892
   R29        2.62801  -0.00229   0.00000  -0.00270  -0.00270   2.62531
   R30        2.07183  -0.01758   0.00000  -0.02731  -0.02731   2.04452
   R31        2.62555  -0.00469   0.00000  -0.00536  -0.00535   2.62020
   R32        2.08021  -0.02691   0.00000  -0.04236  -0.04236   2.03785
   R33        2.62745  -0.00888   0.00000  -0.01037  -0.01039   2.61706
   R34        2.06900  -0.01664   0.00000  -0.02573  -0.02573   2.04327
   R35        2.62871  -0.00530   0.00000  -0.00620  -0.00621   2.62250
   R36        2.06883  -0.01672   0.00000  -0.02585  -0.02585   2.04298
   R37        2.06860  -0.01681   0.00000  -0.02598  -0.02598   2.04262
    A1        1.82705   0.00414   0.00000   0.00167   0.00193   1.82898
    A2        1.87822  -0.00988   0.00000  -0.05161  -0.05071   1.82751
    A3        1.88421  -0.00906   0.00000  -0.04995  -0.04912   1.83509
    A4        1.98969   0.00013   0.00000   0.02008   0.01814   2.00783
    A5        1.95246  -0.00273   0.00000   0.01337   0.01124   1.96370
    A6        1.92523   0.01548   0.00000   0.05480   0.05365   1.97888
    A7        2.07694   0.00149   0.00000   0.00291   0.00289   2.07983
    A8        2.12837   0.00644   0.00000   0.01299   0.01298   2.14135
    A9        2.07649  -0.00796   0.00000  -0.01624  -0.01623   2.06027
   A10        2.10331   0.00452   0.00000   0.01001   0.01002   2.11333
   A11        2.08518  -0.00105   0.00000  -0.00144  -0.00145   2.08374
   A12        2.09468  -0.00347   0.00000  -0.00857  -0.00858   2.08610
   A13        2.10174   0.00364   0.00000   0.00836   0.00836   2.11010
   A14        2.09166  -0.00025   0.00000   0.00047   0.00046   2.09212
   A15        2.08978  -0.00340   0.00000  -0.00882  -0.00882   2.08096
   A16        2.09694   0.00090   0.00000   0.00137   0.00136   2.09831
   A17        2.09142  -0.00044   0.00000  -0.00065  -0.00065   2.09077
   A18        2.09482  -0.00046   0.00000  -0.00071  -0.00071   2.09411
   A19        2.09894   0.00110   0.00000   0.00217   0.00216   2.10111
   A20        2.08917  -0.00049   0.00000  -0.00091  -0.00091   2.08826
   A21        2.09507  -0.00061   0.00000  -0.00126  -0.00126   2.09382
   A22        2.08892  -0.00220   0.00000  -0.00569  -0.00571   2.08322
   A23        2.09665   0.00112   0.00000   0.00292   0.00293   2.09957
   A24        2.09761   0.00107   0.00000   0.00277   0.00278   2.10039
   A25        2.12269   0.02221   0.00000   0.04531   0.04528   2.16797
   A26        2.08105  -0.01059   0.00000  -0.02153  -0.02156   2.05949
   A27        2.07943  -0.01162   0.00000  -0.02373  -0.02370   2.05573
   A28        2.10217   0.00445   0.00000   0.01010   0.01008   2.11225
   A29        2.07757   0.00432   0.00000   0.01430   0.01425   2.09182
   A30        2.10334  -0.00874   0.00000  -0.02417  -0.02422   2.07912
   A31        2.09983   0.00802   0.00000   0.01770   0.01772   2.11755
   A32        2.09466  -0.00464   0.00000  -0.01071  -0.01073   2.08394
   A33        2.08869  -0.00338   0.00000  -0.00699  -0.00700   2.08169
   A34        2.09625   0.00234   0.00000   0.00490   0.00488   2.10114
   A35        2.09154  -0.00108   0.00000  -0.00219  -0.00218   2.08936
   A36        2.09539  -0.00126   0.00000  -0.00271  -0.00271   2.09269
   A37        2.09786  -0.00024   0.00000  -0.00143  -0.00145   2.09642
   A38        2.09099   0.00030   0.00000   0.00125   0.00126   2.09225
   A39        2.09433  -0.00006   0.00000   0.00018   0.00018   2.09451
   A40        2.09083  -0.00295   0.00000  -0.00752  -0.00756   2.08327
   A41        2.09602   0.00151   0.00000   0.00386   0.00387   2.09989
   A42        2.09634   0.00144   0.00000   0.00367   0.00368   2.10002
   A43        2.08465  -0.00838   0.00000  -0.01703  -0.01709   2.06757
   A44        2.11761   0.01924   0.00000   0.03925   0.03919   2.15681
   A45        2.08092  -0.01086   0.00000  -0.02222  -0.02222   2.05870
   A46        2.09889   0.00750   0.00000   0.01662   0.01663   2.11552
   A47        2.09506  -0.00441   0.00000  -0.01025  -0.01026   2.08481
   A48        2.08923  -0.00309   0.00000  -0.00638  -0.00639   2.08284
   A49        2.10148   0.00423   0.00000   0.00954   0.00949   2.11097
   A50        2.07772   0.00385   0.00000   0.01294   0.01285   2.09056
   A51        2.10385  -0.00804   0.00000  -0.02211  -0.02220   2.08164
   A52        2.09784  -0.00033   0.00000  -0.00148  -0.00150   2.09635
   A53        2.09108   0.00037   0.00000   0.00134   0.00135   2.09243
   A54        2.09426  -0.00004   0.00000   0.00014   0.00015   2.09440
   A55        2.09602   0.00229   0.00000   0.00477   0.00476   2.10078
   A56        2.09184  -0.00106   0.00000  -0.00214  -0.00214   2.08970
   A57        2.09532  -0.00123   0.00000  -0.00263  -0.00263   2.09269
[...]
 00027288,0.00017835,-0.00003878,0.00012037,0.00006534,0.00027119,0.000
 07835,0.00002123,-0.00013843,-0.00002756,-0.00003460,-0.00001172,-0.00
 024323,0.00005282,0.00010900,-0.00000987,-0.00013232,-0.00002000,-0.00
 001073,-0.00013397,0.00008597,0.00002181,-0.00000668,0.00002989,0.0000
 0186,0.00001083,-0.00002102,0.00004099,0.00000205,-0.00000077,-0.00041
 263,-0.00037464,-0.00076432,-0.00018979,-0.00016896,-0.00020297,0.0001
 3481,-0.00032946,0.00009365,0.00006723,0.00001689,0.00009792,0.0001024
 4,-0.00007935,0.00009002,-0.00002142,0.00002155,-0.00004831,0.00003426
 ,0.00001659,0.00005159,0.00000764,0.00004711,0.00003633,0.00000850,-0.
 00001904,-0.00000381,0.00000935,-0.00000335,0.00001246,-0.00000118,0.0
 0002487,0.00001270,-0.02555021,-0.03205954,0.00124903,0.01131537,0.011
 24115,-0.00617639,-0.03583268,-0.09708346,-0.15945001,0.03059316,-0.00
 745451,-0.03611459,-0.00040646,0.00076386,0.00047523,-0.19676038,0.212
 94340,0.66909117,-0.00207522,0.00140190,-0.00166152,-0.00014578,-0.000
 20964,-0.00009487,-0.00036952,-0.00130794,-0.00175085,0.00030135,-0.00
 045298,-0.00013865,-0.00050714,-0.00080422,-0.00052017,-0.00019133,0.0
 0007876,0.00009857,0.00002156,0.00003490,0.00000812,0.00019150,-0.0002
 2727,-0.00001729,0.00003473,0.00030147,0.00004405,-0.00013400,0.000240
 65,-0.00007425,-0.00001250,-0.00001170,-0.00000141,0.00001894,0.000020
 14,-0.00000136,0.00000180,0.00000741,-0.00000503,0.00046048,0.00027920
 ,0.00045599,0.00026623,0.00028835,0.00017114,-0.00009487,0.00018944,-0
 .00010558,-0.00003637,-0.00003106,-0.00011103,-0.00032717,-0.00009782,
 0.00002431,0.00000605,-0.00002180,0.00003202,-0.00000840,-0.00001349,-
 0.00001876,-0.00001614,-0.00000652,-0.00000878,-0.00001652,0.00001890,
 0.00000251,-0.00001425,0.00000570,-0.00000503,-0.00000403,-0.00001859,
 -0.00000672,-0.00150410,-0.00439863,0.00258802,0.00390298,-0.00190550,
 0.00271932,-0.24910126,-0.07594800,0.13978536,0.00016855,0.00035330,-0
 .00090792,-0.00019119,-0.00012318,0.00009412,-0.00861859,-0.00275536,0
 .01323770,0.25769631,0.00161254,-0.00134897,0.00197653,0.00010862,0.00
 054501,0.00029637,-0.00079001,-0.00103588,-0.00121466,-0.00027422,-0.0
 0018516,-0.00020744,-0.00036425,-0.00039620,-0.00043243,0.00037493,-0.
 00006786,-0.00018778,0.00002571,0.00002885,0.00017691,-0.00038567,0.00
 005621,0.00011499,0.00000415,-0.00027123,-0.00001362,0.00007649,-0.000
 18596,0.00019133,0.00004676,-0.00000123,0.00003681,0.00000266,0.000016
 67,-0.00000535,0.00004702,0.00000413,0.00002324,-0.00027416,-0.0003736
 2,-0.00034214,-0.00014125,-0.00008018,-0.00010763,0.00006244,-0.000129
 34,0.00006222,0.00003212,-0.00001598,0.00007035,0.00020249,0.00009368,
 -0.00001573,-0.00001457,0.00002316,-0.00004832,0.00000319,-0.00000056,
 0.00000960,0.00001471,0.00001713,0.00002081,-0.00000044,-0.00000048,-0
 .00000948,0.00001010,0.00000257,0.00000624,-0.00000218,0.00001810,0.00
 000400,0.01457487,0.01082130,-0.01048924,-0.00234488,0.00159177,-0.005
 81375,-0.07569256,-0.08826176,0.04100338,0.00048174,-0.00088210,-0.000
 40318,0.00077612,0.00023831,-0.00053969,-0.02327366,-0.00258520,0.0175
 4392,0.08841676,0.08485420,-0.00067632,0.00216458,-0.00070764,-0.00011
 087,-0.00013438,0.00007720,0.00000921,-0.00056808,-0.00011248,-0.00043
 360,0.00060063,-0.00011564,-0.00009827,-0.00002428,0.00062014,-0.00009
 000,0.00014362,-0.00011069,0.00003808,-0.00007482,-0.00005385,-0.00029
 690,-0.00001402,0.00010328,0.00000384,-0.00000209,-0.00004343,0.000118
 59,-0.00021891,0.00006486,0.00002618,-0.00003053,-0.00000091,0.0000423
 6,0.00005178,-0.00003451,0.00004827,0.00000512,-0.00000685,0.00012959,
 0.00015561,0.00029308,0.00000329,0.00003875,0.00008753,-0.00005284,0.0
 0006442,-0.00004145,-0.00002369,-0.00005115,0.00000013,0.00002378,-0.0
 0000535,-0.00004681,-0.00002048,-0.00000334,-0.00000301,0.00001318,0.0
 0000186,-0.00003638,0.00000743,0.00002070,0.00000635,-0.00000827,0.000
 01321,-0.00001055,-0.00000216,0.00000614,-0.00000189,0.00000280,0.0000
 0209,-0.00000847,0.02507602,0.01071398,-0.01050355,0.00305110,-0.00599
 636,-0.00217570,0.13778362,0.04059653,-0.15976205,-0.00094540,-0.00055
 996,-0.00058703,0.00111835,0.00056681,-0.00079711,-0.01086686,-0.00589
 552,0.01089205,-0.15234072,-0.03950712,0.16105998,-0.00020609,0.001582
 36,0.00046076,-0.00020246,0.00000094,-0.00067083,0.00029854,-0.0003193
 7,0.00023069,-0.00033205,-0.00011557,-0.00002479,0.00018513,0.00001463
 ,-0.00023449,0.00026456,0.00004316,-0.00017568,0.00000043,0.00001191,0
 .00004901,-0.00022447,0.00011684,-0.00003116,0.00001311,0.00002640,-0.
 00001739,-0.00000221,-0.00015926,0.00023281,-0.00001823,0.00000544,-0.
 00001699,-0.00001585,-0.00000567,0.00001833,-0.00001901,-0.00000312,0.
 00000250,0.00048602,0.00046559,-0.00024500,0.00012975,-0.00000625,-0.0
 0010861,0.00023809,-0.00025332,-0.00005179,-0.00000697,-0.00029644,-0.
 00012794,-0.00031011,-0.00012093,-0.00021224,-0.00017852,0.00008787,-0
 .00011998,0.00000202,0.00001520,0.00000083,0.00011818,0.00004875,0.000
 18233,0.00002960,-0.00003772,0.00001292,-0.00001656,-0.00002237,0.0000
 1987,0.00000356,-0.00001670,-0.00000584,-0.04065996,0.00849159,0.05043
 127,0.05969633,0.02635265,-0.02522871,-0.03269435,-0.06541961,-0.03008
 588,-0.14353898,-0.03111390,0.03392260,0.00122659,-0.00671367,0.001053
 64,-0.25909586,-0.05671821,0.13959205,0.00238287,-0.00552035,0.0008410
 0,0.56693147,0.00105168,-0.00065549,-0.00006056,-0.00013543,-0.0001276
 6,0.00023255,0.00007491,-0.00008756,-0.00018067,-0.00001535,-0.0000500
 5,0.00007921,-0.00007565,0.00004257,-0.00008428,0.00001790,0.00000867,
 0.00004060,0.00005157,-0.00003349,-0.00000478,0.00001836,0.00000928,-0
 .00002080,0.00000394,-0.00000753,-0.00000602,-0.00006177,0.00001477,0.
 00003387,-0.00004185,-0.00000171,-0.00001721,-0.00002028,-0.00001189,0
 .00000992,-0.00001710,-0.00000587,0.00000109,-0.00082268,-0.00001114,-
 0.00010059,0.00001762,-0.00014800,-0.00014503,0.00010278,-0.00016827,0
 .00017962,0.00002345,0.00005607,0.00006967,0.00000176,-0.00000767,-0.0
 0000331,0.00004667,-0.00001526,-0.00004043,-0.00001802,0.00002479,0.00
 001028,0.00000655,-0.00006882,-0.00002312,0.00001434,-0.00003513,0.000
 02477,0.00002000,-0.00003306,-0.00000513,0.00000942,-0.00000473,0.0000
 0705,0.00885649,-0.00309486,-0.00635415,-0.00859620,-0.02446709,-0.032
 03508,-0.03008424,-0.00213184,0.02110636,0.01401686,-0.17846249,-0.132
 46541,-0.00642915,-0.00020623,-0.00374983,-0.10247733,-0.15370757,0.03
 744963,-0.00553269,-0.00053898,-0.00471927,0.25754548,0.59017622,0.000
 42043,-0.00174776,-0.00134127,-0.00014275,-0.00043230,0.00099062,-0.00
 027337,0.00014969,-0.00052621,0.00036977,0.00019067,0.00011785,-0.0004
 0282,0.00001244,0.00025095,-0.00034201,-0.00002252,0.00026864,0.000009
 89,-0.00004247,-0.00009081,0.00032600,-0.00014763,0.00001483,-0.000013
 07,-0.00001965,0.00000172,-0.00007595,0.00021899,-0.00026390,-0.000004
 22,-0.00000793,0.00000849,-0.00000523,-0.00000693,-0.00000790,0.000006
 23,0.00000107,-0.00000742,-0.00122347,-0.00037074,0.00039174,-0.000184
 84,-0.00040298,0.00003826,-0.00022950,0.00026376,0.00033693,-0.0000483
 4,0.00047122,0.00016133,0.00025395,-0.00002036,0.00006291,0.00032183,-
 0.00016465,0.00016293,-0.00000960,0.00000885,0.00000739,-0.00013824,-0
 .00020841,-0.00030037,-0.00000620,-0.00003465,0.00004649,0.00004280,-0
 .00000741,-0.00002986,0.00000883,0.00000077,0.00000466,0.05109730,-0.0
 0454841,-0.07554204,-0.07012193,-0.07375958,0.00102544,0.01401667,0.06
 319929,0.07099195,0.08912037,-0.07800946,-0.28613159,0.00152610,-0.003
 19389,0.00335122,0.08478605,-0.01700293,-0.20452930,0.00056948,-0.0050
 7605,0.00238038,-0.15479610,0.19822503,0.60172402,-0.00055434,0.000164
 33,0.00069780,-0.00001554,-0.00002828,-0.00006655,0.00007615,-0.000190
 60,-0.00019251,-0.00003648,-0.00003294,0.00006265,-0.00010300,0.000026
 61,0.00000077,-0.00000528,-0.00000872,0.00002660,0.00001648,-0.0000072
 8,-0.00000053,0.00003151,0.00000979,0.00000024,0.00000536,0.00000622,-
 0.00000315,-0.00002958,0.00001652,-0.00001237,-0.00002158,0.00001089,-
 0.00000132,-0.00001102,-0.00000549,0.00001068,-0.00001349,-0.00000008,
 0.00000301,-0.00012443,0.00010718,-0.00005904,0.00003995,-0.00001926,0
 .00003250,0.00006871,-0.00006489,0.00001032,-0.00001409,-0.00000164,-0
 .00001111,-0.00001989,0.00001683,-0.00003553,0.00000469,-0.00001248,-0
 .00001453,-0.00001148,0.00000929,0.00000437,0.00000845,-0.00001797,-0.
 00000653,0.00000546,-0.00000564,0.00001065,-0.00000318,-0.00002106,-0.
 00000308,0.00000414,-0.00001469,0.00000139,0.00266358,-0.00582555,0.00
 062206,-0.00910970,-0.00301466,0.01404169,0.00018983,0.00030967,-0.000
 95594,-0.24243245,-0.07908207,0.13630091,-0.00111024,0.00205133,-0.002
 39621,0.00414171,-0.00182968,0.00320748,-0.00051188,0.00046895,-0.0003
 2552,-0.00064955,-0.00515153,0.00107181,0.24885482,-0.00082256,-0.0000
 3043,0.00090397,0.00003330,0.00007802,-0.00000260,-0.00001654,-0.00042
 522,-0.00012208,-0.00007914,0.00000755,-0.00000270,-0.00005729,0.00002
 773,-0.00000318,0.00005216,0.00001085,-0.00000170,0.00000922,-0.000002
 37,0.00000167,-0.00002971,0.00003712,0.00001327,0.00000161,-0.00001453
 ,-0.00000697,-0.00002726,-0.00002958,0.00004036,-0.00000875,0.00000500
 ,-0.00000438,-0.00001218,-0.00000382,0.00001170,-0.00000892,-0.0000021
 3,0.00000124,-0.00016377,0.00005464,-0.00005496,0.00004976,-0.00004132
 ,0.00000689,0.00003979,-0.00006918,0.00002229,0.00001270,-0.00000557,-
 0.00002106,-0.00004663,0.00000755,-0.00000085,0.00001305,-0.00000237,-
 0.00001740,-0.00000872,0.00000839,0.00001463,0.00002676,-0.00003244,0.
 00000004,0.00000239,-0.00001710,0.00002252,-0.00000159,-0.00001472,0.0
 0000156,-0.00000303,-0.00001191,0.00000533,-0.00530268,-0.00044950,-0.
 00505139,-0.02309055,-0.00236939,0.01805578,0.00043964,-0.00093290,-0.
 00054499,-0.07900735,-0.09118554,0.04306687,0.00273631,-0.00114323,0.0
 0162446,-0.00214385,0.00182632,-0.00577445,0.00041340,-0.00043646,0.00
 049180,0.01480241,0.01048517,-0.01164234,0.08968040,0.08553750,-0.0004
 8663,-0.00010684,0.00028065,0.00001616,0.00004425,-0.00003566,-0.00001
 123,-0.00001321,-0.00008562,0.00001825,0.00000583,0.00002775,-0.000015
 84,0.00000579,0.00003796,-0.00003287,0.00000740,0.00001468,-0.00000684
 ,-0.00000424,-0.00001792,0.00002296,-0.00000393,0.00001385,-0.00000254
 ,-0.00000942,-0.00000439,-0.00000998,0.00002019,-0.00002030,-0.0000017
 4,-0.00000287,0.00000145,0.00000008,-0.00000208,-0.00000603,0.00000351
 ,-0.00000179,-0.00000405,0.00008221,0.00006934,0.00002045,-0.00001891,
 0.00001809,-0.00001175,0.00000572,0.00000155,-0.00004347,0.00000541,-0
 .00001621,0.00002822,0.00003059,-0.00001838,-0.00000229,-0.00001628,0.
 00000643,-0.00000603,-0.00000196,-0.00000470,-0.00000287,-0.00000372,0
 .00002178,0.00001252,-0.00000067,0.00000976,-0.00001655,-0.00000268,0.
 00000453,0.00000276,0.00000077,0.00000907,-0.00000146,0.00085165,-0.00
 476656,0.00237890,-0.01040161,-0.00617757,0.01069081,-0.00094179,-0.00
 052104,-0.00045840,0.13646980,0.04323344,-0.16038233,-0.00156704,0.002
 37441,-0.00038915,0.00285914,-0.00609006,-0.00224557,-0.00032490,0.000
 45606,-0.00031427,0.02537502,0.01241310,-0.00992115,-0.15072626,-0.042
 93138,0.16150570,0.00041601,-0.00008000,-0.00075627,-0.00007767,-0.000
 12176,-0.00012666,0.00009123,0.00004409,0.00000713,-0.00004177,0.00000
 131,0.00001240,0.00003289,0.00001257,0.00001514,0.00001418,0.00002094,
 -0.00000633,0.00000276,-0.00001046,-0.00001373,-0.00003032,0.00001455,
 0.00001431,0.00000351,-0.00000626,-0.00000820,-0.00002925,-0.00000121,
 0.00003189,-0.00001228,-0.00000349,-0.00000874,-0.00000495,-0.00000691
 ,-0.00000364,-0.00000463,-0.00000670,-0.00000379,-0.00008316,-0.000046
 55,-0.00002291,0.00002030,0.00002765,0.00002714,-0.00000681,-0.0000320
 4,0.00000559,0.00001095,-0.00000209,0.00000402,0.00000919,-0.00001446,
 0.00001638,0.00001161,-0.00000870,-0.00000645,-0.00000498,0.00000194,0
 .00000428,-0.00000225,-0.00000485,-0.00000461,-0.00000329,0.00000646,-
 0.00000100,0.00000228,-0.00000375,-0.00000333,-0.00000126,-0.00000138,
 0.00000193,0.00106507,-0.00653145,0.00118222,-0.00113869,-0.00041874,-
 0.00034298,0.00963068,-0.01122239,-0.01848645,-0.00085956,-0.00536246,
 0.00516329,-0.00039768,0.00052207,-0.00038322,-0.08088702,0.02427154,0
 .06727468,-0.00091296,0.00270582,-0.00155447,-0.00010882,0.01529143,0.
 02522287,-0.00029475,0.00070215,0.00114231,0.07461329,0.00055104,-0.00
 022346,-0.00092832,-0.00017718,-0.00032946,-0.00012935,0.00029006,0.00
 003769,-0.00002988,-0.00002066,0.00003590,0.00000953,-0.00009203,0.000
 03183,0.00004538,-0.00000880,-0.00000930,0.00001841,0.00001195,-0.0000
 1550,0.00001902,0.00002116,-0.00000019,0.00001786,0.00001086,-0.000019
 16,-0.00001493,-0.00004289,0.00002267,0.00000701,-0.00000864,0.0000020
 3,-0.00000253,-0.00002094,-0.00002019,0.00000818,-0.00001300,-0.000004
 36,-0.00000096,-0.00019406,0.00008270,-0.00014895,-0.00000957,-0.00011
 561,0.00001151,0.00007501,-0.00010771,0.00004904,-0.00001253,0.0000069
 9,-0.00000255,-0.00000320,0.00003325,-0.00005575,0.00000002,-0.0000065
 3,-0.00000665,0.00001076,0.00001816,0.00001516,0.00001302,-0.00002458,
 0.00000464,0.00002145,-0.00002183,0.00001124,0.00000430,-0.00001536,-0
 .00000053,0.00000682,-0.00000827,-0.00000006,-0.00648329,-0.00024694,-
 0.00303849,-0.00038586,-0.00063590,0.00084054,0.00883325,-0.00710183,-
 0.02573866,-0.00514141,0.00315970,-0.00089917,0.00053586,-0.00046561,0
 .00031928,0.02431246,-0.13030294,-0.12763129,0.00194694,-0.00113623,0.
 00236742,-0.00494205,0.01037888,0.01160653,-0.00012586,0.00022027,0.00
 053552,-0.02167305,0.12796421,0.00043709,0.00024991,-0.00034145,-0.000
 04867,-0.00010852,-0.00007783,0.00010950,-0.00007771,-0.00002974,-0.00
 007040,-0.00000971,0.00001839,-0.00001809,0.00002266,-0.00003235,0.000
 03857,0.00001418,0.00000409,0.00002271,-0.00001760,-0.00000295,-0.0000
 2215,0.00002475,0.00000285,0.00000913,0.00000534,-0.00001189,-0.000036
 86,-0.00000501,0.00004757,-0.00002651,0.00000110,-0.00001796,-0.000013
 06,-0.00001098,0.00000662,-0.00001856,-0.00000810,0.00000005,-0.000170
 18,-0.00001924,-0.00004128,0.00003237,-0.00002863,0.00004084,0.0000272
 1,-0.00005578,0.00004663,-0.00002232,0.00000747,-0.00001913,-0.0000101
 0,0.00001248,-0.00004132,0.00001562,-0.00001358,-0.00000402,-0.0000023
 2,0.00001157,0.00000157,-0.00000009,-0.00002202,-0.00000880,0.00001239
 ,-0.00000453,0.00000659,0.00000409,-0.00001561,-0.00000778,0.00000515,
 -0.00001376,-0.00000019,0.00093671,-0.00361116,0.00317316,-0.00046193,
 0.00078735,0.00054782,0.00581942,-0.00177643,-0.00352914,0.00549109,-0
 .00054551,0.00177631,-0.00038014,0.00032847,-0.00042326,0.06703891,-0.
 12755869,-0.28254705,-0.00221714,0.00164871,-0.00038834,0.00091758,-0.
 01239851,-0.01043729,0.00008935,-0.00046860,-0.00077127,-0.07599270,0.
 14127690,0.29347406,-0.00031236,0.00054048,-0.00032280,0.00000420,-0.0
 0007433,-0.00014880,0.00005141,-0.00003161,-0.00003337,0.00000372,-0.0
 0002362,0.00003134,-0.00005248,-0.00000551,-0.00003177,0.00000527,-0.0
 0000742,0.00001590,0.00001416,-0.00000205,0.00000085,0.00002789,-0.000
 00324,-0.00002148,0.00000371,0.00002330,0.00000083,-0.00000564,0.00001
 218,-0.00000332,-0.00001531,0.00000474,-0.00000785,-0.00000435,-0.0000
 0184,0.00000911,-0.00001292,-0.00000086,0.00000257,0.00001742,0.000088
 06,0.00003911,0.00002550,0.00000347,0.00003609,-0.00000009,0.00000528,
 0.00000616,-0.00001565,-0.00000170,-0.00001709,-0.00001951,0.00000605,
 -0.00001762,0.00000490,-0.00000290,0.00000602,-0.00000221,0.00000359,-
 0.00000132,-0.00000086,-0.00000763,-0.00000384,0.00000450,0.00000192,0
 .00000193,-0.00000163,-0.00000708,-0.00000435,0.00000323,-0.00000880,-
 0.00000077,-0.00058034,0.00079157,0.00049422,0.00341505,-0.00178231,0.
 00416590,-0.00015751,-0.00377426,0.00631532,0.00930480,0.00840812,0.00
 512530,0.00017153,0.00036181,0.00013913,-0.00863191,-0.02312220,-0.011
 50983,-0.00066012,-0.00097000,-0.00049032,-0.15372621,-0.13769197,-0.0
 4115272,-0.00103889,0.00181550,-0.00231008,-0.00102187,0.00271004,-0.0
 0149566,0.15320260,0.00037371,-0.00044440,0.00033130,-0.00001008,0.000
 02266,0.00010801,0.00002825,-0.00006608,-0.00001348,-0.00002182,-0.000
 03693,-0.00001180,-0.00003714,0.00001094,-0.00004051,0.00001947,-0.000
 01839,0.00000915,0.00001162,0.00000010,0.00001764,0.00001628,0.0000068
 8,-0.00001397,0.00000645,0.00001085,0.00000472,-0.00001420,0.00000485,
 0.00000706,-0.00000720,0.00000843,-0.00000234,-0.00000844,-0.00000727,
 0.00000996,-0.00001223,0.00000063,0.00000434,-0.00013837,-0.00003077,-
 0.00008833,0.00003034,-0.00004384,0.00001799,0.00004551,-0.00005072,0.
 00003876,-0.00002339,0.00001779,-0.00003209,-0.00004204,0.00003036,-0.
 00003568,0.00001197,-0.00001054,-0.00000131,0.00000181,0.00000989,0.00
 000585,0.00000554,-0.00002350,-0.00000834,0.00001039,-0.00001519,0.000
 01743,0.00000149,-0.00001398,-0.00000338,0.00000312,-0.00001492,0.0000
 0058,0.00089618,0.00034604,0.00047034,-0.00145622,0.00310053,-0.005060
 49,-0.00416100,0.00403973,-0.00103771,-0.01161263,-0.00730658,-0.00109
 854,-0.00043245,-0.00059305,-0.00012875,-0.00278914,-0.00299816,-0.006
 60417,-0.00013083,-0.00037771,-0.00019989,-0.13782672,-0.24711405,-0.0
 7747926,0.00258238,-0.00108640,0.00143376,0.00193620,-0.00118332,0.002
 37879,0.15274319,0.25382612,-0.00037168,0.00039162,-0.00020325,0.00007
 223,-0.00000044,-0.00002087,0.00005236,-0.00003329,0.00000545,-0.00002
 829,0.00003366,0.00001238,-0.00003281,0.00001164,0.00003952,0.00000362
 ,0.00000446,0.00000078,0.00001157,-0.00001017,-0.00000178,-0.00001831,
 0.00000094,0.00000988,0.00000118,-0.00000417,-0.00000897,-0.00000579,-
 0.00000828,0.00000426,-0.00000685,0.00000029,-0.00000234,-0.00000240,0
 .00000050,0.00000189,-0.00000240,-0.00000095,0.00000110,-0.00000094,0.
 00007286,0.00006151,-0.00001465,-0.00001081,0.00001473,-0.00001534,0.0
 0002124,0.00000983,-0.00000624,0.00000791,-0.00000030,0.00002025,-0.00
 000422,-0.00001176,0.00000470,0.00000257,0.00001215,0.00000460,0.00000
 489,-0.00000295,-0.00000064,-0.00000331,-0.00000795,0.00000151,0.00000
 205,0.00000175,-0.00000061,-0.00000330,-0.00000407,0.00000250,-0.00000
 482,0.00000049,0.00047932,0.00037807,-0.00110656,0.00460607,-0.0046722
 3,-0.00259369,0.00586009,-0.00141516,0.00036199,-0.01923033,-0.0252622
 6,-0.00258907,-0.00088116,-0.00113227,-0.00044754,0.01280796,0.0174935
 4,0.01115914,0.00048125,0.00077212,0.00027764,-0.04118980,-0.07746857,
 -0.09320965,-0.00138410,0.00236664,-0.00027515,-0.00240010,0.00146490,
 -0.00041350,0.04118321,0.08700434,0.08892491||0.00000762,-0.00000313,-
 0.00000675,0.00000229,0.00000501,0.00000649,-0.00000903,0.00002347,-0.
 00000916,0.00002664,-0.00001288,-0.00000374,-0.00002303,-0.00001458,0.
 00001514,-0.00002016,-0.00000345,0.00001787,-0.00000162,0.00000025,0.0
 0000178,0.00002894,-0.00000664,0.00000947,-0.00000150,0.00000271,-0.00
 000346,-0.00000873,0.00001506,-0.00002268,0.00000500,-0.00000052,-0.00
 000002,-0.00000296,0.00000216,-0.00000236,0.00000368,-0.00000370,0.000
 00252,-0.00000487,0.00000035,-0.00001455,0.00001027,-0.00001159,0.0000
 1120,-0.00000867,0.00001209,0.00000798,-0.00000214,0.00001729,0.000006
 17,-0.00000212,-0.00000090,-0.00000145,0.00001020,-0.00001301,0.000007
 90,0.00000380,-0.00000198,0.00000128,-0.00000576,-0.00000871,-0.000016
 39,-0.00000133,-0.00000099,-0.00000276,0.00000012,0.00000287,0.0000003
 0,-0.00000138,0.00000288,0.00000110,-0.00000433,0.00000148,-0.00000364
 ,0.00000550,-0.00000692,0.00000267,-0.00000199,-0.00000011,0.00000122,
 -0.00000328,0.00001156,-0.00000597,-0.00000053,0.00000273,0.00000214,-
 0.00000698,-0.00000256,0.00000077,0.00000099,0.00000011,-0.00000013,0.
 00000853,-0.00000211,-0.00000075,-0.00000165,-0.00000177,0.00000168,-0
 .00000017,-0.00000196,-0.00000311,-0.00000135,-0.00000249,-0.00000073|
 ||@


 THE WORLD IS NOT A HAMBURGER - YOU CAN'T HAVE IT YOUR WAY.
 Job cpu time:  0 days  0 hours  6 minutes 27.0 seconds.
 File lengths (MBytes):  RWF=    350 Int=      0 D2E=      0 Chk=      7 Scr=      1
 Normal termination of Gaussian 09 at Tue Sep 07 08:48:10 2021.
