 Entering Link 1 = b:\programy\g09w\l1.exe PID=     15876.
  
 Copyright (c) 1988,1990,1992,1993,1995,1998,2003,2009, Gaussian, Inc.
                  All Rights Reserved.
  
 This is part of the Gaussian(R) 09 program.  It is based on
 the Gaussian(R) 03 system (copyright 2003, Gaussian, Inc.),
 the Gaussian(R) 98 system (copyright 1998, Gaussian, Inc.),
 the Gaussian(R) 94 system (copyright 1995, Gaussian, Inc.),
 the Gaussian 92(TM) system (copyright 1992, Gaussian, Inc.),
 the Gaussian 90(TM) system (copyright 1990, Gaussian, Inc.),
 the Gaussian 88(TM) system (copyright 1988, Gaussian, Inc.),
 the Gaussian 86(TM) system (copyright 1986, Carnegie Mellon
 University), and the Gaussian 82(TM) system (copyright 1983,
 Carnegie Mellon University). Gaussian is a federally registered
 trademark of Gaussian, Inc.
  
 This software contains proprietary and confidential information,
 including trade secrets, belonging to Gaussian, Inc.
  
 This software is provided under written license and may be
 used, copied, transmitted, or stored only in accord with that
 written license.
  
 The following legend is applicable only to US Government
 contracts under FAR:
  
                    RESTRICTED RIGHTS LEGEND
  
 Use, reproduction and disclosure by the US Government is
 subject to restrictions as set forth in subparagraphs (a)
 and (c) of the Commercial Computer Software - Restricted
 Rights clause in FAR 52.227-19.
  
 Gaussian, Inc.
 340 Quinnipiac St., Bldg. 40, Wallingford CT 06492
  
  
 ---------------------------------------------------------------
 Warning -- This program may not be used in any manner that
 competes with the business of Gaussian, Inc. or will provide
 assistance to any competitor of Gaussian, Inc.  The licensee
 of this program is prohibited from giving any competitor of
 Gaussian, Inc. access to this program.  By using this program,
 the user acknowledges that Gaussian, Inc. is engaged in the
 business of creating and licensing software in the field of
 computational chemistry and represents and warrants to the
 licensee that it is not a competitor of Gaussian, Inc. and that
 it will not use this program in any manner prohibited above.
 ---------------------------------------------------------------
  

 Cite this work as:
 Gaussian 09, Revision A.02,
 M. J. Frisch, G. W. Trucks, H. B. Schlegel, G. E. Scuseria, 
 M. A. Robb, J. R. Cheeseman, G. Scalmani, V. Barone, B. Mennucci, 
 G. A. Petersson, H. Nakatsuji, M. Caricato, X. Li, H. P. Hratchian, 
 A. F. Izmaylov, J. Bloino, G. Zheng, J. L. Sonnenberg, M. Hada, 
 M. Ehara, K. Toyota, R. Fukuda, J. Hasegawa, M. Ishida, T. Nakajima, 
 Y. Honda, O. Kitao, H. Nakai, T. Vreven, J. A. Montgomery, Jr., 
 J. E. Peralta, F. Ogliaro, M. Bearpark, J. J. Heyd, E. Brothers, 
 K. N. Kudin, V. N. Staroverov, R. Kobayashi, J. Normand, 
 K. Raghavachari, A. Rendell, J. C. Burant, S. S. Iyengar, J. Tomasi, 
 M. Cossi, N. Rega, J. M. Millam, M. Klene, J. E. Knox, J. B. Cross, 
 V. Bakken, C. Adamo, J. Jaramillo, R. Gomperts, R. E. Stratmann, 
 O. Yazyev, A. J. Austin, R. Cammi, C. Pomelli, J. W. Ochterski, 
 R. L. Martin, K. Morokuma, V. G. Zakrzewski, G. A. Voth, 
 P. Salvador, J. J. Dannenberg, S. Dapprich, A. D. Daniels, 
 O. Farkas, J. B. Foresman, J. V. Ortiz, J. Cioslowski, 
 and D. J. Fox, Gaussian, Inc., Wallingford CT, 2009.
 
 ******************************************
 Gaussian 09:  IA32W-G09RevA.02 11-Jun-2009
                06-Sep-2021 
 ******************************************
 %nprocshared=12
 Will use up to   12 processors via shared memory.
 ----------------------------------------------
 # opt freq=noraman hf/6-311g geom=connectivity
 ----------------------------------------------
 1/18=20,19=15,38=1,57=2/1,3;
 2/9=110,12=2,17=6,18=5,40=1/2;
 3/5=4,6=6,11=9,16=1,25=1,30=1,71=1/1,2,3;
 4//1;
 5/5=2,38=5/2;
 6/7=2,8=2,9=2,10=2,28=1/1;
 7//1,2,3,16;
 1/18=20,19=15/3(2);
 2/9=110/2;
 99//99;
 2/9=110/2;
 3/5=4,6=6,11=9,16=1,25=1,30=1,71=1/1,2,3;
 4/5=5,16=3/1;
 5/5=2,38=5/2;
 7//1,2,3,16;
 1/18=20,19=15/3(-5);
 2/9=110/2;
 6/7=2,8=2,9=2,10=2,19=2,28=1/1;
 99/9=1/99;
 -----
 M0001
 -----
 Symbolic Z-matrix:
 Charge =  0 Multiplicity = 1
 C                    -0.03077  -0.76236   0.09483 
 H                    -0.06555  -1.86766   0.29583 
 C                     1.40672  -0.32993   0.25041 
 C                     2.38833  -1.30094   0.46227 
 C                     1.78037   1.01429   0.20897 
 C                     3.71719  -0.93046   0.63509 
 H                     2.11241  -2.36167   0.49367 
 C                     3.10835   1.38367   0.38572 
 H                     1.00995   1.7752    0.01271 
 C                     4.07941   0.41166   0.60072 
 H                     4.47941  -1.69888   0.80025 
 H                     3.38836   2.44153   0.35456 
 H                     5.1255    0.70201   0.74087 
 C                    -0.55921  -0.56888  -1.30475 
 C                    -1.30329  -1.60198  -1.88276 
 C                    -0.33781   0.59652  -2.04055 
 C                    -1.81208  -1.47015  -3.16931 
 H                    -1.48965  -2.52416  -1.31956 
 C                    -0.84521   0.72577  -3.32838 
 H                     0.25135   1.41494  -1.59611 
 C                    -1.58358  -0.3064   -3.8957 
 H                    -2.39335  -2.28596  -3.61135 
 H                    -0.66064   1.64387  -3.89559 
 H                    -1.9828   -0.20422  -4.90979 
 C                    -0.89186  -0.10844   1.14883 
 C                    -0.97914  -0.71697   2.40513 
 C                    -1.59216   1.07554   0.92035 
 C                    -1.75122  -0.14888   3.41056 
 H                    -0.43231  -1.64662   2.60145 
 C                    -2.36656   1.64135   1.92781 
 H                    -1.54059   1.56053  -0.0627 
 C                    -2.44739   1.03209   3.17412 
 H                    -1.81145  -0.63262   4.39082 
 H                    -2.91407   2.5697    1.73526 
 H                    -3.05667   1.47853   3.96633 
 

 GradGradGradGradGradGradGradGradGradGradGradGradGradGradGradGradGradGrad
 Berny optimization.
 Initialization pass.
                           ----------------------------
                           !    Initial Parameters    !
                           ! (Angstroms and Degrees)  !
 --------------------------                            --------------------------
 ! Name  Definition              Value          Derivative Info.                !
 --------------------------------------------------------------------------------
 ! R1    R(1,2)                  1.124          estimate D2E/DX2                !
 ! R2    R(1,3)                  1.5092         estimate D2E/DX2                !
 ! R3    R(1,14)                 1.5085         estimate D2E/DX2                !
 ! R4    R(1,25)                 1.51           estimate D2E/DX2                !
 ! R5    R(3,4)                  1.3969         estimate D2E/DX2                !
 ! R6    R(3,5)                  1.3958         estimate D2E/DX2                !
 ! R7    R(4,6)                  1.3903         estimate D2E/DX2                !
 ! R8    R(4,7)                  1.0965         estimate D2E/DX2                !
 ! R9    R(5,8)                  1.3897         estimate D2E/DX2                !
 ! R10   R(5,9)                  1.1005         estimate D2E/DX2                !
 ! R11   R(6,10)                 1.3906         estimate D2E/DX2                !
 ! R12   R(6,11)                 1.0949         estimate D2E/DX2                !
 ! R13   R(8,10)                 1.3907         estimate D2E/DX2                !
 ! R14   R(8,12)                 1.0947         estimate D2E/DX2                !
 ! R15   R(10,13)                1.0946         estimate D2E/DX2                !
 ! R16   R(14,15)                1.3982         estimate D2E/DX2                !
 ! R17   R(14,16)                1.3959         estimate D2E/DX2                !
 ! R18   R(15,17)                1.3898         estimate D2E/DX2                !
 ! R19   R(15,18)                1.0965         estimate D2E/DX2                !
 ! R20   R(16,19)                1.3902         estimate D2E/DX2                !
 ! R21   R(16,20)                1.102          estimate D2E/DX2                !
 ! R22   R(17,21)                1.3907         estimate D2E/DX2                !
 ! R23   R(17,22)                1.0949         estimate D2E/DX2                !
 ! R24   R(19,21)                1.3901         estimate D2E/DX2                !
 ! R25   R(19,23)                1.0949         estimate D2E/DX2                !
 ! R26   R(21,24)                1.0946         estimate D2E/DX2                !
 ! R27   R(25,26)                1.3987         estimate D2E/DX2                !
 ! R28   R(25,27)                1.3944         estimate D2E/DX2                !
 ! R29   R(26,28)                1.3891         estimate D2E/DX2                !
 ! R30   R(26,29)                1.0963         estimate D2E/DX2                !
 ! R31   R(27,30)                1.391          estimate D2E/DX2                !
 ! R32   R(27,31)                1.0974         estimate D2E/DX2                !
 ! R33   R(28,32)                1.3911         estimate D2E/DX2                !
 ! R34   R(28,33)                1.0948         estimate D2E/DX2                !
 ! R35   R(30,32)                1.3896         estimate D2E/DX2                !
 ! R36   R(30,34)                1.0948         estimate D2E/DX2                !
 ! R37   R(32,35)                1.0946         estimate D2E/DX2                !
 ! A1    A(2,1,3)              107.0265         estimate D2E/DX2                !
 ! A2    A(2,1,14)             106.3327         estimate D2E/DX2                !
 ! A3    A(2,1,25)             106.4635         estimate D2E/DX2                !
 ! A4    A(3,1,14)             113.1145         estimate D2E/DX2                !
 ! A5    A(3,1,25)             110.3121         estimate D2E/DX2                !
 ! A6    A(14,1,25)            113.0989         estimate D2E/DX2                !
 ! A7    A(1,3,4)              119.0647         estimate D2E/DX2                !
 ! A8    A(1,3,5)              121.8616         estimate D2E/DX2                !
 ! A9    A(4,3,5)              119.0663         estimate D2E/DX2                !
 ! A10   A(3,4,6)              120.3494         estimate D2E/DX2                !
 ! A11   A(3,4,7)              119.9979         estimate D2E/DX2                !
 ! A12   A(6,4,7)              119.6527         estimate D2E/DX2                !
 ! A13   A(3,5,8)              120.5315         estimate D2E/DX2                !
 ! A14   A(3,5,9)              118.9321         estimate D2E/DX2                !
 ! A15   A(8,5,9)              120.5236         estimate D2E/DX2                !
 ! A16   A(4,6,10)             120.2044         estimate D2E/DX2                !
 ! A17   A(4,6,11)             119.8105         estimate D2E/DX2                !
 ! A18   A(10,6,11)            119.985          estimate D2E/DX2                !
 ! A19   A(5,8,10)             120.076          estimate D2E/DX2                !
 ! A20   A(5,8,12)             119.8447         estimate D2E/DX2                !
 ! A21   A(10,8,12)            120.0793         estimate D2E/DX2                !
 ! A22   A(6,10,8)             119.7704         estimate D2E/DX2                !
 ! A23   A(6,10,13)            120.1173         estimate D2E/DX2                !
 ! A24   A(8,10,13)            120.1122         estimate D2E/DX2                !
 ! A25   A(1,14,15)            118.3724         estimate D2E/DX2                !
 ! A26   A(1,14,16)            122.7227         estimate D2E/DX2                !
 ! A27   A(15,14,16)           118.9048         estimate D2E/DX2                !
 ! A28   A(14,15,17)           120.4923         estimate D2E/DX2                !
 ! A29   A(14,15,18)           119.9671         estimate D2E/DX2                !
 ! A30   A(17,15,18)           119.5405         estimate D2E/DX2                !
 ! A31   A(14,16,19)           120.5321         estimate D2E/DX2                !
 ! A32   A(14,16,20)           119.4876         estimate D2E/DX2                !
 ! A33   A(19,16,20)           119.9785         estimate D2E/DX2                !
 ! A34   A(15,17,21)           120.1811         estimate D2E/DX2                !
 ! A35   A(15,17,22)           119.8294         estimate D2E/DX2                !
 ! A36   A(21,17,22)           119.9895         estimate D2E/DX2                !
 ! A37   A(16,19,21)           120.191          estimate D2E/DX2                !
 ! A38   A(16,19,23)           119.759          estimate D2E/DX2                !
 ! A39   A(21,19,23)           120.05           estimate D2E/DX2                !
 ! A40   A(17,21,19)           119.6984         estimate D2E/DX2                !
 ! A41   A(17,21,24)           120.1369         estimate D2E/DX2                !
 ! A42   A(19,21,24)           120.1647         estimate D2E/DX2                !
 ! A43   A(1,25,26)            118.3044         estimate D2E/DX2                !
 ! A44   A(1,25,27)            122.6657         estimate D2E/DX2                !
 ! A45   A(26,25,27)           119.0289         estimate D2E/DX2                !
 ! A46   A(25,26,28)           120.4562         estimate D2E/DX2                !
 ! A47   A(25,26,29)           119.9121         estimate D2E/DX2                !
 ! A48   A(28,26,29)           119.6313         estimate D2E/DX2                !
 ! A49   A(25,27,30)           120.418          estimate D2E/DX2                !
 ! A50   A(25,27,31)           119.896          estimate D2E/DX2                !
 ! A51   A(30,27,31)           119.6837         estimate D2E/DX2                !
 ! A52   A(26,28,32)           120.1515         estimate D2E/DX2                !
 ! A53   A(26,28,33)           119.8646         estimate D2E/DX2                !
 ! A54   A(32,28,33)           119.9839         estimate D2E/DX2                !
 ! A55   A(27,30,32)           120.2405         estimate D2E/DX2                !
 ! A56   A(27,30,34)           119.7321         estimate D2E/DX2                !
 ! A57   A(32,30,34)           120.0274         estimate D2E/DX2                !
 ! A58   A(28,32,30)           119.7048         estimate D2E/DX2                !
 ! A59   A(28,32,35)           120.1184         estimate D2E/DX2                !
 ! A60   A(30,32,35)           120.1768         estimate D2E/DX2                !
 ! D1    D(2,1,3,4)              5.9857         estimate D2E/DX2                !
 ! D2    D(2,1,3,5)           -173.0182         estimate D2E/DX2                !
 ! D3    D(14,1,3,4)          -110.7894         estimate D2E/DX2                !
 ! D4    D(14,1,3,5)            70.2066         estimate D2E/DX2                !
 ! D5    D(25,1,3,4)           121.4154         estimate D2E/DX2                !
 ! D6    D(25,1,3,5)           -57.5885         estimate D2E/DX2                !
 ! D7    D(2,1,14,15)           18.0617         estimate D2E/DX2                !
 ! D8    D(2,1,14,16)         -162.0746         estimate D2E/DX2                !
 ! D9    D(3,1,14,15)          135.2452         estimate D2E/DX2                !
 ! D10   D(3,1,14,16)          -44.8911         estimate D2E/DX2                !
 ! D11   D(25,1,14,15)         -98.4287         estimate D2E/DX2                !
 ! D12   D(25,1,14,16)          81.435          estimate D2E/DX2                !
 ! D13   D(2,1,25,26)           30.861          estimate D2E/DX2                !
 ! D14   D(2,1,25,27)         -149.5233         estimate D2E/DX2                !
 ! D15   D(3,1,25,26)          -84.9221         estimate D2E/DX2                !
 ! D16   D(3,1,25,27)           94.6936         estimate D2E/DX2                !
 ! D17   D(14,1,25,26)         147.2741         estimate D2E/DX2                !
 ! D18   D(14,1,25,27)         -33.1102         estimate D2E/DX2                !
 ! D19   D(1,3,4,6)           -178.7473         estimate D2E/DX2                !
 ! D20   D(1,3,4,7)              1.2092         estimate D2E/DX2                !
 ! D21   D(5,3,4,6)              0.2848         estimate D2E/DX2                !
 ! D22   D(5,3,4,7)           -179.7586         estimate D2E/DX2                !
 ! D23   D(1,3,5,8)            178.53           estimate D2E/DX2                !
 ! D24   D(1,3,5,9)             -2.7617         estimate D2E/DX2                !
 ! D25   D(4,3,5,8)             -0.474          estimate D2E/DX2                !
 ! D26   D(4,3,5,9)            178.2344         estimate D2E/DX2                !
 ! D27   D(3,4,6,10)             0.1172         estimate D2E/DX2                !
 ! D28   D(3,4,6,11)          -179.9804         estimate D2E/DX2                !
 ! D29   D(7,4,6,10)          -179.8395         estimate D2E/DX2                !
 ! D30   D(7,4,6,11)             0.0629         estimate D2E/DX2                !
 ! D31   D(3,5,8,10)             0.261          estimate D2E/DX2                !
 ! D32   D(3,5,8,12)          -179.7857         estimate D2E/DX2                !
 ! D33   D(9,5,8,10)          -178.4267         estimate D2E/DX2                !
 ! D34   D(9,5,8,12)             1.5266         estimate D2E/DX2                !
 ! D35   D(4,6,10,8)            -0.3343         estimate D2E/DX2                !
 ! D36   D(4,6,10,13)          179.76           estimate D2E/DX2                !
 ! D37   D(11,6,10,8)          179.7635         estimate D2E/DX2                !
 ! D38   D(11,6,10,13)          -0.1422         estimate D2E/DX2                !
 ! D39   D(5,8,10,6)             0.1461         estimate D2E/DX2                !
 ! D40   D(5,8,10,13)         -179.9483         estimate D2E/DX2                !
 ! D41   D(12,8,10,6)         -179.8071         estimate D2E/DX2                !
 ! D42   D(12,8,10,13)           0.0985         estimate D2E/DX2                !
 ! D43   D(1,14,15,17)         179.9486         estimate D2E/DX2                !
 ! D44   D(1,14,15,18)           0.0053         estimate D2E/DX2                !
 ! D45   D(16,14,15,17)          0.0795         estimate D2E/DX2                !
 ! D46   D(16,14,15,18)       -179.8637         estimate D2E/DX2                !
 ! D47   D(1,14,16,19)         179.9302         estimate D2E/DX2                !
 ! D48   D(1,14,16,20)           0.4224         estimate D2E/DX2                !
 ! D49   D(15,14,16,19)         -0.2068         estimate D2E/DX2                !
 ! D50   D(15,14,16,20)       -179.7146         estimate D2E/DX2                !
 ! D51   D(14,15,17,21)          0.0673         estimate D2E/DX2                !
 ! D52   D(14,15,17,22)       -179.996          estimate D2E/DX2                !
 ! D53   D(18,15,17,21)       -179.9892         estimate D2E/DX2                !
 ! D54   D(18,15,17,22)         -0.0525         estimate D2E/DX2                !
 ! D55   D(14,16,19,21)          0.1879         estimate D2E/DX2                !
 ! D56   D(14,16,19,23)       -179.7641         estimate D2E/DX2                !
 ! D57   D(20,16,19,21)        179.6933         estimate D2E/DX2                !
 ! D58   D(20,16,19,23)         -0.2587         estimate D2E/DX2                !
 ! D59   D(15,17,21,19)         -0.0882         estimate D2E/DX2                !
 ! D60   D(15,17,21,24)        179.8662         estimate D2E/DX2                !
 ! D61   D(22,17,21,19)        179.9751         estimate D2E/DX2                !
 ! D62   D(22,17,21,24)         -0.0705         estimate D2E/DX2                !
 ! D63   D(16,19,21,17)         -0.0386         estimate D2E/DX2                !
 ! D64   D(16,19,21,24)       -179.993          estimate D2E/DX2                !
 ! D65   D(23,19,21,17)        179.9133         estimate D2E/DX2                !
 ! D66   D(23,19,21,24)         -0.0411         estimate D2E/DX2                !
 ! D67   D(1,25,26,28)         179.562          estimate D2E/DX2                !
 ! D68   D(1,25,26,29)          -0.1982         estimate D2E/DX2                !
 ! D69   D(27,25,26,28)         -0.068          estimate D2E/DX2                !
 ! D70   D(27,25,26,29)       -179.8281         estimate D2E/DX2                !
 ! D71   D(1,25,27,30)        -179.6602         estimate D2E/DX2                !
 ! D72   D(1,25,27,31)           0.9034         estimate D2E/DX2                !
 ! D73   D(26,25,27,30)         -0.0472         estimate D2E/DX2                !
 ! D74   D(26,25,27,31)       -179.4836         estimate D2E/DX2                !
 ! D75   D(25,26,28,32)          0.1063         estimate D2E/DX2                !
 ! D76   D(25,26,28,33)       -179.9075         estimate D2E/DX2                !
 ! D77   D(29,26,28,32)        179.8672         estimate D2E/DX2                !
 ! D78   D(29,26,28,33)         -0.1467         estimate D2E/DX2                !
 ! D79   D(25,27,30,32)          0.1247         estimate D2E/DX2                !
 ! D80   D(25,27,30,34)       -179.8245         estimate D2E/DX2                !
 ! D81   D(31,27,30,32)        179.5623         estimate D2E/DX2                !
 ! D82   D(31,27,30,34)         -0.387          estimate D2E/DX2                !
 ! D83   D(26,28,32,30)         -0.0288         estimate D2E/DX2                !
 ! D84   D(26,28,32,35)        179.9186         estimate D2E/DX2                !
 ! D85   D(33,28,32,30)        179.9851         estimate D2E/DX2                !
 ! D86   D(33,28,32,35)         -0.0676         estimate D2E/DX2                !
 ! D87   D(27,30,32,28)         -0.0863         estimate D2E/DX2                !
 ! D88   D(27,30,32,35)        179.9664         estimate D2E/DX2                !
 ! D89   D(34,30,32,28)        179.8628         estimate D2E/DX2                !
 ! D90   D(34,30,32,35)         -0.0845         estimate D2E/DX2                !
 --------------------------------------------------------------------------------
 Trust Radius=3.00D-01 FncErr=1.00D-07 GrdErr=1.00D-07
 Number of steps in this run= 197 maximum allowed number of steps= 210.
 GradGradGradGradGradGradGradGradGradGradGradGradGradGradGradGradGradGrad

                          Input orientation:                          
 ---------------------------------------------------------------------
 Center     Atomic      Atomic             Coordinates (Angstroms)
 Number     Number       Type             X           Y           Z
 ---------------------------------------------------------------------
      1          6           0       -0.030772   -0.762363    0.094831
      2          1           0       -0.065548   -1.867659    0.295833
      3          6           0        1.406720   -0.329931    0.250411
      4          6           0        2.388333   -1.300936    0.462271
      5          6           0        1.780372    1.014291    0.208969
      6          6           0        3.717189   -0.930456    0.635088
      7          1           0        2.112411   -2.361673    0.493673
      8          6           0        3.108347    1.383667    0.385725
      9          1           0        1.009950    1.775204    0.012714
     10          6           0        4.079410    0.411662    0.600723
     11          1           0        4.479414   -1.698880    0.800245
     12          1           0        3.388360    2.441531    0.354559
     13          1           0        5.125496    0.702011    0.740868
     14          6           0       -0.559210   -0.568883   -1.304753
     15          6           0       -1.303292   -1.601979   -1.882763
     16          6           0       -0.337807    0.596516   -2.040547
     17          6           0       -1.812078   -1.470152   -3.169310
     18          1           0       -1.489652   -2.524159   -1.319556
     19          6           0       -0.845211    0.725768   -3.328384
     20          1           0        0.251355    1.414936   -1.596113
     21          6           0       -1.583577   -0.306404   -3.895698
     22          1           0       -2.393349   -2.285961   -3.611350
     23          1           0       -0.660645    1.643871   -3.895592
     24          1           0       -1.982795   -0.204222   -4.909786
     25          6           0       -0.891855   -0.108440    1.148826
     26          6           0       -0.979144   -0.716965    2.405132
     27          6           0       -1.592157    1.075539    0.920347
     28          6           0       -1.751221   -0.148884    3.410559
     29          1           0       -0.432310   -1.646616    2.601446
     30          6           0       -2.366564    1.641347    1.927808
     31          1           0       -1.540586    1.560526   -0.062701
     32          6           0       -2.447392    1.032085    3.174116
     33          1           0       -1.811455   -0.632619    4.390815
     34          1           0       -2.914071    2.569695    1.735259
     35          1           0       -3.056667    1.478533    3.966335
 ---------------------------------------------------------------------
                    Distance matrix (angstroms):
                    1          2          3          4          5
     1  C    0.000000
     2  H    1.123961   0.000000
     3  C    1.509167   2.129377   0.000000
     4  C    2.505422   2.523967   1.396889   0.000000
     5  C    2.539640   3.423537   1.395803   2.407084   0.000000
     6  C    3.790428   3.911847   2.418030   1.390316   2.777567
     7  H    2.703720   2.242030   2.164521   1.096487   3.404180
     8  C    3.813677   4.544537   2.418731   2.780535   1.389676
     9  H    2.743920   3.808846   2.155348   3.400688   1.100479
    10  C    4.304400   4.740142   2.795702   2.410789   2.408778
    11  H    4.660091   4.575981   3.408488   2.155274   3.872433
    12  H    4.692852   5.522866   3.408628   3.875269   2.154956
    13  H    5.398967   5.809320   3.890339   3.403156   3.401513
    14  C    1.508481   2.119526   2.518038   3.513728   3.204908
    15  C    2.497026   2.519697   3.675963   4.383823   4.552932
    16  C    2.549640   3.406605   3.024925   4.158878   3.117939
    17  C    3.785318   3.900717   4.832728   5.555220   5.521859
    18  H    2.689377   2.251343   3.958334   4.439589   5.054708
    19  C    3.820504   4.524233   4.358150   5.378885   4.414725
    20  H    2.771195   3.802015   2.790893   4.022385   2.399319
    21  C    4.306208   4.723437   5.112011   5.979721   5.468883
    22  H    4.651764   4.567243   5.760190   6.358392   6.550302
    23  H    4.702146   5.500275   5.035796   6.079402   4.816882
    24  H    5.400751   5.791487   6.175132   7.012029   6.468992
    25  C    1.509963   2.122553   2.477833   3.557111   3.047073
    26  C    2.497791   2.570583   3.238050   3.931365   3.928779
    27  C    2.548977   3.373865   3.378968   4.658515   3.447283
    28  C    3.785545   3.936648   4.471230   5.211097   4.906658
    29  H    2.688170   2.345044   3.262370   3.556908   4.207176
    30  C    3.820151   4.502348   4.575726   5.780473   4.532624
    31  H    2.774918   3.749231   3.515463   4.888759   3.376527
    32  C    4.306054   4.729294   5.025667   6.015092   5.163952
    33  H    4.652219   4.619783   5.252734   5.789501   5.753379
    34  H    4.701812   5.465907   5.411270   6.687135   5.175581
    35  H    5.400574   5.797963   6.082800   7.046413   6.142496
                    6          7          8          9         10
     6  C    0.000000
     7  H    2.154923   0.000000
     8  C    2.405834   3.876998   0.000000
     9  H    3.877769   4.308190   2.166958   0.000000
    10  C    1.390563   3.401754   1.390678   3.409778   0.000000
    11  H    1.094870   2.477092   3.399082   4.972590   2.157360
    12  H    3.399576   4.971737   1.094739   2.493529   2.158359
    13  H    2.158579   4.304177   2.158628   4.315051   1.094640
    14  C    4.709703   3.685917   4.485659   3.113315   5.109707
    15  C    5.656478   4.229848   5.789877   4.511018   6.260666
    16  C    5.092510   4.601818   4.287467   2.724268   5.149979
    17  C    6.733313   5.441863   6.707692   5.349903   7.243204
    18  H    5.785475   4.035971   6.270620   5.148541   6.581867
    19  C    6.266393   5.734801   5.464252   3.963064   6.307808
    20  H    4.742481   4.700374   3.477220   1.814823   4.526219
    21  C    7.001113   6.095165   6.572752   5.131779   7.266556
    22  H    7.563617   6.095804   7.727318   6.419451   8.180180
    23  H    6.805854   6.557429   5.709875   4.252410   6.648557
    24  H    7.985165   7.114962   7.515554   6.091441   8.215556
    25  C    4.709876   3.812073   4.337087   2.907874   5.028360
    26  C    5.023363   3.989543   5.019785   3.986361   5.488047
    27  C    5.682829   5.071519   4.740833   2.843289   5.719228
    28  C    6.182039   5.322810   5.925684   4.782419   6.496587
    29  H    4.647343   3.380773   5.160260   4.526644   5.347431
    30  C    6.730330   6.175932   5.693774   3.884115   6.695063
    31  H    5.859701   5.388653   4.673856   2.560665   5.774459
    32  C    6.949842   6.284440   6.226152   4.743407   7.043183
    33  H    6.690299   5.794314   6.656621   5.738093   7.082204
    34  H    7.578591   7.150207   6.284697   4.358477   7.406286
    35  H    7.923734   7.316142   7.130018   5.679481   7.961730
                   11         12         13         14         15
    11  H    0.000000
    12  H    4.304886   0.000000
    13  H    2.487011   2.488535   0.000000
    14  C    5.576347   5.234426   6.173784   0.000000
    15  C    6.375548   6.585376   7.315813   1.398228   0.000000
    16  C    6.045211   4.798430   6.131483   1.395912   2.406333
    17  C    7.442618   7.400235   8.254557   2.420442   1.389764
    18  H    6.387832   7.159311   7.642886   2.165420   1.096516
    19  C    7.160736   5.867797   7.225560   2.419298   2.778140
    20  H    5.771904   3.834034   5.452247   2.162740   3.406005
    21  C    7.794276   7.094786   8.217439   2.798432   2.410183
    22  H    8.187901   8.456109   9.187100   3.410692   2.155011
    23  H    7.723023   5.924060   7.474175   3.408668   3.872986
    24  H    8.752064   7.972619   9.125730   3.893050   3.402693
    25  C    5.612624   5.045142   6.085374   2.518474   3.404478
    26  C    5.773706   5.766805   6.484589   3.736511   4.390258
    27  C    6.676512   5.195344   6.730423   2.953332   3.887154
    28  C    6.930876   6.516493   7.425665   4.881746   5.507393
    29  H    5.231835   6.029840   6.314032   4.054134   4.568231
    30  C    7.700385   6.019515   7.643437   4.312899   5.115678
    31  H    6.899914   5.024419   6.769004   2.653333   3.656552
    32  C    7.814991   6.632681   7.961048   5.117480   5.815435
    33  H    7.321485   7.264974   7.951392   5.831953   6.368334
    34  H    8.588284   6.453170   8.313344   4.963640   5.752178
    35  H    8.769983   7.450548   8.829179   6.181712   6.839285
                   16         17         18         19         20
    16  C    0.000000
    17  C    2.778255   0.000000
    18  H    3.403702   2.153248   0.000000
    19  C    1.390212   2.404621   3.874625   0.000000
    20  H    1.102018   3.880263   4.315560   2.162909   0.000000
    21  C    2.410144   1.390742   3.400554   1.390111   3.408530
    22  H    3.873158   1.094906   2.475021   3.398134   4.975167
    23  H    2.154615   3.398592   4.969475   1.094853   2.484303
    24  H    3.402896   2.158931   4.302912   2.158660   4.312022
    25  C    3.313010   4.620322   3.505135   4.554503   3.341002
    26  C    4.679809   5.686429   4.171315   5.913766   4.697775
    27  C    3.251115   4.822261   4.240931   4.328046   3.137880
    28  C    5.680485   6.711492   5.299465   6.855598   5.614499
    29  H    5.156421   5.936037   4.154794   6.400124   5.240229
    30  C    4.577704   5.997457   5.354044   5.548005   4.395768
    31  H    2.507562   4.348533   4.273983   3.441665   2.362964
    32  C    5.642055   6.848641   5.810097   6.703979   5.494078
    33  H    6.711545   7.606376   6.024103   7.897144   6.655146
    34  H    4.978683   6.448996   6.108045   5.772411   4.738293
    35  H    6.652277   7.820561   6.813055   7.659642   6.472084
                   21         22         23         24         25
    21  C    0.000000
    22  H    2.157599   0.000000
    23  H    2.157632   4.304258   0.000000
    24  H    1.094619   2.487595   2.488397   0.000000
    25  C    5.095576   5.445674   5.345111   6.156794   0.000000
    26  C    6.343056   6.376503   6.736031   7.401233   1.398651
    27  C    5.010402   5.698936   4.938014   5.981709   1.394429
    28  C    7.309877   7.367946   7.601524   8.323751   2.419830
    29  H    6.733088   6.546242   7.286353   7.804045   2.165011
    30  C    6.190318   6.790195   6.068126   7.092679   2.417298
    31  H    4.263701   5.302413   3.933484   5.177270   2.161966
    32  C    7.247069   7.553470   7.317617   8.191080   2.796836
    33  H    8.296063   8.191874   8.670139   9.312039   3.410413
    34  H    6.461411   7.241186   6.135272   7.260751   3.406709
    35  H    8.195582   8.487209   8.220593   9.097823   3.891432
                   26         27         28         29         30
    26  C    0.000000
    27  C    2.406957   0.000000
    28  C    1.389137   2.779509   0.000000
    29  H    1.096274   3.403155   2.153459   0.000000
    30  C    2.777482   1.390979   2.404604   3.873735   0.000000
    31  H    3.404759   1.097385   3.876852   4.314130   2.156594
    32  C    2.409620   2.410973   1.391132   3.400581   1.389610
    33  H    2.154714   3.874280   1.094774   2.476302   3.397862
    34  H    3.872314   2.155004   3.398459   4.968571   1.094838
    35  H    3.402010   3.403709   2.159066   4.303106   2.158319
                   31         32         33         34         35
    31  H    0.000000
    32  C    3.402724   0.000000
    33  H    4.971626   2.157780   0.000000
    34  H    2.477406   2.156929   4.303784   0.000000
    35  H    4.305619   1.094596   2.487509   2.487703   0.000000
 Stoichiometry    C19H16
 Framework group  C1[X(C19H16)]
 Deg. of freedom    99
 Full point group                 C1      NOp   1
 Largest Abelian subgroup         C1      NOp   1
 Largest concise Abelian subgroup C1      NOp   1
                         Standard orientation:                         
 ---------------------------------------------------------------------
 Center     Atomic      Atomic             Coordinates (Angstroms)
 Number     Number       Type             X           Y           Z
 ---------------------------------------------------------------------
      1          6           0        0.023104   -0.011482   -0.754467
      2          1           0        0.000432   -0.005774   -1.878186
      3          6           0       -0.901106   -1.114367   -0.299422
      4          6           0       -1.472944   -1.957934   -1.254772
      5          6           0       -1.216701   -1.302537    1.047151
      6          6           0       -2.348472   -2.966167   -0.867609
      7          1           0       -1.232564   -1.826307   -2.316456
      8          6           0       -2.094987   -2.308154    1.432566
      9          1           0       -0.742313   -0.655716    1.800566
     10          6           0       -2.663931   -3.141222    0.475338
     11          1           0       -2.791358   -3.622512   -1.623787
     12          1           0       -2.337340   -2.443492    2.491529
     13          1           0       -3.356483   -3.932989    0.778184
     14          6           0        1.460638   -0.243178   -0.360348
     15          6           0        2.456383   -0.015085   -1.315076
     16          6           0        1.833854   -0.671571    0.914704
     17          6           0        3.795102   -0.213582   -0.999048
     18          1           0        2.182962    0.323861   -2.321409
     19          6           0        3.173258   -0.872194    1.228448
     20          1           0        1.056606   -0.858801    1.673174
     21          6           0        4.156869   -0.643494    0.273141
     22          1           0        4.565941   -0.031602   -1.755031
     23          1           0        3.451478   -1.212085    2.231329
     24          1           0        5.211345   -0.801707    0.520605
     25          6           0       -0.504205    1.331454   -0.308983
     26          6           0       -1.453804    1.970811   -1.112544
     27          6           0       -0.088381    1.950017    0.869534
     28          6           0       -1.975702    3.203317   -0.740722
     29          1           0       -1.793094    1.496252   -2.040710
     30          6           0       -0.610538    3.185286    1.238702
     31          1           0        0.662262    1.465048    1.506397
     32          6           0       -1.554897    3.813988    0.436246
     33          1           0       -2.719657    3.694435   -1.376226
     34          1           0       -0.273942    3.662173    2.164960
     35          1           0       -1.965510    4.785789    0.728034
 ---------------------------------------------------------------------
 Rotational constants (GHZ):      0.4000353      0.3721293      0.2369002
 Standard basis: 6-311G (5D, 7F)
 There are   295 symmetry adapted basis functions of A   symmetry.
 Integral buffers will be    262144 words long.
 Raffenetti 1 integral format.
 Two-electron integral symmetry is turned on.
   295 basis functions,   574 primitive gaussians,   295 cartesian basis functions
    65 alpha electrons       65 beta electrons
       nuclear repulsion energy      1288.4041331630 Hartrees.
 NAtoms=   35 NActive=   35 NUniq=   35 SFac= 7.50D-01 NAtFMM=   80 NAOKFM=F Big=F
 One-electron integrals computed using PRISM.
 PrsmSu:  requested number of processors reduced to:  10 ShMem   1 Linda.
 NBasis=   295 RedAO= T  NBF=   295
 NBsUse=   295 1.00D-06 NBFU=   295
 Harris functional with IExCor=  205 diagonalized for initial guess.
 ExpMin= 1.03D-01 ExpMax= 4.56D+03 ExpMxC= 6.82D+02 IAcc=1 IRadAn=         1 AccDes= 0.00D+00
 HarFok:  IExCor=  205 AccDes= 0.00D+00 IRadAn=         1 IDoV= 1
 ScaDFX=  1.000000  1.000000  1.000000  1.000000
 FoFCou: FMM=F IPFlag=           0 FMFlag=      100000 FMFlg1=           0
         NFxFlg=           0 DoJE=T BraDBF=F KetDBF=T FulRan=T
         Omega=  0.000000  0.000000  1.000000  0.000000  0.000000 ICntrl=     500 IOpCl=  0
         NMat0=    1 NMatS0=    1 NMatT0=    0 NMatD0=    1 NMtDS0=    0 NMtDT0=    0
         I1Cent=           4 NGrid=           0.
 Petite list used in FoFCou.
 Initial guess orbital symmetries:
       Occupied  (A) (A) (A) (A) (A) (A) (A) (A) (A) (A) (A) (A)
                 (A) (A) (A) (A) (A) (A) (A) (A) (A) (A) (A) (A)
                 (A) (A) (A) (A) (A) (A) (A) (A) (A) (A) (A) (A)
                 (A) (A) (A) (A) (A) (A) (A) (A) (A) (A) (A) (A)
                 (A) (A) (A) (A) (A) (A) (A) (A) (A) (A) (A) (A)
                 (A) (A) (A) (A) (A)
       Virtual   (A) (A) (A) (A) (A) (A) (A) (A) (A) (A) (A) (A)
                 (A) (A) (A) (A) (A) (A) (A) (A) (A) (A) (A) (A)
                 (A) (A) (A) (A) (A) (A) (A) (A) (A) (A) (A) (A)
                 (A) (A) (A) (A) (A) (A) (A) (A) (A) (A) (A) (A)
                 (A) (A) (A) (A) (A) (A) (A) (A) (A) (A) (A) (A)
                 (A) (A) (A) (A) (A) (A) (A) (A) (A) (A) (A) (A)
                 (A) (A) (A) (A) (A) (A) (A) (A) (A) (A) (A) (A)
                 (A) (A) (A) (A) (A) (A) (A) (A) (A) (A) (A) (A)
                 (A) (A) (A) (A) (A) (A) (A) (A) (A) (A) (A) (A)
                 (A) (A) (A) (A) (A) (A) (A) (A) (A) (A) (A) (A)
                 (A) (A) (A) (A) (A) (A) (A) (A) (A) (A) (A) (A)
                 (A) (A) (A) (A) (A) (A) (A) (A) (A) (A) (A) (A)
                 (A) (A) (A) (A) (A) (A) (A) (A) (A) (A) (A) (A)
                 (A) (A) (A) (A) (A) (A) (A) (A) (A) (A) (A) (A)
                 (A) (A) (A) (A) (A) (A) (A) (A) (A) (A) (A) (A)
                 (A) (A) (A) (A) (A) (A) (A) (A) (A) (A) (A) (A)
                 (A) (A) (A) (A) (A) (A) (A) (A) (A) (A) (A) (A)
                 (A) (A) (A) (A) (A) (A) (A) (A) (A) (A) (A) (A)
                 (A) (A) (A) (A) (A) (A) (A) (A) (A) (A) (A) (A)
                 (A) (A)
 The electronic state of the initial guess is 1-A.
 Requested convergence on RMS density matrix=1.00D-08 within 128 cycles.
 Requested convergence on MAX density matrix=1.00D-06.
 Requested convergence on             energy=1.00D-06.
 No special actions if energy rises.
 Integral accuracy reduced to 1.0D-05 until final iterations.
 Initial convergence to 1.0D-05 achieved.  Increase integral accuracy.
 SCF Done:  E(RHF) =  -728.671737570     A.U. after   14 cycles
             Convg  =    0.6152D-08             -V/T =  2.0001

 **********************************************************************

            Population analysis using the SCF density.

 **********************************************************************

 Orbital symmetries:
       Occupied  (A) (A) (A) (A) (A) (A) (A) (A) (A) (A) (A) (A)
                 (A) (A) (A) (A) (A) (A) (A) (A) (A) (A) (A) (A)
                 (A) (A) (A) (A) (A) (A) (A) (A) (A) (A) (A) (A)
                 (A) (A) (A) (A) (A) (A) (A) (A) (A) (A) (A) (A)
                 (A) (A) (A) (A) (A) (A) (A) (A) (A) (A) (A) (A)
                 (A) (A) (A) (A) (A)
       Virtual   (A) (A) (A) (A) (A) (A) (A) (A) (A) (A) (A) (A)
                 (A) (A) (A) (A) (A) (A) (A) (A) (A) (A) (A) (A)
                 (A) (A) (A) (A) (A) (A) (A) (A) (A) (A) (A) (A)
                 (A) (A) (A) (A) (A) (A) (A) (A) (A) (A) (A) (A)
                 (A) (A) (A) (A) (A) (A) (A) (A) (A) (A) (A) (A)
                 (A) (A) (A) (A) (A) (A) (A) (A) (A) (A) (A) (A)
                 (A) (A) (A) (A) (A) (A) (A) (A) (A) (A) (A) (A)
                 (A) (A) (A) (A) (A) (A) (A) (A) (A) (A) (A) (A)
                 (A) (A) (A) (A) (A) (A) (A) (A) (A) (A) (A) (A)
                 (A) (A) (A) (A) (A) (A) (A) (A) (A) (A) (A) (A)
                 (A) (A) (A) (A) (A) (A) (A) (A) (A) (A) (A) (A)
                 (A) (A) (A) (A) (A) (A) (A) (A) (A) (A) (A) (A)
                 (A) (A) (A) (A) (A) (A) (A) (A) (A) (A) (A) (A)
                 (A) (A) (A) (A) (A) (A) (A) (A) (A) (A) (A) (A)
                 (A) (A) (A) (A) (A) (A) (A) (A) (A) (A) (A) (A)
                 (A) (A) (A) (A) (A) (A) (A) (A) (A) (A) (A) (A)
                 (A) (A) (A) (A) (A) (A) (A) (A) (A) (A) (A) (A)
                 (A) (A) (A) (A) (A) (A) (A) (A) (A) (A) (A) (A)
                 (A) (A) (A) (A) (A) (A) (A) (A) (A) (A) (A) (A)
                 (A) (A)
 The electronic state is 1-A.
 Alpha  occ. eigenvalues --  -11.25831 -11.25274 -11.25258 -11.25130 -11.24446
 Alpha  occ. eigenvalues --  -11.24434 -11.24358 -11.24348 -11.24208 -11.24188
 Alpha  occ. eigenvalues --  -11.24123 -11.24119 -11.24109 -11.24056 -11.24029
 Alpha  occ. eigenvalues --  -11.24018 -11.23912 -11.23832 -11.23734  -1.18592
 Alpha  occ. eigenvalues --   -1.15826  -1.15683  -1.09038  -1.02410  -1.02115
 Alpha  occ. eigenvalues --   -1.01889  -1.01499  -1.01387  -0.92963  -0.84537
 Alpha  occ. eigenvalues --   -0.82943  -0.82542  -0.81709  -0.81561  -0.77734
 Alpha  occ. eigenvalues --   -0.70733  -0.70447  -0.69109  -0.65998  -0.63617
 Alpha  occ. eigenvalues --   -0.63503  -0.62370  -0.62031  -0.61901  -0.59569
 Alpha  occ. eigenvalues --   -0.58774  -0.58518  -0.58430  -0.57615  -0.53921
 Alpha  occ. eigenvalues --   -0.51740  -0.51083  -0.50850  -0.49675  -0.49167
 Alpha  occ. eigenvalues --   -0.48682  -0.47791  -0.47476  -0.46761  -0.34694
 Alpha  occ. eigenvalues --   -0.34245  -0.33697  -0.33585  -0.33281  -0.31181
 Alpha virt. eigenvalues --    0.11650   0.12017   0.13584   0.13744   0.14055
 Alpha virt. eigenvalues --    0.14930   0.15136   0.16274   0.16375   0.16881
 Alpha virt. eigenvalues --    0.18809   0.19133   0.19284   0.21286   0.21419
 Alpha virt. eigenvalues --    0.21511   0.23639   0.24246   0.24980   0.27149
 Alpha virt. eigenvalues --    0.28520   0.29493   0.34024   0.34199   0.35872
 Alpha virt. eigenvalues --    0.37462   0.38511   0.39672   0.40962   0.43680
 Alpha virt. eigenvalues --    0.44104   0.44376   0.45029   0.45393   0.45579
 Alpha virt. eigenvalues --    0.45871   0.46409   0.48414   0.49887   0.50378
 Alpha virt. eigenvalues --    0.50803   0.51029   0.51444   0.54979   0.55774
 Alpha virt. eigenvalues --    0.56807   0.57908   0.58953   0.59056   0.59609
 Alpha virt. eigenvalues --    0.59688   0.60666   0.61077   0.61497   0.61700
 Alpha virt. eigenvalues --    0.61852   0.62384   0.62463   0.63289   0.63466
 Alpha virt. eigenvalues --    0.64140   0.64996   0.65167   0.65415   0.66906
 Alpha virt. eigenvalues --    0.67402   0.68231   0.68440   0.70101   0.71420
 Alpha virt. eigenvalues --    0.72342   0.73797   0.74455   0.75063   0.76238
 Alpha virt. eigenvalues --    0.77300   0.78320   0.78596   0.80471   0.81159
 Alpha virt. eigenvalues --    0.81857   0.82198   0.82341   0.82818   0.82910
 Alpha virt. eigenvalues --    0.83511   0.83930   0.84056   0.84784   0.85607
 Alpha virt. eigenvalues --    0.86037   0.86383   0.86907   0.87455   0.88067
 Alpha virt. eigenvalues --    0.89686   0.90544   0.91273   0.92975   0.94407
 Alpha virt. eigenvalues --    0.96103   0.96850   0.97683   0.98153   0.98957
 Alpha virt. eigenvalues --    0.99318   1.00309   1.02806   1.05744   1.06235
 Alpha virt. eigenvalues --    1.06793   1.07143   1.08018   1.08372   1.10515
 Alpha virt. eigenvalues --    1.11098   1.12220   1.12483   1.13007   1.14259
 Alpha virt. eigenvalues --    1.14642   1.15393   1.18589   1.19506   1.21701
 Alpha virt. eigenvalues --    1.25332   1.26757   1.27693   1.28224   1.28837
 Alpha virt. eigenvalues --    1.30333   1.35138   1.39461   1.45221   1.46653
 Alpha virt. eigenvalues --    1.51677   1.52287   1.56512   2.54614   2.55620
 Alpha virt. eigenvalues --    2.56175   2.59178   2.61974   2.62495   2.64457
 Alpha virt. eigenvalues --    2.66985   2.67731   2.68454   2.72326   2.76760
 Alpha virt. eigenvalues --    2.77774   2.83495   2.87943   2.88626   2.94133
 Alpha virt. eigenvalues --    2.94277   2.94422   2.97081   2.97454   2.98028
 Alpha virt. eigenvalues --    3.00373   3.00780   3.04040   3.05743   3.07157
 Alpha virt. eigenvalues --    3.08138   3.08419   3.08955   3.09981   3.14320
 Alpha virt. eigenvalues --    3.14792   3.16344   3.16846   3.17570   3.18826
 Alpha virt. eigenvalues --    3.22649   3.25639   3.25811   3.28305   3.28880
 Alpha virt. eigenvalues --    3.30931   3.33377   3.34272   3.35159   3.42628
 Alpha virt. eigenvalues --    3.43058   3.44416   3.46929   3.49494   3.52246
 Alpha virt. eigenvalues --    3.53434   3.54444   3.59222   3.60643   3.60690
 Alpha virt. eigenvalues --    3.63121   3.63533   3.63783   3.65965   3.66672
 Alpha virt. eigenvalues --    3.68375   3.70277   3.70480   3.71423   3.73485
 Alpha virt. eigenvalues --    3.74186   3.75548   3.80873   3.85848   3.86663
 Alpha virt. eigenvalues --    3.93036  24.24842  24.30690  24.31557  24.50539
 Alpha virt. eigenvalues --   24.50842  24.51117  24.53999  24.54660  24.56111
 Alpha virt. eigenvalues --   24.77296  24.78593  24.79145  24.79612  24.80649
 Alpha virt. eigenvalues --   24.81848  24.83246  25.05550  25.05813  25.06132
          Condensed to atoms (all electrons):
              1          2          3          4          5          6
     1  C    5.830156   0.463860   0.185201  -0.026168  -0.054346   0.007661
     2  H    0.463860   0.512426  -0.074203   0.002024   0.005553   0.001758
     3  C    0.185201  -0.074203   5.374894   0.503445   0.439090  -0.072703
     4  C   -0.026168   0.002024   0.503445   5.070344  -0.065527   0.459687
     5  C   -0.054346   0.005553   0.439090  -0.065527   5.095230  -0.029602
     6  C    0.007661   0.001758  -0.072703   0.459687  -0.029602   5.055008
     7  H   -0.000475   0.002411  -0.046696   0.395786   0.004630  -0.035048
     8  C    0.001401  -0.000282  -0.061670  -0.033400   0.479345  -0.076848
     9  H    0.003082   0.000067  -0.048388   0.004053   0.388549  -0.000168
    10  C    0.001272  -0.000013  -0.017900  -0.086299  -0.092072   0.496937
    11  H   -0.000368  -0.000037   0.007063  -0.039722  -0.000618   0.396796
    12  H   -0.000319   0.000012   0.006070  -0.000450  -0.039064   0.006000
    13  H   -0.000013  -0.000001  -0.001592   0.007532   0.008016  -0.042748
    14  C    0.171009  -0.073858  -0.112851  -0.000336  -0.006359  -0.000599
    15  C   -0.045003   0.002855   0.001872   0.000204   0.000226  -0.000009
    16  C   -0.046065   0.005107  -0.004668   0.001483  -0.017165   0.000126
    17  C    0.008281   0.001517  -0.000681  -0.000004   0.000029   0.000001
    18  H   -0.000751   0.002693   0.000358  -0.000021  -0.000026   0.000001
    19  C    0.003536  -0.000275   0.001549   0.000043  -0.000016   0.000000
    20  H   -0.000244  -0.000139  -0.003023  -0.000257   0.002918  -0.000138
    21  C    0.001143  -0.000016   0.000021  -0.000011  -0.000004   0.000000
    22  H   -0.000389  -0.000029   0.000014   0.000001   0.000000   0.000000
    23  H   -0.000295   0.000014   0.000011   0.000002   0.000031   0.000000
    24  H   -0.000019  -0.000001  -0.000002   0.000000   0.000001   0.000000
    25  C    0.157379  -0.059888  -0.154061  -0.005628  -0.007764  -0.000464
    26  C   -0.050363  -0.003271   0.000681   0.002047   0.000785  -0.000099
    27  C   -0.039920   0.004899  -0.014015  -0.000322  -0.000056   0.000048
    28  C    0.006262   0.001546  -0.000428  -0.000036   0.000194   0.000007
    29  H    0.001785   0.001059   0.000561   0.001437  -0.000049   0.000030
    30  C    0.004862  -0.000248   0.000622   0.000027  -0.000658  -0.000001
    31  H   -0.001699  -0.000070  -0.001005  -0.000081   0.000483   0.000002
    32  C    0.000987   0.000009   0.000075  -0.000003   0.000030   0.000000
    33  H   -0.000351  -0.000026   0.000012  -0.000001   0.000003   0.000000
    34  H   -0.000325   0.000013   0.000005   0.000000   0.000014   0.000000
    35  H   -0.000012  -0.000002  -0.000001   0.000000  -0.000001   0.000000
              7          8          9         10         11         12
     1  C   -0.000475   0.001401   0.003082   0.001272  -0.000368  -0.000319
     2  H    0.002411  -0.000282   0.000067  -0.000013  -0.000037   0.000012
     3  C   -0.046696  -0.061670  -0.048388  -0.017900   0.007063   0.006070
     4  C    0.395786  -0.033400   0.004053  -0.086299  -0.039722  -0.000450
     5  C    0.004630   0.479345   0.388549  -0.092072  -0.000618  -0.039064
     6  C   -0.035048  -0.076848  -0.000168   0.496937   0.396796   0.006000
     7  H    0.510882  -0.000239  -0.000260   0.005163  -0.004177   0.000024
     8  C   -0.000239   5.035702  -0.027246   0.494336   0.006223   0.396684
     9  H   -0.000260  -0.027246   0.495156   0.004558   0.000021  -0.003430
    10  C    0.005163   0.494336   0.004558   5.031085  -0.040778  -0.039554
    11  H   -0.004177   0.006223   0.000021  -0.040778   0.518300  -0.000211
    12  H    0.000024   0.396684  -0.003430  -0.039554  -0.000211   0.515361
    13  H   -0.000186  -0.042916  -0.000169   0.399620  -0.004581  -0.004454
    14  C    0.000560   0.001783  -0.003198  -0.000036   0.000020   0.000009
    15  C    0.000138   0.000028  -0.000198  -0.000001   0.000000   0.000000
    16  C    0.000002  -0.001730   0.000293   0.000044  -0.000001   0.000016
    17  C    0.000003  -0.000001   0.000016   0.000000   0.000000   0.000000
    18  H   -0.000024   0.000002  -0.000007   0.000000   0.000000   0.000000
    19  C    0.000003  -0.000089   0.000861   0.000003   0.000000   0.000001
    20  H   -0.000005   0.001157   0.003447   0.000078   0.000000  -0.000105
    21  C   -0.000001   0.000001  -0.000011   0.000000   0.000000   0.000000
    22  H    0.000000   0.000000   0.000000   0.000000   0.000000   0.000000
    23  H    0.000000   0.000000  -0.000053  -0.000001   0.000000   0.000001
    24  H    0.000000   0.000000   0.000000   0.000000   0.000000   0.000000
    25  C    0.000154   0.000726  -0.001859   0.000097   0.000011   0.000018
    26  C    0.000251  -0.000068  -0.000270  -0.000013   0.000003   0.000006
    27  C   -0.000048  -0.000029   0.004705  -0.000004   0.000000  -0.000002
    28  C   -0.000006   0.000002  -0.000099   0.000000   0.000000   0.000001
    29  H    0.000254  -0.000018  -0.000038  -0.000012  -0.000003   0.000000
    30  C    0.000000  -0.000016   0.000443   0.000000   0.000000  -0.000001
    31  H    0.000000   0.000060   0.000999   0.000002   0.000000  -0.000009
    32  C    0.000000   0.000003  -0.000012   0.000000   0.000000   0.000000
    33  H   -0.000001   0.000000   0.000001   0.000000   0.000000   0.000000
    34  H    0.000000   0.000000   0.000000   0.000000   0.000000   0.000000
    35  H    0.000000   0.000000  -0.000001   0.000000   0.000000   0.000000
             13         14         15         16         17         18
     1  C   -0.000013   0.171009  -0.045003  -0.046065   0.008281  -0.000751
     2  H   -0.000001  -0.073858   0.002855   0.005107   0.001517   0.002693
     3  C   -0.001592  -0.112851   0.001872  -0.004668  -0.000681   0.000358
     4  C    0.007532  -0.000336   0.000204   0.001483  -0.000004  -0.000021
     5  C    0.008016  -0.006359   0.000226  -0.017165   0.000029  -0.000026
     6  C   -0.042748  -0.000599  -0.000009   0.000126   0.000001   0.000001
     7  H   -0.000186   0.000560   0.000138   0.000002   0.000003  -0.000024
     8  C   -0.042916   0.001783   0.000028  -0.001730  -0.000001   0.000002
     9  H   -0.000169  -0.003198  -0.000198   0.000293   0.000016  -0.000007
    10  C    0.399620  -0.000036  -0.000001   0.000044   0.000000   0.000000
    11  H   -0.004581   0.000020   0.000000  -0.000001   0.000000   0.000000
    12  H   -0.004454   0.000009   0.000000   0.000016   0.000000   0.000000
    13  H    0.517480  -0.000001   0.000000   0.000001   0.000000   0.000000
    14  C   -0.000001   5.366764   0.495356   0.449886  -0.071637  -0.045635
    15  C    0.000000   0.495356   5.040826  -0.061397   0.471682   0.394427
    16  C    0.000001   0.449886  -0.061397   5.122103  -0.031248   0.004756
    17  C    0.000000  -0.071637   0.471682  -0.031248   5.044565  -0.034668
    18  H    0.000000  -0.045635   0.394427   0.004756  -0.034668   0.507667
    19  C    0.000000  -0.064447  -0.036161   0.473394  -0.075093  -0.000401
    20  H    0.000000  -0.053086   0.004499   0.386617  -0.000211  -0.000243
    21  C    0.000000  -0.017726  -0.086751  -0.094845   0.494735   0.005348
    22  H    0.000000   0.007154  -0.039676  -0.000600   0.396654  -0.004215
    23  H    0.000000   0.006026  -0.000391  -0.036764   0.005894   0.000022
    24  H    0.000000  -0.001595   0.007491   0.008124  -0.042954  -0.000183
    25  C   -0.000002  -0.103657  -0.001456  -0.005741  -0.000716   0.000480
    26  C    0.000000   0.006403   0.000434  -0.000170   0.000003   0.000113
    27  C    0.000000  -0.014263   0.001929  -0.007448   0.000224   0.000185
    28  C    0.000000  -0.000759  -0.000016   0.000025   0.000001  -0.000008
    29  H    0.000000   0.000696   0.000012  -0.000038   0.000001   0.000003
    30  C    0.000000   0.000524  -0.000087   0.000014  -0.000003   0.000009
    31  H    0.000000  -0.003202  -0.000887   0.001049  -0.000135  -0.000036
    32  C    0.000000   0.000045  -0.000013  -0.000019   0.000000  -0.000004
    33  H    0.000000   0.000011   0.000001   0.000000   0.000000   0.000000
    34  H    0.000000   0.000037   0.000007   0.000029   0.000001   0.000000
    35  H    0.000000  -0.000001   0.000000   0.000001   0.000000   0.000000
             19         20         21         22         23         24
     1  C    0.003536  -0.000244   0.001143  -0.000389  -0.000295  -0.000019
     2  H   -0.000275  -0.000139  -0.000016  -0.000029   0.000014  -0.000001
     3  C    0.001549  -0.003023   0.000021   0.000014   0.000011  -0.000002
     4  C    0.000043  -0.000257  -0.000011   0.000001   0.000002   0.000000
     5  C   -0.000016   0.002918  -0.000004   0.000000   0.000031   0.000001
     6  C    0.000000  -0.000138   0.000000   0.000000   0.000000   0.000000
     7  H    0.000003  -0.000005  -0.000001   0.000000   0.000000   0.000000
     8  C   -0.000089   0.001157   0.000001   0.000000   0.000000   0.000000
     9  H    0.000861   0.003447  -0.000011   0.000000  -0.000053   0.000000
    10  C    0.000003   0.000078   0.000000   0.000000  -0.000001   0.000000
    11  H    0.000000   0.000000   0.000000   0.000000   0.000000   0.000000
    12  H    0.000001  -0.000105   0.000000   0.000000   0.000001   0.000000
    13  H    0.000000   0.000000   0.000000   0.000000   0.000000   0.000000
    14  C   -0.064447  -0.053086  -0.017726   0.007154   0.006026  -0.001595
    15  C   -0.036161   0.004499  -0.086751  -0.039676  -0.000391   0.007491
    16  C    0.473394   0.386617  -0.094845  -0.000600  -0.036764   0.008124
    17  C   -0.075093  -0.000211   0.494735   0.396654   0.005894  -0.042954
    18  H   -0.000401  -0.000243   0.005348  -0.004215   0.000022  -0.000183
    19  C    5.056509  -0.025301   0.495751   0.006228   0.395573  -0.042551
    20  H   -0.025301   0.498370   0.004791   0.000020  -0.003438  -0.000183
    21  C    0.495751   0.004791   5.030312  -0.041060  -0.039641   0.399174
    22  H    0.006228   0.000020  -0.041060   0.517944  -0.000212  -0.004549
    23  H    0.395573  -0.003438  -0.039641  -0.000212   0.515448  -0.004353
    24  H   -0.042551  -0.000183   0.399174  -0.004549  -0.004353   0.517637
    25  C    0.000888  -0.000506   0.000023   0.000021  -0.000007   0.000001
    26  C    0.000023  -0.000028  -0.000001   0.000000  -0.000001   0.000000
    27  C   -0.001497   0.000360   0.000080  -0.000001   0.000013   0.000000
    28  C    0.000000   0.000006   0.000000   0.000000   0.000000   0.000000
    29  H    0.000000   0.000007   0.000000   0.000000   0.000000   0.000000
    30  C   -0.000031   0.000053   0.000004   0.000000   0.000001   0.000000
    31  H    0.000967   0.000153   0.000048   0.000001  -0.000003   0.000001
    32  C    0.000000   0.000001   0.000000   0.000000   0.000000   0.000000
    33  H    0.000000   0.000000   0.000000   0.000000   0.000000   0.000000
    34  H   -0.000001  -0.000017  -0.000001   0.000000   0.000000   0.000000
    35  H    0.000000   0.000000   0.000000   0.000000   0.000000   0.000000
             25         26         27         28         29         30
     1  C    0.157379  -0.050363  -0.039920   0.006262   0.001785   0.004862
     2  H   -0.059888  -0.003271   0.004899   0.001546   0.001059  -0.000248
     3  C   -0.154061   0.000681  -0.014015  -0.000428   0.000561   0.000622
     4  C   -0.005628   0.002047  -0.000322  -0.000036   0.001437   0.000027
     5  C   -0.007764   0.000785  -0.000056   0.000194  -0.000049  -0.000658
     6  C   -0.000464  -0.000099   0.000048   0.000007   0.000030  -0.000001
     7  H    0.000154   0.000251  -0.000048  -0.000006   0.000254   0.000000
     8  C    0.000726  -0.000068  -0.000029   0.000002  -0.000018  -0.000016
     9  H   -0.001859  -0.000270   0.004705  -0.000099  -0.000038   0.000443
    10  C    0.000097  -0.000013  -0.000004   0.000000  -0.000012   0.000000
    11  H    0.000011   0.000003   0.000000   0.000000  -0.000003   0.000000
    12  H    0.000018   0.000006  -0.000002   0.000001   0.000000  -0.000001
    13  H   -0.000002   0.000000   0.000000   0.000000   0.000000   0.000000
    14  C   -0.103657   0.006403  -0.014263  -0.000759   0.000696   0.000524
    15  C   -0.001456   0.000434   0.001929  -0.000016   0.000012  -0.000087
    16  C   -0.005741  -0.000170  -0.007448   0.000025  -0.000038   0.000014
    17  C   -0.000716   0.000003   0.000224   0.000001   0.000001  -0.000003
    18  H    0.000480   0.000113   0.000185  -0.000008   0.000003   0.000009
    19  C    0.000888   0.000023  -0.001497   0.000000   0.000000  -0.000031
    20  H   -0.000506  -0.000028   0.000360   0.000006   0.000007   0.000053
    21  C    0.000023  -0.000001   0.000080   0.000000   0.000000   0.000004
    22  H    0.000021   0.000000  -0.000001   0.000000   0.000000   0.000000
    23  H   -0.000007  -0.000001   0.000013   0.000000   0.000000   0.000001
    24  H    0.000001   0.000000   0.000000   0.000000   0.000000   0.000000
    25  C    5.365932   0.473095   0.486139  -0.065259  -0.050621  -0.064603
    26  C    0.473095   5.071581  -0.072003   0.466393   0.399569  -0.031603
    27  C    0.486139  -0.072003   5.087766  -0.027912   0.004147   0.471428
    28  C   -0.065259   0.466393  -0.027912   5.050158  -0.035586  -0.076907
    29  H   -0.050621   0.399569   0.004147  -0.035586   0.509905  -0.000336
    30  C   -0.064603  -0.031603   0.471428  -0.076907  -0.000336   5.050617
    31  H   -0.042625   0.004197   0.390195  -0.000182  -0.000249  -0.029957
    32  C   -0.018539  -0.086084  -0.093477   0.488845   0.005343   0.499332
    33  H    0.006703  -0.039643  -0.000524   0.397101  -0.004289   0.006129
    34  H    0.006181  -0.000423  -0.037570   0.006001   0.000024   0.395900
    35  H   -0.001479   0.007372   0.007826  -0.042953  -0.000185  -0.042199
             31         32         33         34         35
     1  C   -0.001699   0.000987  -0.000351  -0.000325  -0.000012
     2  H   -0.000070   0.000009  -0.000026   0.000013  -0.000002
     3  C   -0.001005   0.000075   0.000012   0.000005  -0.000001
     4  C   -0.000081  -0.000003  -0.000001   0.000000   0.000000
     5  C    0.000483   0.000030   0.000003   0.000014  -0.000001
     6  C    0.000002   0.000000   0.000000   0.000000   0.000000
     7  H    0.000000   0.000000  -0.000001   0.000000   0.000000
     8  C    0.000060   0.000003   0.000000   0.000000   0.000000
     9  H    0.000999  -0.000012   0.000001   0.000000  -0.000001
    10  C    0.000002   0.000000   0.000000   0.000000   0.000000
    11  H    0.000000   0.000000   0.000000   0.000000   0.000000
    12  H   -0.000009   0.000000   0.000000   0.000000   0.000000
    13  H    0.000000   0.000000   0.000000   0.000000   0.000000
    14  C   -0.003202   0.000045   0.000011   0.000037  -0.000001
    15  C   -0.000887  -0.000013   0.000001   0.000007   0.000000
    16  C    0.001049  -0.000019   0.000000   0.000029   0.000001
    17  C   -0.000135   0.000000   0.000000   0.000001   0.000000
    18  H   -0.000036  -0.000004   0.000000   0.000000   0.000000
    19  C    0.000967   0.000000   0.000000  -0.000001   0.000000
    20  H    0.000153   0.000001   0.000000  -0.000017   0.000000
    21  C    0.000048   0.000000   0.000000  -0.000001   0.000000
    22  H    0.000001   0.000000   0.000000   0.000000   0.000000
    23  H   -0.000003   0.000000   0.000000   0.000000   0.000000
    24  H    0.000001   0.000000   0.000000   0.000000   0.000000
    25  C   -0.042625  -0.018539   0.006703   0.006181  -0.001479
    26  C    0.004197  -0.086084  -0.039643  -0.000423   0.007372
    27  C    0.390195  -0.093477  -0.000524  -0.037570   0.007826
    28  C   -0.000182   0.488845   0.397101   0.006001  -0.042953
    29  H   -0.000249   0.005343  -0.004289   0.000024  -0.000185
    30  C   -0.029957   0.499332   0.006129   0.395900  -0.042199
    31  H    0.481429   0.004712   0.000020  -0.003334  -0.000182
    32  C    0.004712   5.033456  -0.040738  -0.040262   0.399195
    33  H    0.000020  -0.040738   0.518586  -0.000213  -0.004488
    34  H   -0.003334  -0.040262  -0.000213   0.516825  -0.004446
    35  H   -0.000182   0.399195  -0.004488  -0.004446   0.518519
 Mulliken atomic charges:
              1
     1  C   -0.580751
     2  H    0.204534
     3  C    0.092342
     4  C   -0.189850
     5  C   -0.111799
     6  C   -0.165636
     7  H    0.166903
     8  C   -0.172902
     9  H    0.179156
    10  C   -0.156511
    11  H    0.162058
    12  H    0.163397
    13  H    0.164016
    14  C    0.066962
    15  C   -0.149940
    16  C   -0.145170
    17  C   -0.166255
    18  H    0.170157
    19  C   -0.189468
    20  H    0.184446
    21  C   -0.151363
    22  H    0.162694
    23  H    0.162122
    24  H    0.163963
    25  C    0.087028
    26  C   -0.148916
    27  C   -0.150854
    28  C   -0.166394
    29  H    0.166591
    30  C   -0.183316
    31  H    0.199339
    32  C   -0.152882
    33  H    0.161707
    34  H    0.161555
    35  H    0.163037
 Sum of Mulliken atomic charges =   0.00000
 Mulliken charges with hydrogens summed into heavy atoms:
              1
     1  C   -0.376217
     3  C    0.092342
     4  C   -0.022946
     5  C    0.067357
     6  C   -0.003578
     8  C   -0.009505
    10  C    0.007505
    14  C    0.066962
    15  C    0.020217
    16  C    0.039275
    17  C   -0.003561
    19  C   -0.027346
    21  C    0.012601
    25  C    0.087028
    26  C    0.017675
    27  C    0.048485
    28  C   -0.004687
    30  C   -0.021761
    32  C    0.010155
 Sum of Mulliken charges with hydrogens summed into heavy atoms =   0.00000
 Electronic spatial extent (au):  <R**2>=           4939.5011
 Charge=              0.0000 electrons
 Dipole moment (field-independent basis, Debye):
    X=             -0.0110    Y=             -0.0686    Z=             -0.0426  Tot=              0.0814
 Quadrupole moment (field-independent basis, Debye-Ang):
   XX=           -110.6132   YY=           -114.0555   ZZ=           -102.8587
   XY=              0.8155   XZ=              2.2681   YZ=             -0.0813
 Traceless Quadrupole moment (field-independent basis, Debye-Ang):
   XX=             -1.4374   YY=             -4.8797   ZZ=              6.3171
   XY=              0.8155   XZ=              2.2681   YZ=             -0.0813
 Octapole moment (field-independent basis, Debye-Ang**2):
  XXX=             40.3587  YYY=             16.6696  ZZZ=             -0.1814  XYY=            -45.1727
  XXY=            -12.7549  XXZ=             -6.4924  XZZ=              0.8554  YZZ=             -4.8838
  YYZ=             10.3907  XYZ=              0.0323
 Hexadecapole moment (field-independent basis, Debye-Ang**3):
 XXXX=          -3090.9111 YYYY=          -2907.8732 ZZZZ=           -786.6137 XXXY=             -7.8910
 XXXZ=              2.6451 YYYX=              4.5975 YYYZ=             59.8308 ZZZX=              6.1718
 ZZZY=             -3.8287 XXYY=           -973.1812 XXZZ=           -631.3020 YYZZ=           -601.3725
 XXYZ=            -50.1815 YYXZ=             20.4415 ZZXY=             15.7714
 N-N= 1.288404133163D+03 E-N=-4.272818619900D+03  KE= 7.285924473188D+02
 PrsmSu:  requested number of processors reduced to:  10 ShMem   1 Linda.
 Calling FoFJK, ICntrl=      2127 FMM=F ISym2X=0 I1Cent= 0 IOpClX= 0 NMat=1 NMatS=1 NMatT=0.
 ***** Axes restored to original set *****
 -------------------------------------------------------------------
 Center     Atomic                   Forces (Hartrees/Bohr)
 Number     Number              X              Y              Z
 -------------------------------------------------------------------
      1        6          -0.000211659   -0.023700674    0.003108023
      2        1           0.001693058    0.027011377   -0.004778027
      3        6           0.012853181   -0.005422067    0.002415122
      4        6          -0.001303793   -0.006009018    0.000187596
      5        6          -0.006616232    0.009509410   -0.001214597
      6        6           0.010632419   -0.007814171    0.002044789
      7        1           0.003940347    0.017296502   -0.000612104
      8        6           0.000967546    0.012263117   -0.001293173
      9        1           0.020499669   -0.012733591    0.012183392
     10        6           0.013322757    0.001763290    0.001916840
     11        1          -0.011502897    0.011813728   -0.002440082
     12        1          -0.004180733   -0.016160208    0.000410015
     13        1          -0.016093702   -0.004466553   -0.002079113
     14        6          -0.004422772   -0.006246719   -0.010980350
     15        6          -0.001760773   -0.005444354    0.002633482
     16        6           0.007850642    0.010590560    0.002815351
     17        6          -0.007358374   -0.009021574   -0.005972469
     18        1           0.003478688    0.015127569   -0.008609188
     19        6           0.001759611    0.010528413   -0.005781868
     20        1          -0.015447829   -0.019465792   -0.017756522
     21        6          -0.005263806    0.000538780   -0.012390724
     22        1           0.008990605    0.012447361    0.006637436
     23        1          -0.002842851   -0.014046452    0.008608478
     24        1           0.006235622   -0.001614553    0.015508364
     25        6          -0.010148353    0.000278751    0.010463215
     26        6           0.002543595   -0.005232884    0.002821138
     27        6          -0.000339740    0.005420387   -0.009771894
     28        6          -0.000008582   -0.005783714    0.011427932
     29        1          -0.008585557    0.014647400   -0.003704908
     30        6          -0.005599840    0.010758852   -0.000844031
     31        1          -0.003586611   -0.008987613    0.019691789
     32        6          -0.007710808    0.005978430    0.009485111
     33        1           0.000756393    0.007270301   -0.014908132
     34        1           0.008287459   -0.014181489    0.002957530
     35        1           0.009173320   -0.006912801   -0.012178420
 -------------------------------------------------------------------
 Cartesian Forces:  Max     0.027011377 RMS     0.009554944

 GradGradGradGradGradGradGradGradGradGradGradGradGradGradGradGradGradGrad
 Berny optimization.
 Internal  Forces:  Max     0.029876155 RMS     0.007835752
 Search for a local minimum.
 Step number   1 out of a maximum of  197
 All quantities printed in internal units (Hartrees-Bohrs-Radians)
 Mixed Optimization -- RFO/linear search
 Second derivative matrix not updated -- first step.
     Eigenvalues ---    0.00634   0.00645   0.00654   0.01530   0.01533
     Eigenvalues ---    0.01536   0.02137   0.02140   0.02147   0.02167
     Eigenvalues ---    0.02171   0.02172   0.02181   0.02185   0.02186
     Eigenvalues ---    0.02202   0.02203   0.02203   0.02213   0.02213
     Eigenvalues ---    0.02215   0.02215   0.02215   0.02217   0.02217
     Eigenvalues ---    0.02218   0.02219   0.02219   0.02219   0.02223
     Eigenvalues ---    0.04520   0.06373   0.06673   0.15996   0.15999
     Eigenvalues ---    0.15999   0.16000   0.16000   0.16000   0.16000
     Eigenvalues ---    0.16000   0.16000   0.16000   0.16000   0.16000
     Eigenvalues ---    0.16000   0.16000   0.16000   0.18938   0.19361
     Eigenvalues ---    0.22000   0.22000   0.22000   0.22000   0.22000
     Eigenvalues ---    0.22000   0.23476   0.23476   0.23477   0.24996
     Eigenvalues ---    0.24999   0.25000   0.31165   0.31354   0.31434
     Eigenvalues ---    0.31504   0.33460   0.33629   0.33973   0.34070
     Eigenvalues ---    0.34074   0.34098   0.34252   0.34256   0.34258
     Eigenvalues ---    0.34259   0.34267   0.34271   0.34282   0.34284
     Eigenvalues ---    0.34287   0.42420   0.42427   0.42491   0.42568
     Eigenvalues ---    0.42580   0.42622   0.46340   0.46361   0.46439
     Eigenvalues ---    0.46759   0.46775   0.46838   0.47226   0.47227
     Eigenvalues ---    0.47258   0.47326   0.47328   0.473761000.00000
     Eigenvalues --- 1000.000001000.000001000.000001000.000001000.00000
     Eigenvalues --- 1000.000001000.000001000.000001000.000001000.00000
     Eigenvalues --- 1000.000001000.000001000.000001000.000001000.00000
     Eigenvalues --- 1000.000001000.000001000.000001000.000001000.00000
     Eigenvalues --- 1000.000001000.000001000.000001000.000001000.00000
     Eigenvalues --- 1000.000001000.000001000.000001000.000001000.00000
     Eigenvalues --- 1000.000001000.000001000.000001000.000001000.00000
     Eigenvalues --- 1000.000001000.000001000.000001000.000001000.00000
     Eigenvalues --- 1000.000001000.000001000.000001000.000001000.00000
     Eigenvalues --- 1000.000001000.000001000.000001000.000001000.00000
     Eigenvalues --- 1000.000001000.000001000.000001000.000001000.00000
     Eigenvalues --- 1000.000001000.000001000.000001000.000001000.00000
     Eigenvalues --- 1000.000001000.000001000.000001000.000001000.00000
     Eigenvalues --- 1000.000001000.000001000.000001000.000001000.00000
     Eigenvalues --- 1000.000001000.000001000.000001000.000001000.00000
     Eigenvalues --- 1000.000001000.000001000.000001000.000001000.00000
     Eigenvalues --- 1000.000001000.000001000.000001000.000001000.00000
     Eigenvalues --- 1000.000001000.00000
 RFO step:  Lambda=-4.28996624D-02 EMin= 6.34162540D-03
 Linear search not attempted -- first point.
 Maximum step size (   0.300) exceeded in Quadratic search.
    -- Step size scaled by   0.575
 Iteration  1 RMS(Cart)=  0.12606489 RMS(Int)=  0.00284712
 Iteration  2 RMS(Cart)=  0.00586087 RMS(Int)=  0.00029002
 Iteration  3 RMS(Cart)=  0.00000907 RMS(Int)=  0.00028997
 Iteration  4 RMS(Cart)=  0.00000000 RMS(Int)=  0.00028997
 Variable       Old X    -DE/DX   Delta X   Delta X   Delta X     New X
                                 (Linear)    (Quad)   (Total)
    R1        2.12398  -0.02747   0.00000  -0.04455  -0.04455   2.07943
    R2        2.85191   0.02265   0.00000   0.03645   0.03645   2.88837
    R3        2.85062   0.02569   0.00000   0.04127   0.04127   2.89189
    R4        2.85342   0.02087   0.00000   0.03366   0.03366   2.88708
    R5        2.63974  -0.00413   0.00000  -0.00463  -0.00462   2.63512
    R6        2.63769   0.00074   0.00000   0.00099   0.00101   2.63869
    R7        2.62732  -0.00280   0.00000  -0.00319  -0.00319   2.62412
    R8        2.07206  -0.01774   0.00000  -0.02659  -0.02659   2.04547
    R9        2.62611  -0.00463   0.00000  -0.00509  -0.00508   2.62103
   R10        2.07960  -0.02533   0.00000  -0.03841  -0.03841   2.04119
   R11        2.62778  -0.00839   0.00000  -0.00952  -0.00954   2.61825
   R12        2.06901  -0.01667   0.00000  -0.02486  -0.02486   2.04414
   R13        2.62800  -0.00548   0.00000  -0.00620  -0.00621   2.62179
   R14        2.06876  -0.01670   0.00000  -0.02490  -0.02490   2.04386
   R15        2.06857  -0.01683   0.00000  -0.02509  -0.02509   2.04348
   R16        2.64227  -0.00356   0.00000  -0.00401  -0.00399   2.63827
   R17        2.63789   0.00072   0.00000   0.00101   0.00102   2.63892
   R18        2.62627  -0.00359   0.00000  -0.00411  -0.00411   2.62217
   R19        2.07212  -0.01774   0.00000  -0.02659  -0.02659   2.04553
   R20        2.62712  -0.00320   0.00000  -0.00345  -0.00346   2.62366
   R21        2.08251  -0.02988   0.00000  -0.04551  -0.04551   2.03700
   R22        2.62812  -0.00846   0.00000  -0.00964  -0.00965   2.61847
   R23        2.06907  -0.01673   0.00000  -0.02496  -0.02496   2.04412
   R24        2.62693  -0.00675   0.00000  -0.00758  -0.00760   2.61933
   R25        2.06897  -0.01672   0.00000  -0.02494  -0.02494   2.04403
   R26        2.06853  -0.01679   0.00000  -0.02503  -0.02503   2.04350
   R27        2.64307  -0.00422   0.00000  -0.00486  -0.00486   2.63821
   R28        2.63509  -0.00244   0.00000  -0.00270  -0.00269   2.63240
   R29        2.62509  -0.00413   0.00000  -0.00466  -0.00466   2.62043
   R30        2.07166  -0.01737   0.00000  -0.02602  -0.02602   2.04564
   R31        2.62857  -0.00271   0.00000  -0.00295  -0.00296   2.62561
   R32        2.07376  -0.02178   0.00000  -0.03273  -0.03273   2.04103
   R33        2.62886  -0.00594   0.00000  -0.00671  -0.00671   2.62215
   R34        2.06882  -0.01660   0.00000  -0.02476  -0.02476   2.04406
   R35        2.62598  -0.00622   0.00000  -0.00691  -0.00691   2.61907
   R36        2.06894  -0.01669   0.00000  -0.02490  -0.02490   2.04405
   R37        2.06849  -0.01674   0.00000  -0.02495  -0.02495   2.04353
    A1        1.86796  -0.00594   0.00000  -0.03553  -0.03478   1.83319
    A2        1.85586  -0.00925   0.00000  -0.04559  -0.04465   1.81121
    A3        1.85814  -0.00027   0.00000  -0.01897  -0.01880   1.83934
    A4        1.97422   0.01477   0.00000   0.05388   0.05270   2.02692
    A5        1.92531  -0.00406   0.00000   0.00958   0.00724   1.93255
    A6        1.97395   0.00302   0.00000   0.02548   0.02357   1.99752
    A7        2.07807  -0.00631   0.00000  -0.01251  -0.01257   2.06550
    A8        2.12689   0.01648   0.00000   0.03225   0.03217   2.15905
    A9        2.07810  -0.01020   0.00000  -0.02003  -0.02004   2.05806
   A10        2.10049   0.00693   0.00000   0.01482   0.01482   2.11531
   A11        2.09436  -0.00404   0.00000  -0.00902  -0.00904   2.08532
   A12        2.08833  -0.00289   0.00000  -0.00579  -0.00580   2.08253
   A13        2.10367   0.00375   0.00000   0.00836   0.00829   2.11196
   A14        2.07576   0.00415   0.00000   0.01308   0.01296   2.08872
   A15        2.10353  -0.00784   0.00000  -0.02091  -0.02103   2.08250
   A16        2.09796  -0.00011   0.00000  -0.00104  -0.00106   2.09690
   A17        2.09109   0.00022   0.00000   0.00098   0.00099   2.09208
   A18        2.09413  -0.00011   0.00000   0.00006   0.00007   2.09420
   A19        2.09572   0.00215   0.00000   0.00431   0.00431   2.10003
   A20        2.09168  -0.00099   0.00000  -0.00192  -0.00193   2.08976
   A21        2.09578  -0.00116   0.00000  -0.00239  -0.00240   2.09338
   A22        2.09039  -0.00251   0.00000  -0.00631  -0.00635   2.08404
   A23        2.09644   0.00125   0.00000   0.00314   0.00314   2.09959
   A24        2.09635   0.00126   0.00000   0.00318   0.00318   2.09954
   A25        2.06599  -0.01295   0.00000  -0.02544  -0.02546   2.04053
   A26        2.14192   0.02509   0.00000   0.04923   0.04921   2.19113
   A27        2.07528  -0.01213   0.00000  -0.02378  -0.02375   2.05153
   A28        2.10299   0.00831   0.00000   0.01762   0.01764   2.12063
   A29        2.09382  -0.00489   0.00000  -0.01088  -0.01089   2.08293
   A30        2.08638  -0.00343   0.00000  -0.00674  -0.00675   2.07962
   A31        2.10368   0.00441   0.00000   0.00979   0.00979   2.11348
   A32        2.08545   0.00422   0.00000   0.01329   0.01329   2.09874
   A33        2.09402  -0.00863   0.00000  -0.02311  -0.02311   2.07091
   A34        2.09756   0.00003   0.00000  -0.00098  -0.00099   2.09657
   A35        2.09142   0.00006   0.00000   0.00071   0.00071   2.09213
   A36        2.09421  -0.00009   0.00000   0.00027   0.00027   2.09449
   A37        2.09773   0.00245   0.00000   0.00501   0.00498   2.10271
   A38        2.09019  -0.00116   0.00000  -0.00232  -0.00231   2.08788
   A39        2.09527  -0.00129   0.00000  -0.00269  -0.00268   2.09259
   A40        2.08913  -0.00306   0.00000  -0.00765  -0.00768   2.08145
   A41        2.09678   0.00154   0.00000   0.00384   0.00385   2.10064
   A42        2.09727   0.00153   0.00000   0.00381   0.00382   2.10109
   A43        2.06480  -0.00208   0.00000  -0.00399  -0.00399   2.06081
   A44        2.14092   0.00962   0.00000   0.01898   0.01897   2.15989
   A45        2.07745  -0.00755   0.00000  -0.01500  -0.01499   2.06246
   A46        2.10236   0.00530   0.00000   0.01112   0.01113   2.11348
   A47        2.09286  -0.00325   0.00000  -0.00727  -0.00727   2.08559
   A48        2.08796  -0.00205   0.00000  -0.00386  -0.00386   2.08410
   A49        2.10169   0.00313   0.00000   0.00683   0.00683   2.10852
   A50        2.09258   0.00059   0.00000   0.00269   0.00269   2.09527
   A51        2.08887  -0.00373   0.00000  -0.00955  -0.00955   2.07933
   A52        2.09704   0.00009   0.00000  -0.00037  -0.00037   2.09667
   A53        2.09203  -0.00001   0.00000   0.00028   0.00028   2.09232
   A54        2.09411  -0.00008   0.00000   0.00008   0.00008   2.09420
   A55        2.09859   0.00131   0.00000   0.00277   0.00276   2.10135
   A56        2.08972  -0.00061   0.00000  -0.00126  -0.00126   2.08846
   A57        2.09487  -0.00070   0.00000  -0.00151  -0.00151   2.09337
[...]
 55,-0.00036604,0.00028074,-0.00015136,0.00027705,-0.00017460,-0.000491
 61,0.00024454,0.00022861,0.00022460,-0.00001308,-0.00000256,-0.0000365
 5,-0.00057030,0.00024945,0.00015189,0.00004454,0.00024654,0.00039261,0
 .00014393,-0.00036783,-0.00014167,0.00002132,-0.00001675,0.00004483,0.
 00000823,0.00002736,-0.00003822,-0.00001689,0.00001501,0.00000929,-0.0
 0009349,-0.00096328,-0.00062183,0.00029831,0.00031788,0.00065707,-0.00
 006069,-0.00017047,-0.00054988,-0.00010806,0.00029688,-0.00056342,0.00
 001507,-0.00013324,0.00003704,0.00042736,0.00007767,0.00055391,-0.0000
 6595,0.00005393,-0.00001818,-0.00035379,-0.00043281,0.00014360,-0.0000
 0541,0.00000320,-0.00001133,0.00000103,0.00000390,0.00000240,-0.000010
 41,-0.00000498,0.00000213,0.03457091,-0.07035056,0.08322567,0.03228640
 ,-0.00446291,-0.09778080,0.06559439,-0.00975508,-0.25372637,-0.0771709
 5,0.08647234,0.01435526,0.00034228,-0.00034109,-0.00105155,-0.08088811
 ,-0.11142019,0.71708573,-0.00191078,-0.00277816,-0.00094226,0.00052214
 ,-0.00033423,-0.00024393,-0.00031924,0.00051690,0.00040404,-0.00018553
 ,-0.00010768,-0.00000082,-0.00009882,0.00019305,0.00022023,0.00002754,
 0.00005885,-0.00000548,0.00000254,-0.00001307,-0.00000492,-0.00001296,
 -0.00010804,-0.00001124,0.00001701,-0.00004252,-0.00031713,0.00001477,
 -0.00002673,-0.00001954,-0.00000261,-0.00001036,-0.00001152,-0.0000071
 6,0.00000935,-0.00000436,0.00002250,-0.00000464,-0.00000589,-0.0004385
 2,0.00073253,0.00064736,0.00012682,0.00025018,0.00031822,-0.00007321,0
 .00023083,0.00017655,-0.00021891,0.00011562,-0.00039708,0.00001659,-0.
 00016039,0.00001264,0.00026861,-0.00001255,0.00040110,-0.00033265,0.00
 002742,0.00011379,-0.00027661,-0.00023612,0.00001916,-0.00001291,-0.00
 004600,-0.00003864,0.00001241,0.00000750,-0.00000638,-0.00001121,-0.00
 003358,-0.00003983,0.00569922,0.00759009,-0.02172041,0.00193685,0.0071
 1856,0.00097991,-0.06049567,0.01341748,-0.00290730,-0.00105334,0.00005
 747,-0.00000404,-0.00003595,0.00038610,-0.00105373,0.00553121,-0.00827
 007,0.02221512,0.05176979,-0.00258466,-0.00136733,-0.00003260,0.000126
 23,0.00001663,-0.00020299,-0.00016858,0.00043783,0.00020356,-0.0001201
 9,-0.00008258,-0.00001867,-0.00009022,0.00013749,0.00006874,0.00000191
 ,0.00000074,-0.00002081,0.00000812,-0.00003620,0.00001822,0.00004610,-
 0.00003281,-0.00004204,0.00001343,-0.00005130,-0.00005222,-0.00001671,
 0.00000439,0.00000818,-0.00000836,-0.00000438,-0.00000206,-0.00001926,
 -0.00001228,-0.00000325,0.00000380,-0.00000913,0.00000299,0.00082369,-
 0.00050039,-0.00022879,-0.00055009,-0.00022555,-0.00013255,0.00008865,
 0.00042458,-0.00036768,-0.00018582,-0.00011375,-0.00005574,0.00007896,
 -0.00004030,0.00002879,-0.00001952,0.00003700,-0.00026322,-0.00006121,
 -0.00002884,0.00004114,0.00016817,0.00006344,0.00001658,0.00003769,0.0
 0000395,0.00001005,-0.00003466,-0.00002275,0.00006719,0.00000911,0.000
 00308,0.00004703,-0.00044934,-0.00372433,0.02704849,0.00729922,-0.0003
 9061,0.00185488,0.01319426,-0.10182061,0.10437239,0.00021607,-0.000959
 67,-0.00078991,-0.00010242,-0.00048920,0.00128331,0.00096583,0.0103001
 0,-0.01636879,-0.02070237,0.09724851,-0.00068224,-0.00100471,-0.000855
 45,-0.00003593,-0.00002513,-0.00006236,-0.00002070,0.00030812,0.000261
 24,-0.00012326,-0.00008021,0.00000228,-0.00016487,0.00014455,0.0002350
 3,0.00001158,0.00001536,-0.00000211,0.00000983,-0.00000813,-0.00001169
 ,0.00002262,-0.00008106,-0.00000644,-0.00002265,-0.00002914,-0.0002461
 9,0.00000126,-0.00000531,-0.00001178,-0.00000722,-0.00000438,-0.000006
 58,-0.00001795,-0.00000184,-0.00000812,0.00000972,-0.00000400,-0.00000
 777,0.00132192,-0.00205118,-0.00057868,0.00067811,-0.00009191,0.000099
 33,0.00070442,-0.00085698,-0.00063433,-0.00003335,0.00004396,-0.000037
 12,-0.00005503,0.00007865,0.00002030,0.00021381,0.00002807,0.00004536,
 -0.00017291,0.00004993,0.00008158,-0.00023457,-0.00005100,-0.00004197,
 0.00000267,0.00001015,-0.00000568,-0.00000949,0.00000640,0.00001141,-0
 .00000503,0.00000574,0.00000721,0.00193613,0.00076058,-0.00316039,0.00
 051362,0.00156115,0.00177521,-0.00277667,0.10641831,-0.33479094,0.0000
 8318,-0.00069451,0.00071254,0.00009092,0.00004512,-0.00022496,-0.00348
 356,0.01201360,-0.01614447,-0.00103679,-0.11398091,0.35457521,-0.00156
 922,0.00003740,-0.00066469,-0.00008084,-0.00048482,0.00023460,0.000148
 27,0.00022622,0.00101778,-0.00003604,-0.00021031,0.00006305,-0.0001591
 6,0.00010457,0.00007115,-0.00009211,-0.00004372,-0.00009640,0.00002505
 ,-0.00000526,0.00001292,0.00018052,-0.00011934,-0.00005317,-0.00000449
 ,-0.00009526,-0.00010563,-0.00008855,0.00011100,0.00004846,-0.00003343
 ,0.00000648,-0.00002046,-0.00002217,-0.00002385,0.00000959,-0.00000111
 ,-0.00001065,-0.00000620,0.00001843,0.00029178,-0.00003026,-0.00002511
 ,-0.00011871,-0.00009336,0.00008764,0.00002391,0.00014265,0.00003318,-
 0.00009106,0.00011586,-0.00005486,0.00001487,-0.00003888,-0.00007555,-
 0.00001926,-0.00009531,-0.00001569,0.00000025,0.00000694,0.00009299,0.
 00007798,0.00001819,0.00000607,0.00001791,0.00003055,-0.00000465,0.000
 00047,0.00001739,-0.00000123,0.00000261,0.00001026,-0.01611798,0.02149
 834,-0.02774257,-0.02728503,0.02897638,0.03769200,0.03104803,-0.030283
 79,0.01557874,-0.19115332,0.13873976,-0.04185959,0.00322955,0.00499076
 ,0.00450886,-0.12160770,0.02587397,0.04385963,0.00221509,0.00579425,0.
 00421138,0.47562108,0.00146149,-0.00106499,0.00015277,0.00026835,0.000
 74147,-0.00048131,-0.00012572,0.00006750,-0.00113401,-0.00026769,0.000
 26297,-0.00015869,0.00032195,-0.00001821,-0.00026769,0.00020524,0.0001
 9196,0.00017487,-0.00001462,0.00000491,-0.00000571,-0.00039293,0.00010
 690,0.00005383,0.00009899,0.00005271,0.00014202,0.00016798,-0.00026487
 ,-0.00010572,0.00002532,-0.00001468,0.00003588,0.00003595,0.00004724,-
 0.00002349,0.00000560,0.00000522,0.00000688,-0.00009000,-0.00048979,-0
 .00005795,-0.00007084,0.00016925,0.00028721,-0.00013968,0.00010278,-0.
 00035607,-0.00009264,0.00014994,-0.00030074,0.00004553,-0.00007195,0.0
 0001281,0.00019208,0.00007034,0.00020345,0.00000929,-0.00000442,-0.000
 01256,-0.00017147,-0.00021572,0.00003349,0.00000319,0.00000253,-0.0000
 1036,0.00000512,-0.00000532,-0.00000972,0.00000078,-0.00000603,0.00000
 321,0.02013211,-0.05038848,0.04949406,0.04511717,-0.01644888,-0.069965
 69,-0.04693666,0.06097759,0.00728276,0.11646295,-0.24793077,0.08084397
 ,0.00469623,0.00392781,-0.00060371,0.04813677,-0.15617365,0.04812776,0
 .00603027,0.00282895,-0.00150806,-0.28671710,0.52376757,-0.00157723,0.
 00067458,0.00043163,-0.00004798,-0.00078396,-0.00000031,-0.00030803,-0
 .00023484,0.00065111,0.00042699,0.00001381,0.00017968,0.00003346,-0.00
 011250,0.00019722,-0.00016079,-0.00020737,-0.00013058,-0.00001983,0.00
 000176,0.00000425,0.00035281,-0.00012000,-0.00007711,0.00001483,-0.000
 28312,-0.00030266,-0.00003946,0.00025182,0.00010250,0.00002042,0.00001
 856,-0.00003137,0.00004606,0.00001775,0.00001588,0.00001788,-0.0000027
 7,-0.00000059,0.00042541,0.00034906,0.00015583,0.00003433,-0.00011219,
 -0.00040846,0.00007586,-0.00023510,0.00028820,0.00007469,-0.00012582,0
 .00035878,-0.00000958,0.00006499,0.00000297,-0.00021702,-0.00010294,-0
 .00019507,-0.00001804,-0.00001429,0.00002741,0.00015313,0.00027569,-0.
 00012864,-0.00001311,-0.00002942,-0.00002005,-0.00000102,0.00001659,-0
 .00002567,-0.00000330,-0.00000153,-0.00002503,-0.02695821,0.04833048,-
 0.05278943,-0.00654437,-0.01742863,0.07998912,0.06026676,-0.04459011,-
 0.05586105,0.01537061,0.01544308,-0.16892687,0.00492011,-0.00120157,-0
 .00278281,-0.01397659,0.11310197,-0.33967032,0.00411381,-0.00113922,-0
 .00082296,-0.14593195,-0.05766685,0.75942968,0.00017473,-0.00049073,0.
 00076715,0.00007119,-0.00002287,-0.00005950,0.00005406,0.00005659,0.00
 008532,-0.00004643,-0.00001807,0.00000248,-0.00004046,-0.00000351,-0.0
 0002106,-0.00000194,0.00000987,-0.00001215,0.00000693,-0.00001069,0.00
 000560,-0.00001233,0.00000957,-0.00001660,0.00001218,-0.00000161,0.000
 03453,-0.00002862,-0.00000857,-0.00001231,-0.00000608,-0.00000250,0.00
 000352,-0.00001154,-0.00001632,0.00000758,-0.00000387,-0.00000345,0.00
 000666,-0.00031727,0.00006644,0.00013535,0.00003469,0.00003399,0.00004
 663,0.00002464,0.00000559,0.00001537,-0.00000299,-0.00000271,-0.000050
 61,-0.00000121,-0.00000090,-0.00000257,0.00004244,-0.00000449,0.000025
 78,-0.00001600,0.00000573,0.00000441,-0.00002078,-0.00003542,0.0000349
 9,0.00000121,0.00000390,0.00000038,0.00000120,-0.00000512,0.00000965,-
 0.00000082,0.00000101,0.00000426,0.00234404,0.00600069,0.00394909,0.00
 568122,-0.00856089,0.02184074,-0.00107591,0.00017139,0.00002454,-0.060
 02310,0.01173164,0.00319737,-0.00212397,-0.00286563,-0.00158983,0.0020
 7304,0.00721505,0.00080120,-0.00061014,-0.00065345,-0.00019420,0.00571
 767,0.00814733,-0.02183916,0.05011254,-0.00016200,0.00027635,-0.000661
 35,-0.00002562,-0.00004648,0.00003334,-0.00007104,0.00001773,0.0000767
 4,0.00002242,-0.00003380,0.00002410,-0.00001539,-0.00000616,-0.0000035
 5,-0.00000704,-0.00001236,-0.00001059,0.00000109,-0.00000290,-0.000004
 53,0.00001360,0.00002495,-0.00000905,0.00002217,-0.00000412,0.00002126
 ,-0.00001787,0.00000970,0.00000154,-0.00000085,0.00000111,-0.00000362,
 -0.00000650,-0.00001338,0.00000630,-0.00000454,-0.00000076,0.00000365,
 0.00006341,-0.00012127,0.00001707,0.00000160,0.00004291,-0.00000059,-0
 .00002639,0.00002681,-0.00004022,-0.00001711,0.00001198,-0.00003390,0.
 00000610,-0.00001768,-0.00000070,0.00001009,0.00002008,0.00002408,0.00
 000717,-0.00000501,-0.00000251,-0.00002567,-0.00002652,-0.00000225,-0.
 00000192,-0.00000045,-0.00000647,0.00000265,-0.00000391,-0.00000249,0.
 00000203,-0.00000306,0.00000046,0.00592676,0.00286018,-0.00111183,0.00
 139190,0.01037347,-0.01616770,0.00018370,-0.00084707,-0.00079872,0.011
 65131,-0.10317125,0.10559380,-0.00313611,-0.00138649,-0.00054683,0.007
 32310,-0.00037944,0.00169893,-0.00063234,-0.00048542,-0.00013888,-0.00
 171621,-0.00340917,0.02792956,-0.01805227,0.09798666,-0.00044178,0.000
 69110,-0.00075517,0.00001221,-0.00005430,0.00000210,-0.00014738,-0.000
 11926,-0.00012118,0.00009929,0.00004401,0.00003631,0.00004814,0.000047
 52,0.00003349,0.00001826,-0.00001422,0.00001057,-0.00001651,0.00000596
 ,-0.00000999,-0.00000135,-0.00002495,-0.00000406,-0.00003057,-0.000041
 22,-0.00002269,0.00003629,-0.00000409,0.00000744,0.00002314,-0.0000032
 5,-0.00001018,0.00001226,0.00002169,-0.00000325,0.00001886,0.00000407,
 -0.00000459,0.00033208,-0.00017343,0.00000390,0.00000331,0.00003473,-0
 .00007877,-0.00006427,-0.00003452,-0.00008879,0.00001005,0.00002472,0.
 00001121,0.00001201,0.00000855,0.00001509,-0.00001640,0.00000460,0.000
 01999,-0.00000063,-0.00000272,0.00000743,-0.00001228,-0.00000196,-0.00
 003216,-0.00001836,-0.00000824,-0.00001590,-0.00000020,0.00001128,-0.0
 0001815,-0.00000504,0.00000017,-0.00001580,0.00452709,-0.00137260,-0.0
 0060876,-0.00361819,0.01282416,-0.01684006,0.00015691,-0.00080814,0.00
 072158,0.00331008,0.10538811,-0.33079765,-0.00073894,-0.00150757,0.000
 86610,0.00041745,0.00209997,0.00202576,-0.00025663,-0.00013305,-0.0001
 6695,0.00345813,-0.00088440,-0.00239742,-0.00564567,-0.11563545,0.3477
 9153,-0.00034775,0.00054870,-0.00048659,-0.00022870,0.00011830,0.00020
 796,0.00012835,0.00017469,0.00009858,-0.00011078,-0.00006602,-0.000027
 31,-0.00010948,-0.00000401,0.00005211,-0.00000405,0.00000496,0.0000025
 9,0.00001411,-0.00001528,-0.00001345,0.00001243,0.00000929,0.00001209,
 0.00003188,0.00006170,-0.00001925,-0.00002598,-0.00000825,-0.00000317,
 -0.00001506,-0.00000091,0.00000135,-0.00002784,-0.00001670,-0.00001057
 ,-0.00001045,-0.00000115,-0.00000406,-0.00006863,-0.00002754,-0.000246
 74,0.00003538,-0.00000323,0.00000230,0.00006066,-0.00001089,0.00008957
 ,-0.00000871,-0.00001712,0.00001762,-0.00001417,-0.00002447,-0.0000023
 9,-0.00001005,-0.00001879,-0.00002180,-0.00001905,0.00000971,-0.000006
 79,0.00003112,0.00000765,0.00002497,0.00000491,0.00000275,0.00000479,-
 0.00001000,-0.00000482,0.00002569,0.00000136,0.00000262,0.00001238,0.0
 0317191,0.00440036,0.00473428,-0.00028307,-0.00091637,0.00038075,-0.00
 661616,0.01690546,-0.00839031,0.00546679,0.00327022,0.00177766,-0.0006
 9933,-0.00052159,-0.00027922,-0.16538290,0.14726117,-0.03999053,-0.002
 05994,-0.00309027,-0.00061274,0.00534767,-0.00098334,0.00338316,-0.000
 03693,-0.00007507,0.00005209,0.16390616,-0.00000891,-0.00036682,0.0006
 5810,0.00011244,-0.00011464,-0.00007837,-0.00002483,-0.00008530,-0.000
 16852,0.00006086,0.00005112,-0.00000766,0.00002647,0.00005343,0.000016
 83,0.00002044,-0.00000083,0.00001270,-0.00001220,0.00000135,-0.0000000
 2,-0.00001078,-0.00002167,-0.00001144,-0.00000724,-0.00003662,0.000003
 53,0.00002168,-0.00000935,-0.00000583,0.00001715,-0.00000688,0.0000007
 6,0.00000546,0.00000851,0.00000797,0.00001431,0.00000149,-0.00000022,0
 .00010353,0.00000385,0.00009935,-0.00001729,0.00000190,-0.00007934,-0.
 00002363,-0.00002991,0.00000600,-0.00000513,0.00001165,0.00004322,0.00
 002598,-0.00000059,0.00001585,-0.00003554,-0.00000130,-0.00001888,0.00
 000045,-0.00001074,0.00001300,-0.00001280,0.00004227,-0.00005234,-0.00
 000750,-0.00002564,-0.00002194,0.00000667,0.00000227,-0.00001767,0.000
 00299,-0.00000518,-0.00002035,0.00485875,0.00363931,-0.00125048,-0.000
 89839,0.00025640,-0.00053352,0.00715089,-0.00540415,0.00744105,0.00309
 913,0.00410394,0.00353774,-0.00052605,-0.00060527,-0.00017543,0.147128
 07,-0.23827612,0.06048508,-0.00281031,-0.00132995,-0.00129863,0.008769
 63,-0.00392088,-0.00099327,0.00032492,-0.00046609,0.00002862,-0.164264
 44,0.24392788,0.00041603,-0.00078582,0.00056553,0.00015992,-0.00016338
 ,-0.00014171,-0.00001591,-0.00008273,-0.00008479,0.00005236,0.00001402
 ,-0.00000820,0.00000656,0.00002130,0.00000154,0.00000968,-0.00000523,0
 .00000594,-0.00000580,0.00000810,-0.00000070,0.00000402,0.00000942,0.0
 0000804,0.00000743,0.00000810,0.00000586,0.00000799,-0.00000018,-0.000
 00030,0.00000571,-0.00000083,0.00000109,0.00000044,0.00000156,0.000000
 81,0.00000073,0.00000174,-0.00000076,-0.00001784,0.00003872,0.00016403
 ,-0.00002442,0.00000305,-0.00002476,-0.00001778,0.00003561,0.00000158,
 -0.00001181,-0.00000043,0.00000602,0.00001119,-0.00000517,-0.00000090,
 -0.00001412,0.00001396,-0.00001628,0.00001479,-0.00000827,0.00000224,-
 0.00001910,0.00001284,-0.00003242,0.00000046,-0.00000672,-0.00000748,0
 .00000746,-0.00000396,-0.00001079,0.00000443,-0.00000469,-0.00000513,0
 .00464327,-0.00083537,-0.00282250,0.00039975,-0.00040050,-0.00120003,0
 .01698249,-0.02133637,0.01101874,0.00207903,0.00313581,-0.00549126,-0.
 00026360,-0.00017991,0.00001802,-0.03993352,0.06068820,-0.09006920,-0.
 00152620,-0.00051184,0.00095402,-0.02217552,0.02778211,-0.00159177,-0.
 00099940,0.00126835,-0.00034284,0.04081435,-0.06716990,0.08820747,-0.0
 0062342,-0.00049037,-0.00011822,0.00005642,-0.00014135,0.00002186,-0.0
 0001272,0.00011945,0.00012218,-0.00005522,-0.00004489,-0.00001507,-0.0
 0004662,-0.00001178,-0.00000221,-0.00001174,-0.00000047,-0.00000696,0.
 00000778,-0.00000610,-0.00000414,0.00002048,0.00002867,0.00000497,0.00
 003249,0.00003617,0.00001434,-0.00002137,0.00000566,-0.00000007,-0.000
 01144,0.00000156,0.00000147,-0.00001528,-0.00001775,0.00000047,-0.0000
 1172,-0.00000144,0.00000203,-0.00005728,-0.00000238,0.00000376,-0.0000
 1736,0.00002481,0.00002594,0.00001693,0.00002941,0.00001003,-0.0000189
 1,-0.00000779,-0.00001011,-0.00000110,-0.00001758,-0.00000334,0.000005
 12,0.00000436,-0.00000836,0.00000116,-0.00000449,-0.00000473,0.0000045
 5,-0.00000501,0.00001293,0.00000697,0.00000063,0.00000027,-0.00000319,
 -0.00000500,0.00000978,0.00000346,-0.00000148,0.00000758,-0.00021440,-
 0.00043868,-0.00097904,0.00302009,0.00665295,-0.00049658,0.00542649,0.
 00369689,0.00087986,-0.00644748,0.00631592,0.01749955,-0.00057815,0.00
 031642,0.00070205,0.00509675,0.00140955,-0.00337743,-0.00002696,-0.000
 01835,-0.00012200,-0.16534298,0.08443299,0.12793530,-0.00197138,-0.002
 63513,-0.00153348,-0.00212371,-0.00308476,-0.00060307,0.16391372,-0.00
 059816,-0.00037750,-0.00017638,0.00004433,-0.00003778,0.00007204,-0.00
 009139,0.00006805,0.00001895,-0.00002696,0.00000641,-0.00000920,0.0000
 0407,0.00002004,-0.00001583,-0.00000123,0.00001416,0.00000287,-0.00000
 368,-0.00000229,0.00000612,-0.00000934,-0.00000615,-0.00000554,0.00000
 903,-0.00001106,0.00001665,0.00000495,-0.00000844,-0.00000049,0.000004
 57,-0.00000498,-0.00000137,-0.00000187,0.00000245,0.00000264,0.0000072
 0,0.00000110,0.00000069,0.00005681,0.00001284,0.00004542,-0.00003601,0
 .00001247,-0.00001955,-0.00002584,0.00002015,-0.00004396,-0.00000159,0
 .00000532,0.00000412,0.00001449,0.00000183,0.00001030,-0.00000406,0.00
 000190,-0.00001151,0.00000012,-0.00000789,0.00000408,0.00000253,0.0000
 0164,-0.00000867,-0.00000408,-0.00000638,-0.00000804,-0.00000148,0.000
 00299,-0.00000380,-0.00000071,0.00000036,-0.00000554,-0.00033614,-0.00
 086809,0.00068431,0.00651017,-0.00015483,0.00357164,0.00381101,0.00315
 697,0.00409399,0.01624614,-0.00487400,-0.02211401,0.00073412,-0.000569
 54,-0.00098760,-0.00840233,0.01031683,0.01159980,-0.00041303,0.0002207
 1,0.00042627,0.08438081,-0.11304984,-0.08110420,-0.00302449,-0.0012091
 3,-0.00041590,-0.00270732,-0.00138745,-0.00154160,-0.09614063,0.108709
 13,-0.00026655,-0.00016340,0.00004073,0.00006120,-0.00009738,-0.000012
 57,-0.00006058,-0.00001339,-0.00000721,0.00001969,0.00002011,0.0000078
 2,0.00001662,0.00004351,0.00002295,0.00000841,0.00000419,0.00000408,-0
 .00000604,0.00000066,-0.00000077,-0.00000659,-0.00003026,-0.00001248,-
 0.00002462,-0.00003320,-0.00002234,0.00001394,-0.00000396,-0.00000249,
 0.00000987,-0.00000419,-0.00000326,0.00000508,0.00000860,0.00000389,0.
 00001239,0.00000033,-0.00000057,0.00005827,-0.00002421,0.00003528,0.00
 003771,0.00002270,-0.00001595,-0.00000847,-0.00006207,-0.00003909,0.00
 001479,0.00001953,0.00000125,0.00000355,0.00001007,0.00001175,0.000014
 14,-0.00001751,0.00003764,-0.00002318,0.00000510,0.00001232,-0.0000163
 4,-0.00000380,-0.00000275,-0.00001070,-0.00001085,-0.00000982,0.000001
 02,0.00000948,-0.00000953,-0.00000477,-0.00000016,-0.00001501,-0.00089
 895,0.00073623,-0.00025825,-0.00008462,0.00306081,0.00105378,0.0004103
 4,0.00460964,-0.00433654,-0.00788788,0.00677804,0.01072734,-0.00031618
 ,0.00022381,0.00027867,0.02229893,-0.01720823,-0.01588200,0.00093218,-
 0.00072521,-0.00095379,0.12780585,-0.08108436,-0.21564609,-0.00055955,
 -0.00151794,0.00078182,-0.00157938,-0.00046597,0.00089087,-0.13996956,
 0.08591331,0.22332031||-0.00001567,0.00000122,-0.00001296,0.00000416,0
 .00000154,0.00000583,0.00000482,0.00000477,-0.00000525,0.00000167,-0.0
 0000139,0.00000360,-0.00001448,-0.00001530,-0.00000165,-0.00000457,0.0
 0000003,-0.00000414,-0.00000103,-0.00000081,-0.00000100,0.00001582,-0.
 00000466,0.00000173,-0.00000061,0.00000414,0.00000116,-0.00000022,0.00
 001176,-0.00000019,0.00000043,-0.00000141,0.00000159,-0.00000192,0.000
 00281,-0.00000175,0.00000146,-0.00000129,0.00000071,0.00002847,0.00003
 881,0.00000600,-0.00002715,-0.00001562,-0.00003182,-0.00000397,-0.0000
 2884,0.00005574,0.00000455,-0.00001962,0.00004024,0.00000247,0.0000009
 4,0.00000486,-0.00003321,-0.00001926,-0.00004166,0.00000708,0.00000424
 ,-0.00000051,0.00002702,0.00004133,-0.00001152,-0.00000049,0.00000143,
 -0.00000282,0.00000286,0.00000278,0.00000270,-0.00000249,-0.00000281,-
 0.00000095,-0.00000463,0.00002827,-0.00001903,-0.00001356,-0.00000501,
 0.00002954,0.00003471,-0.00003294,-0.00001291,0.00002061,-0.00003085,-
 0.00001325,0.00000167,-0.00000077,-0.00000409,-0.00002118,-0.00000162,
 0.00004063,-0.00000333,0.00000050,-0.00000593,-0.00000796,0.00003530,-
 0.00002584,-0.00000313,0.00000360,0.00000164,0.00000123,0.00000095,-0.
 00000319,0.00000056,-0.00000221,0.00000449|||@


 BLESSED ARE THOSE WHO NOUGHT EXPECT,
 FOR THEY SHALL NOT BE DISAPPOINTED..  WALCOT - ODE TO PITT
 Job cpu time:  0 days  0 hours  6 minutes 25.0 seconds.
 File lengths (MBytes):  RWF=    350 Int=      0 D2E=      0 Chk=      7 Scr=      1
 Normal termination of Gaussian 09 at Mon Sep 06 18:26:44 2021.
