 Entering Link 1 = b:\programy\g09w\l1.exe PID=      9296.
  
 Copyright (c) 1988,1990,1992,1993,1995,1998,2003,2009, Gaussian, Inc.
                  All Rights Reserved.
  
 This is part of the Gaussian(R) 09 program.  It is based on
 the Gaussian(R) 03 system (copyright 2003, Gaussian, Inc.),
 the Gaussian(R) 98 system (copyright 1998, Gaussian, Inc.),
 the Gaussian(R) 94 system (copyright 1995, Gaussian, Inc.),
 the Gaussian 92(TM) system (copyright 1992, Gaussian, Inc.),
 the Gaussian 90(TM) system (copyright 1990, Gaussian, Inc.),
 the Gaussian 88(TM) system (copyright 1988, Gaussian, Inc.),
 the Gaussian 86(TM) system (copyright 1986, Carnegie Mellon
 University), and the Gaussian 82(TM) system (copyright 1983,
 Carnegie Mellon University). Gaussian is a federally registered
 trademark of Gaussian, Inc.
  
 This software contains proprietary and confidential information,
 including trade secrets, belonging to Gaussian, Inc.
  
 This software is provided under written license and may be
 used, copied, transmitted, or stored only in accord with that
 written license.
  
 The following legend is applicable only to US Government
 contracts under FAR:
  
                    RESTRICTED RIGHTS LEGEND
  
 Use, reproduction and disclosure by the US Government is
 subject to restrictions as set forth in subparagraphs (a)
 and (c) of the Commercial Computer Software - Restricted
 Rights clause in FAR 52.227-19.
  
 Gaussian, Inc.
 340 Quinnipiac St., Bldg. 40, Wallingford CT 06492
  
  
 ---------------------------------------------------------------
 Warning -- This program may not be used in any manner that
 competes with the business of Gaussian, Inc. or will provide
 assistance to any competitor of Gaussian, Inc.  The licensee
 of this program is prohibited from giving any competitor of
 Gaussian, Inc. access to this program.  By using this program,
 the user acknowledges that Gaussian, Inc. is engaged in the
 business of creating and licensing software in the field of
 computational chemistry and represents and warrants to the
 licensee that it is not a competitor of Gaussian, Inc. and that
 it will not use this program in any manner prohibited above.
 ---------------------------------------------------------------
  

 Cite this work as:
 Gaussian 09, Revision A.02,
 M. J. Frisch, G. W. Trucks, H. B. Schlegel, G. E. Scuseria, 
 M. A. Robb, J. R. Cheeseman, G. Scalmani, V. Barone, B. Mennucci, 
 G. A. Petersson, H. Nakatsuji, M. Caricato, X. Li, H. P. Hratchian, 
 A. F. Izmaylov, J. Bloino, G. Zheng, J. L. Sonnenberg, M. Hada, 
 M. Ehara, K. Toyota, R. Fukuda, J. Hasegawa, M. Ishida, T. Nakajima, 
 Y. Honda, O. Kitao, H. Nakai, T. Vreven, J. A. Montgomery, Jr., 
 J. E. Peralta, F. Ogliaro, M. Bearpark, J. J. Heyd, E. Brothers, 
 K. N. Kudin, V. N. Staroverov, R. Kobayashi, J. Normand, 
 K. Raghavachari, A. Rendell, J. C. Burant, S. S. Iyengar, J. Tomasi, 
 M. Cossi, N. Rega, J. M. Millam, M. Klene, J. E. Knox, J. B. Cross, 
 V. Bakken, C. Adamo, J. Jaramillo, R. Gomperts, R. E. Stratmann, 
 O. Yazyev, A. J. Austin, R. Cammi, C. Pomelli, J. W. Ochterski, 
 R. L. Martin, K. Morokuma, V. G. Zakrzewski, G. A. Voth, 
 P. Salvador, J. J. Dannenberg, S. Dapprich, A. D. Daniels, 
 O. Farkas, J. B. Foresman, J. V. Ortiz, J. Cioslowski, 
 and D. J. Fox, Gaussian, Inc., Wallingford CT, 2009.
 
 ******************************************
 Gaussian 09:  IA32W-G09RevA.02 11-Jun-2009
                07-Sep-2021 
 ******************************************
 %nprocshared=12
 Will use up to   12 processors via shared memory.
 ----------------------------------------------
 # opt freq=noraman hf/6-311g geom=connectivity
 ----------------------------------------------
 1/18=20,19=15,38=1,57=2/1,3;
 2/9=110,12=2,17=6,18=5,40=1/2;
 3/5=4,6=6,11=9,16=1,25=1,30=1,71=1/1,2,3;
 4//1;
 5/5=2,38=5/2;
 6/7=2,8=2,9=2,10=2,28=1/1;
 7//1,2,3,16;
 1/18=20,19=15/3(2);
 2/9=110/2;
 99//99;
 2/9=110/2;
 3/5=4,6=6,11=9,16=1,25=1,30=1,71=1/1,2,3;
 4/5=5,16=3/1;
 5/5=2,38=5/2;
 7//1,2,3,16;
 1/18=20,19=15/3(-5);
 2/9=110/2;
 6/7=2,8=2,9=2,10=2,19=2,28=1/1;
 99/9=1/99;
 -----
 M0001
 -----
 Symbolic Z-matrix:
 Charge =  0 Multiplicity = 1
 C                     0.31469   0.22528  -0.67288 
 H                     0.75843   0.56395  -1.64732 
 C                    -1.17297   0.4759   -0.72789 
 C                    -1.74505   0.94839  -1.91105 
 C                    -1.99159   0.24264   0.37947 
 C                    -3.11345   1.18584  -1.98189 
 H                    -1.11547   1.13342  -2.78952 
 C                    -3.35843   0.48087   0.30636 
 H                    -1.5408   -0.14757   1.30494 
 C                    -3.92177   0.95403  -0.87435 
 H                    -3.55378   1.55668  -2.91334 
 H                    -3.99182   0.2937    1.17963 
 H                    -4.99871   1.14175  -0.93168 
 C                     0.58888  -1.25177  -0.53122 
 C                     1.2286   -1.93108  -1.57012 
 C                     0.2115   -1.95814   0.6131 
 C                     1.48627  -3.29363  -1.46362 
 H                     1.53017  -1.39078  -2.47502 
 C                     0.47178  -3.31885   0.71814 
 H                    -0.30968  -1.4245    1.42299 
 C                     1.11032  -3.98919  -0.32014 
 H                     1.98592  -3.81878  -2.2844 
 H                     0.17036  -3.8631    1.61916 
 H                     1.3144   -5.06152  -0.23773 
 C                     1.00388   1.0677    0.37153 
 C                     0.55438   2.36686   0.62355 
 C                     2.13619   0.60209   1.04216 
 C                     1.21948   3.17866   1.53405 
 H                    -0.33232   2.74435   0.09949 
 C                     2.80124   1.41674   1.95166 
 H                     2.50201  -0.41467   0.85171 
 C                     2.34488   2.70578   2.20059 
 H                     0.85553   4.19335   1.72543 
 H                     3.68803   1.03945   2.47116 
 H                     2.86889   3.34617   2.91707 
 

 GradGradGradGradGradGradGradGradGradGradGradGradGradGradGradGradGradGrad
 Berny optimization.
 Initialization pass.
                           ----------------------------
                           !    Initial Parameters    !
                           ! (Angstroms and Degrees)  !
 --------------------------                            --------------------------
 ! Name  Definition              Value          Derivative Info.                !
 --------------------------------------------------------------------------------
 ! R1    R(1,2)                  1.123          estimate D2E/DX2                !
 ! R2    R(1,3)                  1.5096         estimate D2E/DX2                !
 ! R3    R(1,14)                 1.509          estimate D2E/DX2                !
 ! R4    R(1,25)                 1.5085         estimate D2E/DX2                !
 ! R5    R(3,4)                  1.3966         estimate D2E/DX2                !
 ! R6    R(3,5)                  1.3967         estimate D2E/DX2                !
 ! R7    R(4,6)                  1.3907         estimate D2E/DX2                !
 ! R8    R(4,7)                  1.0965         estimate D2E/DX2                !
 ! R9    R(5,8)                  1.3894         estimate D2E/DX2                !
 ! R10   R(5,9)                  1.1009         estimate D2E/DX2                !
 ! R11   R(6,10)                 1.3906         estimate D2E/DX2                !
 ! R12   R(6,11)                 1.095          estimate D2E/DX2                !
 ! R13   R(8,10)                 1.3912         estimate D2E/DX2                !
 ! R14   R(8,12)                 1.0949         estimate D2E/DX2                !
 ! R15   R(10,13)                1.0947         estimate D2E/DX2                !
 ! R16   R(14,15)                1.3964         estimate D2E/DX2                !
 ! R17   R(14,16)                1.3967         estimate D2E/DX2                !
 ! R18   R(15,17)                1.3908         estimate D2E/DX2                !
 ! R19   R(15,18)                1.0962         estimate D2E/DX2                !
 ! R20   R(16,19)                1.3894         estimate D2E/DX2                !
 ! R21   R(16,20)                1.1011         estimate D2E/DX2                !
 ! R22   R(17,21)                1.3902         estimate D2E/DX2                !
 ! R23   R(17,22)                1.095          estimate D2E/DX2                !
 ! R24   R(19,21)                1.3911         estimate D2E/DX2                !
 ! R25   R(19,23)                1.0949         estimate D2E/DX2                !
 ! R26   R(21,24)                1.0947         estimate D2E/DX2                !
 ! R27   R(25,26)                1.3976         estimate D2E/DX2                !
 ! R28   R(25,27)                1.396          estimate D2E/DX2                !
 ! R29   R(26,28)                1.3894         estimate D2E/DX2                !
 ! R30   R(26,29)                1.097          estimate D2E/DX2                !
 ! R31   R(27,30)                1.3904         estimate D2E/DX2                !
 ! R32   R(27,31)                1.0972         estimate D2E/DX2                !
 ! R33   R(28,32)                1.3908         estimate D2E/DX2                !
 ! R34   R(28,33)                1.0948         estimate D2E/DX2                !
 ! R35   R(30,32)                1.3899         estimate D2E/DX2                !
 ! R36   R(30,34)                1.0948         estimate D2E/DX2                !
 ! R37   R(32,35)                1.0945         estimate D2E/DX2                !
 ! A1    A(2,1,3)              107.9206         estimate D2E/DX2                !
 ! A2    A(2,1,14)             107.7497         estimate D2E/DX2                !
 ! A3    A(2,1,25)             104.5855         estimate D2E/DX2                !
 ! A4    A(3,1,14)             110.1811         estimate D2E/DX2                !
 ! A5    A(3,1,25)             112.5044         estimate D2E/DX2                !
 ! A6    A(14,1,25)            113.4934         estimate D2E/DX2                !
 ! A7    A(1,3,4)              119.3872         estimate D2E/DX2                !
 ! A8    A(1,3,5)              121.3968         estimate D2E/DX2                !
 ! A9    A(4,3,5)              119.2158         estimate D2E/DX2                !
 ! A10   A(3,4,6)              120.2646         estimate D2E/DX2                !
 ! A11   A(3,4,7)              120.042          estimate D2E/DX2                !
 ! A12   A(6,4,7)              119.6934         estimate D2E/DX2                !
 ! A13   A(3,5,8)              120.4143         estimate D2E/DX2                !
 ! A14   A(3,5,9)              119.0578         estimate D2E/DX2                !
 ! A15   A(8,5,9)              120.5207         estimate D2E/DX2                !
 ! A16   A(4,6,10)             120.1951         estimate D2E/DX2                !
 ! A17   A(4,6,11)             119.7921         estimate D2E/DX2                !
 ! A18   A(10,6,11)            120.0128         estimate D2E/DX2                !
 ! A19   A(5,8,10)             120.0898         estimate D2E/DX2                !
 ! A20   A(5,8,12)             119.8565         estimate D2E/DX2                !
 ! A21   A(10,8,12)            120.0536         estimate D2E/DX2                !
 ! A22   A(6,10,8)             119.8201         estimate D2E/DX2                !
 ! A23   A(6,10,13)            120.1033         estimate D2E/DX2                !
 ! A24   A(8,10,13)            120.0766         estimate D2E/DX2                !
 ! A25   A(1,14,15)            119.3129         estimate D2E/DX2                !
 ! A26   A(1,14,16)            121.524          estimate D2E/DX2                !
 ! A27   A(15,14,16)           119.1623         estimate D2E/DX2                !
 ! A28   A(14,15,17)           120.2972         estimate D2E/DX2                !
 ! A29   A(14,15,18)           120.0257         estimate D2E/DX2                !
 ! A30   A(17,15,18)           119.6772         estimate D2E/DX2                !
 ! A31   A(14,16,19)           120.4394         estimate D2E/DX2                !
 ! A32   A(14,16,20)           119.0396         estimate D2E/DX2                !
 ! A33   A(19,16,20)           120.5135         estimate D2E/DX2                !
 ! A34   A(15,17,21)           120.2025         estimate D2E/DX2                !
 ! A35   A(15,17,22)           119.7997         estimate D2E/DX2                !
 ! A36   A(21,17,22)           119.9977         estimate D2E/DX2                !
 ! A37   A(16,19,21)           120.1002         estimate D2E/DX2                !
 ! A38   A(16,19,23)           119.8311         estimate D2E/DX2                !
 ! A39   A(21,19,23)           120.0685         estimate D2E/DX2                !
 ! A40   A(17,21,19)           119.7982         estimate D2E/DX2                !
 ! A41   A(17,21,24)           120.1069         estimate D2E/DX2                !
 ! A42   A(19,21,24)           120.0949         estimate D2E/DX2                !
 ! A43   A(1,25,26)            119.8035         estimate D2E/DX2                !
 ! A44   A(1,25,27)            121.1276         estimate D2E/DX2                !
 ! A45   A(26,25,27)           118.9659         estimate D2E/DX2                !
 ! A46   A(25,26,28)           120.4867         estimate D2E/DX2                !
 ! A47   A(25,26,29)           119.5828         estimate D2E/DX2                !
 ! A48   A(28,26,29)           119.9302         estimate D2E/DX2                !
 ! A49   A(25,27,30)           120.4518         estimate D2E/DX2                !
 ! A50   A(25,27,31)           119.7447         estimate D2E/DX2                !
 ! A51   A(30,27,31)           119.8033         estimate D2E/DX2                !
 ! A52   A(26,28,32)           120.1816         estimate D2E/DX2                !
 ! A53   A(26,28,33)           119.7977         estimate D2E/DX2                !
 ! A54   A(32,28,33)           120.0207         estimate D2E/DX2                !
 ! A55   A(27,30,32)           120.2321         estimate D2E/DX2                !
 ! A56   A(27,30,34)           119.7305         estimate D2E/DX2                !
 ! A57   A(32,30,34)           120.0374         estimate D2E/DX2                !
 ! A58   A(28,32,30)           119.6808         estimate D2E/DX2                !
 ! A59   A(28,32,35)           120.1431         estimate D2E/DX2                !
 ! A60   A(30,32,35)           120.1761         estimate D2E/DX2                !
 ! D1    D(2,1,3,4)              4.6837         estimate D2E/DX2                !
 ! D2    D(2,1,3,5)           -175.4499         estimate D2E/DX2                !
 ! D3    D(14,1,3,4)          -112.718          estimate D2E/DX2                !
 ! D4    D(14,1,3,5)            67.1485         estimate D2E/DX2                !
 ! D5    D(25,1,3,4)           119.5474         estimate D2E/DX2                !
 ! D6    D(25,1,3,5)           -60.5862         estimate D2E/DX2                !
 ! D7    D(2,1,14,15)           -3.2532         estimate D2E/DX2                !
 ! D8    D(2,1,14,16)          177.0735         estimate D2E/DX2                !
 ! D9    D(3,1,14,15)          114.2543         estimate D2E/DX2                !
 ! D10   D(3,1,14,16)          -65.419          estimate D2E/DX2                !
 ! D11   D(25,1,14,15)        -118.5589         estimate D2E/DX2                !
 ! D12   D(25,1,14,16)          61.7678         estimate D2E/DX2                !
 ! D13   D(2,1,25,26)           81.6503         estimate D2E/DX2                !
 ! D14   D(2,1,25,27)          -94.6218         estimate D2E/DX2                !
 ! D15   D(3,1,25,26)          -35.2191         estimate D2E/DX2                !
 ! D16   D(3,1,25,27)          148.5087         estimate D2E/DX2                !
 ! D17   D(14,1,25,26)        -161.1823         estimate D2E/DX2                !
 ! D18   D(14,1,25,27)          22.5455         estimate D2E/DX2                !
 ! D19   D(1,3,4,6)           -179.9832         estimate D2E/DX2                !
 ! D20   D(1,3,4,7)              0.0443         estimate D2E/DX2                !
 ! D21   D(5,3,4,6)              0.1475         estimate D2E/DX2                !
 ! D22   D(5,3,4,7)           -179.8251         estimate D2E/DX2                !
 ! D23   D(1,3,5,8)            179.9728         estimate D2E/DX2                !
 ! D24   D(1,3,5,9)             -0.9943         estimate D2E/DX2                !
 ! D25   D(4,3,5,8)             -0.1605         estimate D2E/DX2                !
 ! D26   D(4,3,5,9)            178.8724         estimate D2E/DX2                !
 ! D27   D(3,4,6,10)            -0.0092         estimate D2E/DX2                !
 ! D28   D(3,4,6,11)           179.9746         estimate D2E/DX2                !
 ! D29   D(7,4,6,10)           179.9635         estimate D2E/DX2                !
 ! D30   D(7,4,6,11)            -0.0528         estimate D2E/DX2                !
 ! D31   D(3,5,8,10)             0.0351         estimate D2E/DX2                !
 ! D32   D(3,5,8,12)           179.9259         estimate D2E/DX2                !
 ! D33   D(9,5,8,10)          -178.9836         estimate D2E/DX2                !
 ! D34   D(9,5,8,12)             0.9072         estimate D2E/DX2                !
 ! D35   D(4,6,10,8)            -0.1177         estimate D2E/DX2                !
 ! D36   D(4,6,10,13)          179.9812         estimate D2E/DX2                !
 ! D37   D(11,6,10,8)          179.8986         estimate D2E/DX2                !
 ! D38   D(11,6,10,13)          -0.0025         estimate D2E/DX2                !
 ! D39   D(5,8,10,6)             0.1048         estimate D2E/DX2                !
 ! D40   D(5,8,10,13)         -179.9941         estimate D2E/DX2                !
 ! D41   D(12,8,10,6)         -179.7858         estimate D2E/DX2                !
 ! D42   D(12,8,10,13)           0.1153         estimate D2E/DX2                !
 ! D43   D(1,14,15,17)        -179.7244         estimate D2E/DX2                !
 ! D44   D(1,14,15,18)           0.2675         estimate D2E/DX2                !
 ! D45   D(16,14,15,17)         -0.0433         estimate D2E/DX2                !
 ! D46   D(16,14,15,18)        179.9486         estimate D2E/DX2                !
 ! D47   D(1,14,16,19)         179.8167         estimate D2E/DX2                !
 ! D48   D(1,14,16,20)           0.8119         estimate D2E/DX2                !
 ! D49   D(15,14,16,19)          0.1429         estimate D2E/DX2                !
 ! D50   D(15,14,16,20)       -178.8619         estimate D2E/DX2                !
 ! D51   D(14,15,17,21)         -0.1026         estimate D2E/DX2                !
 ! D52   D(14,15,17,22)        179.8307         estimate D2E/DX2                !
 ! D53   D(18,15,17,21)        179.9054         estimate D2E/DX2                !
 ! D54   D(18,15,17,22)         -0.1613         estimate D2E/DX2                !
 ! D55   D(14,16,19,21)         -0.0967         estimate D2E/DX2                !
 ! D56   D(14,16,19,23)       -179.9159         estimate D2E/DX2                !
 ! D57   D(20,16,19,21)        178.8933         estimate D2E/DX2                !
 ! D58   D(20,16,19,23)         -0.9259         estimate D2E/DX2                !
 ! D59   D(15,17,21,19)          0.1496         estimate D2E/DX2                !
 ! D60   D(15,17,21,24)       -179.9659         estimate D2E/DX2                !
 ! D61   D(22,17,21,19)       -179.7836         estimate D2E/DX2                !
 ! D62   D(22,17,21,24)          0.1008         estimate D2E/DX2                !
 ! D63   D(16,19,21,17)         -0.0502         estimate D2E/DX2                !
 ! D64   D(16,19,21,24)       -179.9347         estimate D2E/DX2                !
 ! D65   D(23,19,21,17)        179.7686         estimate D2E/DX2                !
 ! D66   D(23,19,21,24)         -0.1159         estimate D2E/DX2                !
 ! D67   D(1,25,26,28)        -176.7719         estimate D2E/DX2                !
 ! D68   D(1,25,26,29)           3.4305         estimate D2E/DX2                !
 ! D69   D(27,25,26,28)         -0.4191         estimate D2E/DX2                !
 ! D70   D(27,25,26,29)        179.7832         estimate D2E/DX2                !
 ! D71   D(1,25,27,30)         176.6406         estimate D2E/DX2                !
 ! D72   D(1,25,27,31)          -3.5108         estimate D2E/DX2                !
 ! D73   D(26,25,27,30)          0.3379         estimate D2E/DX2                !
 ! D74   D(26,25,27,31)       -179.8135         estimate D2E/DX2                !
 ! D75   D(25,26,28,32)          0.257          estimate D2E/DX2                !
 ! D76   D(25,26,28,33)       -179.7877         estimate D2E/DX2                !
 ! D77   D(29,26,28,32)       -179.9461         estimate D2E/DX2                !
 ! D78   D(29,26,28,33)          0.0093         estimate D2E/DX2                !
 ! D79   D(25,27,30,32)         -0.0944         estimate D2E/DX2                !
 ! D80   D(25,27,30,34)        179.9877         estimate D2E/DX2                !
 ! D81   D(31,27,30,32)       -179.9429         estimate D2E/DX2                !
 ! D82   D(31,27,30,34)          0.1392         estimate D2E/DX2                !
 ! D83   D(26,28,32,30)         -0.0076         estimate D2E/DX2                !
 ! D84   D(26,28,32,35)        179.9445         estimate D2E/DX2                !
 ! D85   D(33,28,32,30)       -179.9629         estimate D2E/DX2                !
 ! D86   D(33,28,32,35)         -0.0107         estimate D2E/DX2                !
 ! D87   D(27,30,32,28)         -0.0733         estimate D2E/DX2                !
 ! D88   D(27,30,32,35)        179.9745         estimate D2E/DX2                !
 ! D89   D(34,30,32,28)        179.8443         estimate D2E/DX2                !
 ! D90   D(34,30,32,35)         -0.1079         estimate D2E/DX2                !
 --------------------------------------------------------------------------------
 Trust Radius=3.00D-01 FncErr=1.00D-07 GrdErr=1.00D-07
 Number of steps in this run= 197 maximum allowed number of steps= 210.
 GradGradGradGradGradGradGradGradGradGradGradGradGradGradGradGradGradGrad

                          Input orientation:                          
 ---------------------------------------------------------------------
 Center     Atomic      Atomic             Coordinates (Angstroms)
 Number     Number       Type             X           Y           Z
 ---------------------------------------------------------------------
      1          6           0        0.314689    0.225281   -0.672877
      2          1           0        0.758427    0.563954   -1.647317
      3          6           0       -1.172971    0.475901   -0.727890
      4          6           0       -1.745046    0.948385   -1.911055
      5          6           0       -1.991594    0.242638    0.379467
      6          6           0       -3.113445    1.185836   -1.981887
      7          1           0       -1.115474    1.133415   -2.789523
      8          6           0       -3.358427    0.480869    0.306360
      9          1           0       -1.540799   -0.147574    1.304936
     10          6           0       -3.921768    0.954030   -0.874349
     11          1           0       -3.553782    1.556677   -2.913338
     12          1           0       -3.991819    0.293700    1.179632
     13          1           0       -4.998711    1.141750   -0.931680
     14          6           0        0.588876   -1.251774   -0.531224
     15          6           0        1.228603   -1.931079   -1.570122
     16          6           0        0.211500   -1.958141    0.613102
     17          6           0        1.486270   -3.293631   -1.463616
     18          1           0        1.530174   -1.390780   -2.475023
     19          6           0        0.471783   -3.318851    0.718142
     20          1           0       -0.309677   -1.424495    1.422990
     21          6           0        1.110318   -3.989194   -0.320139
     22          1           0        1.985921   -3.818781   -2.284401
     23          1           0        0.170355   -3.863096    1.619163
     24          1           0        1.314396   -5.061525   -0.237734
     25          6           0        1.003877    1.067698    0.371529
     26          6           0        0.554383    2.366865    0.623553
     27          6           0        2.136194    0.602085    1.042156
     28          6           0        1.219478    3.178664    1.534047
     29          1           0       -0.332323    2.744348    0.099493
     30          6           0        2.801244    1.416738    1.951655
     31          1           0        2.502005   -0.414673    0.851712
     32          6           0        2.344885    2.705784    2.200585
     33          1           0        0.855533    4.193350    1.725429
     34          1           0        3.688034    1.039455    2.471158
     35          1           0        2.868893    3.346172    2.917066
 ---------------------------------------------------------------------
                    Distance matrix (angstroms):
                    1          2          3          4          5
     1  C    0.000000
     2  H    1.123003   0.000000
     3  C    1.509625   2.140887   0.000000
     4  C    2.509675   2.546512   1.396563   0.000000
     5  C    2.535088   3.431284   1.396708   2.409430   0.000000
     6  C    3.793188   3.935743   2.417014   1.390654   2.779238
     7  H    2.711137   2.267252   2.164708   1.096496   3.406401
     8  C    3.809988   4.557658   2.417833   2.781816   1.389363
     9  H    2.737444   3.809004   2.157869   3.403739   1.100897
    10  C    4.303397   4.759607   2.793911   2.410997   2.409088
    11  H    4.664477   4.602549   3.407715   2.155486   3.874235
    12  H    4.688548   5.534394   3.408481   3.876718   2.154941
    13  H    5.398066   5.830148   3.888595   3.403367   3.401509
    14  C    1.508952   2.138054   2.475408   3.491679   3.117924
    15  C    2.508022   2.540121   3.502922   4.153328   4.346908
    16  C    2.536085   3.430683   3.104768   4.318256   3.122761
    17  C    3.792178   3.929944   4.671427   5.351290   5.291285
    18  H    2.708651   2.258689   3.720748   4.064089   4.818612
    19  C    3.810576   4.555627   4.381366   5.480539   4.343632
    20  H    2.739389   3.810716   2.997176   4.336669   2.587879
    21  C    4.303400   4.755668   5.031574   5.921469   5.293364
    22  H    4.663096   4.595757   5.553883   6.065095   6.277893
    23  H    4.689255   5.533036   5.112737   6.267500   4.802908
    24  H    5.398063   5.825979   6.090183   6.948323   6.280498
    25  C    1.508453   2.095172   2.509505   3.575053   3.107030
    26  C    2.514869   2.906712   2.895841   3.704551   3.324743
    27  C    2.530060   3.022079   3.754938   4.889315   4.196068
    28  C    3.796265   4.143712   4.259707   5.062733   4.501587
    29  H    2.713094   2.999200   2.556777   3.043611   3.014982
    30  C    3.806665   4.225274   4.884622   5.984032   5.178956
    31  H    2.741946   3.200456   4.098014   5.246737   4.565907
    32  C    4.304808   4.680880   5.091528   6.059832   5.309294
    33  H    4.667971   4.955539   4.894184   5.524204   5.052314
    34  H    4.682659   5.076468   5.846441   6.980719   6.104773
    35  H    5.399223   5.747034   6.153116   7.095672   6.300449
                    6          7          8          9         10
     6  C    0.000000
     7  H    2.155670   0.000000
     8  C    2.406880   3.878292   0.000000
     9  H    3.880000   4.311198   2.166994   0.000000
    10  C    1.390597   3.402257   1.391154   3.410546   0.000000
    11  H    1.094998   2.477867   3.400292   4.974978   2.157793
    12  H    3.400390   4.973195   1.094907   2.493576   2.158653
    13  H    2.158496   4.304786   2.158713   4.315317   1.094684
    14  C    4.664070   3.700521   4.391446   3.020969   5.032814
    15  C    5.360792   4.046327   5.511761   4.372234   5.944263
    16  C    5.260591   4.785023   4.334424   2.612917   5.270403
    17  C    6.441398   5.303381   6.391459   5.169691   6.901937
    18  H    5.333417   3.670141   5.927696   5.026383   6.146866
    19  C    6.358949   5.886067   5.410910   3.801554   6.332206
    20  H    5.125245   4.993744   3.764591   1.777674   4.897178
    21  C    6.883496   6.106811   6.351664   4.942401   7.075627
    22  H    7.151311   5.864985   7.332195   6.228872   7.724555
    23  H    7.017309   6.786384   5.748546   4.102669   6.794688
    24  H    7.853494   7.126934   7.269761   5.888877   8.000599
    25  C    4.743930   3.806340   4.402080   2.970440   5.082038
    26  C    4.651464   3.994861   4.355189   3.343123   4.927042
    27  C    6.086404   5.053457   5.544993   3.761824   6.363628
    28  C    5.925148   5.322434   5.453671   4.328450   6.097686
    29  H    3.807328   3.399242   3.784632   3.358083   4.127677
    30  C    7.107012   6.156276   6.443942   4.660328   7.307482
    31  H    6.490315   5.361094   5.953492   4.076888   6.790986
    32  C    7.042491   6.272767   6.408283   4.903303   7.196860
    33  H    6.208231   5.799385   5.792559   4.976229   6.330454
    34  H    8.130877   7.124415   7.392630   5.487240   8.313170
    35  H    8.028397   7.303193   7.335207   5.852402   8.136968
                   11         12         13         14         15
    11  H    0.000000
    12  H    4.305739   0.000000
    13  H    2.487359   2.488103   0.000000
    14  C    5.542877   5.128185   6.091835   0.000000
    15  C    6.069586   6.305837   6.973473   1.396429   0.000000
    16  C    6.242362   4.802044   6.256355   1.396728   2.408671
    17  C    7.143480   7.061527   7.874677   2.417406   1.390785
    18  H    5.892898   6.832744   7.170911   2.164190   1.096228
    19  C    7.291337   5.760837   7.248806   2.418147   2.781158
    20  H    6.181856   4.070576   5.840987   2.157819   3.403182
    21  C    7.696440   6.828198   8.001300   2.794625   2.410868
    22  H    7.744638   8.040236   8.673051   3.408063   2.155724
    23  H    7.986658   5.898800   7.633776   3.408567   3.876095
    24  H    8.640521   7.670936   8.877922   3.889308   3.403279
    25  C    5.639301   5.119480   6.142874   2.523319   3.579549
    26  C    5.481152   5.027443   5.895465   3.798585   4.872279
    27  C    6.995213   6.137307   7.422542   2.882102   3.750285
    28  C    6.722655   5.967096   6.992475   4.928669   5.978747
    29  H    4.567878   4.534786   5.040517   4.149145   5.204203
    30  C    8.004630   6.928415   8.320369   4.263827   5.107249
    31  H    7.398269   6.540571   7.865347   2.504658   3.128309
    32  C    7.890940   6.856698   8.135459   5.119434   6.079869
    33  H    6.921869   6.245157   7.116507   5.900251   6.964802
    34  H    9.039038   7.823319   9.330022   4.885571   5.586127
    35  H    8.857012   7.707504   9.031695   6.183065   7.118623
                   16         17         18         19         20
    16  C    0.000000
    17  C    2.778728   0.000000
    18  H    3.405484   2.155391   0.000000
    19  C    1.389357   2.406219   3.877364   0.000000
    20  H    1.101054   3.879638   4.310533   2.167043   0.000000
    21  C    2.409146   1.390212   3.401699   1.391083   3.410654
    22  H    3.873768   1.095044   2.477747   3.399678   4.974648
    23  H    2.154694   3.399919   4.972305   1.094943   2.493129
    24  H    3.401660   2.158188   4.304229   2.158843   4.315507
    25  C    3.137184   4.756223   3.797890   4.432277   3.006995
    26  C    4.338589   6.104581   4.967217   5.687103   3.969900
    27  C    3.231608   4.677382   4.087704   4.271884   3.199116
    28  C    5.315160   7.137770   6.086788   6.591089   4.851775
    29  H    4.761612   6.496752   5.215009   6.147496   4.373947
    30  C    4.459631   5.964965   5.393817   5.419756   4.246165
    31  H    2.772299   3.831561   3.600612   3.545969   3.041653
    32  C    5.368764   7.082130   6.269522   6.480924   4.970971
    33  H    6.284338   8.162275   7.020075   7.589142   5.745378
    34  H    4.952195   6.253466   5.918370   5.693168   4.811590
    35  H    6.364411   8.073971   7.301062   7.416464   5.924089
                   21         22         23         24         25
    21  C    0.000000
    22  H    2.157324   0.000000
    23  H    2.158778   4.305352   0.000000
    24  H    1.094683   2.486806   2.488599   0.000000
    25  C    5.105085   5.647659   5.154035   6.167252   0.000000
    26  C    6.449736   6.983389   6.320691   7.516675   1.397639
    27  C    4.897766   5.534675   4.912769   5.864294   1.395950
    28  C    7.404600   8.008259   7.119992   8.429052   2.419526
    29  H    6.899123   7.357437   6.798559   7.984802   2.161155
    30  C    6.102817   6.783774   5.908365   6.998002   2.418503
    31  H    4.010889   4.657199   4.232871   4.918388   2.161570
    32  C    7.259540   7.925522   6.943833   8.205997   2.797690
    33  H    8.438204   9.030546   8.086229   9.471920   3.409509
    34  H    6.302639   7.008209   6.093846   7.084786   3.407922
    35  H    8.208512   8.897835   7.806421   9.113649   3.892234
                   26         27         28         29         30
    26  C    0.000000
    27  C    2.406616   0.000000
    28  C    1.389377   2.778683   0.000000
    29  H    1.096987   3.401688   2.157466   0.000000
    30  C    2.777586   1.390374   2.404322   3.874571   0.000000
    31  H    3.403269   1.097216   3.875890   4.310298   2.157194
    32  C    2.409936   2.410613   1.390838   3.403457   1.389917
    33  H    2.154268   3.873518   1.094839   2.480782   3.398021
    34  H    3.872393   2.154425   3.398259   4.969379   1.094816
    35  H    3.402381   3.403256   2.159021   4.306819   2.158544
                   31         32         33         34         35
    31  H    0.000000
    32  C    3.403145   0.000000
    33  H    4.970727   2.157961   0.000000
    34  H    2.478660   2.157293   4.304211   0.000000
    35  H    4.306303   1.094544   2.488237   2.488126   0.000000
 Stoichiometry    C19H16
 Framework group  C1[X(C19H16)]
 Deg. of freedom    99
 Full point group                 C1      NOp   1
 Largest Abelian subgroup         C1      NOp   1
 Largest concise Abelian subgroup C1      NOp   1
                         Standard orientation:                         
 ---------------------------------------------------------------------
 Center     Atomic      Atomic             Coordinates (Angstroms)
 Number     Number       Type             X           Y           Z
 ---------------------------------------------------------------------
      1          6           0        0.001883    0.013028   -0.761864
      2          1           0       -0.011756    0.030240   -1.884652
      3          6           0       -1.020856   -0.996899   -0.300322
      4          6           0       -1.696968   -1.769332   -1.247216
      5          6           0       -1.304287   -1.178011    1.055281
      6          6           0       -2.642954   -2.704808   -0.842356
      7          1           0       -1.482974   -1.640349   -2.314864
      8          6           0       -2.250005   -2.113058    1.457317
      9          1           0       -0.756358   -0.581033    1.800511
     10          6           0       -2.921968   -2.877527    0.508969
     11          1           0       -3.168793   -3.306013   -1.591399
     12          1           0       -2.464162   -2.248378    2.522515
     13          1           0       -3.667131   -3.614124    0.825971
     14          6           0        1.383412   -0.408232   -0.324996
     15          6           0        2.330183   -0.754323   -1.291360
     16          6           0        1.736254   -0.466787    1.025161
     17          6           0        3.607867   -1.151077   -0.911369
     18          1           0        2.068176   -0.714254   -2.355062
     19          6           0        3.013871   -0.861449    1.402324
     20          1           0        0.982466   -0.211699    1.786117
     21          6           0        3.952477   -1.203923    0.434417
     22          1           0        4.343060   -1.423367   -1.675876
     23          1           0        3.279362   -0.905133    2.463693
     24          1           0        4.958763   -1.515894    0.731727
     25          6           0       -0.353728    1.421665   -0.356014
     26          6           0       -1.693234    1.819655   -0.329145
     27          6           0        0.637418    2.364729   -0.078636
     28          6           0       -2.032778    3.131526   -0.022436
     29          1           0       -2.480181    1.087714   -0.549051
     30          6           0        0.295491    3.677426    0.226409
     31          1           0        1.693243    2.066911   -0.099191
     32          6           0       -1.039227    4.064097    0.256126
     33          1           0       -3.085873    3.430207   -0.001200
     34          1           0        1.082440    4.407324    0.442234
     35          1           0       -1.307386    5.097636    0.496785
 ---------------------------------------------------------------------
 Rotational constants (GHZ):      0.4001374      0.3880985      0.2317285
 Standard basis: 6-311G (5D, 7F)
 There are   295 symmetry adapted basis functions of A   symmetry.
 Integral buffers will be    262144 words long.
 Raffenetti 1 integral format.
 Two-electron integral symmetry is turned on.
   295 basis functions,   574 primitive gaussians,   295 cartesian basis functions
    65 alpha electrons       65 beta electrons
       nuclear repulsion energy      1291.0758921355 Hartrees.
 NAtoms=   35 NActive=   35 NUniq=   35 SFac= 7.50D-01 NAtFMM=   80 NAOKFM=F Big=F
 One-electron integrals computed using PRISM.
 PrsmSu:  requested number of processors reduced to:  10 ShMem   1 Linda.
 NBasis=   295 RedAO= T  NBF=   295
 NBsUse=   295 1.00D-06 NBFU=   295
 Harris functional with IExCor=  205 diagonalized for initial guess.
 ExpMin= 1.03D-01 ExpMax= 4.56D+03 ExpMxC= 6.82D+02 IAcc=1 IRadAn=         1 AccDes= 0.00D+00
 HarFok:  IExCor=  205 AccDes= 0.00D+00 IRadAn=         1 IDoV= 1
 ScaDFX=  1.000000  1.000000  1.000000  1.000000
 FoFCou: FMM=F IPFlag=           0 FMFlag=      100000 FMFlg1=           0
         NFxFlg=           0 DoJE=T BraDBF=F KetDBF=T FulRan=T
         Omega=  0.000000  0.000000  1.000000  0.000000  0.000000 ICntrl=     500 IOpCl=  0
         NMat0=    1 NMatS0=    1 NMatT0=    0 NMatD0=    1 NMtDS0=    0 NMtDT0=    0
         I1Cent=           4 NGrid=           0.
 Petite list used in FoFCou.
 Initial guess orbital symmetries:
       Occupied  (A) (A) (A) (A) (A) (A) (A) (A) (A) (A) (A) (A)
                 (A) (A) (A) (A) (A) (A) (A) (A) (A) (A) (A) (A)
                 (A) (A) (A) (A) (A) (A) (A) (A) (A) (A) (A) (A)
                 (A) (A) (A) (A) (A) (A) (A) (A) (A) (A) (A) (A)
                 (A) (A) (A) (A) (A) (A) (A) (A) (A) (A) (A) (A)
                 (A) (A) (A) (A) (A)
       Virtual   (A) (A) (A) (A) (A) (A) (A) (A) (A) (A) (A) (A)
                 (A) (A) (A) (A) (A) (A) (A) (A) (A) (A) (A) (A)
                 (A) (A) (A) (A) (A) (A) (A) (A) (A) (A) (A) (A)
                 (A) (A) (A) (A) (A) (A) (A) (A) (A) (A) (A) (A)
                 (A) (A) (A) (A) (A) (A) (A) (A) (A) (A) (A) (A)
                 (A) (A) (A) (A) (A) (A) (A) (A) (A) (A) (A) (A)
                 (A) (A) (A) (A) (A) (A) (A) (A) (A) (A) (A) (A)
                 (A) (A) (A) (A) (A) (A) (A) (A) (A) (A) (A) (A)
                 (A) (A) (A) (A) (A) (A) (A) (A) (A) (A) (A) (A)
                 (A) (A) (A) (A) (A) (A) (A) (A) (A) (A) (A) (A)
                 (A) (A) (A) (A) (A) (A) (A) (A) (A) (A) (A) (A)
                 (A) (A) (A) (A) (A) (A) (A) (A) (A) (A) (A) (A)
                 (A) (A) (A) (A) (A) (A) (A) (A) (A) (A) (A) (A)
                 (A) (A) (A) (A) (A) (A) (A) (A) (A) (A) (A) (A)
                 (A) (A) (A) (A) (A) (A) (A) (A) (A) (A) (A) (A)
                 (A) (A) (A) (A) (A) (A) (A) (A) (A) (A) (A) (A)
                 (A) (A) (A) (A) (A) (A) (A) (A) (A) (A) (A) (A)
                 (A) (A) (A) (A) (A) (A) (A) (A) (A) (A) (A) (A)
                 (A) (A) (A) (A) (A) (A) (A) (A) (A) (A) (A) (A)
                 (A) (A)
 The electronic state of the initial guess is 1-A.
 Requested convergence on RMS density matrix=1.00D-08 within 128 cycles.
 Requested convergence on MAX density matrix=1.00D-06.
 Requested convergence on             energy=1.00D-06.
 No special actions if energy rises.
 Integral accuracy reduced to 1.0D-05 until final iterations.
 Initial convergence to 1.0D-05 achieved.  Increase integral accuracy.
 SCF Done:  E(RHF) =  -728.672705231     A.U. after   14 cycles
             Convg  =    0.8978D-08             -V/T =  2.0001

 **********************************************************************

            Population analysis using the SCF density.

 **********************************************************************

 Orbital symmetries:
       Occupied  (A) (A) (A) (A) (A) (A) (A) (A) (A) (A) (A) (A)
                 (A) (A) (A) (A) (A) (A) (A) (A) (A) (A) (A) (A)
                 (A) (A) (A) (A) (A) (A) (A) (A) (A) (A) (A) (A)
                 (A) (A) (A) (A) (A) (A) (A) (A) (A) (A) (A) (A)
                 (A) (A) (A) (A) (A) (A) (A) (A) (A) (A) (A) (A)
                 (A) (A) (A) (A) (A)
       Virtual   (A) (A) (A) (A) (A) (A) (A) (A) (A) (A) (A) (A)
                 (A) (A) (A) (A) (A) (A) (A) (A) (A) (A) (A) (A)
                 (A) (A) (A) (A) (A) (A) (A) (A) (A) (A) (A) (A)
                 (A) (A) (A) (A) (A) (A) (A) (A) (A) (A) (A) (A)
                 (A) (A) (A) (A) (A) (A) (A) (A) (A) (A) (A) (A)
                 (A) (A) (A) (A) (A) (A) (A) (A) (A) (A) (A) (A)
                 (A) (A) (A) (A) (A) (A) (A) (A) (A) (A) (A) (A)
                 (A) (A) (A) (A) (A) (A) (A) (A) (A) (A) (A) (A)
                 (A) (A) (A) (A) (A) (A) (A) (A) (A) (A) (A) (A)
                 (A) (A) (A) (A) (A) (A) (A) (A) (A) (A) (A) (A)
                 (A) (A) (A) (A) (A) (A) (A) (A) (A) (A) (A) (A)
                 (A) (A) (A) (A) (A) (A) (A) (A) (A) (A) (A) (A)
                 (A) (A) (A) (A) (A) (A) (A) (A) (A) (A) (A) (A)
                 (A) (A) (A) (A) (A) (A) (A) (A) (A) (A) (A) (A)
                 (A) (A) (A) (A) (A) (A) (A) (A) (A) (A) (A) (A)
                 (A) (A) (A) (A) (A) (A) (A) (A) (A) (A) (A) (A)
                 (A) (A) (A) (A) (A) (A) (A) (A) (A) (A) (A) (A)
                 (A) (A) (A) (A) (A) (A) (A) (A) (A) (A) (A) (A)
                 (A) (A) (A) (A) (A) (A) (A) (A) (A) (A) (A) (A)
                 (A) (A)
 The electronic state is 1-A.
 Alpha  occ. eigenvalues --  -11.25745 -11.25199 -11.25186 -11.24881 -11.24491
 Alpha  occ. eigenvalues --  -11.24453 -11.24423 -11.24404 -11.24192 -11.24160
 Alpha  occ. eigenvalues --  -11.24139 -11.24113 -11.24102 -11.24080 -11.23987
 Alpha  occ. eigenvalues --  -11.23951 -11.23720 -11.23563 -11.23521  -1.18615
 Alpha  occ. eigenvalues --   -1.15870  -1.15560  -1.09022  -1.02354  -1.02257
 Alpha  occ. eigenvalues --   -1.01876  -1.01486  -1.01039  -0.92910  -0.84207
 Alpha  occ. eigenvalues --   -0.83440  -0.82244  -0.82011  -0.81055  -0.77561
 Alpha  occ. eigenvalues --   -0.70893  -0.70351  -0.68969  -0.65611  -0.63942
 Alpha  occ. eigenvalues --   -0.63645  -0.62531  -0.61665  -0.61509  -0.59745
 Alpha  occ. eigenvalues --   -0.58836  -0.58513  -0.58292  -0.56483  -0.55398
 Alpha  occ. eigenvalues --   -0.51725  -0.50853  -0.50150  -0.49901  -0.49357
 Alpha  occ. eigenvalues --   -0.48316  -0.48069  -0.47470  -0.46278  -0.35071
 Alpha  occ. eigenvalues --   -0.34274  -0.34108  -0.33289  -0.32196  -0.31694
 Alpha virt. eigenvalues --    0.11679   0.12322   0.12502   0.13306   0.15125
 Alpha virt. eigenvalues --    0.15241   0.15846   0.16234   0.16499   0.16875
 Alpha virt. eigenvalues --    0.18908   0.19163   0.19276   0.21175   0.21276
 Alpha virt. eigenvalues --    0.21633   0.23503   0.24161   0.24693   0.25350
 Alpha virt. eigenvalues --    0.26417   0.32050   0.32868   0.34148   0.35806
 Alpha virt. eigenvalues --    0.38080   0.39005   0.40798   0.41502   0.43003
 Alpha virt. eigenvalues --    0.44130   0.44434   0.45134   0.45312   0.45488
 Alpha virt. eigenvalues --    0.46071   0.46816   0.47284   0.47570   0.50461
 Alpha virt. eigenvalues --    0.51161   0.51362   0.52625   0.55061   0.56399
 Alpha virt. eigenvalues --    0.56872   0.57817   0.58332   0.58681   0.59475
 Alpha virt. eigenvalues --    0.60351   0.60632   0.60861   0.61156   0.61668
 Alpha virt. eigenvalues --    0.61937   0.62002   0.62448   0.63046   0.63362
 Alpha virt. eigenvalues --    0.64273   0.64913   0.65220   0.65754   0.66339
 Alpha virt. eigenvalues --    0.67390   0.67918   0.68758   0.69725   0.72075
 Alpha virt. eigenvalues --    0.73009   0.73653   0.75175   0.75428   0.75677
 Alpha virt. eigenvalues --    0.77254   0.78703   0.80034   0.80163   0.80961
 Alpha virt. eigenvalues --    0.81450   0.82369   0.82457   0.82690   0.83625
 Alpha virt. eigenvalues --    0.83858   0.84410   0.85088   0.85350   0.85512
 Alpha virt. eigenvalues --    0.85952   0.86169   0.86974   0.87764   0.87926
 Alpha virt. eigenvalues --    0.89827   0.90281   0.92725   0.93526   0.95233
 Alpha virt. eigenvalues --    0.95743   0.96407   0.96686   0.98998   0.99780
 Alpha virt. eigenvalues --    1.00797   1.02909   1.03605   1.05654   1.06496
 Alpha virt. eigenvalues --    1.07151   1.07691   1.09075   1.10149   1.10504
 Alpha virt. eigenvalues --    1.11408   1.11981   1.12300   1.13214   1.13956
 Alpha virt. eigenvalues --    1.14726   1.17043   1.19283   1.20569   1.21855
 Alpha virt. eigenvalues --    1.22543   1.23673   1.27903   1.28074   1.28800
 Alpha virt. eigenvalues --    1.29886   1.31861   1.32287   1.48011   1.48226
 Alpha virt. eigenvalues --    1.51032   1.55053   1.55889   2.53385   2.55734
 Alpha virt. eigenvalues --    2.55800   2.57693   2.62137   2.62698   2.63689
 Alpha virt. eigenvalues --    2.66287   2.67507   2.68098   2.72965   2.74138
 Alpha virt. eigenvalues --    2.78574   2.83162   2.87360   2.92355   2.94254
 Alpha virt. eigenvalues --    2.94680   2.94764   2.96103   2.98430   2.98598
 Alpha virt. eigenvalues --    2.99688   3.02488   3.03670   3.04531   3.07611
 Alpha virt. eigenvalues --    3.08289   3.09335   3.09568   3.10272   3.13273
 Alpha virt. eigenvalues --    3.14828   3.15549   3.17927   3.18156   3.19808
 Alpha virt. eigenvalues --    3.21746   3.24008   3.24423   3.27897   3.28756
 Alpha virt. eigenvalues --    3.31918   3.33792   3.34765   3.36091   3.40217
 Alpha virt. eigenvalues --    3.40633   3.44217   3.44571   3.50596   3.52384
 Alpha virt. eigenvalues --    3.53819   3.56086   3.58393   3.58961   3.59399
 Alpha virt. eigenvalues --    3.62573   3.63570   3.65333   3.66019   3.67363
 Alpha virt. eigenvalues --    3.67876   3.69206   3.70979   3.71501   3.75020
 Alpha virt. eigenvalues --    3.76403   3.77806   3.78675   3.85817   3.89264
 Alpha virt. eigenvalues --    3.90561  24.26393  24.30032  24.31412  24.50544
 Alpha virt. eigenvalues --   24.50777  24.51137  24.52759  24.54664  24.56345
 Alpha virt. eigenvalues --   24.75867  24.77106  24.79147  24.80294  24.80909
 Alpha virt. eigenvalues --   24.83187  24.87835  25.04760  25.05818  25.07083
          Condensed to atoms (all electrons):
              1          2          3          4          5          6
     1  C    6.151712   0.467648   0.134401  -0.023329  -0.065885   0.007070
     2  H    0.467648   0.497910  -0.070226   0.003675   0.004791   0.001470
     3  C    0.134401  -0.070226   5.406072   0.490749   0.452966  -0.075753
     4  C   -0.023329   0.003675   0.490749   5.082609  -0.070647   0.458577
     5  C   -0.065885   0.004791   0.452966  -0.070647   5.067075  -0.026717
     6  C    0.007070   0.001470  -0.075753   0.458577  -0.026717   5.054978
     7  H   -0.000720   0.002689  -0.049425   0.398872   0.004496  -0.034241
     8  C    0.003929  -0.000238  -0.057466  -0.031352   0.477920  -0.078736
     9  H   -0.000682   0.000059  -0.044235   0.004313   0.387212   0.000019
    10  C    0.001328   0.000004  -0.018328  -0.087535  -0.092225   0.499384
    11  H   -0.000350  -0.000038   0.006897  -0.039542  -0.000681   0.396702
    12  H   -0.000358   0.000011   0.006024  -0.000451  -0.038680   0.005926
    13  H   -0.000018  -0.000002  -0.001601   0.007523   0.007955  -0.042566
    14  C    0.120034  -0.071400  -0.149158  -0.003374  -0.002289  -0.000536
    15  C   -0.022980   0.005276  -0.004372   0.000603   0.000751  -0.000014
    16  C   -0.073631   0.004528  -0.002716   0.000589  -0.011385   0.000098
    17  C    0.007634   0.001422  -0.000543  -0.000013   0.000077   0.000002
    18  H   -0.001498   0.002871   0.000162   0.000281  -0.000019   0.000000
    19  C    0.003962  -0.000228   0.001902   0.000031  -0.000154   0.000001
    20  H   -0.000787   0.000036  -0.003778  -0.000201   0.000734  -0.000031
    21  C    0.001445   0.000009  -0.000089  -0.000012  -0.000018   0.000000
    22  H   -0.000375  -0.000036   0.000024   0.000001   0.000000   0.000000
    23  H   -0.000363   0.000011   0.000033   0.000001   0.000047   0.000000
    24  H   -0.000024  -0.000002  -0.000002   0.000000   0.000000   0.000000
    25  C    0.025148  -0.060392  -0.076515  -0.000863  -0.000565  -0.000485
    26  C   -0.074557  -0.003293  -0.011721   0.000606  -0.013582  -0.000011
    27  C   -0.052337  -0.001320   0.007228  -0.000434   0.001470   0.000014
    28  C    0.010625   0.000225  -0.002104  -0.000064  -0.000731   0.000012
    29  H   -0.007998  -0.000118   0.004038   0.000543  -0.000627   0.000043
    30  C    0.012210   0.000011  -0.000881   0.000008   0.000018   0.000000
    31  H   -0.011127  -0.000196   0.000541  -0.000013  -0.000005   0.000000
    32  C    0.000149   0.000055   0.000145  -0.000004   0.000016   0.000000
    33  H   -0.000358   0.000010   0.000031  -0.000001   0.000012   0.000000
    34  H   -0.000363   0.000012   0.000012   0.000000   0.000000   0.000000
    35  H   -0.000013  -0.000002   0.000002   0.000000   0.000001   0.000000
              7          8          9         10         11         12
     1  C   -0.000720   0.003929  -0.000682   0.001328  -0.000350  -0.000358
     2  H    0.002689  -0.000238   0.000059   0.000004  -0.000038   0.000011
     3  C   -0.049425  -0.057466  -0.044235  -0.018328   0.006897   0.006024
     4  C    0.398872  -0.031352   0.004313  -0.087535  -0.039542  -0.000451
     5  C    0.004496   0.477920   0.387212  -0.092225  -0.000681  -0.038680
     6  C   -0.034241  -0.078736   0.000019   0.499384   0.396702   0.005926
     7  H    0.508096  -0.000289  -0.000273   0.005165  -0.004154   0.000025
     8  C   -0.000289   5.044789  -0.029012   0.490738   0.006238   0.397233
     9  H   -0.000273  -0.029012   0.499134   0.004600   0.000014  -0.003344
    10  C    0.005165   0.490738   0.004600   5.033710  -0.040710  -0.039825
    11  H   -0.004154   0.006238   0.000014  -0.040710   0.517936  -0.000204
    12  H    0.000025   0.397233  -0.003344  -0.039825  -0.000204   0.514426
    13  H   -0.000182  -0.042991  -0.000173   0.399582  -0.004569  -0.004438
    14  C    0.000248   0.001886  -0.003422  -0.000092   0.000026   0.000032
    15  C    0.000280   0.000027  -0.000204  -0.000011   0.000001   0.000001
    16  C   -0.000013  -0.000191   0.000039  -0.000025   0.000000   0.000051
    17  C    0.000002   0.000001  -0.000016   0.000000   0.000000   0.000000
    18  H    0.000079   0.000000   0.000001  -0.000001   0.000000   0.000000
    19  C   -0.000001  -0.000103   0.001024   0.000001   0.000000   0.000001
    20  H    0.000002   0.001078   0.000729  -0.000012   0.000001  -0.000038
    21  C   -0.000001   0.000001  -0.000017   0.000000   0.000000   0.000000
    22  H    0.000000   0.000000   0.000001   0.000000   0.000000   0.000000
    23  H    0.000000   0.000000  -0.000030   0.000000   0.000000   0.000001
    24  H    0.000000   0.000000   0.000000   0.000000   0.000000   0.000000
    25  C    0.000256  -0.000254   0.001641  -0.000012   0.000013   0.000028
    26  C    0.000243  -0.000626   0.001316   0.000189  -0.000005   0.000004
    27  C   -0.000018   0.000008  -0.000321  -0.000001   0.000000   0.000000
    28  C   -0.000006  -0.000027   0.000201   0.000003   0.000000  -0.000001
    29  H    0.000195  -0.000410   0.000109   0.000021   0.000012   0.000007
    30  C    0.000000   0.000001  -0.000158   0.000000   0.000000   0.000000
    31  H    0.000001   0.000001   0.000029   0.000000   0.000000   0.000000
    32  C    0.000001   0.000001  -0.000020   0.000000   0.000000   0.000000
    33  H    0.000000   0.000001   0.000003   0.000000   0.000000   0.000000
    34  H    0.000000   0.000000  -0.000001   0.000000   0.000000   0.000000
    35  H    0.000000   0.000000   0.000000   0.000000   0.000000   0.000000
             13         14         15         16         17         18
     1  C   -0.000018   0.120034  -0.022980  -0.073631   0.007634  -0.001498
     2  H   -0.000002  -0.071400   0.005276   0.004528   0.001422   0.002871
     3  C   -0.001601  -0.149158  -0.004372  -0.002716  -0.000543   0.000162
     4  C    0.007523  -0.003374   0.000603   0.000589  -0.000013   0.000281
     5  C    0.007955  -0.002289   0.000751  -0.011385   0.000077  -0.000019
     6  C   -0.042566  -0.000536  -0.000014   0.000098   0.000002   0.000000
     7  H   -0.000182   0.000248   0.000280  -0.000013   0.000002   0.000079
     8  C   -0.042991   0.001886   0.000027  -0.000191   0.000001   0.000000
     9  H   -0.000173  -0.003422  -0.000204   0.000039  -0.000016   0.000001
    10  C    0.399582  -0.000092  -0.000011  -0.000025   0.000000  -0.000001
    11  H   -0.004569   0.000026   0.000001   0.000000   0.000000   0.000000
    12  H   -0.004438   0.000032   0.000001   0.000051   0.000000   0.000000
    13  H    0.517294  -0.000002   0.000000   0.000000   0.000000   0.000000
    14  C   -0.000002   5.408477   0.491757   0.451866  -0.075840  -0.047777
    15  C    0.000000   0.491757   5.066504  -0.067165   0.463482   0.396771
    16  C    0.000000   0.451866  -0.067165   5.082136  -0.028468   0.004710
    17  C    0.000000  -0.075840   0.463482  -0.028468   5.051047  -0.033910
    18  H    0.000000  -0.047777   0.396771   0.004710  -0.033910   0.507245
    19  C    0.000000  -0.059214  -0.032678   0.478343  -0.077944  -0.000299
    20  H    0.000000  -0.045069   0.004527   0.386817  -0.000052  -0.000272
    21  C    0.000000  -0.017409  -0.088468  -0.092778   0.499864   0.005119
    22  H    0.000000   0.006908  -0.039410  -0.000654   0.396460  -0.004103
    23  H    0.000000   0.006020  -0.000420  -0.038612   0.005918   0.000025
    24  H    0.000000  -0.001671   0.007571   0.008002  -0.042570  -0.000178
    25  C    0.000002  -0.065219  -0.000103   0.004448  -0.000634   0.000396
    26  C   -0.000001   0.010583  -0.000381   0.001245   0.000009   0.000000
    27  C    0.000000  -0.013627   0.000964  -0.017756   0.000157   0.000170
    28  C    0.000000  -0.000893   0.000009  -0.000012   0.000000   0.000000
    29  H    0.000006   0.000663  -0.000009  -0.000031   0.000000   0.000000
    30  C    0.000000  -0.002153  -0.000090  -0.001026   0.000008  -0.000002
    31  H    0.000000   0.002729  -0.000309  -0.000443  -0.000103   0.000158
    32  C    0.000000   0.000142  -0.000004   0.000002   0.000000   0.000001
    33  H    0.000000   0.000012   0.000000   0.000000   0.000000   0.000000
    34  H    0.000000   0.000050   0.000002   0.000013   0.000000   0.000000
    35  H    0.000000   0.000001   0.000000   0.000001   0.000000   0.000000
             19         20         21         22         23         24
     1  C    0.003962  -0.000787   0.001445  -0.000375  -0.000363  -0.000024
     2  H   -0.000228   0.000036   0.000009  -0.000036   0.000011  -0.000002
     3  C    0.001902  -0.003778  -0.000089   0.000024   0.000033  -0.000002
     4  C    0.000031  -0.000201  -0.000012   0.000001   0.000001   0.000000
     5  C   -0.000154   0.000734  -0.000018   0.000000   0.000047   0.000000
     6  C    0.000001  -0.000031   0.000000   0.000000   0.000000   0.000000
     7  H   -0.000001   0.000002  -0.000001   0.000000   0.000000   0.000000
     8  C   -0.000103   0.001078   0.000001   0.000000   0.000000   0.000000
     9  H    0.001024   0.000729  -0.000017   0.000001  -0.000030   0.000000
    10  C    0.000001  -0.000012   0.000000   0.000000   0.000000   0.000000
    11  H    0.000000   0.000001   0.000000   0.000000   0.000000   0.000000
    12  H    0.000001  -0.000038   0.000000   0.000000   0.000001   0.000000
    13  H    0.000000   0.000000   0.000000   0.000000   0.000000   0.000000
    14  C   -0.059214  -0.045069  -0.017409   0.006908   0.006020  -0.001671
    15  C   -0.032678   0.004527  -0.088468  -0.039410  -0.000420   0.007571
    16  C    0.478343   0.386817  -0.092778  -0.000654  -0.038612   0.008002
    17  C   -0.077944  -0.000052   0.499864   0.396460   0.005918  -0.042570
    18  H   -0.000299  -0.000272   0.005119  -0.004103   0.000025  -0.000178
    19  C    5.046780  -0.028554   0.490374   0.006244   0.397131  -0.043064
    20  H   -0.028554   0.498385   0.004625   0.000014  -0.003384  -0.000168
    21  C    0.490374   0.004625   5.033173  -0.040817  -0.039800   0.399549
    22  H    0.006244   0.000014  -0.040817   0.517868  -0.000205  -0.004563
    23  H    0.397131  -0.003384  -0.039800  -0.000205   0.514285  -0.004408
    24  H   -0.043064  -0.000168   0.399549  -0.004563  -0.004408   0.517094
    25  C    0.000138   0.002007  -0.000042   0.000018   0.000025   0.000002
    26  C    0.000009  -0.000145   0.000000   0.000000   0.000000   0.000000
    27  C   -0.001156   0.001998   0.000214  -0.000008  -0.000006  -0.000002
    28  C    0.000000  -0.000126   0.000000   0.000000   0.000000   0.000000
    29  H    0.000001   0.000025   0.000000   0.000000   0.000000   0.000000
    30  C   -0.000037   0.000215   0.000004   0.000000  -0.000003   0.000000
    31  H   -0.000353   0.000249   0.000142   0.000012   0.000015   0.000010
    32  C    0.000000  -0.000006   0.000000   0.000000   0.000000   0.000000
    33  H    0.000000  -0.000001   0.000000   0.000000   0.000000   0.000000
    34  H    0.000000   0.000002  -0.000001   0.000000   0.000000   0.000000
    35  H    0.000000   0.000000   0.000000   0.000000   0.000000   0.000000
             25         26         27         28         29         30
     1  C    0.025148  -0.074557  -0.052337   0.010625  -0.007998   0.012210
     2  H   -0.060392  -0.003293  -0.001320   0.000225  -0.000118   0.000011
     3  C   -0.076515  -0.011721   0.007228  -0.002104   0.004038  -0.000881
     4  C   -0.000863   0.000606  -0.000434  -0.000064   0.000543   0.000008
     5  C   -0.000565  -0.013582   0.001470  -0.000731  -0.000627   0.000018
     6  C   -0.000485  -0.000011   0.000014   0.000012   0.000043   0.000000
     7  H    0.000256   0.000243  -0.000018  -0.000006   0.000195   0.000000
     8  C   -0.000254  -0.000626   0.000008  -0.000027  -0.000410   0.000001
     9  H    0.001641   0.001316  -0.000321   0.000201   0.000109  -0.000158
    10  C   -0.000012   0.000189  -0.000001   0.000003   0.000021   0.000000
    11  H    0.000013  -0.000005   0.000000   0.000000   0.000012   0.000000
    12  H    0.000028   0.000004   0.000000  -0.000001   0.000007   0.000000
    13  H    0.000002  -0.000001   0.000000   0.000000   0.000006   0.000000
    14  C   -0.065219   0.010583  -0.013627  -0.000893   0.000663  -0.002153
    15  C   -0.000103  -0.000381   0.000964   0.000009  -0.000009  -0.000090
    16  C    0.004448   0.001245  -0.017756  -0.000012  -0.000031  -0.001026
    17  C   -0.000634   0.000009   0.000157   0.000000   0.000000   0.000008
    18  H    0.000396   0.000000   0.000170   0.000000   0.000000  -0.000002
    19  C    0.000138   0.000009  -0.001156   0.000000   0.000001  -0.000037
    20  H    0.002007  -0.000145   0.001998  -0.000126   0.000025   0.000215
    21  C   -0.000042   0.000000   0.000214   0.000000   0.000000   0.000004
    22  H    0.000018   0.000000  -0.000008   0.000000   0.000000   0.000000
    23  H    0.000025   0.000000  -0.000006   0.000000   0.000000  -0.000003
    24  H    0.000002   0.000000  -0.000002   0.000000   0.000000   0.000000
    25  C    5.342080   0.478967   0.489775  -0.059041  -0.040281  -0.063622
    26  C    0.478967   5.128266  -0.087565   0.458069   0.396632  -0.032928
    27  C    0.489775  -0.087565   5.116416  -0.031779   0.004811   0.454314
    28  C   -0.059041   0.458069  -0.031779   5.071409  -0.035894  -0.072874
    29  H   -0.040281   0.396632   0.004811  -0.035894   0.484099  -0.000512
    30  C   -0.063622  -0.032928   0.454314  -0.072874  -0.000512   5.077753
    31  H   -0.036717   0.005013   0.395746  -0.000508  -0.000185  -0.036719
    32  C   -0.021370  -0.085883  -0.087433   0.483904   0.005226   0.489123
    33  H    0.006194  -0.037588  -0.000398   0.396544  -0.003736   0.005966
    34  H    0.006358  -0.000394  -0.037149   0.005981   0.000017   0.396053
    35  H   -0.001433   0.007488   0.007557  -0.042817  -0.000172  -0.042441
             31         32         33         34         35
     1  C   -0.011127   0.000149  -0.000358  -0.000363  -0.000013
     2  H   -0.000196   0.000055   0.000010   0.000012  -0.000002
     3  C    0.000541   0.000145   0.000031   0.000012   0.000002
     4  C   -0.000013  -0.000004  -0.000001   0.000000   0.000000
     5  C   -0.000005   0.000016   0.000012   0.000000   0.000001
     6  C    0.000000   0.000000   0.000000   0.000000   0.000000
     7  H    0.000001   0.000001   0.000000   0.000000   0.000000
     8  C    0.000001   0.000001   0.000001   0.000000   0.000000
     9  H    0.000029  -0.000020   0.000003  -0.000001   0.000000
    10  C    0.000000   0.000000   0.000000   0.000000   0.000000
    11  H    0.000000   0.000000   0.000000   0.000000   0.000000
    12  H    0.000000   0.000000   0.000000   0.000000   0.000000
    13  H    0.000000   0.000000   0.000000   0.000000   0.000000
    14  C    0.002729   0.000142   0.000012   0.000050   0.000001
    15  C   -0.000309  -0.000004   0.000000   0.000002   0.000000
    16  C   -0.000443   0.000002   0.000000   0.000013   0.000001
    17  C   -0.000103   0.000000   0.000000   0.000000   0.000000
    18  H    0.000158   0.000001   0.000000   0.000000   0.000000
    19  C   -0.000353   0.000000   0.000000   0.000000   0.000000
    20  H    0.000249  -0.000006  -0.000001   0.000002   0.000000
    21  C    0.000142   0.000000   0.000000  -0.000001   0.000000
    22  H    0.000012   0.000000   0.000000   0.000000   0.000000
    23  H    0.000015   0.000000   0.000000   0.000000   0.000000
    24  H    0.000010   0.000000   0.000000   0.000000   0.000000
    25  C   -0.036717  -0.021370   0.006194   0.006358  -0.001433
    26  C    0.005013  -0.085883  -0.037588  -0.000394   0.007488
    27  C    0.395746  -0.087433  -0.000398  -0.037149   0.007557
    28  C   -0.000508   0.483904   0.396544   0.005981  -0.042817
    29  H   -0.000185   0.005226  -0.003736   0.000017  -0.000172
    30  C   -0.036719   0.489123   0.005966   0.396053  -0.042441
    31  H    0.480802   0.005190   0.000017  -0.003664  -0.000171
    32  C    0.005190   5.043778  -0.040986  -0.041191   0.399447
    33  H    0.000017  -0.040986   0.517471  -0.000214  -0.004406
    34  H   -0.003664  -0.041191  -0.000214   0.517655  -0.004433
    35  H   -0.000171   0.399447  -0.004406  -0.004433   0.519447
 Mulliken atomic charges:
              1
     1  C   -0.609542
     2  H    0.214767
     3  C    0.057686
     4  C   -0.191144
     5  C   -0.081329
     6  C   -0.165205
     7  H    0.168672
     8  C   -0.182157
     9  H    0.181465
    10  C   -0.155948
    11  H    0.162413
    12  H    0.163570
    13  H    0.164180
    14  C    0.057712
    15  C   -0.181908
    16  C   -0.087982
    17  C   -0.165990
    18  H    0.170070
    19  C   -0.182155
    20  H    0.181185
    21  C   -0.155067
    22  H    0.162621
    23  H    0.163718
    24  H    0.164425
    25  C    0.070052
    26  C   -0.139957
    27  C   -0.149532
    28  C   -0.180104
    29  H    0.193528
    30  C   -0.182240
    31  H    0.199856
    32  C   -0.150284
    33  H    0.161427
    34  H    0.161255
    35  H    0.161944
 Sum of Mulliken atomic charges =   0.00000
 Mulliken charges with hydrogens summed into heavy atoms:
              1
     1  C   -0.394775
     3  C    0.057686
     4  C   -0.022472
     5  C    0.100136
     6  C   -0.002792
     8  C   -0.018587
    10  C    0.008232
    14  C    0.057712
    15  C   -0.011838
    16  C    0.093204
    17  C   -0.003369
    19  C   -0.018437
    21  C    0.009358
    25  C    0.070052
    26  C    0.053571
    27  C    0.050324
    28  C   -0.018678
    30  C   -0.020985
    32  C    0.011660
 Sum of Mulliken charges with hydrogens summed into heavy atoms =   0.00000
 Electronic spatial extent (au):  <R**2>=           4931.2928
 Charge=              0.0000 electrons
 Dipole moment (field-independent basis, Debye):
    X=              0.0512    Y=             -0.1911    Z=             -0.0191  Tot=              0.1988
 Quadrupole moment (field-independent basis, Debye-Ang):
   XX=           -106.2693   YY=           -113.9164   ZZ=           -107.6137
   XY=              1.7469   XZ=              0.2214   YZ=              2.2393
 Traceless Quadrupole moment (field-independent basis, Debye-Ang):
   XX=              2.9971   YY=             -4.6499   ZZ=              1.6528
   XY=              1.7469   XZ=              0.2214   YZ=              2.2393
 Octapole moment (field-independent basis, Debye-Ang**2):
  XXX=             18.6218  YYY=             34.8873  ZZZ=              1.1024  XYY=            -23.3696
  XXY=            -19.9295  XXZ=              1.2718  XZZ=              5.7918  YZZ=            -23.0790
  YYZ=              8.4701  XYZ=              0.9582
 Hexadecapole moment (field-independent basis, Debye-Ang**3):
 XXXX=          -3086.6605 YYYY=          -3011.5534 ZZZZ=           -637.5645 XXXY=            -58.3459
 XXXZ=              3.2898 YYYX=             61.3746 YYYZ=             62.7618 ZZZX=             -2.7093
 ZZZY=              0.0990 XXYY=           -958.6399 XXZZ=           -611.9336 YYZZ=           -661.9981
 XXYZ=              0.9228 YYXZ=             -5.9035 ZZXY=             19.5449
 N-N= 1.291075892135D+03 E-N=-4.278239353636D+03  KE= 7.286011910032D+02
 PrsmSu:  requested number of processors reduced to:  10 ShMem   1 Linda.
 Calling FoFJK, ICntrl=      2127 FMM=F ISym2X=0 I1Cent= 0 IOpClX= 0 NMat=1 NMatS=1 NMatT=0.
 ***** Axes restored to original set *****
 -------------------------------------------------------------------
 Center     Atomic                   Forces (Hartrees/Bohr)
 Number     Number              X              Y              Z
 -------------------------------------------------------------------
      1        6           0.008628363    0.006089361   -0.020405596
      2        1          -0.012706462   -0.010589617    0.018660116
      3        6          -0.009173854    0.005158743   -0.009724375
      4        6           0.003904076    0.000590632   -0.004389031
      5        6           0.002826111   -0.003969184    0.010536256
      6        6          -0.008010255    0.004452390   -0.010302771
      7        1          -0.009621969   -0.003050628    0.014564834
      8        6          -0.004883968   -0.003051602    0.010962001
      9        1          -0.015634187    0.014811005   -0.018724746
     10        6          -0.013020326    0.003035142   -0.003053012
     11        1           0.006500631   -0.005681389    0.014334586
     12        1           0.009664191    0.002934471   -0.013433965
     13        1           0.016561616   -0.002824592    0.000841038
     14        6           0.006548095   -0.009563126   -0.007852002
     15        6           0.001478307    0.003483252   -0.004526380
     16        6          -0.006414885    0.003402977    0.009521828
     17        6           0.005946875   -0.008778051   -0.008969450
     18        1          -0.004997620   -0.008129386    0.014803915
     19        6          -0.004600291   -0.003778617    0.011127639
     20        1           0.017156520   -0.017662341   -0.015208688
     21        6           0.003555667   -0.013272608   -0.001113957
     22        1          -0.007586394    0.007903208    0.012714351
     23        1           0.004698317    0.008271890   -0.013865991
     24        1          -0.003116148    0.016482032   -0.001288685
     25        6           0.007192585    0.007575025    0.010325169
     26        6          -0.007588531    0.005400008   -0.003975845
     27        6           0.005007519   -0.009987682   -0.001611779
     28        6          -0.004059334    0.011743070    0.001583061
     29        1           0.016095429   -0.005799523    0.010201900
     30        6           0.010479381   -0.002819368    0.006390376
     31        1          -0.005717473    0.019736471    0.004266966
     32        6           0.006866645    0.007343996    0.009139351
     33        1           0.005571355   -0.015422209   -0.002953723
     34        1          -0.013511268    0.005752138   -0.007836932
     35        1          -0.008038719   -0.009785886   -0.010736459
 -------------------------------------------------------------------
 Cartesian Forces:  Max     0.020405596 RMS     0.009539427

 GradGradGradGradGradGradGradGradGradGradGradGradGradGradGradGradGradGrad
 Berny optimization.
 Internal  Forces:  Max     0.027868142 RMS     0.007766629
 Search for a local minimum.
 Step number   1 out of a maximum of  197
 All quantities printed in internal units (Hartrees-Bohrs-Radians)
 Mixed Optimization -- RFO/linear search
 Second derivative matrix not updated -- first step.
     Eigenvalues ---    0.00639   0.00648   0.00654   0.01532   0.01536
     Eigenvalues ---    0.01544   0.02141   0.02143   0.02144   0.02171
     Eigenvalues ---    0.02171   0.02172   0.02181   0.02182   0.02183
     Eigenvalues ---    0.02200   0.02201   0.02203   0.02209   0.02211
     Eigenvalues ---    0.02213   0.02213   0.02215   0.02215   0.02215
     Eigenvalues ---    0.02218   0.02219   0.02219   0.02220   0.02221
     Eigenvalues ---    0.04569   0.06466   0.06551   0.15998   0.15998
     Eigenvalues ---    0.16000   0.16000   0.16000   0.16000   0.16000
     Eigenvalues ---    0.16000   0.16000   0.16000   0.16000   0.16000
     Eigenvalues ---    0.16000   0.16000   0.16000   0.18893   0.19292
     Eigenvalues ---    0.22000   0.22000   0.22000   0.22000   0.22000
     Eigenvalues ---    0.22000   0.23458   0.23478   0.23478   0.24946
     Eigenvalues ---    0.25000   0.25000   0.31261   0.31388   0.31456
     Eigenvalues ---    0.31506   0.33566   0.33583   0.33992   0.34017
     Eigenvalues ---    0.34073   0.34103   0.34236   0.34241   0.34248
     Eigenvalues ---    0.34252   0.34259   0.34262   0.34277   0.34277
     Eigenvalues ---    0.34293   0.42456   0.42463   0.42476   0.42560
     Eigenvalues ---    0.42562   0.42574   0.46387   0.46404   0.46411
     Eigenvalues ---    0.46718   0.46742   0.46767   0.47181   0.47203
     Eigenvalues ---    0.47259   0.47341   0.47341   0.473621000.00000
     Eigenvalues --- 1000.000001000.000001000.000001000.000001000.00000
     Eigenvalues --- 1000.000001000.000001000.000001000.000001000.00000
     Eigenvalues --- 1000.000001000.000001000.000001000.000001000.00000
     Eigenvalues --- 1000.000001000.000001000.000001000.000001000.00000
     Eigenvalues --- 1000.000001000.000001000.000001000.000001000.00000
     Eigenvalues --- 1000.000001000.000001000.000001000.000001000.00000
     Eigenvalues --- 1000.000001000.000001000.000001000.000001000.00000
     Eigenvalues --- 1000.000001000.000001000.000001000.000001000.00000
     Eigenvalues --- 1000.000001000.000001000.000001000.000001000.00000
     Eigenvalues --- 1000.000001000.000001000.000001000.000001000.00000
     Eigenvalues --- 1000.000001000.000001000.000001000.000001000.00000
     Eigenvalues --- 1000.000001000.000001000.000001000.000001000.00000
     Eigenvalues --- 1000.000001000.000001000.000001000.000001000.00000
     Eigenvalues --- 1000.000001000.000001000.000001000.000001000.00000
     Eigenvalues --- 1000.000001000.000001000.000001000.000001000.00000
     Eigenvalues --- 1000.000001000.000001000.000001000.000001000.00000
     Eigenvalues --- 1000.000001000.000001000.000001000.000001000.00000
     Eigenvalues --- 1000.000001000.00000
 RFO step:  Lambda=-4.16105575D-02 EMin= 6.38620795D-03
 Linear search not attempted -- first point.
 Maximum step size (   0.300) exceeded in Quadratic search.
    -- Step size scaled by   0.595
 Iteration  1 RMS(Cart)=  0.12577624 RMS(Int)=  0.00307425
 Iteration  2 RMS(Cart)=  0.00620648 RMS(Int)=  0.00028024
 Iteration  3 RMS(Cart)=  0.00001091 RMS(Int)=  0.00028018
 Iteration  4 RMS(Cart)=  0.00000000 RMS(Int)=  0.00028018
 Variable       Old X    -DE/DX   Delta X   Delta X   Delta X     New X
                                 (Linear)    (Quad)   (Total)
    R1        2.12217  -0.02441   0.00000  -0.04100  -0.04100   2.08117
    R2        2.85278   0.02295   0.00000   0.03841   0.03841   2.89119
    R3        2.85151   0.02305   0.00000   0.03850   0.03850   2.89001
    R4        2.85056   0.02353   0.00000   0.03926   0.03926   2.88982
    R5        2.63912  -0.00441   0.00000  -0.00516  -0.00515   2.63398
    R6        2.63940  -0.00018   0.00000  -0.00010  -0.00008   2.63931
    R7        2.62795  -0.00222   0.00000  -0.00263  -0.00263   2.62532
    R8        2.07208  -0.01771   0.00000  -0.02756  -0.02756   2.04452
    R9        2.62552  -0.00465   0.00000  -0.00531  -0.00530   2.62021
   R10        2.08039  -0.02739   0.00000  -0.04318  -0.04318   2.03721
   R11        2.62785  -0.00923   0.00000  -0.01080  -0.01082   2.61703
   R12        2.06925  -0.01673   0.00000  -0.02592  -0.02592   2.04332
   R13        2.62890  -0.00543   0.00000  -0.00635  -0.00637   2.62253
   R14        2.06907  -0.01681   0.00000  -0.02603  -0.02603   2.04304
   R15        2.06865  -0.01682   0.00000  -0.02604  -0.02604   2.04261
   R16        2.63887  -0.00433   0.00000  -0.00506  -0.00504   2.63383
   R17        2.63943   0.00040   0.00000   0.00060   0.00062   2.64005
   R18        2.62820  -0.00236   0.00000  -0.00280  -0.00280   2.62540
   R19        2.07157  -0.01760   0.00000  -0.02737  -0.02737   2.04420
   R20        2.62550  -0.00465   0.00000  -0.00529  -0.00529   2.62021
   R21        2.08069  -0.02787   0.00000  -0.04395  -0.04395   2.03674
   R22        2.62712  -0.00901   0.00000  -0.01055  -0.01056   2.61655
   R23        2.06933  -0.01678   0.00000  -0.02601  -0.02601   2.04333
   R24        2.62877  -0.00537   0.00000  -0.00628  -0.00630   2.62246
   R25        2.06914  -0.01682   0.00000  -0.02605  -0.02605   2.04309
   R26        2.06865  -0.01682   0.00000  -0.02604  -0.02604   2.04261
   R27        2.64116  -0.00180   0.00000  -0.00204  -0.00203   2.63912
   R28        2.63796  -0.00190   0.00000  -0.00212  -0.00211   2.63586
   R29        2.62554  -0.00365   0.00000  -0.00424  -0.00424   2.62130
   R30        2.07301  -0.01988   0.00000  -0.03098  -0.03098   2.04202
   R31        2.62743  -0.00239   0.00000  -0.00274  -0.00274   2.62468
   R32        2.07344  -0.02094   0.00000  -0.03265  -0.03265   2.04079
   R33        2.62830  -0.00570   0.00000  -0.00673  -0.00674   2.62157
   R34        2.06895  -0.01666   0.00000  -0.02580  -0.02580   2.04314
   R35        2.62656  -0.00653   0.00000  -0.00764  -0.00765   2.61891
   R36        2.06890  -0.01664   0.00000  -0.02578  -0.02578   2.04313
   R37        2.06839  -0.01660   0.00000  -0.02569  -0.02569   2.04270
    A1        1.88357  -0.00955   0.00000  -0.05142  -0.05056   1.83302
    A2        1.88059  -0.00978   0.00000  -0.05161  -0.05072   1.82987
    A3        1.82536   0.00464   0.00000   0.00372   0.00395   1.82932
    A4        1.92302   0.01596   0.00000   0.05583   0.05473   1.97775
    A5        1.96357  -0.00216   0.00000   0.01462   0.01256   1.97614
    A6        1.98083  -0.00106   0.00000   0.01718   0.01519   1.99603
    A7        2.08370  -0.00902   0.00000  -0.01834  -0.01839   2.06531
    A8        2.11877   0.02013   0.00000   0.04114   0.04109   2.15986
    A9        2.08071  -0.01111   0.00000  -0.02277  -0.02276   2.05795
   A10        2.09901   0.00770   0.00000   0.01706   0.01708   2.11609
   A11        2.09513  -0.00452   0.00000  -0.01053  -0.01054   2.08459
   A12        2.08904  -0.00317   0.00000  -0.00654  -0.00655   2.08249
   A13        2.10163   0.00428   0.00000   0.00967   0.00963   2.11125
   A14        2.07795   0.00396   0.00000   0.01328   0.01320   2.09115
   A15        2.10348  -0.00820   0.00000  -0.02263  -0.02271   2.08078
   A16        2.09780  -0.00032   0.00000  -0.00150  -0.00152   2.09628
   A17        2.09077   0.00042   0.00000   0.00151   0.00152   2.09229
   A18        2.09462  -0.00010   0.00000  -0.00001   0.00000   2.09462
   A19        2.09596   0.00239   0.00000   0.00499   0.00497   2.10094
   A20        2.09189  -0.00111   0.00000  -0.00225  -0.00225   2.08964
   A21        2.09533  -0.00127   0.00000  -0.00273  -0.00273   2.09260
   A22        2.09125  -0.00292   0.00000  -0.00741  -0.00744   2.08381
   A23        2.09620   0.00140   0.00000   0.00354   0.00355   2.09974
   A24        2.09573   0.00152   0.00000   0.00388   0.00389   2.09962
   A25        2.08240  -0.00996   0.00000  -0.02027  -0.02031   2.06210
   A26        2.12099   0.02128   0.00000   0.04348   0.04344   2.16443
   A27        2.07977  -0.01131   0.00000  -0.02316  -0.02313   2.05664
   A28        2.09958   0.00783   0.00000   0.01734   0.01736   2.11694
   A29        2.09484  -0.00456   0.00000  -0.01058  -0.01059   2.08425
   A30        2.08876  -0.00327   0.00000  -0.00676  -0.00677   2.08199
   A31        2.10206   0.00433   0.00000   0.00982   0.00979   2.11185
   A32        2.07763   0.00419   0.00000   0.01396   0.01389   2.09152
   A33        2.10336  -0.00849   0.00000  -0.02348  -0.02355   2.07981
   A34        2.09793  -0.00030   0.00000  -0.00152  -0.00153   2.09640
   A35        2.09090   0.00035   0.00000   0.00134   0.00135   2.09225
   A36        2.09436  -0.00004   0.00000   0.00018   0.00018   2.09454
   A37        2.09614   0.00235   0.00000   0.00491   0.00490   2.10104
   A38        2.09145  -0.00106   0.00000  -0.00212  -0.00212   2.08933
   A39        2.09559  -0.00128   0.00000  -0.00278  -0.00278   2.09282
   A40        2.09087  -0.00289   0.00000  -0.00738  -0.00742   2.08345
   A41        2.09626   0.00142   0.00000   0.00361   0.00362   2.09988
   A42        2.09605   0.00148   0.00000   0.00378   0.00379   2.09984
   A43        2.09097   0.00286   0.00000   0.00568   0.00566   2.09663
   A44        2.11408   0.00501   0.00000   0.01008   0.01006   2.12413
   A45        2.07635  -0.00791   0.00000  -0.01615  -0.01613   2.06021
   A46        2.10289   0.00424   0.00000   0.00948   0.00949   2.11238
   A47        2.08711  -0.00082   0.00000  -0.00092  -0.00092   2.08619
   A48        2.09318  -0.00341   0.00000  -0.00856  -0.00857   2.08461
   A49        2.10228   0.00382   0.00000   0.00871   0.00872   2.11100
   A50        2.08994  -0.00046   0.00000  -0.00007  -0.00008   2.08986
   A51        2.09096  -0.00336   0.00000  -0.00864  -0.00864   2.08232
   A52        2.09756   0.00096   0.00000   0.00160   0.00159   2.09915
   A53        2.09086  -0.00048   0.00000  -0.00080  -0.00079   2.09007
   A54        2.09476  -0.00048   0.00000  -0.00080  -0.00079   2.09396
   A55        2.09845   0.00103   0.00000   0.00193   0.00192   2.10037
   A56        2.08969  -0.00047   0.00000  -0.00084  -0.00083   2.08886
   A57        2.09505  -0.00056   0.00000  -0.00109  -0.00109   2.09396
[...]
 001955,0.00006959,-0.00009961,-0.00004668,-0.00003531,0.00005671,0.000
 00147,-0.00009741,-0.00001869,0.00000035,0.00003214,0.00001493,0.00001
 520,-0.00001551,-0.00000727,0.00004190,0.00001193,-0.02884213,0.009250
 39,-0.04580201,-0.00832694,-0.02549012,-0.01152628,-0.10616772,-0.1032
 5764,-0.22574038,0.01471683,0.04022372,0.01817030,0.00055520,-0.000799
 16,0.00038761,0.26061127,-0.09484695,0.67245850,-0.00304848,0.00062574
 ,0.00242959,0.00045823,0.00018081,0.00047821,-0.00021540,-0.00029856,-
 0.00072040,-0.00022532,0.00000522,0.00006910,-0.00006497,-0.00017208,-
 0.00026676,0.00003998,0.00001635,-0.00004609,-0.00000133,-0.00000384,0
 .00002101,-0.00002779,0.00000401,0.00010685,0.00002306,0.00029244,0.00
 010728,0.00000469,0.00001139,0.00002865,-0.00000615,0.00000984,0.00001
 137,-0.00000865,0.00000644,-0.00000760,0.00002016,0.00000151,0.0000121
 8,-0.00014388,-0.00045886,-0.00083194,-0.00001083,-0.00023317,-0.00024
 059,0.00000223,-0.00004722,-0.00039342,-0.00020754,0.00042560,-0.00007
 034,-0.00000527,-0.00004731,0.00016776,0.00021960,-0.00033992,0.000006
 28,-0.00031988,-0.00008208,-0.00011230,-0.00026092,-0.00003733,0.00014
 760,-0.00001235,0.00002768,0.00004737,0.00000379,-0.00000961,-0.000002
 04,-0.00001455,0.00002290,0.00003345,0.00742365,0.01457189,-0.00246326
 ,0.00508376,-0.00058242,-0.00581892,-0.05966632,-0.03649520,-0.0031162
 1,-0.00096427,0.00029352,-0.00004828,0.00003410,0.00073023,-0.00013772
 ,0.00317874,-0.01950557,0.00405277,0.04835775,0.00063551,-0.00078869,-
 0.00103797,0.00001888,-0.00004315,-0.00006193,-0.00003320,0.00021240,0
 .00032025,0.00013437,0.00000588,-0.00004409,0.00013063,0.00020096,0.00
 020994,-0.00001801,-0.00000128,0.00001636,-0.00000824,-0.00001317,-0.0
 0000796,0.00000692,0.00001335,-0.00008415,0.00001488,-0.00025652,-0.00
 006298,-0.00000367,-0.00001260,-0.00001159,0.00000661,-0.00000692,-0.0
 0000418,0.00001423,-0.00000928,0.00000309,-0.00001036,-0.00000705,-0.0
 0000685,-0.00066637,-0.00007868,-0.00214120,-0.00072401,0.00021816,-0.
 00018440,-0.00046376,-0.00034650,-0.00110042,0.00000265,-0.00007568,0.
 00006279,0.00004677,-0.00000003,0.00008426,-0.00022910,0.00013739,-0.0
 0001450,0.00017536,0.00005708,0.00011226,0.00029035,-0.00005439,-0.000
 01960,0.00000236,-0.00001162,0.00000422,0.00000029,-0.00000152,0.00001
 077,0.00000641,-0.00000464,0.00000315,-0.00335783,-0.00915280,-0.00023
 245,-0.00003792,0.00114143,0.00250758,-0.03713132,-0.35984059,0.059762
 13,0.00021498,0.00088651,-0.00035735,-0.00016209,-0.00051945,0.0000363
 7,0.00009819,-0.01293288,0.00786693,0.04324308,0.38093662,0.00228639,-
 0.00002335,-0.00029544,-0.00002323,-0.00016031,0.00006143,0.00000964,0
 .00008111,0.00038304,0.00010590,-0.00001501,-0.00004618,0.00006427,0.0
 0002853,0.00013746,0.00000400,-0.00001733,-0.00001249,0.00000031,0.000
 02220,-0.00003083,-0.00004633,-0.00003042,-0.00003776,0.00000497,-0.00
 001085,-0.00004669,0.00001682,0.00000698,0.00001525,0.00000896,-0.0000
 0080,-0.00000050,0.00002251,-0.00000302,-0.00000962,0.00000210,0.00000
 415,-0.00000752,-0.00086144,-0.00020690,-0.00129589,0.00048793,-0.0001
 7622,-0.00020660,-0.00029105,-0.00050518,0.00006098,0.00016167,0.00003
 941,-0.00008652,-0.00006188,0.00003143,0.00000176,0.00001547,-0.000342
 32,-0.00000596,0.00001831,0.00002943,-0.00001719,-0.00020509,0.0000045
 2,0.00006003,-0.00004135,0.00001841,0.00000933,0.00004541,0.00006676,-
 0.00000118,-0.00001016,0.00005378,0.00001825,0.00417159,0.03058494,0.0
 0054296,-0.00589829,0.00268756,-0.00290587,-0.00310074,0.05780496,-0.0
 7761269,-0.00022689,-0.00042074,-0.00122289,0.00027785,0.00149009,-0.0
 0026466,-0.00363227,-0.02541995,0.00944230,0.00945810,-0.06254268,0.07
 431171,-0.00108165,0.00067629,0.00010089,-0.00007681,-0.00014589,0.000
 21793,0.00015050,-0.00063974,-0.00032241,-0.00015255,-0.00002386,0.000
 10387,-0.00004981,0.00002889,-0.00011502,-0.00002434,0.00004862,-0.000
 01384,0.00001949,-0.00001329,0.00000700,0.00004088,0.00001559,0.000100
 11,0.00000509,0.00003990,0.00007570,-0.00003497,-0.00000726,-0.0000417
 9,-0.00002546,0.00001208,-0.00000640,-0.00001775,-0.00000330,0.0000079
 9,-0.00000255,0.00000292,0.00000911,0.00001343,0.00007503,-0.00013677,
 -0.00005853,-0.00000665,0.00005517,0.00005835,-0.00003136,-0.00005275,
 -0.00000648,-0.00002805,0.00004121,-0.00004003,0.00003688,0.00000234,-
 0.00001242,0.00003436,-0.00000145,-0.00001182,-0.00000119,-0.00000308,
 0.00003991,-0.00003398,-0.00000482,0.00001040,-0.00002529,-0.00002170,
 -0.00000432,-0.00001548,-0.00000184,-0.00000114,-0.00001153,-0.0000033
 2,-0.00695796,0.01375363,-0.00595682,-0.00934250,-0.01001784,-0.030023
 03,0.01115496,-0.02263679,0.01198872,-0.13417392,0.03758312,-0.1045972
 8,0.00510285,-0.00375138,-0.00541409,-0.11018213,-0.06353462,-0.018740
 79,0.00466176,-0.00302227,-0.00593998,0.35957526,0.00167155,0.00003754
 ,0.00129929,0.00032392,0.00022786,-0.00085118,0.00036188,0.00090090,0.
 00000609,-0.00042222,0.00025191,-0.00011494,0.00006683,0.00025036,-0.0
 0004601,0.00024165,-0.00014281,-0.00020952,0.00001475,0.00000466,0.000
 00504,-0.00037972,-0.00002688,-0.00025266,0.00005658,-0.00027861,-0.00
 033827,0.00000373,0.00006716,0.00032367,-0.00001987,-0.00003965,0.0000
 1062,-0.00003755,0.00002196,0.00000236,-0.00001512,0.00000001,-0.00000
 852,-0.00052008,0.00012804,0.00035264,-0.00002831,-0.00042054,-0.00022
 816,-0.00002326,0.00039228,-0.00019869,-0.00002943,0.00043482,-0.00009
 959,0.00000191,-0.00001607,0.00007771,0.00025782,-0.00023301,-0.000090
 56,0.00002473,0.00002927,-0.00000298,-0.00026185,-0.00015901,0.0002329
 7,0.00001841,-0.00001204,-0.00002620,-0.00000319,-0.00002468,0.0000131
 7,0.00000222,-0.00002408,-0.00000364,0.01303642,-0.07263974,0.05141967
 ,0.02291610,0.09179724,0.00800782,-0.05624674,-0.03900075,-0.07900704,
 -0.00585748,-0.19141343,0.03647921,-0.00405728,-0.00160459,-0.00268726
 ,-0.01941754,-0.35624571,0.08155289,-0.00297301,0.00026041,-0.00179655
 ,0.13206621,0.75106899,-0.00120552,0.00064260,-0.00115883,-0.00045327,
 -0.00058966,0.00050937,0.00014615,-0.00120567,-0.00018523,0.00008908,-
 0.00019610,0.00030763,-0.00033766,-0.00019454,-0.00018046,-0.00021481,
 0.00015768,0.00013633,0.00002055,-0.00001062,0.00001002,0.00032262,0.0
 0000073,0.00019663,-0.00009581,0.00011217,0.00001864,-0.00011638,-0.00
 004141,-0.00028334,-0.00002964,0.00003831,-0.00001435,-0.00006019,-0.0
 0002566,0.00003676,-0.00000972,0.00000751,0.00000602,0.00013217,0.0000
 4985,-0.00045634,0.00002439,0.00019198,0.00021498,0.00010741,-0.000340
 37,0.00002779,0.00003332,-0.00027892,0.00011331,-0.00003693,0.00003573
 ,-0.00006773,-0.00016312,0.00018713,0.00004511,-0.00000801,-0.00000694
 ,-0.00001016,0.00019811,0.00001862,-0.00013201,0.00000118,-0.00001912,
 -0.00000982,-0.00000594,-0.00001656,-0.00000663,0.00000098,-0.00000246
 ,-0.00000708,-0.00462820,0.05267119,-0.03969914,-0.04381919,-0.0528422
 5,-0.04619906,0.02615691,-0.01871590,0.06401023,-0.08560957,0.11264546
 ,-0.28252317,-0.00513323,-0.00202331,0.00087377,-0.03758292,0.00564983
 ,-0.15092475,-0.00619064,-0.00216498,-0.00069841,0.26646953,-0.0160338
 3,0.64817750,0.00000833,-0.00069180,0.00035345,0.00005520,0.00003853,0
 .00005234,0.00005155,-0.00009944,-0.00007076,-0.00005020,-0.00000664,0
 .00001533,-0.00004457,0.00002551,0.00000034,-0.00000185,0.00001617,-0.
 00000545,0.00000454,-0.00000718,0.00001187,-0.00000332,0.00002112,-0.0
 0001480,0.00001604,-0.00004090,-0.00000197,-0.00003364,0.00001391,-0.0
 0000036,-0.00000766,-0.00000264,-0.00000030,-0.00001834,-0.00001079,0.
 00001466,-0.00000691,-0.00000750,0.00000094,-0.00029509,-0.00009848,-0
 .00013629,0.00004042,-0.00004490,-0.00004035,0.00002289,-0.00000913,-0
 .00000996,-0.00000463,0.00005748,0.00000901,-0.00000148,0.00000253,0.0
 0000588,0.00004156,-0.00003333,0.00000490,-0.00001237,-0.00000132,-0.0
 0000802,-0.00003665,-0.00003833,0.00002702,0.00000259,0.00000088,-0.00
 000347,-0.00000031,-0.00001066,0.00000498,-0.00000024,-0.00000491,-0.0
 0000108,0.00479760,-0.00282994,-0.00610143,0.00336645,-0.01929920,0.00
 445161,-0.00096368,0.00029364,-0.00019887,-0.06064441,-0.04264188,-0.0
 0237525,-0.00334894,0.00147127,0.00255605,0.00525201,-0.00036477,-0.00
 581506,-0.00087968,0.00016145,0.00057955,0.00723714,0.01465345,-0.0032
 2692,0.04856110,0.00020841,-0.00069017,0.00056205,-0.00001031,0.000001
 13,-0.00005293,0.00014705,-0.00011539,-0.00010110,-0.00009705,0.000032
 64,0.00002946,-0.00005462,0.00002798,0.00004008,-0.00001500,0.00001420
 ,-0.00001324,0.00001356,-0.00001074,0.00000733,0.00001089,-0.00000020,
 -0.00002601,0.00004001,-0.00001890,-0.00003470,-0.00003294,0.00001010,
 -0.00001333,-0.00002124,-0.00000643,-0.00001019,-0.00001718,-0.0000057
 3,0.00001762,-0.00001948,-0.00000330,-0.00000150,-0.00024319,0.0000615
 1,-0.00020466,-0.00001709,-0.00007624,0.00001543,0.00006030,-0.0000778
 6,-0.00003639,-0.00001669,0.00000922,0.00002047,-0.00001238,0.00001376
 ,0.00001058,0.00001411,0.00001657,0.00000732,0.00000381,0.00000790,0.0
 0000079,0.00000851,-0.00002846,-0.00000347,0.00001824,-0.00001479,-0.0
 0000576,-0.00000310,-0.00001812,0.00000805,0.00000423,-0.00001559,-0.0
 0000066,-0.00333448,0.00045604,-0.00208295,0.00005566,-0.01380505,0.00
 850900,0.00017142,0.00092430,-0.00048635,-0.04271543,-0.35490444,0.058
 12504,0.00083332,0.00097711,-0.00122588,-0.00007200,0.00130208,0.00308
 488,0.00022334,-0.00015897,-0.00008869,-0.00457421,-0.00815677,-0.0020
 7162,0.04815497,0.37398080,0.00009433,-0.00102580,0.00037773,0.0000518
 5,0.00004926,-0.00002954,0.00010818,0.00002552,0.00001446,-0.00004115,
 0.00003585,-0.00002634,-0.00000312,0.00000690,0.00000348,0.00000684,-0
 .00000317,-0.00001606,0.00000273,-0.00000765,0.00000022,-0.00001970,-0
 .00000668,0.00001210,-0.00000977,0.00001116,-0.00001177,0.00000185,0.0
 0000351,0.00001209,-0.00000497,-0.00000568,-0.00000104,0.00000290,0.00
 000434,-0.00000413,0.00000010,0.00000101,0.00000099,-0.00014639,0.0000
 2774,-0.00020121,-0.00000500,-0.00003099,0.00003463,0.00003323,-0.0000
 6290,0.00001768,0.00000862,-0.00002227,0.00001568,-0.00000407,0.000005
 53,-0.00001609,-0.00000120,0.00001666,0.00002434,-0.00000865,-0.000000
 17,-0.00000910,0.00002464,-0.00001480,-0.00001439,0.00000530,-0.000008
 91,-0.00000294,-0.00000239,-0.00000730,-0.00000244,-0.00000063,-0.0000
 0260,-0.00000385,-0.00609486,-0.00169253,-0.00066025,-0.00402851,-0.02
 527307,0.00965052,-0.00022946,-0.00044411,-0.00116202,-0.00229367,0.05
 834861,-0.07844307,0.00277733,-0.00010194,-0.00027105,-0.00589838,0.00
 260835,-0.00283213,0.00056796,-0.00010854,-0.00022389,0.00517273,0.031
 50210,0.00083338,0.00736071,-0.06396816,0.07334831,-0.00021419,0.00044
 034,-0.00048672,-0.00018214,-0.00015377,-0.00017007,0.00014959,-0.0000
 4507,-0.00012853,-0.00010345,0.00002801,0.00003266,-0.00009749,-0.0000
 4338,-0.00004017,0.00000148,-0.00000453,-0.00000544,0.00000767,0.00000
 952,0.00001901,0.00000927,-0.00000872,-0.00000243,0.00004101,0.0000229
 5,-0.00003852,-0.00002191,0.00000466,0.00000589,-0.00001105,-0.0000008
 3,-0.00000033,-0.00002788,0.00000833,0.00000904,-0.00000647,0.00000436
 ,-0.00000008,-0.00003459,0.00021883,0.00005520,0.00003043,0.00001237,0
 .00001268,0.00004298,-0.00009462,0.00001622,-0.00001353,-0.00002816,0.
 00000641,-0.00001354,-0.00000447,0.00002046,-0.00002057,0.00002316,0.0
 0001855,-0.00001655,0.00000630,-0.00001073,0.00003063,-0.00001277,-0.0
 0001208,0.00000204,-0.00000045,0.00000383,-0.00001020,-0.00002064,-0.0
 0000181,0.00000177,-0.00000712,-0.00000227,0.00493857,-0.00391420,-0.0
 0479397,-0.00070865,-0.00037316,0.00060042,-0.00107139,0.00973330,-0.0
 1555339,0.00659058,-0.00273034,-0.00294750,-0.00090828,0.00028112,0.00
 048622,-0.09767097,0.04267307,-0.10315866,-0.00327573,0.00067056,0.002
 71225,0.00720289,-0.00432743,0.00458605,0.00002614,-0.00012031,0.00024
 838,0.08864046,-0.00018430,0.00054177,-0.00065703,-0.00008893,-0.00007
 585,-0.00017315,0.00001065,-0.00003993,-0.00005871,-0.00003171,-0.0000
 0628,-0.00000906,0.00000434,0.00000099,0.00001420,-0.00000451,0.000005
 32,-0.00000508,0.00000083,-0.00000309,0.00000639,-0.00000923,0.0000091
 3,0.00001313,-0.00001543,0.00000150,0.00001630,-0.00000225,0.00000043,
 0.00000003,-0.00000157,0.00000118,-0.00000004,0.00000305,-0.00000143,-
 0.00000078,0.00000195,-0.00000150,0.00000170,0.00003606,0.00011308,0.0
 0006391,0.00001646,-0.00001380,0.00000450,-0.00000081,0.00000188,0.000
 04045,0.00001220,0.00000040,-0.00000075,-0.00000399,-0.00000186,-0.000
 00883,0.00000531,-0.00001758,0.00001132,-0.00001102,0.00000161,-0.0000
 0841,0.00001082,-0.00002359,0.00000611,-0.00000157,-0.00000294,-0.0000
 0341,-0.00000439,-0.00000430,-0.00000669,-0.00000307,0.00000011,-0.000
 00450,-0.00384620,-0.00160602,-0.00226592,-0.00041806,-0.00092273,-0.0
 0079311,-0.00955659,0.01301732,-0.01981567,-0.00295510,-0.00593385,0.0
 0116591,0.00026650,0.00001782,-0.00006597,0.04255086,-0.12360776,0.105
 37223,0.00141034,0.00104216,-0.00007619,0.01513844,-0.00740970,0.03174
 580,0.00066762,-0.00062653,0.00144013,-0.04371376,0.12454034,0.0000528
 2,0.00093320,-0.00047644,-0.00014928,-0.00010279,-0.00022685,0.0000776
 0,-0.00017976,-0.00015146,-0.00010637,-0.00000425,0.00004185,-0.000063
 58,0.00000033,0.00004205,-0.00002014,0.00001482,-0.00000571,0.00001407
 ,0.00000053,0.00001017,0.00001670,-0.00001004,-0.00001960,0.00002479,0
 .00001489,-0.00004141,-0.00002578,-0.00000120,-0.00001415,-0.00001861,
 0.00000348,-0.00001099,-0.00001386,0.00000923,0.00001078,-0.00001619,0
 .00000175,-0.00000176,-0.00010342,0.00018501,0.00002073,0.00002318,-0.
 00008259,-0.00000409,0.00004264,-0.00001497,-0.00001247,0.00000302,0.0
 0003501,0.00002208,-0.00002936,0.00001739,-0.00000029,0.00003092,-0.00
 001950,0.00001048,-0.00000301,0.00001699,-0.00001261,0.00000893,-0.000
 06879,0.00003397,0.00001322,-0.00001973,-0.00002730,-0.00001155,-0.000
 02383,-0.00000403,-0.00000283,-0.00002159,-0.00001081,-0.00526729,-0.0
 0266788,0.00065823,0.00056867,-0.00091561,0.00040456,-0.00727577,0.013
 74753,-0.01294623,-0.00279032,0.00162006,0.00342027,0.00048856,-0.0000
 5793,-0.00039610,-0.10305355,0.10518281,-0.27244767,0.00250672,-0.0010
 4683,-0.00020368,-0.00366303,-0.00186090,0.00003950,-0.00009491,0.0000
 0352,-0.00024541,0.11611524,-0.11467759,0.28286009,-0.00084088,0.00013
 703,0.00039150,0.00002404,-0.00006599,0.00014304,-0.00000432,-0.000097
 99,-0.00015566,-0.00006871,0.00001587,0.00002986,-0.00004533,0.0000097
 3,-0.00000088,-0.00001070,0.00000765,-0.00000441,0.00000527,0.00000083
 ,0.00000826,0.00002388,-0.00000138,-0.00002316,0.00004113,-0.00001667,
 -0.00002771,-0.00001866,0.00000244,-0.00000814,-0.00001007,-0.00000022
 ,-0.00000313,-0.00001922,-0.00000210,0.00001255,-0.00001029,-0.0000013
 9,-0.00000164,-0.00004339,-0.00000843,-0.00001445,-0.00002138,-0.00001
 438,-0.00003481,0.00001908,0.00000367,-0.00003267,-0.00002014,0.000009
 36,0.00000392,-0.00000188,-0.00000153,0.00001712,0.00000516,0.00001314
 ,-0.00000239,0.00000086,0.00000293,0.00000750,0.00000409,-0.00001156,0
 .00000364,0.00000606,0.00000055,0.00000205,-0.00000496,-0.00000927,0.0
 0000204,0.00000264,-0.00000716,0.00000092,-0.00036206,0.00067498,0.000
 71929,0.00587988,0.00022601,-0.00499848,0.00686789,-0.00195394,-0.0028
 6604,-0.00126846,-0.00997475,-0.00671760,-0.00033717,-0.00036192,-0.00
 030733,0.00285074,0.00022385,-0.00419111,-0.00015214,-0.00000635,-0.00
 011530,-0.13301575,-0.09109809,-0.10936078,-0.00312958,0.00140887,0.00
 232423,-0.00330691,0.00071705,0.00272178,0.12696129,0.00025769,0.00005
 794,-0.00007835,-0.00003268,-0.00000011,-0.00011556,0.00004842,-0.0000
 0130,-0.00000137,-0.00002120,0.00000702,0.00001115,-0.00001935,0.00001
 951,0.00003859,-0.00000748,0.00000328,0.00000061,0.00000432,-0.0000025
 3,0.00000117,0.00000896,-0.00000706,-0.00002625,0.00002757,-0.00002065
 ,-0.00002523,-0.00001030,-0.00000103,-0.00000497,-0.00000709,-0.000001
 60,-0.00000542,-0.00000519,0.00000276,0.00000589,-0.00000974,0.0000004
 2,-0.00000239,-0.00003429,0.00003552,-0.00003022,-0.00004586,-0.000009
 97,0.00001038,0.00001618,-0.00002113,-0.00006352,-0.00001702,-0.000001
 83,0.00001387,-0.00000259,0.00000840,0.00000909,-0.00000844,0.00004143
 ,-0.00001340,0.00002115,0.00000796,0.00001274,0.00001663,-0.00000096,-
 0.00000057,0.00001091,-0.00000762,-0.00000851,-0.00000336,-0.00000900,
 0.00000649,0.00000355,-0.00001336,-0.00000160,0.00060366,-0.00064229,0
 .00090532,-0.00007472,-0.00019493,0.00374296,-0.00160460,-0.00538777,0
 .00330338,0.00933284,0.01307861,0.01281165,0.00040358,0.00038687,0.000
 51583,-0.01935862,-0.01248010,-0.02613345,-0.00081615,-0.00079594,-0.0
 0111771,-0.09098799,-0.16802533,-0.10737467,0.00066522,0.00089832,-0.0
 0129941,0.00146685,0.00100369,-0.00001077,0.10017916,0.17207278,0.0005
 1917,-0.00013249,-0.00017704,-0.00003062,0.00006743,-0.00001796,0.0000
 8275,-0.00002525,0.00005377,0.00000427,-0.00000787,0.00002072,-0.00002
 470,-0.00001351,0.00002219,-0.00000615,0.00000305,0.00001395,0.0000066
 6,0.00000611,0.00000199,0.00001825,-0.00000708,-0.00001498,0.00000945,
 0.00001218,-0.00002140,-0.00000929,0.00000178,-0.00001261,-0.00000713,
 -0.00000049,-0.00000801,-0.00000431,0.00000205,0.00000751,-0.00001171,
 0.00000093,-0.00000133,-0.00007482,0.00005355,-0.00000144,0.00001942,-
 0.00003075,0.00001054,0.00002612,-0.00005326,0.00000005,-0.00000738,0.
 00000532,0.00000966,-0.00001546,0.00001260,0.00000596,0.00000299,-0.00
 000252,-0.00000193,0.00000572,0.00000750,-0.00000324,0.00000027,-0.000
 01203,0.00000032,0.00000861,-0.00000870,-0.00000767,-0.00000126,-0.000
 00833,0.00000423,0.00000158,-0.00000978,-0.00000047,0.00060148,0.00087
 934,-0.00033644,-0.00487581,0.00433067,-0.00176359,-0.00295306,0.00269
 533,0.00276450,-0.01517683,-0.02085635,-0.01240152,-0.00067032,-0.0008
 8455,-0.00091876,0.00410118,0.00753038,0.00915836,0.00021427,0.0002345
 3,0.00018795,-0.10929212,-0.10742877,-0.19300043,0.00265661,-0.0000140
 3,-0.00016888,0.00240418,-0.00127124,-0.00031567,0.12247799,0.11492425
 ,0.19691165||-0.00000567,-0.00000265,-0.00000012,0.00000161,-0.0000000
 7,0.00000080,0.00000083,-0.00000005,0.00000094,-0.00000359,-0.00000131
 ,-0.00000062,0.00000217,-0.00000249,-0.00000250,0.00000361,0.00000150,
 -0.00000267,0.00000090,-0.00000031,-0.00000066,-0.00000366,0.00000207,
 -0.00000227,0.00000095,-0.00000008,0.00000204,0.00000036,-0.00000123,0
 .00000528,-0.00000077,-0.00000017,-0.00000028,-0.00000018,0.00000009,0
 .00000109,-0.00000074,0.00000008,-0.00000036,0.00001478,0.00000703,-0.
 00001549,-0.00001179,0.00001368,0.00000871,-0.00000195,-0.00001799,0.0
 0000811,-0.00000276,-0.00001884,0.00000555,0.00000174,-0.00000097,-0.0
 0000085,-0.00001190,0.00001472,0.00000595,-0.00000139,0.00000220,0.000
 00012,0.00001493,0.00000553,-0.00001210,0.00000090,0.00000153,-0.00000
 103,0.00000024,-0.00000158,-0.00000068,-0.00000098,-0.00000098,0.00000
 114,0.00000117,0.00000421,0.00000264,0.00000203,-0.00000129,-0.0000025
 5,0.00000002,-0.00000098,-0.00000193,0.00000157,-0.00000050,-0.0000019
 6,-0.00000129,0.00000046,-0.00000021,0.00000339,-0.00000043,-0.0000013
 1,-0.00000026,-0.00000131,0.00000093,-0.00000460,-0.00000006,0.0000028
 5,-0.00000024,0.00000060,-0.00000004,-0.00000013,-0.00000046,0.0000012
 0,0.00000069,0.00000003,0.00000028|||@


 I (ERNEST RUTHERFORD) CAME INTO THE ROOM, WHICH WAS HALF DARK, AND PRESENTLY
 SPOTTED LORD KELVIN IN THE AUDIENCE AND REALIZED I WAS IN TROUBLE AT
 THE LAST PART OF MY SPEECH DEALING THE AGE OF THE EARTH, WHERE MY VIEWS
 CONFLICTED WITH HIS.  TO MY RELIEF KELVIN FELL FAST ASLEEP, BUT AS I CAME
 TO THE IMPORTANT POINT, I SAW THE OLD BIRD SIT UP AND COCK A BALEFUL GLANCE
 AT ME! THEN A SUDDEN INSPIRATION CAME AND I SAID LORD KELVIN HAD LIMITED
 THE AGE OF THE EARTH PROVIDED NO NEW SOURCE WAS DISCOVERED. THAT
 PROPHETIC UTTERANCE REFERS TO WHAT WE ARE NOW CONSIDERING TONIGHT, RADIUM!
 BEHOLD!  THE OLD BOY BEAMED UPON ME.
 Job cpu time:  0 days  0 hours  6 minutes 36.0 seconds.
 File lengths (MBytes):  RWF=    350 Int=      0 D2E=      0 Chk=      7 Scr=      1
 Normal termination of Gaussian 09 at Tue Sep 07 10:18:50 2021.
