 Entering Link 1 = b:\programy\g09w\l1.exe PID=      9892.
  
 Copyright (c) 1988,1990,1992,1993,1995,1998,2003,2009, Gaussian, Inc.
                  All Rights Reserved.
  
 This is part of the Gaussian(R) 09 program.  It is based on
 the Gaussian(R) 03 system (copyright 2003, Gaussian, Inc.),
 the Gaussian(R) 98 system (copyright 1998, Gaussian, Inc.),
 the Gaussian(R) 94 system (copyright 1995, Gaussian, Inc.),
 the Gaussian 92(TM) system (copyright 1992, Gaussian, Inc.),
 the Gaussian 90(TM) system (copyright 1990, Gaussian, Inc.),
 the Gaussian 88(TM) system (copyright 1988, Gaussian, Inc.),
 the Gaussian 86(TM) system (copyright 1986, Carnegie Mellon
 University), and the Gaussian 82(TM) system (copyright 1983,
 Carnegie Mellon University). Gaussian is a federally registered
 trademark of Gaussian, Inc.
  
 This software contains proprietary and confidential information,
 including trade secrets, belonging to Gaussian, Inc.
  
 This software is provided under written license and may be
 used, copied, transmitted, or stored only in accord with that
 written license.
  
 The following legend is applicable only to US Government
 contracts under FAR:
  
                    RESTRICTED RIGHTS LEGEND
  
 Use, reproduction and disclosure by the US Government is
 subject to restrictions as set forth in subparagraphs (a)
 and (c) of the Commercial Computer Software - Restricted
 Rights clause in FAR 52.227-19.
  
 Gaussian, Inc.
 340 Quinnipiac St., Bldg. 40, Wallingford CT 06492
  
  
 ---------------------------------------------------------------
 Warning -- This program may not be used in any manner that
 competes with the business of Gaussian, Inc. or will provide
 assistance to any competitor of Gaussian, Inc.  The licensee
 of this program is prohibited from giving any competitor of
 Gaussian, Inc. access to this program.  By using this program,
 the user acknowledges that Gaussian, Inc. is engaged in the
 business of creating and licensing software in the field of
 computational chemistry and represents and warrants to the
 licensee that it is not a competitor of Gaussian, Inc. and that
 it will not use this program in any manner prohibited above.
 ---------------------------------------------------------------
  

 Cite this work as:
 Gaussian 09, Revision A.02,
 M. J. Frisch, G. W. Trucks, H. B. Schlegel, G. E. Scuseria, 
 M. A. Robb, J. R. Cheeseman, G. Scalmani, V. Barone, B. Mennucci, 
 G. A. Petersson, H. Nakatsuji, M. Caricato, X. Li, H. P. Hratchian, 
 A. F. Izmaylov, J. Bloino, G. Zheng, J. L. Sonnenberg, M. Hada, 
 M. Ehara, K. Toyota, R. Fukuda, J. Hasegawa, M. Ishida, T. Nakajima, 
 Y. Honda, O. Kitao, H. Nakai, T. Vreven, J. A. Montgomery, Jr., 
 J. E. Peralta, F. Ogliaro, M. Bearpark, J. J. Heyd, E. Brothers, 
 K. N. Kudin, V. N. Staroverov, R. Kobayashi, J. Normand, 
 K. Raghavachari, A. Rendell, J. C. Burant, S. S. Iyengar, J. Tomasi, 
 M. Cossi, N. Rega, J. M. Millam, M. Klene, J. E. Knox, J. B. Cross, 
 V. Bakken, C. Adamo, J. Jaramillo, R. Gomperts, R. E. Stratmann, 
 O. Yazyev, A. J. Austin, R. Cammi, C. Pomelli, J. W. Ochterski, 
 R. L. Martin, K. Morokuma, V. G. Zakrzewski, G. A. Voth, 
 P. Salvador, J. J. Dannenberg, S. Dapprich, A. D. Daniels, 
 O. Farkas, J. B. Foresman, J. V. Ortiz, J. Cioslowski, 
 and D. J. Fox, Gaussian, Inc., Wallingford CT, 2009.
 
 ******************************************
 Gaussian 09:  IA32W-G09RevA.02 11-Jun-2009
                07-Sep-2021 
 ******************************************
 %nprocshared=12
 Will use up to   12 processors via shared memory.
 ----------------------------------------------
 # opt freq=noraman hf/6-311g geom=connectivity
 ----------------------------------------------
 1/18=20,19=15,38=1,57=2/1,3;
 2/9=110,12=2,17=6,18=5,40=1/2;
 3/5=4,6=6,11=9,16=1,25=1,30=1,71=1/1,2,3;
 4//1;
 5/5=2,38=5/2;
 6/7=2,8=2,9=2,10=2,28=1/1;
 7//1,2,3,16;
 1/18=20,19=15/3(2);
 2/9=110/2;
 99//99;
 2/9=110/2;
 3/5=4,6=6,11=9,16=1,25=1,30=1,71=1/1,2,3;
 4/5=5,16=3/1;
 5/5=2,38=5/2;
 7//1,2,3,16;
 1/18=20,19=15/3(-5);
 2/9=110/2;
 6/7=2,8=2,9=2,10=2,19=2,28=1/1;
 99/9=1/99;
 -----
 M0001
 -----
 Symbolic Z-matrix:
 Charge =  0 Multiplicity = 1
 C                     0.0702    0.10273   0.76486 
 H                     0.22502   0.23837   1.86895 
 C                    -1.39863  -0.15825   0.54397 
 C                    -1.91737  -0.41681  -0.72693 
 C                    -2.26254  -0.14962   1.64151 
 C                    -3.27442  -0.66176  -0.89737 
 H                    -1.23337  -0.4373   -1.5902 
 C                    -3.62038  -0.39484   1.46864 
 H                    -1.87093   0.05101   2.64586 
 C                    -4.12885  -0.65055   0.20018 
 H                    -3.6696   -0.86537  -1.89786 
 H                    -4.28951  -0.3867    2.33521 
 H                    -5.19788  -0.84392   0.06571 
 C                     0.57427   1.38217   0.14389 
 C                    -0.27079   2.2968   -0.48291 
 C                     1.937     1.68152   0.25168 
 C                     0.23639   3.4862   -0.99701 
 H                    -1.34279   2.07955  -0.57235 
 C                     2.44131   2.86808  -0.2635 
 H                     2.60817   0.96694   0.74302 
 C                     1.59119   3.77448  -0.88987 
 H                    -0.43796   4.1963   -1.48664 
 H                     3.50972   3.09007  -0.17554 
 H                     1.98873   4.71023  -1.29538 
 C                     0.89404  -1.08302   0.3233 
 C                     1.02967  -1.41088  -1.02708 
 C                     1.53885  -1.86602   1.28295 
 C                     1.80335  -2.49881  -1.41243 
 H                     0.50041  -0.80663  -1.77956 
 C                     2.31009  -2.95623   0.89505 
 H                     1.43795  -1.62326   2.34728 
 C                     2.44619  -3.2727   -0.45184 
 H                     1.90514  -2.74641  -2.47394 
 H                     2.81136  -3.56584   1.65382 
 H                     3.05597  -4.12955  -0.7555 
 

 GradGradGradGradGradGradGradGradGradGradGradGradGradGradGradGradGradGrad
 Berny optimization.
 Initialization pass.
                           ----------------------------
                           !    Initial Parameters    !
                           ! (Angstroms and Degrees)  !
 --------------------------                            --------------------------
 ! Name  Definition              Value          Derivative Info.                !
 --------------------------------------------------------------------------------
 ! R1    R(1,2)                  1.1231         estimate D2E/DX2                !
 ! R2    R(1,3)                  1.5081         estimate D2E/DX2                !
 ! R3    R(1,14)                 1.5089         estimate D2E/DX2                !
 ! R4    R(1,25)                 1.5099         estimate D2E/DX2                !
 ! R5    R(3,4)                  1.3968         estimate D2E/DX2                !
 ! R6    R(3,5)                  1.3968         estimate D2E/DX2                !
 ! R7    R(4,6)                  1.3895         estimate D2E/DX2                !
 ! R8    R(4,7)                  1.1016         estimate D2E/DX2                !
 ! R9    R(5,8)                  1.3906         estimate D2E/DX2                !
 ! R10   R(5,9)                  1.0965         estimate D2E/DX2                !
 ! R11   R(6,10)                 1.391          estimate D2E/DX2                !
 ! R12   R(6,11)                 1.0948         estimate D2E/DX2                !
 ! R13   R(8,10)                 1.3903         estimate D2E/DX2                !
 ! R14   R(8,12)                 1.0949         estimate D2E/DX2                !
 ! R15   R(10,13)                1.0947         estimate D2E/DX2                !
 ! R16   R(14,15)                1.3941         estimate D2E/DX2                !
 ! R17   R(14,16)                1.3994         estimate D2E/DX2                !
 ! R18   R(15,17)                1.3915         estimate D2E/DX2                !
 ! R19   R(15,18)                1.0974         estimate D2E/DX2                !
 ! R20   R(16,19)                1.3884         estimate D2E/DX2                !
 ! R21   R(16,20)                1.0966         estimate D2E/DX2                !
 ! R22   R(17,21)                1.3893         estimate D2E/DX2                !
 ! R23   R(17,22)                1.0949         estimate D2E/DX2                !
 ! R24   R(19,21)                1.3916         estimate D2E/DX2                !
 ! R25   R(19,23)                1.0948         estimate D2E/DX2                !
 ! R26   R(21,24)                1.0946         estimate D2E/DX2                !
 ! R27   R(25,26)                1.3962         estimate D2E/DX2                !
 ! R28   R(25,27)                1.3964         estimate D2E/DX2                !
 ! R29   R(26,28)                1.3895         estimate D2E/DX2                !
 ! R30   R(26,29)                1.1007         estimate D2E/DX2                !
 ! R31   R(27,30)                1.3906         estimate D2E/DX2                !
 ! R32   R(27,31)                1.0963         estimate D2E/DX2                !
 ! R33   R(28,32)                1.391          estimate D2E/DX2                !
 ! R34   R(28,33)                1.0948         estimate D2E/DX2                !
 ! R35   R(30,32)                1.3903         estimate D2E/DX2                !
 ! R36   R(30,34)                1.0948         estimate D2E/DX2                !
 ! R37   R(32,35)                1.0946         estimate D2E/DX2                !
 ! A1    A(2,1,3)              107.4067         estimate D2E/DX2                !
 ! A2    A(2,1,14)             104.8397         estimate D2E/DX2                !
 ! A3    A(2,1,25)             107.8861         estimate D2E/DX2                !
 ! A4    A(3,1,14)             114.3203         estimate D2E/DX2                !
 ! A5    A(3,1,25)             110.652          estimate D2E/DX2                !
 ! A6    A(14,1,25)            111.3019         estimate D2E/DX2                !
 ! A7    A(1,3,4)              121.8027         estimate D2E/DX2                !
 ! A8    A(1,3,5)              119.0933         estimate D2E/DX2                !
 ! A9    A(4,3,5)              119.1026         estimate D2E/DX2                !
 ! A10   A(3,4,6)              120.4607         estimate D2E/DX2                !
 ! A11   A(3,4,7)              119.0688         estimate D2E/DX2                !
 ! A12   A(6,4,7)              120.4654         estimate D2E/DX2                !
 ! A13   A(3,5,8)              120.3418         estimate D2E/DX2                !
 ! A14   A(3,5,9)              119.9969         estimate D2E/DX2                !
 ! A15   A(8,5,9)              119.6614         estimate D2E/DX2                !
 ! A16   A(4,6,10)             120.1139         estimate D2E/DX2                !
 ! A17   A(4,6,11)             119.8301         estimate D2E/DX2                !
 ! A18   A(10,6,11)            120.0559         estimate D2E/DX2                !
 ! A19   A(5,8,10)             120.197          estimate D2E/DX2                !
 ! A20   A(5,8,12)             119.8046         estimate D2E/DX2                !
 ! A21   A(10,8,12)            119.9984         estimate D2E/DX2                !
 ! A22   A(6,10,8)             119.784          estimate D2E/DX2                !
 ! A23   A(6,10,13)            120.101          estimate D2E/DX2                !
 ! A24   A(8,10,13)            120.1149         estimate D2E/DX2                !
 ! A25   A(1,14,15)            122.6048         estimate D2E/DX2                !
 ! A26   A(1,14,16)            118.3605         estimate D2E/DX2                !
 ! A27   A(15,14,16)           118.9847         estimate D2E/DX2                !
 ! A28   A(14,15,17)           120.3953         estimate D2E/DX2                !
 ! A29   A(14,15,18)           119.9254         estimate D2E/DX2                !
 ! A30   A(17,15,18)           119.6793         estimate D2E/DX2                !
 ! A31   A(14,16,19)           120.5276         estimate D2E/DX2                !
 ! A32   A(14,16,20)           119.4157         estimate D2E/DX2                !
 ! A33   A(19,16,20)           120.0558         estimate D2E/DX2                !
 ! A34   A(15,17,21)           120.2866         estimate D2E/DX2                !
 ! A35   A(15,17,22)           119.6775         estimate D2E/DX2                !
 ! A36   A(21,17,22)           120.0359         estimate D2E/DX2                !
 ! A37   A(16,19,21)           120.1168         estimate D2E/DX2                !
 ! A38   A(16,19,23)           119.8653         estimate D2E/DX2                !
 ! A39   A(21,19,23)           120.018          estimate D2E/DX2                !
 ! A40   A(17,21,19)           119.6884         estimate D2E/DX2                !
 ! A41   A(17,21,24)           120.1992         estimate D2E/DX2                !
 ! A42   A(19,21,24)           120.1123         estimate D2E/DX2                !
 ! A43   A(1,25,26)            121.3502         estimate D2E/DX2                !
 ! A44   A(1,25,27)            119.4292         estimate D2E/DX2                !
 ! A45   A(26,25,27)           119.2201         estimate D2E/DX2                !
 ! A46   A(25,26,28)           120.4092         estimate D2E/DX2                !
 ! A47   A(25,26,29)           119.0511         estimate D2E/DX2                !
 ! A48   A(28,26,29)           120.5303         estimate D2E/DX2                !
 ! A49   A(25,27,30)           120.2654         estimate D2E/DX2                !
 ! A50   A(25,27,31)           120.0352         estimate D2E/DX2                !
 ! A51   A(30,27,31)           119.6994         estimate D2E/DX2                !
 ! A52   A(26,28,32)           120.0941         estimate D2E/DX2                !
 ! A53   A(26,28,33)           119.8527         estimate D2E/DX2                !
 ! A54   A(32,28,33)           120.0531         estimate D2E/DX2                !
 ! A55   A(27,30,32)           120.1983         estimate D2E/DX2                !
 ! A56   A(27,30,34)           119.8108         estimate D2E/DX2                !
 ! A57   A(32,30,34)           119.991          estimate D2E/DX2                !
 ! A58   A(28,32,30)           119.8117         estimate D2E/DX2                !
 ! A59   A(28,32,35)           120.0909         estimate D2E/DX2                !
 ! A60   A(30,32,35)           120.0973         estimate D2E/DX2                !
 ! D1    D(2,1,3,4)           -177.769          estimate D2E/DX2                !
 ! D2    D(2,1,3,5)              1.8137         estimate D2E/DX2                !
 ! D3    D(14,1,3,4)            66.3671         estimate D2E/DX2                !
 ! D4    D(14,1,3,5)          -114.0502         estimate D2E/DX2                !
 ! D5    D(25,1,3,4)           -60.244          estimate D2E/DX2                !
 ! D6    D(25,1,3,5)           119.3386         estimate D2E/DX2                !
 ! D7    D(2,1,14,15)         -112.2479         estimate D2E/DX2                !
 ! D8    D(2,1,14,16)           65.1506         estimate D2E/DX2                !
 ! D9    D(3,1,14,15)            5.0977         estimate D2E/DX2                !
 ! D10   D(3,1,14,16)         -177.5038         estimate D2E/DX2                !
 ! D11   D(25,1,14,15)         131.3714         estimate D2E/DX2                !
 ! D12   D(25,1,14,16)         -51.2301         estimate D2E/DX2                !
 ! D13   D(2,1,25,26)         -172.6066         estimate D2E/DX2                !
 ! D14   D(2,1,25,27)            7.1301         estimate D2E/DX2                !
 ! D15   D(3,1,25,26)           70.163          estimate D2E/DX2                !
 ! D16   D(3,1,25,27)         -110.1004         estimate D2E/DX2                !
 ! D17   D(14,1,25,26)         -58.1065         estimate D2E/DX2                !
 ! D18   D(14,1,25,27)         121.6302         estimate D2E/DX2                !
 ! D19   D(1,3,4,6)            179.601          estimate D2E/DX2                !
 ! D20   D(1,3,4,7)              0.4227         estimate D2E/DX2                !
 ! D21   D(5,3,4,6)              0.0184         estimate D2E/DX2                !
 ! D22   D(5,3,4,7)           -179.16           estimate D2E/DX2                !
 ! D23   D(1,3,5,8)           -179.6215         estimate D2E/DX2                !
 ! D24   D(1,3,5,9)              0.3646         estimate D2E/DX2                !
 ! D25   D(4,3,5,8)             -0.0274         estimate D2E/DX2                !
 ! D26   D(4,3,5,9)            179.9586         estimate D2E/DX2                !
 ! D27   D(3,4,6,10)             0.0294         estimate D2E/DX2                !
 ! D28   D(3,4,6,11)          -179.8694         estimate D2E/DX2                !
 ! D29   D(7,4,6,10)           179.1962         estimate D2E/DX2                !
 ! D30   D(7,4,6,11)            -0.7026         estimate D2E/DX2                !
 ! D31   D(3,5,8,10)            -0.0113         estimate D2E/DX2                !
 ! D32   D(3,5,8,12)           179.9531         estimate D2E/DX2                !
 ! D33   D(9,5,8,10)          -179.9974         estimate D2E/DX2                !
 ! D34   D(9,5,8,12)            -0.033          estimate D2E/DX2                !
 ! D35   D(4,6,10,8)            -0.0681         estimate D2E/DX2                !
 ! D36   D(4,6,10,13)         -179.9775         estimate D2E/DX2                !
 ! D37   D(11,6,10,8)          179.8304         estimate D2E/DX2                !
 ! D38   D(11,6,10,13)          -0.079          estimate D2E/DX2                !
 ! D39   D(5,8,10,6)             0.0592         estimate D2E/DX2                !
 ! D40   D(5,8,10,13)          179.9685         estimate D2E/DX2                !
 ! D41   D(12,8,10,6)         -179.9052         estimate D2E/DX2                !
 ! D42   D(12,8,10,13)           0.0042         estimate D2E/DX2                !
 ! D43   D(1,14,15,17)         177.6181         estimate D2E/DX2                !
 ! D44   D(1,14,15,18)          -2.3719         estimate D2E/DX2                !
 ! D45   D(16,14,15,17)          0.2351         estimate D2E/DX2                !
 ! D46   D(16,14,15,18)       -179.7548         estimate D2E/DX2                !
 ! D47   D(1,14,16,19)        -177.8142         estimate D2E/DX2                !
 ! D48   D(1,14,16,20)           2.5293         estimate D2E/DX2                !
 ! D49   D(15,14,16,19)         -0.3194         estimate D2E/DX2                !
 ! D50   D(15,14,16,20)       -179.9759         estimate D2E/DX2                !
 ! D51   D(14,15,17,21)         -0.0368         estimate D2E/DX2                !
 ! D52   D(14,15,17,22)       -179.9776         estimate D2E/DX2                !
 ! D53   D(18,15,17,21)        179.9531         estimate D2E/DX2                !
 ! D54   D(18,15,17,22)          0.0123         estimate D2E/DX2                !
 ! D55   D(14,16,19,21)          0.2049         estimate D2E/DX2                !
 ! D56   D(14,16,19,23)       -179.8354         estimate D2E/DX2                !
 ! D57   D(20,16,19,21)        179.8592         estimate D2E/DX2                !
 ! D58   D(20,16,19,23)         -0.1811         estimate D2E/DX2                !
 ! D59   D(15,17,21,19)         -0.0815         estimate D2E/DX2                !
 ! D60   D(15,17,21,24)        179.9592         estimate D2E/DX2                !
 ! D61   D(22,17,21,19)        179.8591         estimate D2E/DX2                !
 ! D62   D(22,17,21,24)         -0.1002         estimate D2E/DX2                !
 ! D63   D(16,19,21,17)         -0.0024         estimate D2E/DX2                !
 ! D64   D(16,19,21,24)        179.9569         estimate D2E/DX2                !
 ! D65   D(23,19,21,17)       -179.962          estimate D2E/DX2                !
 ! D66   D(23,19,21,24)         -0.0027         estimate D2E/DX2                !
 ! D67   D(1,25,26,28)         179.3687         estimate D2E/DX2                !
 ! D68   D(1,25,26,29)          -1.7389         estimate D2E/DX2                !
 ! D69   D(27,25,26,28)         -0.3685         estimate D2E/DX2                !
 ! D70   D(27,25,26,29)        178.5239         estimate D2E/DX2                !
 ! D71   D(1,25,27,30)        -179.5251         estimate D2E/DX2                !
 ! D72   D(1,25,27,31)           0.5215         estimate D2E/DX2                !
 ! D73   D(26,25,27,30)          0.2172         estimate D2E/DX2                !
 ! D74   D(26,25,27,31)       -179.7362         estimate D2E/DX2                !
 ! D75   D(25,26,28,32)          0.194          estimate D2E/DX2                !
 ! D76   D(25,26,28,33)       -179.8715         estimate D2E/DX2                !
 ! D77   D(29,26,28,32)       -178.6819         estimate D2E/DX2                !
 ! D78   D(29,26,28,33)          1.2526         estimate D2E/DX2                !
 ! D79   D(25,27,30,32)          0.1087         estimate D2E/DX2                !
 ! D80   D(25,27,30,34)       -179.9224         estimate D2E/DX2                !
 ! D81   D(31,27,30,32)       -179.9378         estimate D2E/DX2                !
 ! D82   D(31,27,30,34)          0.0312         estimate D2E/DX2                !
 ! D83   D(26,28,32,30)          0.1349         estimate D2E/DX2                !
 ! D84   D(26,28,32,35)       -179.9787         estimate D2E/DX2                !
 ! D85   D(33,28,32,30)       -179.7995         estimate D2E/DX2                !
 ! D86   D(33,28,32,35)          0.087          estimate D2E/DX2                !
 ! D87   D(27,30,32,28)         -0.2858         estimate D2E/DX2                !
 ! D88   D(27,30,32,35)        179.8278         estimate D2E/DX2                !
 ! D89   D(34,30,32,28)        179.7453         estimate D2E/DX2                !
 ! D90   D(34,30,32,35)         -0.1411         estimate D2E/DX2                !
 --------------------------------------------------------------------------------
 Trust Radius=3.00D-01 FncErr=1.00D-07 GrdErr=1.00D-07
 Number of steps in this run= 197 maximum allowed number of steps= 210.
 GradGradGradGradGradGradGradGradGradGradGradGradGradGradGradGradGradGrad

                          Input orientation:                          
 ---------------------------------------------------------------------
 Center     Atomic      Atomic             Coordinates (Angstroms)
 Number     Number       Type             X           Y           Z
 ---------------------------------------------------------------------
      1          6           0        0.070199    0.102729    0.764863
      2          1           0        0.225023    0.238368    1.868949
      3          6           0       -1.398631   -0.158251    0.543973
      4          6           0       -1.917370   -0.416812   -0.726927
      5          6           0       -2.262542   -0.149620    1.641515
      6          6           0       -3.274418   -0.661761   -0.897374
      7          1           0       -1.233371   -0.437300   -1.590196
      8          6           0       -3.620381   -0.394836    1.468639
      9          1           0       -1.870926    0.051012    2.645858
     10          6           0       -4.128854   -0.650549    0.200184
     11          1           0       -3.669604   -0.865368   -1.897858
     12          1           0       -4.289505   -0.386696    2.335212
     13          1           0       -5.197880   -0.843917    0.065709
     14          6           0        0.574274    1.382174    0.143892
     15          6           0       -0.270786    2.296805   -0.482906
     16          6           0        1.936995    1.681524    0.251684
     17          6           0        0.236390    3.486201   -0.997006
     18          1           0       -1.342791    2.079546   -0.572348
     19          6           0        2.441306    2.868083   -0.263502
     20          1           0        2.608171    0.966943    0.743021
     21          6           0        1.591191    3.774482   -0.889871
     22          1           0       -0.437959    4.196302   -1.486638
     23          1           0        3.509720    3.090068   -0.175542
     24          1           0        1.988734    4.710228   -1.295378
     25          6           0        0.894042   -1.083024    0.323299
     26          6           0        1.029671   -1.410882   -1.027083
     27          6           0        1.538851   -1.866023    1.282954
     28          6           0        1.803351   -2.498808   -1.412426
     29          1           0        0.500409   -0.806628   -1.779560
     30          6           0        2.310086   -2.956228    0.895053
     31          1           0        1.437945   -1.623259    2.347276
     32          6           0        2.446186   -3.272696   -0.451843
     33          1           0        1.905142   -2.746414   -2.473940
     34          1           0        2.811364   -3.565840    1.653817
     35          1           0        3.055967   -4.129552   -0.755499
 ---------------------------------------------------------------------
                    Distance matrix (angstroms):
                    1          2          3          4          5
     1  C    0.000000
     2  H    1.123109   0.000000
     3  C    1.508099   2.132867   0.000000
     4  C    2.538855   3.428947   1.396828   0.000000
     5  C    2.504771   2.527893   1.396787   2.408329   0.000000
     6  C    3.812340   4.550699   2.418590   1.389472   2.780672
     7  H    2.745401   3.814331   2.158670   1.101593   3.403807
     8  C    3.789888   3.917694   2.418088   2.778712   1.390591
     9  H    2.703476   2.243143   2.164435   3.405392   1.096505
    10  C    4.303293   4.746703   2.795472   2.409321   2.410702
    11  H    4.691847   5.529484   3.408793   2.154672   3.875472
    12  H    4.659673   4.581383   3.408501   3.873581   2.155459
    13  H    5.397927   5.816434   3.890137   3.401829   3.403149
    14  C    1.508866   2.099068   2.534823   3.194208   3.554826
    15  C    2.546992   3.164524   2.890297   3.183473   3.803321
    16  C    2.498175   2.762081   3.820551   4.496312   4.787570
    17  C    3.818336   4.331541   4.281349   4.465998   5.140588
    18  H    2.773532   3.436263   2.501405   2.566289   3.273577
    19  C    3.785085   4.046561   4.955384   5.477531   5.904388
    20  H    2.681165   2.734580   4.166551   4.955405   5.077189
    21  C    4.305036   4.688454   5.144058   5.468408   6.054564
    22  H    4.699450   5.231133   4.899838   4.903738   5.656985
    23  H    4.651759   4.806388   5.929687   6.485023   6.864130
    24  H    5.399483   5.755100   6.209633   6.470496   7.093434
    25  C    1.509870   2.140724   2.481985   3.074223   3.545837
    26  C    2.534300   3.428482   3.151817   3.124631   4.421636
    27  C    2.510247   2.549117   3.477266   4.252681   4.186310
    28  C    3.809515   4.555291   4.422487   4.318377   5.601494
    29  H    2.736074   3.805190   3.070106   2.665642   4.446269
    30  C    3.793582   3.937183   4.659025   5.191419   5.416935
    31  H    2.711788   2.272803   3.666649   4.707905   4.045160
    32  C    4.303392   4.758909   5.047181   5.222295   6.025601
    33  H    4.687694   5.531041   5.169265   4.805278   6.407019
    34  H    4.665043   4.605154   5.528786   6.159971   6.116799
    35  H    5.398011   5.829297   6.107643   6.206394   7.062016
                    6          7          8          9         10
     6  C    0.000000
     7  H    2.167085   0.000000
     8  C    2.406025   3.880218   0.000000
     9  H    3.877155   4.311506   2.155277   0.000000
    10  C    1.390978   3.410976   1.390292   3.401727   0.000000
    11  H    1.094805   2.492615   3.399578   4.971957   2.158435
    12  H    3.399364   4.975072   1.094871   2.477422   2.157260
    13  H    2.158800   4.315633   2.158331   4.304265   1.094666
    14  C    4.480439   3.095985   4.744244   3.743104   5.123918
    15  C    4.236355   3.102900   4.719454   4.170515   4.902876
    16  C    5.828392   4.234756   6.056127   4.784443   6.498903
    17  C    5.435190   4.231540   6.001378   5.432473   6.131991
    18  H    3.369212   2.717075   3.933905   3.840668   3.976477
    19  C    6.747673   5.117511   7.098661   5.915708   7.467447
    20  H    6.320477   4.708847   6.416839   4.951972   6.949708
    21  C    6.584410   5.119346   7.078577   6.192888   7.313551
    22  H    5.656281   4.702518   6.319812   6.026139   6.321395
    23  H    7.785999   6.077868   8.104704   6.793196   8.513588
    24  H    7.531099   6.079961   8.072400   7.220707   8.270400
    25  C    4.363893   2.933310   4.708016   3.784886   5.042982
    26  C    4.370720   2.527117   5.374380   4.903172   5.356741
    27  C    5.419560   4.240455   5.368104   4.142355   5.896833
    28  C    5.424368   3.674657   6.491849   6.039170   6.419317
    29  H    3.879247   1.782767   5.263201   5.093437   5.037244
    30  C    6.297941   5.007749   6.485381   5.439639   6.874514
    31  H    5.801603   4.903684   5.278986   3.720344   6.045281
    32  C    6.304030   4.782726   6.983807   6.267395   7.108583
    33  H    5.801653   3.995407   7.183680   6.949577   6.924789
    34  H    7.209646   6.055681   7.173346   5.999133   7.666720
    35  H    7.219382   5.720828   7.966713   7.302097   8.039804
                   11         12         13         14         15
    11  H    0.000000
    12  H    4.304914   0.000000
    13  H    2.488309   2.486934   0.000000
    14  C    5.218304   5.620243   6.187032   0.000000
    15  C    4.853184   5.594021   5.868677   1.394114   0.000000
    16  C    6.522358   6.883889   7.570924   1.399371   2.406759
    17  C    5.916459   6.825448   7.029266   2.417177   1.391471
    18  H    3.980397   4.818649   4.880109   2.162051   1.097449
    19  C    7.345271   7.915220   8.499676   2.420682   2.780277
    20  H    7.052806   7.207312   8.041915   2.160580   3.399974
    21  C    7.086622   7.892981   8.266452   2.797485   2.411661
    22  H    6.019397   7.102452   7.104255   3.406254   2.154882
    23  H    8.375831   8.900544   9.558072   3.411126   3.875043
    24  H    7.966621   8.864316   9.184145   3.892061   3.404431
    25  C    5.080136   5.603733   6.102052   2.492315   3.664701
    26  C    4.810305   6.375549   6.348074   3.062635   3.966644
    27  C    6.184407   6.104539   6.921700   3.574724   4.870542
    28  C    5.732104   7.458466   7.344440   4.358300   5.306973
    29  H    4.172105   6.328584   5.989734   2.914785   3.450702
    30  C    6.923059   7.227113   7.843420   4.732760   6.012822
    31  H    6.684506   5.859430   7.060248   3.825370   5.128020
    32  C    6.729717   7.840039   8.037324   5.052402   6.196954
    33  H    5.911684   8.189620   7.779604   5.066507   5.842340
    34  H    7.868284   7.809840   8.606913   5.636248   6.959586
    35  H    7.562618   8.804399   8.921647   6.111205   7.241523
                   16         17         18         19         20
    16  C    0.000000
    17  C    2.776354   0.000000
    18  H    3.405062   2.157041   0.000000
    19  C    1.388405   2.404527   3.877701   0.000000
    20  H    1.096592   3.872944   4.310241   2.157606   0.000000
    21  C    2.408983   1.389269   3.403215   1.391615   3.403360
    22  H    3.871212   1.094866   2.476955   3.398587   4.967801
    23  H    2.154061   3.398001   4.972471   1.094771   2.482782
    24  H    3.401342   2.158234   4.306079   2.159418   4.307082
    25  C    2.955606   4.801409   3.975858   4.283644   2.704953
    26  C    3.467198   4.961011   4.244814   4.570045   3.358419
    27  C    3.715794   5.961621   5.226233   5.061394   3.075820
    28  C    4.501367   6.200668   5.618297   5.525444   4.159942
    29  H    3.518612   4.371553   3.631080   4.423687   3.735187
    30  C    4.697006   7.027446   6.391853   5.939871   3.937415
    31  H    3.944889   6.223708   5.474254   5.291034   3.263772
    32  C    5.029764   7.131837   6.558762   6.143668   4.407775
    33  H    5.199681   6.619030   6.120050   6.057729   4.963074
    34  H    5.501394   7.961698   7.354128   6.723721   4.627846
    35  H    6.002927   8.124533   7.611538   7.041787   5.331074
                   21         22         23         24         25
    21  C    0.000000
    22  H    2.156737   0.000000
    23  H    2.158574   4.304288   0.000000
    24  H    1.094576   2.487879   2.488443   0.000000
    25  C    5.055013   5.737716   4.950284   6.113937   0.000000
    26  C    5.217483   5.814263   5.209061   6.201595   1.396215
    27  C    6.044766   6.951993   5.529410   7.077942   1.396354
    28  C    6.298590   7.060700   5.973032   7.212369   2.417443
    29  H    4.792485   5.098592   5.178132   5.734565   2.157164
    30  C    7.000372   8.023895   6.256435   7.979712   2.416812
    31  H    6.295888   7.217008   5.733438   7.327029   2.164294
    32  C    7.112355   8.073105   6.456950   8.040391   2.793682
    33  H    6.717881   7.393659   6.474706   7.549669   3.407893
    34  H    7.863810   8.981727   6.937966   8.824272   3.407460
    35  H    8.039737   9.058804   7.257076   8.920323   3.888324
                   26         27         28         29         30
    26  C    0.000000
    27  C    2.408877   0.000000
    28  C    1.389479   2.781269   0.000000
    29  H    1.100665   3.402892   2.167007   0.000000
    30  C    2.778877   1.390618   2.406340   3.879338   0.000000
    31  H    3.405596   1.096310   3.877559   4.310062   2.155548
    32  C    2.409100   2.410707   1.390992   3.410333   1.390253
    33  H    2.154876   3.876018   1.094752   2.493634   3.399723
    34  H    3.873693   2.155506   3.399485   4.974118   1.094820
    35  H    3.401587   3.403013   2.158686   4.315252   2.158090
                   31         32         33         34         35
    31  H    0.000000
    32  C    3.401802   0.000000
    33  H    4.972310   2.158374   0.000000
    34  H    2.478061   2.157103   4.304774   0.000000
    35  H    4.304267   1.094643   2.488073   2.486445   0.000000
 Stoichiometry    C19H16
 Framework group  C1[X(C19H16)]
 Deg. of freedom    99
 Full point group                 C1      NOp   1
 Largest Abelian subgroup         C1      NOp   1
 Largest concise Abelian subgroup C1      NOp   1
                         Standard orientation:                         
 ---------------------------------------------------------------------
 Center     Atomic      Atomic             Coordinates (Angstroms)
 Number     Number       Type             X           Y           Z
 ---------------------------------------------------------------------
      1          6           0        0.013127    0.012851   -0.760392
      2          1           0       -0.017277    0.014526   -1.883088
      3          6           0        1.462485   -0.050425   -0.348419
      4          6           0        1.844172   -0.113730    0.993756
      5          6           0        2.449833   -0.054469   -1.336418
      6          6           0        3.187785   -0.179453    1.341631
      7          1           0        1.064565   -0.124604    1.771961
      8          6           0        3.793954   -0.120112   -0.986028
      9          1           0        2.166667   -0.005953   -2.394617
     10          6           0        4.165517   -0.182056    0.352260
     11          1           0        3.475261   -0.230888    2.396766
     12          1           0        4.560573   -0.123513   -1.767710
     13          1           0        5.223977   -0.234211    0.626550
     14          6           0       -0.693926    1.281943   -0.352765
     15          6           0       -0.032382    2.348962    0.253355
     16          6           0       -2.056530    1.407219   -0.645775
     17          6           0       -0.719936    3.517691    0.565656
     18          1           0        1.037064    2.268899    0.486315
     19          6           0       -2.741096    2.573592   -0.331751
     20          1           0       -2.583983    0.572131   -1.122153
     21          6           0       -2.073655    3.633026    0.275468
     22          1           0       -0.188675    4.348548    1.041229
     23          1           0       -3.807672    2.658896   -0.563400
     24          1           0       -2.613258    4.552793    0.522362
     25          6           0       -0.731388   -1.208974   -0.278162
     26          6           0       -0.998117   -1.408980    1.077666
     27          6           0       -1.167830   -2.157003   -1.205828
     28          6           0       -1.696333   -2.534131    1.498597
     29          1           0       -0.631541   -0.672439    1.808826
     30          6           0       -1.863713   -3.283855   -0.781835
     31          1           0       -0.961894   -2.015518   -2.273286
     32          6           0       -2.131658   -3.473026    0.569173
     33          1           0       -1.902293   -2.680793    2.563751
     34          1           0       -2.201338   -4.023068   -1.515459
     35          1           0       -2.682017   -4.359234    0.900809
 ---------------------------------------------------------------------
 Rotational constants (GHZ):      0.4046106      0.3805422      0.2328927
 Standard basis: 6-311G (5D, 7F)
 There are   295 symmetry adapted basis functions of A   symmetry.
 Integral buffers will be    262144 words long.
 Raffenetti 1 integral format.
 Two-electron integral symmetry is turned on.
   295 basis functions,   574 primitive gaussians,   295 cartesian basis functions
    65 alpha electrons       65 beta electrons
       nuclear repulsion energy      1290.5409385194 Hartrees.
 NAtoms=   35 NActive=   35 NUniq=   35 SFac= 7.50D-01 NAtFMM=   80 NAOKFM=F Big=F
 One-electron integrals computed using PRISM.
 PrsmSu:  requested number of processors reduced to:  10 ShMem   1 Linda.
 NBasis=   295 RedAO= T  NBF=   295
 NBsUse=   295 1.00D-06 NBFU=   295
 Harris functional with IExCor=  205 diagonalized for initial guess.
 ExpMin= 1.03D-01 ExpMax= 4.56D+03 ExpMxC= 6.82D+02 IAcc=1 IRadAn=         1 AccDes= 0.00D+00
 HarFok:  IExCor=  205 AccDes= 0.00D+00 IRadAn=         1 IDoV= 1
 ScaDFX=  1.000000  1.000000  1.000000  1.000000
 FoFCou: FMM=F IPFlag=           0 FMFlag=      100000 FMFlg1=           0
         NFxFlg=           0 DoJE=T BraDBF=F KetDBF=T FulRan=T
         Omega=  0.000000  0.000000  1.000000  0.000000  0.000000 ICntrl=     500 IOpCl=  0
         NMat0=    1 NMatS0=    1 NMatT0=    0 NMatD0=    1 NMtDS0=    0 NMtDT0=    0
         I1Cent=           4 NGrid=           0.
 Petite list used in FoFCou.
 Initial guess orbital symmetries:
       Occupied  (A) (A) (A) (A) (A) (A) (A) (A) (A) (A) (A) (A)
                 (A) (A) (A) (A) (A) (A) (A) (A) (A) (A) (A) (A)
                 (A) (A) (A) (A) (A) (A) (A) (A) (A) (A) (A) (A)
                 (A) (A) (A) (A) (A) (A) (A) (A) (A) (A) (A) (A)
                 (A) (A) (A) (A) (A) (A) (A) (A) (A) (A) (A) (A)
                 (A) (A) (A) (A) (A)
       Virtual   (A) (A) (A) (A) (A) (A) (A) (A) (A) (A) (A) (A)
                 (A) (A) (A) (A) (A) (A) (A) (A) (A) (A) (A) (A)
                 (A) (A) (A) (A) (A) (A) (A) (A) (A) (A) (A) (A)
                 (A) (A) (A) (A) (A) (A) (A) (A) (A) (A) (A) (A)
                 (A) (A) (A) (A) (A) (A) (A) (A) (A) (A) (A) (A)
                 (A) (A) (A) (A) (A) (A) (A) (A) (A) (A) (A) (A)
                 (A) (A) (A) (A) (A) (A) (A) (A) (A) (A) (A) (A)
                 (A) (A) (A) (A) (A) (A) (A) (A) (A) (A) (A) (A)
                 (A) (A) (A) (A) (A) (A) (A) (A) (A) (A) (A) (A)
                 (A) (A) (A) (A) (A) (A) (A) (A) (A) (A) (A) (A)
                 (A) (A) (A) (A) (A) (A) (A) (A) (A) (A) (A) (A)
                 (A) (A) (A) (A) (A) (A) (A) (A) (A) (A) (A) (A)
                 (A) (A) (A) (A) (A) (A) (A) (A) (A) (A) (A) (A)
                 (A) (A) (A) (A) (A) (A) (A) (A) (A) (A) (A) (A)
                 (A) (A) (A) (A) (A) (A) (A) (A) (A) (A) (A) (A)
                 (A) (A) (A) (A) (A) (A) (A) (A) (A) (A) (A) (A)
                 (A) (A) (A) (A) (A) (A) (A) (A) (A) (A) (A) (A)
                 (A) (A) (A) (A) (A) (A) (A) (A) (A) (A) (A) (A)
                 (A) (A) (A) (A) (A) (A) (A) (A) (A) (A) (A) (A)
                 (A) (A)
 The electronic state of the initial guess is 1-A.
 Requested convergence on RMS density matrix=1.00D-08 within 128 cycles.
 Requested convergence on MAX density matrix=1.00D-06.
 Requested convergence on             energy=1.00D-06.
 No special actions if energy rises.
 Integral accuracy reduced to 1.0D-05 until final iterations.
 Initial convergence to 1.0D-05 achieved.  Increase integral accuracy.
 SCF Done:  E(RHF) =  -728.672372228     A.U. after   14 cycles
             Convg  =    0.8536D-08             -V/T =  2.0001

 **********************************************************************

            Population analysis using the SCF density.

 **********************************************************************

 Orbital symmetries:
       Occupied  (A) (A) (A) (A) (A) (A) (A) (A) (A) (A) (A) (A)
                 (A) (A) (A) (A) (A) (A) (A) (A) (A) (A) (A) (A)
                 (A) (A) (A) (A) (A) (A) (A) (A) (A) (A) (A) (A)
                 (A) (A) (A) (A) (A) (A) (A) (A) (A) (A) (A) (A)
                 (A) (A) (A) (A) (A) (A) (A) (A) (A) (A) (A) (A)
                 (A) (A) (A) (A) (A)
       Virtual   (A) (A) (A) (A) (A) (A) (A) (A) (A) (A) (A) (A)
                 (A) (A) (A) (A) (A) (A) (A) (A) (A) (A) (A) (A)
                 (A) (A) (A) (A) (A) (A) (A) (A) (A) (A) (A) (A)
                 (A) (A) (A) (A) (A) (A) (A) (A) (A) (A) (A) (A)
                 (A) (A) (A) (A) (A) (A) (A) (A) (A) (A) (A) (A)
                 (A) (A) (A) (A) (A) (A) (A) (A) (A) (A) (A) (A)
                 (A) (A) (A) (A) (A) (A) (A) (A) (A) (A) (A) (A)
                 (A) (A) (A) (A) (A) (A) (A) (A) (A) (A) (A) (A)
                 (A) (A) (A) (A) (A) (A) (A) (A) (A) (A) (A) (A)
                 (A) (A) (A) (A) (A) (A) (A) (A) (A) (A) (A) (A)
                 (A) (A) (A) (A) (A) (A) (A) (A) (A) (A) (A) (A)
                 (A) (A) (A) (A) (A) (A) (A) (A) (A) (A) (A) (A)
                 (A) (A) (A) (A) (A) (A) (A) (A) (A) (A) (A) (A)
                 (A) (A) (A) (A) (A) (A) (A) (A) (A) (A) (A) (A)
                 (A) (A) (A) (A) (A) (A) (A) (A) (A) (A) (A) (A)
                 (A) (A) (A) (A) (A) (A) (A) (A) (A) (A) (A) (A)
                 (A) (A) (A) (A) (A) (A) (A) (A) (A) (A) (A) (A)
                 (A) (A) (A) (A) (A) (A) (A) (A) (A) (A) (A) (A)
                 (A) (A) (A) (A) (A) (A) (A) (A) (A) (A) (A) (A)
                 (A) (A)
 The electronic state is 1-A.
 Alpha  occ. eigenvalues --  -11.25765 -11.25237 -11.25187 -11.24929 -11.24524
 Alpha  occ. eigenvalues --  -11.24435 -11.24417 -11.24366 -11.24223 -11.24169
 Alpha  occ. eigenvalues --  -11.24143 -11.24115 -11.24074 -11.24043 -11.24026
 Alpha  occ. eigenvalues --  -11.23978 -11.23735 -11.23650 -11.23502  -1.18616
 Alpha  occ. eigenvalues --   -1.15873  -1.15577  -1.09030  -1.02380  -1.02234
 Alpha  occ. eigenvalues --   -1.01875  -1.01490  -1.01104  -0.92923  -0.84302
 Alpha  occ. eigenvalues --   -0.83338  -0.82352  -0.81894  -0.81158  -0.77593
 Alpha  occ. eigenvalues --   -0.70864  -0.70372  -0.68986  -0.65706  -0.63889
 Alpha  occ. eigenvalues --   -0.63605  -0.62505  -0.61715  -0.61603  -0.59712
 Alpha  occ. eigenvalues --   -0.58851  -0.58483  -0.58321  -0.56842  -0.54993
 Alpha  occ. eigenvalues --   -0.51725  -0.50936  -0.50248  -0.49848  -0.49381
 Alpha  occ. eigenvalues --   -0.48448  -0.47926  -0.47514  -0.46332  -0.35005
 Alpha  occ. eigenvalues --   -0.34318  -0.33929  -0.33337  -0.32623  -0.31419
 Alpha virt. eigenvalues --    0.11515   0.12283   0.12800   0.13569   0.14956
 Alpha virt. eigenvalues --    0.15071   0.15592   0.16239   0.16477   0.16930
 Alpha virt. eigenvalues --    0.18906   0.19182   0.19229   0.21248   0.21303
 Alpha virt. eigenvalues --    0.21577   0.23577   0.23982   0.24998   0.25424
 Alpha virt. eigenvalues --    0.26953   0.31307   0.33237   0.34259   0.35775
 Alpha virt. eigenvalues --    0.37521   0.39846   0.40452   0.41535   0.43141
 Alpha virt. eigenvalues --    0.44092   0.44426   0.44887   0.45455   0.45636
 Alpha virt. eigenvalues --    0.45858   0.46753   0.47195   0.48061   0.50568
 Alpha virt. eigenvalues --    0.51104   0.51452   0.52066   0.54923   0.56020
 Alpha virt. eigenvalues --    0.57352   0.57841   0.58476   0.58978   0.59380
 Alpha virt. eigenvalues --    0.60129   0.60435   0.60631   0.61166   0.61452
 Alpha virt. eigenvalues --    0.62077   0.62259   0.62948   0.63556   0.63730
 Alpha virt. eigenvalues --    0.64296   0.64533   0.65213   0.65913   0.66405
 Alpha virt. eigenvalues --    0.67183   0.67809   0.68590   0.69899   0.72357
 Alpha virt. eigenvalues --    0.73146   0.73926   0.74255   0.75228   0.75752
 Alpha virt. eigenvalues --    0.76703   0.78873   0.79304   0.79837   0.81367
 Alpha virt. eigenvalues --    0.81513   0.82183   0.82500   0.82939   0.83229
 Alpha virt. eigenvalues --    0.83821   0.84348   0.84763   0.84841   0.85467
 Alpha virt. eigenvalues --    0.85994   0.86281   0.86428   0.87666   0.88177
 Alpha virt. eigenvalues --    0.90339   0.90739   0.92219   0.93371   0.94928
 Alpha virt. eigenvalues --    0.95986   0.96416   0.97068   0.98171   0.99644
 Alpha virt. eigenvalues --    0.99885   1.02329   1.02994   1.04636   1.06198
 Alpha virt. eigenvalues --    1.07090   1.08249   1.09183   1.10273   1.10606
 Alpha virt. eigenvalues --    1.11337   1.11760   1.12486   1.12677   1.13844
 Alpha virt. eigenvalues --    1.14941   1.16598   1.19419   1.20611   1.20957
 Alpha virt. eigenvalues --    1.23945   1.25838   1.27267   1.28410   1.28959
 Alpha virt. eigenvalues --    1.29402   1.32185   1.33099   1.46626   1.47623
 Alpha virt. eigenvalues --    1.52158   1.54100   1.57212   2.53575   2.55688
 Alpha virt. eigenvalues --    2.56140   2.57766   2.62076   2.62267   2.63932
 Alpha virt. eigenvalues --    2.66302   2.67225   2.68505   2.71905   2.74326
 Alpha virt. eigenvalues --    2.78323   2.83480   2.86523   2.91528   2.94356
 Alpha virt. eigenvalues --    2.94587   2.94744   2.96035   2.98025   2.98541
 Alpha virt. eigenvalues --    3.00037   3.02201   3.03878   3.04519   3.06416
 Alpha virt. eigenvalues --    3.08524   3.09150   3.09695   3.10125   3.13188
 Alpha virt. eigenvalues --    3.15201   3.16248   3.17702   3.18412   3.19360
 Alpha virt. eigenvalues --    3.21621   3.24130   3.25177   3.27636   3.28764
 Alpha virt. eigenvalues --    3.31311   3.33867   3.34243   3.35665   3.41082
 Alpha virt. eigenvalues --    3.41474   3.44189   3.45128   3.49911   3.52357
 Alpha virt. eigenvalues --    3.53465   3.55887   3.57472   3.58242   3.59693
 Alpha virt. eigenvalues --    3.62293   3.64190   3.65002   3.66225   3.66574
 Alpha virt. eigenvalues --    3.67665   3.69224   3.71277   3.72519   3.74017
 Alpha virt. eigenvalues --    3.76057   3.77370   3.78643   3.85461   3.87873
 Alpha virt. eigenvalues --    3.91210  24.25979  24.30054  24.31810  24.50507
 Alpha virt. eigenvalues --   24.50794  24.51030  24.53143  24.54585  24.56515
 Alpha virt. eigenvalues --   24.76306  24.77097  24.79109  24.80201  24.80657
 Alpha virt. eigenvalues --   24.82700  24.87223  25.04680  25.05796  25.07121
          Condensed to atoms (all electrons):
              1          2          3          4          5          6
     1  C    6.092091   0.473628   0.119806  -0.070225  -0.025061   0.002356
     2  H    0.473628   0.503792  -0.076253   0.004445   0.006529  -0.000225
     3  C    0.119806  -0.076253   5.391297   0.450814   0.499875  -0.064631
     4  C   -0.070225   0.004445   0.450814   5.099793  -0.062819   0.480125
     5  C   -0.025061   0.006529   0.499875  -0.062819   5.046077  -0.034188
     6  C    0.002356  -0.000225  -0.064631   0.480125  -0.034188   5.046905
     7  H    0.000983  -0.000041  -0.048109   0.386257   0.004613  -0.026918
     8  C    0.008287   0.001470  -0.076891  -0.029653   0.468883  -0.077222
     9  H   -0.002087   0.002813  -0.045412   0.004765   0.394273  -0.000290
    10  C    0.001729   0.000004  -0.015990  -0.093640  -0.088938   0.490230
    11  H   -0.000371   0.000012   0.005972  -0.038516  -0.000372   0.396972
    12  H   -0.000414  -0.000034   0.007040  -0.000631  -0.039486   0.006275
    13  H   -0.000026  -0.000002  -0.001675   0.007984   0.007562  -0.042939
    14  C    0.038498  -0.062650  -0.066653   0.006550  -0.000681   0.000852
    15  C   -0.028428   0.001204  -0.012359  -0.017761   0.000870  -0.001456
    16  C   -0.085744  -0.004926   0.011383   0.000745  -0.000253   0.000016
    17  C    0.011993  -0.000136  -0.001451  -0.000892  -0.000117  -0.000040
    18  H   -0.011064  -0.000276   0.000669  -0.001169  -0.001164   0.000441
    19  C    0.007968   0.000710  -0.000879  -0.000021   0.000009   0.000000
    20  H   -0.002172  -0.000145   0.000839  -0.000042  -0.000005   0.000000
    21  C    0.000441   0.000029   0.000118  -0.000019  -0.000004   0.000000
    22  H   -0.000360   0.000014   0.000058   0.000029   0.000004  -0.000001
    23  H   -0.000355   0.000003   0.000012   0.000000   0.000000   0.000000
    24  H   -0.000014  -0.000002   0.000000   0.000001   0.000000   0.000000
    25  C    0.152027  -0.070693  -0.138730  -0.003332  -0.004267   0.001988
    26  C   -0.054746   0.005599  -0.003733  -0.012133   0.000721  -0.000098
    27  C   -0.024674   0.001397  -0.001850   0.000536   0.000615   0.000045
    28  C    0.003115  -0.000266   0.001904  -0.000481   0.000030  -0.000101
    29  H    0.000315   0.000116  -0.002780  -0.001118  -0.000197   0.000858
    30  C    0.006850   0.001577  -0.000514   0.000133  -0.000017   0.000001
    31  H   -0.000030   0.002323   0.000377  -0.000006   0.000266  -0.000001
    32  C    0.001265  -0.000001  -0.000087  -0.000023  -0.000008   0.000001
    33  H   -0.000346   0.000011   0.000026   0.000056   0.000000   0.000002
    34  H   -0.000340  -0.000039   0.000025   0.000000   0.000001   0.000000
    35  H   -0.000011  -0.000001  -0.000003   0.000000   0.000000   0.000000
              7          8          9         10         11         12
     1  C    0.000983   0.008287  -0.002087   0.001729  -0.000371  -0.000414
     2  H   -0.000041   0.001470   0.002813   0.000004   0.000012  -0.000034
     3  C   -0.048109  -0.076891  -0.045412  -0.015990   0.005972   0.007040
     4  C    0.386257  -0.029653   0.004765  -0.093640  -0.038516  -0.000631
     5  C    0.004613   0.468883   0.394273  -0.088938  -0.000372  -0.039486
     6  C   -0.026918  -0.077222  -0.000290   0.490230   0.396972   0.006275
     7  H    0.497287  -0.000139  -0.000269   0.004644  -0.003394   0.000017
     8  C   -0.000139   5.046750  -0.033771   0.499570   0.005897   0.396374
     9  H   -0.000269  -0.033771   0.506451   0.005068   0.000025  -0.004076
    10  C    0.004644   0.499570   0.005068   5.033798  -0.039803  -0.041070
    11  H   -0.003394   0.005897   0.000025  -0.039803   0.514442  -0.000206
    12  H    0.000017   0.396374  -0.004076  -0.041070  -0.000206   0.517975
    13  H   -0.000171  -0.042557  -0.000179   0.399438  -0.004362  -0.004555
    14  C    0.001241  -0.000776   0.000507  -0.000069   0.000017   0.000025
    15  C    0.001496   0.000367   0.000143   0.000122   0.000006  -0.000007
    16  C    0.000032   0.000005   0.000012   0.000000   0.000000   0.000000
    17  C    0.000087   0.000003   0.000005   0.000004  -0.000002   0.000000
    18  H   -0.000010  -0.000123   0.000077   0.000087   0.000041   0.000010
    19  C   -0.000041   0.000000  -0.000001   0.000000   0.000000   0.000000
    20  H    0.000021   0.000000  -0.000002   0.000000   0.000000   0.000000
    21  C    0.000001   0.000000   0.000000   0.000000   0.000000   0.000000
    22  H    0.000000   0.000000   0.000000  -0.000001   0.000000   0.000000
    23  H   -0.000001   0.000000   0.000000   0.000000   0.000000   0.000000
    24  H    0.000000   0.000000   0.000000   0.000000   0.000000   0.000000
    25  C   -0.003645  -0.000602   0.000165  -0.000052   0.000026   0.000020
    26  C    0.002187   0.000051  -0.000025  -0.000003   0.000036  -0.000001
    27  C   -0.000216  -0.000011   0.000184  -0.000014   0.000002   0.000001
    28  C    0.001157  -0.000001   0.000001   0.000002  -0.000001   0.000000
    29  H    0.001753   0.000003  -0.000002  -0.000014  -0.000034   0.000000
    30  C   -0.000065   0.000002  -0.000002   0.000000   0.000000   0.000000
    31  H    0.000001   0.000007   0.000058  -0.000002   0.000000   0.000000
    32  C    0.000008   0.000000  -0.000001   0.000000   0.000000   0.000000
    33  H   -0.000063   0.000000   0.000000   0.000000   0.000001   0.000000
    34  H    0.000001   0.000000   0.000000   0.000000   0.000000   0.000000
    35  H    0.000000   0.000000   0.000000   0.000000   0.000000   0.000000
             13         14         15         16         17         18
     1  C   -0.000026   0.038498  -0.028428  -0.085744   0.011993  -0.011064
     2  H   -0.000002  -0.062650   0.001204  -0.004926  -0.000136  -0.000276
     3  C   -0.001675  -0.066653  -0.012359   0.011383  -0.001451   0.000669
     4  C    0.007984   0.006550  -0.017761   0.000745  -0.000892  -0.001169
     5  C    0.007562  -0.000681   0.000870  -0.000253  -0.000117  -0.001164
     6  C   -0.042939   0.000852  -0.001456   0.000016  -0.000040   0.000441
     7  H   -0.000171   0.001241   0.001496   0.000032   0.000087  -0.000010
     8  C   -0.042557  -0.000776   0.000367   0.000005   0.000003  -0.000123
     9  H   -0.000179   0.000507   0.000143   0.000012   0.000005   0.000077
    10  C    0.399438  -0.000069   0.000122   0.000000   0.000004   0.000087
    11  H   -0.004362   0.000017   0.000006   0.000000  -0.000002   0.000041
    12  H   -0.004555   0.000025  -0.000007   0.000000   0.000000   0.000010
    13  H    0.516906   0.000002  -0.000003   0.000000   0.000000   0.000009
    14  C    0.000002   5.353868   0.502249   0.470626  -0.069619  -0.034699
    15  C   -0.000003   0.502249   5.093617  -0.082708   0.454599   0.393643
    16  C    0.000000   0.470626  -0.082708   5.121563  -0.033336   0.004935
    17  C    0.000000  -0.069619   0.454599  -0.033336   5.078112  -0.036212
    18  H    0.000009  -0.034699   0.393643   0.004935  -0.036212   0.476920
    19  C    0.000000  -0.056802  -0.029893   0.464395  -0.074103  -0.000419
    20  H    0.000000  -0.045892   0.004426   0.397713  -0.000460  -0.000199
    21  C    0.000000  -0.020448  -0.090373  -0.085026   0.496674   0.005004
    22  H    0.000000   0.006487  -0.036818  -0.000409   0.395569  -0.003491
    23  H    0.000000   0.006157  -0.000445  -0.038481   0.006008   0.000018
    24  H    0.000000  -0.001459   0.007682   0.007438  -0.042106  -0.000170
    25  C   -0.000003  -0.098710  -0.000062  -0.006197  -0.000783   0.000396
    26  C    0.000001  -0.008095   0.001664  -0.007928   0.000051   0.000079
    27  C    0.000000  -0.001647  -0.000441   0.000674   0.000007  -0.000018
    28  C    0.000000  -0.000585   0.000023  -0.000329   0.000005  -0.000001
    29  H    0.000000   0.001059  -0.000015   0.000142  -0.000075   0.000016
    30  C    0.000000  -0.000421   0.000021  -0.000114   0.000000   0.000000
    31  H    0.000000   0.000135  -0.000036   0.000300   0.000000   0.000001
    32  C    0.000000   0.000053  -0.000002   0.000100   0.000000   0.000000
    33  H    0.000000   0.000023   0.000000   0.000017   0.000000   0.000000
    34  H    0.000000   0.000011   0.000000  -0.000002   0.000000   0.000000
    35  H    0.000000   0.000000   0.000000   0.000000   0.000000   0.000000
             19         20         21         22         23         24
     1  C    0.007968  -0.002172   0.000441  -0.000360  -0.000355  -0.000014
     2  H    0.000710  -0.000145   0.000029   0.000014   0.000003  -0.000002
     3  C   -0.000879   0.000839   0.000118   0.000058   0.000012   0.000000
     4  C   -0.000021  -0.000042  -0.000019   0.000029   0.000000   0.000001
     5  C    0.000009  -0.000005  -0.000004   0.000004   0.000000   0.000000
     6  C    0.000000   0.000000   0.000000  -0.000001   0.000000   0.000000
     7  H   -0.000041   0.000021   0.000001   0.000000  -0.000001   0.000000
     8  C    0.000000   0.000000   0.000000   0.000000   0.000000   0.000000
     9  H   -0.000001  -0.000002   0.000000   0.000000   0.000000   0.000000
    10  C    0.000000   0.000000   0.000000  -0.000001   0.000000   0.000000
    11  H    0.000000   0.000000   0.000000   0.000000   0.000000   0.000000
    12  H    0.000000   0.000000   0.000000   0.000000   0.000000   0.000000
    13  H    0.000000   0.000000   0.000000   0.000000   0.000000   0.000000
    14  C   -0.056802  -0.045892  -0.020448   0.006487   0.006157  -0.001459
    15  C   -0.029893   0.004426  -0.090373  -0.036818  -0.000445   0.007682
    16  C    0.464395   0.397713  -0.085026  -0.000409  -0.038481   0.007438
    17  C   -0.074103  -0.000460   0.496674   0.395569   0.006008  -0.042106
    18  H   -0.000419  -0.000199   0.005004  -0.003491   0.000018  -0.000170
    19  C    5.060487  -0.035162   0.480228   0.006017   0.397174  -0.043260
    20  H   -0.035162   0.491302   0.005237   0.000017  -0.003907  -0.000173
    21  C    0.480228   0.005237   5.042447  -0.041234  -0.040834   0.399491
    22  H    0.006017   0.000017  -0.041234   0.517809  -0.000213  -0.004470
    23  H    0.397174  -0.003907  -0.040834  -0.000213   0.517627  -0.004409
    24  H   -0.043260  -0.000173   0.399491  -0.004470  -0.004409   0.519335
    25  C   -0.001512   0.003876   0.000125   0.000012   0.000014   0.000002
    26  C   -0.000206  -0.000543   0.000037   0.000000   0.000014   0.000000
    27  C   -0.000047   0.001795  -0.000003   0.000000  -0.000005   0.000000
    28  C   -0.000006  -0.000226   0.000002   0.000000   0.000002   0.000000
    29  H    0.000030  -0.000074  -0.000044   0.000001   0.000005   0.000001
    30  C    0.000013   0.000116   0.000000   0.000000  -0.000001   0.000000
    31  H   -0.000008   0.000208   0.000001   0.000000   0.000000   0.000000
    32  C    0.000002  -0.000091   0.000000   0.000000   0.000000   0.000000
    33  H    0.000001   0.000004   0.000000   0.000000   0.000000   0.000000
    34  H    0.000000   0.000005   0.000000   0.000000   0.000000   0.000000
    35  H    0.000000   0.000000   0.000000   0.000000   0.000000   0.000000
             25         26         27         28         29         30
     1  C    0.152027  -0.054746  -0.024674   0.003115   0.000315   0.006850
     2  H   -0.070693   0.005599   0.001397  -0.000266   0.000116   0.001577
     3  C   -0.138730  -0.003733  -0.001850   0.001904  -0.002780  -0.000514
     4  C   -0.003332  -0.012133   0.000536  -0.000481  -0.001118   0.000133
     5  C   -0.004267   0.000721   0.000615   0.000030  -0.000197  -0.000017
     6  C    0.001988  -0.000098   0.000045  -0.000101   0.000858   0.000001
     7  H   -0.003645   0.002187  -0.000216   0.001157   0.001753  -0.000065
     8  C   -0.000602   0.000051  -0.000011  -0.000001   0.000003   0.000002
     9  H    0.000165  -0.000025   0.000184   0.000001  -0.000002  -0.000002
    10  C   -0.000052  -0.000003  -0.000014   0.000002  -0.000014   0.000000
    11  H    0.000026   0.000036   0.000002  -0.000001  -0.000034   0.000000
    12  H    0.000020  -0.000001   0.000001   0.000000   0.000000   0.000000
    13  H   -0.000003   0.000001   0.000000   0.000000   0.000000   0.000000
    14  C   -0.098710  -0.008095  -0.001647  -0.000585   0.001059  -0.000421
    15  C   -0.000062   0.001664  -0.000441   0.000023  -0.000015   0.000021
    16  C   -0.006197  -0.007928   0.000674  -0.000329   0.000142  -0.000114
    17  C   -0.000783   0.000051   0.000007   0.000005  -0.000075   0.000000
    18  H    0.000396   0.000079  -0.000018  -0.000001   0.000016   0.000000
    19  C   -0.001512  -0.000206  -0.000047  -0.000006   0.000030   0.000013
    20  H    0.003876  -0.000543   0.001795  -0.000226  -0.000074   0.000116
    21  C    0.000125   0.000037  -0.000003   0.000002  -0.000044   0.000000
    22  H    0.000012   0.000000   0.000000   0.000000   0.000001   0.000000
    23  H    0.000014   0.000014  -0.000005   0.000002   0.000005  -0.000001
    24  H    0.000002   0.000000   0.000000   0.000000   0.000001   0.000000
    25  C    5.388280   0.445996   0.492908  -0.058392  -0.044762  -0.073343
    26  C    0.445996   5.070820  -0.072089   0.479082   0.389069  -0.026632
    27  C    0.492908  -0.072089   5.092143  -0.030622   0.004071   0.453938
    28  C   -0.058392   0.479082  -0.030622   5.039881  -0.028372  -0.078523
    29  H   -0.044762   0.389069   0.004071  -0.028372   0.496677   0.000009
    30  C   -0.073343  -0.026632   0.453938  -0.078523   0.000009   5.059758
    31  H   -0.050778   0.004330   0.400519  -0.000282  -0.000272  -0.034924
    32  C   -0.018827  -0.091096  -0.086216   0.491230   0.004552   0.497407
    33  H    0.006027  -0.038954  -0.000480   0.397230  -0.003335   0.005984
    34  H    0.006935  -0.000683  -0.039700   0.006242   0.000015   0.396981
    35  H   -0.001545   0.007884   0.007486  -0.042909  -0.000172  -0.042561
             31         32         33         34         35
     1  C   -0.000030   0.001265  -0.000346  -0.000340  -0.000011
     2  H    0.002323  -0.000001   0.000011  -0.000039  -0.000001
     3  C    0.000377  -0.000087   0.000026   0.000025  -0.000003
     4  C   -0.000006  -0.000023   0.000056   0.000000   0.000000
     5  C    0.000266  -0.000008   0.000000   0.000001   0.000000
     6  C   -0.000001   0.000001   0.000002   0.000000   0.000000
     7  H    0.000001   0.000008  -0.000063   0.000001   0.000000
     8  C    0.000007   0.000000   0.000000   0.000000   0.000000
     9  H    0.000058  -0.000001   0.000000   0.000000   0.000000
    10  C   -0.000002   0.000000   0.000000   0.000000   0.000000
    11  H    0.000000   0.000000   0.000001   0.000000   0.000000
    12  H    0.000000   0.000000   0.000000   0.000000   0.000000
    13  H    0.000000   0.000000   0.000000   0.000000   0.000000
    14  C    0.000135   0.000053   0.000023   0.000011   0.000000
    15  C   -0.000036  -0.000002   0.000000   0.000000   0.000000
    16  C    0.000300   0.000100   0.000017  -0.000002   0.000000
    17  C    0.000000   0.000000   0.000000   0.000000   0.000000
    18  H    0.000001   0.000000   0.000000   0.000000   0.000000
    19  C   -0.000008   0.000002   0.000001   0.000000   0.000000
    20  H    0.000208  -0.000091   0.000004   0.000005   0.000000
    21  C    0.000001   0.000000   0.000000   0.000000   0.000000
    22  H    0.000000   0.000000   0.000000   0.000000   0.000000
    23  H    0.000000   0.000000   0.000000   0.000000   0.000000
    24  H    0.000000   0.000000   0.000000   0.000000   0.000000
    25  C   -0.050778  -0.018827   0.006027   0.006935  -0.001545
    26  C    0.004330  -0.091096  -0.038954  -0.000683   0.007884
    27  C    0.400519  -0.086216  -0.000480  -0.039700   0.007486
    28  C   -0.000282   0.491230   0.397230   0.006242  -0.042909
    29  H   -0.000272   0.004552  -0.003335   0.000015  -0.000172
    30  C   -0.034924   0.497407   0.005984   0.396981  -0.042561
    31  H    0.509929   0.005249   0.000025  -0.004210  -0.000185
    32  C    0.005249   5.034178  -0.039848  -0.040691   0.399688
    33  H    0.000025  -0.039848   0.514886  -0.000206  -0.004476
    34  H   -0.004210  -0.040691  -0.000206   0.518127  -0.004591
    35  H   -0.000185   0.399688  -0.004476  -0.004591   0.517396
 Mulliken atomic charges:
              1
     1  C   -0.614886
     2  H    0.210014
     3  C    0.067784
     4  C   -0.109752
     5  C   -0.172749
     6  C   -0.178956
     7  H    0.181298
     8  C   -0.165924
     9  H    0.171570
    10  C   -0.155101
    11  H    0.163613
    12  H    0.162744
    13  H    0.164571
    14  C    0.080849
    15  C   -0.161322
    16  C   -0.134643
    17  C   -0.183788
    18  H    0.206670
    19  C   -0.174675
    20  H    0.183536
    21  C   -0.151849
    22  H    0.160979
    23  H    0.161615
    24  H    0.162113
    25  C    0.077440
    26  C   -0.090653
    27  C   -0.198289
    28  C   -0.178809
    29  H    0.182576
    30  C   -0.165674
    31  H    0.167005
    32  C   -0.156840
    33  H    0.163414
    34  H    0.162119
    35  H    0.164000
 Sum of Mulliken atomic charges =   0.00000
 Mulliken charges with hydrogens summed into heavy atoms:
              1
     1  C   -0.404872
     3  C    0.067784
     4  C    0.071546
     5  C   -0.001179
     6  C   -0.015343
     8  C   -0.003180
    10  C    0.009470
    14  C    0.080849
    15  C    0.045348
    16  C    0.048893
    17  C   -0.022809
    19  C   -0.013059
    21  C    0.010264
    25  C    0.077440
    26  C    0.091923
    27  C   -0.031284
    28  C   -0.015394
    30  C   -0.003555
    32  C    0.007160
 Sum of Mulliken charges with hydrogens summed into heavy atoms =   0.00000
 Electronic spatial extent (au):  <R**2>=           4932.2012
 Charge=              0.0000 electrons
 Dipole moment (field-independent basis, Debye):
    X=              0.0942    Y=             -0.1633    Z=             -0.0189  Tot=              0.1895
 Quadrupole moment (field-independent basis, Debye-Ang):
   XX=           -107.8629   YY=           -113.2753   ZZ=           -106.6148
   XY=              2.7429   XZ=              1.0758   YZ=              2.6435
 Traceless Quadrupole moment (field-independent basis, Debye-Ang):
   XX=              1.3881   YY=             -4.0243   ZZ=              2.6362
   XY=              2.7429   XZ=              1.0758   YZ=              2.6435
 Octapole moment (field-independent basis, Debye-Ang**2):
  XXX=             28.3399  YYY=              6.8072  ZZZ=              0.6537  XYY=            -37.5246
  XXY=              3.2320  XXZ=             -3.6097  XZZ=              9.9353  YZZ=            -17.6658
  YYZ=             12.4282  XYZ=              1.3616
 Hexadecapole moment (field-independent basis, Debye-Ang**3):
 XXXX=          -3056.7866 YYYY=          -2904.7176 ZZZZ=           -673.8946 XXXY=            -59.8449
 XXXZ=             17.5418 YYYX=             62.8959 YYYZ=             76.8129 ZZZX=             -6.7060
 ZZZY=             -2.9833 XXYY=          -1020.1739 XXZZ=           -629.5415 YYZZ=           -631.7621
 XXYZ=            -11.8545 YYXZ=            -10.7746 ZZXY=             33.5298
 N-N= 1.290540938519D+03 E-N=-4.277154928327D+03  KE= 7.286021186868D+02
 PrsmSu:  requested number of processors reduced to:  10 ShMem   1 Linda.
 Calling FoFJK, ICntrl=      2127 FMM=F ISym2X=0 I1Cent= 0 IOpClX= 0 NMat=1 NMatS=1 NMatT=0.
 ***** Axes restored to original set *****
 -------------------------------------------------------------------
 Center     Atomic                   Forces (Hartrees/Bohr)
 Number     Number              X              Y              Z
 -------------------------------------------------------------------
      1        6           0.002123648    0.001913599    0.023089460
      2        1          -0.004659184   -0.007131632   -0.023979614
      3        6          -0.011013789   -0.000751434    0.008197245
      4        6           0.005758441   -0.002392961   -0.010810795
      5        6           0.002609947    0.001575216    0.005214991
      6        6          -0.002207763   -0.001960909   -0.012158330
      7        1          -0.023334882    0.002165793    0.018318494
      8        6          -0.010118716   -0.000435542    0.009185287
      9        1          -0.005848109   -0.003109757   -0.016574911
     10        6          -0.013514731   -0.002088019    0.000542828
     11        1           0.005961529    0.003102193    0.015303376
     12        1           0.010074995   -0.000205780   -0.013309770
     13        1           0.016424134    0.002934350    0.002098255
     14        6           0.003097964    0.013695537   -0.005386606
     15        6          -0.012061633   -0.002014286   -0.000460024
     16        6           0.006972281   -0.003417489    0.003267167
     17        6          -0.004876236    0.010059667   -0.006269513
     18        1           0.021145821    0.006241382    0.001961210
     19        6           0.012485100    0.000622254    0.002457871
     20        1          -0.010545828    0.012577193   -0.008606054
     21        6           0.002689375    0.012173654   -0.005900851
     22        1           0.010319011   -0.010775227    0.007447195
     23        1          -0.016227427   -0.003342406   -0.001269459
     24        1          -0.006075759   -0.014242371    0.006098007
     25        6           0.008774981   -0.009665468    0.006115734
     26        6          -0.004115997    0.005063700   -0.009346777
     27        6          -0.000988095    0.001308237    0.005678574
     28        6          -0.000814037   -0.000867408   -0.012378986
     29        1           0.020036234   -0.013645973    0.013491669
     30        6           0.006972038   -0.008998446    0.007624578
     31        1           0.001281065   -0.003358898   -0.017163671
     32        6           0.007974273   -0.011099403   -0.001722424
     33        1          -0.001533011    0.003700778    0.016216286
     34        1          -0.007455035    0.009186191   -0.011646064
     35        1          -0.009310603    0.013183662    0.004675620
 -------------------------------------------------------------------
 Cartesian Forces:  Max     0.023979614 RMS     0.009558060

 GradGradGradGradGradGradGradGradGradGradGradGradGradGradGradGradGradGrad
 Berny optimization.
 Internal  Forces:  Max     0.028884700 RMS     0.007791138
 Search for a local minimum.
 Step number   1 out of a maximum of  197
 All quantities printed in internal units (Hartrees-Bohrs-Radians)
 Mixed Optimization -- RFO/linear search
 Second derivative matrix not updated -- first step.
     Eigenvalues ---    0.00635   0.00649   0.00659   0.01534   0.01538
     Eigenvalues ---    0.01538   0.02137   0.02141   0.02147   0.02170
     Eigenvalues ---    0.02172   0.02173   0.02181   0.02184   0.02185
     Eigenvalues ---    0.02200   0.02202   0.02202   0.02211   0.02212
     Eigenvalues ---    0.02212   0.02215   0.02215   0.02215   0.02215
     Eigenvalues ---    0.02217   0.02219   0.02220   0.02220   0.02226
     Eigenvalues ---    0.04554   0.06387   0.06643   0.15997   0.15998
     Eigenvalues ---    0.16000   0.16000   0.16000   0.16000   0.16000
     Eigenvalues ---    0.16000   0.16000   0.16000   0.16000   0.16000
     Eigenvalues ---    0.16000   0.16000   0.16000   0.18862   0.19352
     Eigenvalues ---    0.22000   0.22000   0.22000   0.22000   0.22000
     Eigenvalues ---    0.22000   0.23468   0.23477   0.23478   0.24974
     Eigenvalues ---    0.24999   0.25000   0.31251   0.31364   0.31465
     Eigenvalues ---    0.31542   0.33507   0.33609   0.33966   0.34062
     Eigenvalues ---    0.34072   0.34093   0.34256   0.34256   0.34262
     Eigenvalues ---    0.34263   0.34267   0.34269   0.34279   0.34282
     Eigenvalues ---    0.34289   0.42378   0.42459   0.42498   0.42554
     Eigenvalues ---    0.42578   0.42625   0.46312   0.46385   0.46449
     Eigenvalues ---    0.46730   0.46767   0.46826   0.47204   0.47214
     Eigenvalues ---    0.47215   0.47334   0.47336   0.474521000.00000
     Eigenvalues --- 1000.000001000.000001000.000001000.000001000.00000
     Eigenvalues --- 1000.000001000.000001000.000001000.000001000.00000
     Eigenvalues --- 1000.000001000.000001000.000001000.000001000.00000
     Eigenvalues --- 1000.000001000.000001000.000001000.000001000.00000
     Eigenvalues --- 1000.000001000.000001000.000001000.000001000.00000
     Eigenvalues --- 1000.000001000.000001000.000001000.000001000.00000
     Eigenvalues --- 1000.000001000.000001000.000001000.000001000.00000
     Eigenvalues --- 1000.000001000.000001000.000001000.000001000.00000
     Eigenvalues --- 1000.000001000.000001000.000001000.000001000.00000
     Eigenvalues --- 1000.000001000.000001000.000001000.000001000.00000
     Eigenvalues --- 1000.000001000.000001000.000001000.000001000.00000
     Eigenvalues --- 1000.000001000.000001000.000001000.000001000.00000
     Eigenvalues --- 1000.000001000.000001000.000001000.000001000.00000
     Eigenvalues --- 1000.000001000.000001000.000001000.000001000.00000
     Eigenvalues --- 1000.000001000.000001000.000001000.000001000.00000
     Eigenvalues --- 1000.000001000.000001000.000001000.000001000.00000
     Eigenvalues --- 1000.000001000.000001000.000001000.000001000.00000
     Eigenvalues --- 1000.000001000.00000
 RFO step:  Lambda=-4.19410496D-02 EMin= 6.35392601D-03
 Linear search not attempted -- first point.
 Maximum step size (   0.300) exceeded in Quadratic search.
    -- Step size scaled by   0.590
 Iteration  1 RMS(Cart)=  0.12546245 RMS(Int)=  0.00302062
 Iteration  2 RMS(Cart)=  0.00610313 RMS(Int)=  0.00028153
 Iteration  3 RMS(Cart)=  0.00001063 RMS(Int)=  0.00028147
 Iteration  4 RMS(Cart)=  0.00000000 RMS(Int)=  0.00028147
 Variable       Old X    -DE/DX   Delta X   Delta X   Delta X     New X
                                 (Linear)    (Quad)   (Total)
    R1        2.12237  -0.02508   0.00000  -0.04175  -0.04175   2.08061
    R2        2.84990   0.02387   0.00000   0.03943   0.03943   2.88932
    R3        2.85134   0.02335   0.00000   0.03865   0.03865   2.88999
    R4        2.85324   0.02284   0.00000   0.03791   0.03791   2.89115
    R5        2.63962   0.00078   0.00000   0.00107   0.00108   2.64070
    R6        2.63955  -0.00421   0.00000  -0.00487  -0.00485   2.63470
    R7        2.62572  -0.00440   0.00000  -0.00495  -0.00496   2.62077
    R8        2.08171  -0.02888   0.00000  -0.04522  -0.04522   2.03649
    R9        2.62784  -0.00251   0.00000  -0.00297  -0.00296   2.62487
   R10        2.07209  -0.01784   0.00000  -0.02751  -0.02751   2.04458
   R11        2.62857  -0.00568   0.00000  -0.00659  -0.00661   2.62196
   R12        2.06888  -0.01671   0.00000  -0.02565  -0.02565   2.04323
   R13        2.62727  -0.00916   0.00000  -0.01065  -0.01067   2.61660
   R14        2.06901  -0.01669   0.00000  -0.02562  -0.02562   2.04338
   R15        2.06862  -0.01682   0.00000  -0.02579  -0.02579   2.04282
   R16        2.63449  -0.00232   0.00000  -0.00257  -0.00256   2.63193
   R17        2.64443  -0.00220   0.00000  -0.00256  -0.00256   2.64187
   R18        2.62950  -0.00125   0.00000  -0.00135  -0.00135   2.62815
   R19        2.07388  -0.02205   0.00000  -0.03410  -0.03410   2.03978
   R20        2.62370  -0.00503   0.00000  -0.00581  -0.00581   2.61789
   R21        2.07226  -0.01851   0.00000  -0.02855  -0.02855   2.04371
   R22        2.62534  -0.00760   0.00000  -0.00873  -0.00873   2.61660
   R23        2.06900  -0.01667   0.00000  -0.02559  -0.02559   2.04340
   R24        2.62977  -0.00479   0.00000  -0.00565  -0.00565   2.62412
   R25        2.06882  -0.01662   0.00000  -0.02550  -0.02550   2.04332
   R26        2.06845  -0.01664   0.00000  -0.02552  -0.02552   2.04293
   R27        2.63846   0.00004   0.00000   0.00015   0.00017   2.63863
   R28        2.63873  -0.00420   0.00000  -0.00485  -0.00484   2.63389
   R29        2.62574  -0.00475   0.00000  -0.00539  -0.00538   2.62035
   R30        2.07996  -0.02635   0.00000  -0.04114  -0.04114   2.03882
   R31        2.62789  -0.00234   0.00000  -0.00273  -0.00274   2.62515
   R32        2.07173  -0.01752   0.00000  -0.02701  -0.02701   2.04471
   R33        2.62859  -0.00527   0.00000  -0.00612  -0.00613   2.62247
   R34        2.06878  -0.01670   0.00000  -0.02563  -0.02563   2.04315
   R35        2.62720  -0.00858   0.00000  -0.00994  -0.00996   2.61724
   R36        2.06891  -0.01660   0.00000  -0.02547  -0.02547   2.04343
   R37        2.06857  -0.01680   0.00000  -0.02577  -0.02577   2.04280
    A1        1.87460  -0.01005   0.00000  -0.05134  -0.05042   1.82418
    A2        1.82980   0.00358   0.00000  -0.00095  -0.00071   1.82909
    A3        1.88297  -0.00841   0.00000  -0.04724  -0.04644   1.83653
    A4        1.99527   0.00121   0.00000   0.02237   0.02049   2.01575
    A5        1.93124   0.01533   0.00000   0.05431   0.05316   1.98440
    A6        1.94259  -0.00355   0.00000   0.01130   0.00911   1.95170
    A7        2.12586   0.02315   0.00000   0.04682   0.04680   2.17266
    A8        2.07857  -0.01121   0.00000  -0.02264  -0.02266   2.05591
    A9        2.07873  -0.01193   0.00000  -0.02415  -0.02411   2.05462
   A10        2.10244   0.00454   0.00000   0.01024   0.01023   2.11266
   A11        2.07814   0.00443   0.00000   0.01450   0.01447   2.09261
   A12        2.10252  -0.00895   0.00000  -0.02458  -0.02461   2.07791
   A13        2.10036   0.00819   0.00000   0.01794   0.01797   2.11833
   A14        2.09434  -0.00470   0.00000  -0.01075  -0.01076   2.08358
   A15        2.08848  -0.00349   0.00000  -0.00720  -0.00721   2.08127
   A16        2.09638   0.00240   0.00000   0.00499   0.00497   2.10135
   A17        2.09143  -0.00112   0.00000  -0.00226  -0.00225   2.08918
   A18        2.09537  -0.00128   0.00000  -0.00273  -0.00271   2.09266
   A19        2.09783  -0.00021   0.00000  -0.00139  -0.00139   2.09644
   A20        2.09098   0.00028   0.00000   0.00122   0.00122   2.09221
   A21        2.09437  -0.00008   0.00000   0.00017   0.00017   2.09454
   A22        2.09063  -0.00300   0.00000  -0.00763  -0.00767   2.08296
   A23        2.09616   0.00153   0.00000   0.00390   0.00392   2.10007
   A24        2.09640   0.00147   0.00000   0.00374   0.00375   2.10015
   A25        2.13986   0.00769   0.00000   0.01549   0.01547   2.15533
   A26        2.06578   0.00018   0.00000   0.00028   0.00027   2.06605
   A27        2.07667  -0.00789   0.00000  -0.01598  -0.01597   2.06071
   A28        2.10129   0.00345   0.00000   0.00789   0.00790   2.10919
   A29        2.09309  -0.00005   0.00000   0.00093   0.00093   2.09402
   A30        2.08880  -0.00339   0.00000  -0.00883  -0.00883   2.07997
   A31        2.10360   0.00476   0.00000   0.01034   0.01035   2.11395
   A32        2.08420  -0.00137   0.00000  -0.00223  -0.00223   2.08197
   A33        2.09537  -0.00339   0.00000  -0.00812  -0.00813   2.08724
   A34        2.09940   0.00111   0.00000   0.00229   0.00228   2.10168
   A35        2.08877  -0.00049   0.00000  -0.00095  -0.00095   2.08782
   A36        2.09502  -0.00062   0.00000  -0.00134  -0.00133   2.09369
   A37        2.09643   0.00080   0.00000   0.00108   0.00108   2.09751
   A38        2.09204  -0.00040   0.00000  -0.00056  -0.00056   2.09149
   A39        2.09471  -0.00039   0.00000  -0.00052  -0.00052   2.09419
   A40        2.08896  -0.00222   0.00000  -0.00564  -0.00566   2.08330
   A41        2.09787   0.00106   0.00000   0.00268   0.00269   2.10056
   A42        2.09636   0.00116   0.00000   0.00296   0.00296   2.09932
   A43        2.11796   0.01821   0.00000   0.03683   0.03676   2.15472
   A44        2.08443  -0.00760   0.00000  -0.01535  -0.01540   2.06903
   A45        2.08078  -0.01061   0.00000  -0.02155  -0.02154   2.05924
   A46        2.10154   0.00416   0.00000   0.00932   0.00926   2.11080
   A47        2.07783   0.00371   0.00000   0.01240   0.01229   2.09012
   A48        2.10365  -0.00782   0.00000  -0.02130  -0.02140   2.08225
   A49        2.09903   0.00728   0.00000   0.01603   0.01604   2.11506
   A50        2.09501  -0.00430   0.00000  -0.00994  -0.00995   2.08506
   A51        2.08915  -0.00298   0.00000  -0.00610  -0.00611   2.08304
   A52        2.09604   0.00222   0.00000   0.00456   0.00455   2.10059
   A53        2.09182  -0.00103   0.00000  -0.00205  -0.00206   2.08977
   A54        2.09532  -0.00119   0.00000  -0.00250  -0.00251   2.09281
   A55        2.09786  -0.00030   0.00000  -0.00138  -0.00141   2.09645
   A56        2.09109   0.00035   0.00000   0.00127   0.00128   2.09237
   A57        2.09424  -0.00005   0.00000   0.00012   0.00013   2.09437
[...]
 223,0.00017699,0.00006212,0.00006587,0.00002386,-0.00005515,-0.0000363
 2,-0.00005988,-0.00002539,-0.00004291,0.00001568,-0.00001273,0.0000034
 8,0.00000165,-0.00000194,0.00002479,-0.00006287,-0.00004223,-0.0000338
 6,0.00001558,0.00005316,0.00003214,0.00000395,-0.00000407,0.00001502,-
 0.00000421,0.00000996,0.00003187,0.00000948,-0.00000098,0.00001143,-0.
 00000136,-0.00814959,-0.01223228,0.01450344,0.01449665,0.01358248,-0.0
 2310347,-0.01187123,0.02581804,0.02274663,-0.10999900,0.06090930,-0.00
 286066,0.00444369,0.00517340,0.00431809,-0.14113500,0.00587739,0.11762
 155,0.00498113,0.00554168,0.00351859,0.36949616,-0.00103795,0.00058035
 ,0.00049288,-0.00009434,-0.00025975,-0.00050979,-0.00038047,0.00027261
 ,-0.00021455,0.00008436,0.00008870,-0.00016442,0.00035446,0.00014170,-
 0.00002791,0.00021920,-0.00008544,-0.00011868,-0.00000906,-0.00031255,
 -0.00019060,-0.00013068,-0.00011394,-0.00010287,-0.00002231,0.00000363
 ,0.00000722,0.00003991,0.00011326,0.00014819,0.00005865,0.00001506,0.0
 0001410,0.00002981,-0.00001757,0.00001297,0.00001802,0.00000050,-0.000
 00535,0.00042073,0.00017598,0.00008384,-0.00001196,0.00013173,-0.00024
 614,0.00001218,-0.00032918,0.00001482,-0.00017075,-0.00014893,-0.00001
 006,-0.00001833,0.00001927,-0.00001674,0.00002232,0.00024104,-0.000155
 18,0.00001237,0.00001773,0.00004016,0.00014968,-0.00006345,0.00020759,
 0.00000430,-0.00002320,0.00002066,-0.00001706,-0.00002866,-0.00001869,
 -0.00000284,-0.00002365,0.00000359,-0.01206853,-0.02832190,0.04590261,
 0.04086543,-0.05892803,-0.02283478,-0.00101952,0.05215579,-0.03615666,
 0.02532233,-0.29111217,0.14456378,0.00521567,-0.00148936,-0.00134681,0
 .04079839,-0.15165488,-0.02168641,0.00573315,-0.00307640,-0.00080814,-
 0.22266436,0.72748675,0.00179884,-0.00016715,-0.00160463,0.00050058,-0
 .00025159,0.00100689,-0.00001446,-0.00138229,0.00044002,0.00032990,-0.
 00031753,-0.00000283,-0.00027564,-0.00012161,0.00039908,-0.00045494,0.
 00012838,0.00023228,0.00011151,0.00025565,0.00005588,0.00029182,0.0002
 6464,0.00012205,-0.00001253,-0.00000722,0.00001028,0.00011653,-0.00021
 821,-0.00032430,0.00003716,-0.00001678,0.00004408,0.00001988,0.0000390
 4,-0.00003549,0.00000255,0.00000961,0.00000525,-0.00031436,-0.00022954
 ,-0.00051550,-0.00012098,-0.00038325,0.00028472,-0.00003562,0.00043332
 ,0.00012010,0.00025758,0.00027002,-0.00002604,0.00001660,-0.00002001,0
 .00000076,-0.00005839,-0.00033472,0.00030272,0.00003682,-0.00000384,-0
 .00009934,-0.00027662,-0.00000818,-0.00024098,0.00000419,-0.00000877,-
 0.00000836,0.00000640,-0.00000966,0.00000725,0.00000032,0.00000530,-0.
 00000767,0.01301406,0.04716571,-0.08282557,-0.04899746,0.03675133,0.08
 059609,0.04801978,-0.09631288,-0.00402933,0.03139028,0.06957620,-0.216
 24447,0.00456344,-0.00171974,0.00126945,0.08351609,0.05358882,-0.31531
 839,0.00314498,-0.00014705,0.00246738,-0.20230932,-0.05538025,0.661845
 62,-0.00023420,-0.00021613,0.00061789,-0.00018530,0.00021359,0.0000874
 6,0.00014871,0.00009685,0.00010591,-0.00009948,0.00005673,0.00001439,-
 0.00010539,-0.00003823,-0.00002394,0.00001016,0.00000972,-0.00000029,0
 .00004028,-0.00000550,0.00004781,0.00000092,0.00000605,0.00000333,0.00
 000840,-0.00001665,-0.00001327,-0.00002256,-0.00000615,-0.00000398,-0.
 00002828,-0.00001138,-0.00000617,-0.00001156,0.00000110,-0.00000015,-0
 .00000713,-0.00000391,0.00000169,-0.00004288,-0.00022379,0.00003882,0.
 00004722,0.00008031,-0.00005030,0.00003078,-0.00001471,-0.00000602,-0.
 00001976,-0.00002831,-0.00000839,-0.00001684,-0.00000157,0.00001205,-0
 .00001280,0.00002201,-0.00001798,-0.00001358,-0.00000468,-0.00002101,0
 .00003058,0.00001719,0.00000563,-0.00000990,0.00002024,-0.00000742,0.0
 0000260,-0.00000040,-0.00000312,0.00000189,0.00000809,-0.00000082,0.00
 483089,0.00546566,0.00288841,-0.00177083,-0.00268318,0.01801213,-0.000
 64981,0.00009503,-0.00075733,-0.10658436,0.00270064,0.12027700,-0.0031
 6416,-0.00161916,-0.00234870,0.00655091,0.00339379,0.00185378,-0.00089
 168,-0.00043722,-0.00035603,0.00690520,0.00222427,-0.00485943,0.098448
 15,0.00019701,0.00047679,-0.00108112,0.00014870,-0.00020737,-0.0001791
 3,-0.00004234,-0.00014737,-0.00006357,0.00002207,0.00001223,0.00002771
 ,0.00007286,-0.00000369,0.00001406,0.00000154,0.00000541,0.00000204,0.
 00000382,0.00000602,-0.00000516,0.00001277,0.00000689,-0.00001032,-0.0
 0000694,0.00000194,0.00001006,0.00001294,-0.00000248,-0.00000464,0.000
 00312,0.00000382,0.00000254,0.00000932,0.00000033,-0.00000477,0.000004
 82,-0.00000027,0.00000120,0.00001220,0.00019269,-0.00001141,-0.0000182
 1,0.00000823,0.00003085,-0.00002610,-0.00004070,0.00002006,-0.00001824
 ,-0.00001544,0.00002249,0.00001211,0.00000233,-0.00001479,-0.00001208,
 0.00001657,0.00000138,0.00001611,0.00000144,-0.00000880,-0.00001577,-0
 .00003739,0.00003717,0.00000869,-0.00001592,-0.00000114,-0.00000381,-0
 .00001549,-0.00000874,0.00000396,-0.00001151,-0.00000409,0.00558021,-0
 .00319346,-0.00042763,0.01287629,0.00637179,-0.02818575,0.00014385,-0.
 00134067,-0.00000459,0.00276189,-0.07008188,0.01417881,-0.00224909,0.0
 0046612,-0.00041487,0.00355289,-0.00344217,0.00430057,-0.00042454,-0.0
 0008614,-0.00021192,-0.01350844,0.00503407,0.02914495,-0.00685015,0.06
 569924,-0.00011031,0.00050304,-0.00039157,0.00009562,-0.00010630,-0.00
 009226,-0.00006125,-0.00017736,-0.00004309,0.00005499,0.00001468,0.000
 03277,0.00007890,0.00001335,0.00004120,-0.00001823,-0.00002064,-0.0000
 1677,-0.00002564,-0.00000606,-0.00004518,0.00001699,0.00000916,-0.0000
 0673,-0.00001236,0.00000381,0.00000441,0.00002213,-0.00000693,-0.00001
 059,0.00001274,0.00001177,0.00000593,0.00001630,-0.00000176,-0.0000096
 3,0.00001544,0.00000074,-0.00000232,0.00011098,0.00009973,-0.00005060,
 -0.00003699,-0.00002094,-0.00002308,-0.00001500,-0.00006654,0.00002245
 ,-0.00002729,-0.00000853,0.00000754,-0.00000173,0.00001026,-0.00001304
 ,0.00000191,0.00003826,0.00000520,0.00002503,0.00001609,-0.00000355,-0
 .00000487,-0.00003640,0.00004779,0.00000788,-0.00001803,0.00000730,-0.
 00001234,-0.00002483,-0.00001532,0.00000113,-0.00002106,0.00000068,0.0
 0334359,-0.00083995,0.00235364,0.00300504,0.00497774,-0.00560087,-0.00
 074805,-0.00012909,0.00076369,0.12012854,0.01398857,-0.31706724,-0.001
 87176,-0.00136751,0.00026070,0.00162430,0.00475165,0.00096823,-0.00036
 400,-0.00020425,-0.00030877,0.01019331,-0.00405583,-0.01210635,-0.1334
 9753,-0.01687865,0.33189991,0.00003505,0.00050142,-0.00060501,0.000057
 52,-0.00005863,-0.00002978,0.00005137,0.00011417,0.00002498,-0.0000438
 2,-0.00002206,0.00000900,-0.00004825,0.00000083,-0.00001703,-0.0000051
 9,-0.00001347,0.00002085,0.00001567,0.00003697,-0.00001436,-0.00000183
 ,-0.00001204,0.00001141,0.00000481,0.00000172,-0.00001339,-0.00003301,
 -0.00001232,0.00000396,-0.00001706,0.00000409,-0.00001778,-0.00000718,
 0.00000252,-0.00000130,-0.00000616,0.00000641,-0.00000416,-0.00029422,
 0.00014973,0.00007348,0.00002225,0.00001139,0.00000494,0.00004060,0.00
 005565,0.00002006,0.00004214,0.00002766,-0.00001686,-0.00001293,0.0000
 0493,0.00000648,-0.00000515,-0.00005522,0.00001459,-0.00000118,-0.0000
 0419,-0.00000377,-0.00003422,0.00002433,-0.00004115,0.00000012,0.00000
 760,-0.00000850,0.00000214,0.00000044,0.00000360,-0.00000029,0.0000046
 7,-0.00000079,0.00458166,0.00504973,0.00454473,-0.00098740,-0.00013188
 ,0.00026837,0.00389478,0.01611998,-0.01198836,0.00489005,0.00266071,0.
 00552691,-0.00085343,-0.00037146,-0.00049251,-0.05885123,0.03199492,-0
 .00929491,-0.00323948,-0.00232568,-0.00189706,0.00699049,-0.01326713,0
 .00957846,0.00001455,-0.00062377,0.00039014,0.04682402,-0.00027712,-0.
 00068898,0.00103201,-0.00000989,-0.00000447,-0.00006375,-0.00017859,-0
 .00012130,-0.00004770,0.00005123,0.00004103,0.00002511,0.00010658,0.00
 004590,0.00000112,-0.00000138,-0.00001013,-0.00001637,-0.00003198,-0.0
 0002651,-0.00002925,0.00001182,0.00000313,-0.00002146,-0.00001410,-0.0
 0000891,0.00001106,0.00003022,0.00000658,-0.00000987,0.00001418,0.0000
 0247,0.00001536,0.00002158,-0.00001171,-0.00000472,0.00001778,-0.00000
 306,0.00000091,0.00029495,-0.00005254,-0.00026264,-0.00007059,-0.00009
 826,0.00001265,0.00001410,-0.00006459,0.00005952,-0.00001282,0.0000265
 6,0.00000597,0.00000046,0.00000527,-0.00000569,0.00001102,0.00001014,0
 .00002343,0.00001327,0.00001472,-0.00000259,-0.00001793,-0.00003299,0.
 00000454,0.00000308,-0.00001539,0.00001398,-0.00001909,-0.00001806,0.0
 0000027,-0.00000394,-0.00001487,0.00000410,0.00552285,-0.00125262,-0.0
 0171332,-0.00000645,0.00023737,-0.00111167,0.00057504,-0.01635784,0.02
 015822,0.00240890,0.00267319,0.00064388,-0.00042406,-0.00023344,-0.000
 09129,0.03203772,-0.26694827,0.14305013,-0.00178930,0.00032763,-0.0015
 2011,0.00218636,0.00436972,-0.00361377,0.00001223,-0.00002114,-0.00009
 705,-0.03829250,0.27794146,-0.00002116,-0.00053376,0.00034986,-0.00004
 798,0.00003685,-0.00002625,-0.00003690,0.00009113,0.00002057,-0.000020
 75,-0.00001059,-0.00001033,-0.00000207,0.00000323,-0.00004157,0.000021
 39,0.00000250,0.00002388,0.00002616,0.00001884,-0.00000378,-0.00001236
 ,-0.00001203,-0.00000501,0.00000322,-0.00000350,-0.00000187,-0.0000168
 8,0.00000557,0.00001498,-0.00000979,0.00000158,-0.00001361,-0.00000453
 ,-0.00000091,0.00000376,-0.00000823,0.00000302,0.,0.00002668,-0.000035
 20,-0.00008797,-0.00000665,-0.00001054,0.00003872,-0.00000151,0.000014
 93,0.00002281,0.00000810,0.00001658,0.00001378,0.00000912,-0.00000651,
 -0.00000591,-0.00001568,-0.00002155,0.00001526,-0.00000078,-0.00000836
 ,-0.00001735,-0.00002007,-0.00000539,-0.00001227,0.00000112,-0.0000013
 2,-0.00000560,0.00000260,-0.00000210,0.00000079,0.00000249,0.00000246,
 -0.00000452,0.00433867,-0.00133837,0.00126424,0.00024682,-0.00107411,-
 0.00045140,0.00322809,-0.01322713,0.01167516,0.00571649,0.00017446,-0.
 00384127,-0.00045706,-0.00010954,-0.00017569,-0.00939721,0.14327312,-0
 .16819874,-0.00234533,-0.00041075,0.00026895,-0.00551452,0.02956548,-0
 .01144645,-0.00022690,0.00132327,-0.00083922,0.00624049,-0.15619807,0.
 17113097,-0.00082204,-0.00026779,-0.00033309,0.00003008,-0.00000100,-0
 .00015777,-0.00000518,0.00015268,0.00010036,-0.00004577,-0.00000701,0.
 00000291,-0.00006738,-0.00002555,-0.00002394,0.00002350,0.00001030,0.0
 0002128,0.00004019,0.00002515,0.00002047,-0.00001100,-0.00000525,0.000
 00633,0.00000557,-0.00000441,-0.00000692,-0.00001897,0.00000132,0.0000
 0796,-0.00001873,-0.00000297,-0.00001312,-0.00001018,0.00000160,0.0000
 0248,-0.00001039,0.00000203,0.00000052,-0.00004488,0.00001315,0.000007
 65,0.00001839,0.00000998,0.00003009,-0.00002022,0.00002808,0.00002486,
 0.00000507,-0.00001015,0.00000697,0.00000062,-0.00000557,-0.00000523,-
 0.00002002,-0.00001006,-0.00000042,-0.00000172,-0.00000565,-0.00001621
 ,0.00000409,0.00000934,-0.00000802,-0.00000460,0.00000773,-0.00000578,
 0.00000608,-0.00000134,-0.00000143,0.00000281,0.00000607,-0.00000364,-
 0.00035694,-0.00093025,-0.00034778,0.00676644,0.00266325,0.00218051,0.
 00555572,0.00169168,0.00507018,0.00336287,0.00055052,0.00339110,-0.000
 12686,0.00001397,0.00007709,-0.00191589,0.01304748,0.00226825,-0.00036
 794,0.00051054,0.00014256,-0.13481461,0.12933003,0.06097195,-0.0032007
 5,-0.00165766,-0.00233761,-0.00302520,-0.00218364,-0.00170508,0.129087
 85,-0.00043193,-0.00005066,-0.00014409,0.00004610,-0.00002144,-0.00011
 068,-0.00007866,-0.00000296,0.00001922,0.00002719,0.00002904,0.0000364
 7,0.00001793,0.00001060,0.00001664,-0.00001517,-0.00002068,-0.00002454
 ,-0.00002888,-0.00002558,-0.00002471,0.00000938,0.00000634,0.00000425,
 -0.00000676,0.00000104,0.00000147,0.00001368,-0.00000429,-0.00000832,0
 .00000654,0.00000645,0.00000675,0.00000969,-0.00000498,-0.00000649,0.0
 0001387,-0.00000059,-0.00000227,0.00006450,0.00003719,-0.00004540,-0.0
 0002490,-0.00006080,-0.00003775,0.00003323,-0.00001487,0.00002235,0.00
 000782,0.00002841,-0.00002666,-0.00002169,0.00001395,0.00000448,0.0000
 1828,0.00000708,0.00001568,0.00000867,0.00001601,0.00000513,-0.0000154
 8,-0.00000535,0.00000148,0.00000309,-0.00000763,0.00001190,-0.00001347
 ,-0.00001384,-0.00000620,-0.00000429,-0.00001548,0.00000494,-0.0008182
 7,0.00009055,0.00069753,0.00235604,-0.00187971,0.00541316,0.00193950,0
 .00249843,0.00185011,0.01637419,-0.01601657,-0.01445174,0.00067220,-0.
 00096961,-0.00058226,-0.00245854,0.00577503,0.00456419,-0.00009558,0.0
 0003026,0.00008680,0.12920023,-0.25485883,-0.07697893,-0.00226238,0.00
 035714,-0.00035115,-0.00158952,0.00027992,-0.00152331,-0.14295659,0.26
 478644,-0.00040138,-0.00019107,-0.00008730,0.00001655,0.00006859,-0.00
 000264,-0.00005827,0.00000615,0.00005626,0.00001225,-0.00001710,0.0000
 1312,-0.00001583,-0.00000417,0.00001582,-0.00001212,-0.00000397,-0.000
 00098,0.00000493,0.00001501,-0.00001552,0.00000180,0.00000617,0.000011
 18,-0.00000398,0.00000647,-0.00000190,0.00000391,-0.00000200,-0.000009
 04,0.00000099,0.00000237,0.00000334,0.00000340,-0.00000187,-0.00000452
 ,0.00000636,0.00000052,-0.00000021,0.00005329,0.00003588,-0.00000154,-
 0.00001844,-0.00002554,0.00004038,-0.00003798,-0.00001828,0.00001425,-
 0.00000659,-0.00001633,0.00001116,0.00000374,-0.00000026,-0.00000898,-
 0.00000089,0.00000605,0.00000061,0.00001317,0.00000775,-0.00000180,0.0
 0000638,-0.00000920,0.00000473,-0.00000053,-0.00000281,0.00000250,-0.0
 0000322,-0.00000590,-0.00000146,0.00000001,-0.00000289,0.00000148,-0.0
 0026932,0.00066627,-0.00107442,0.00239505,0.00481411,-0.00064220,0.004
 84267,0.00243118,-0.00413274,-0.01174779,0.01880387,0.01218289,-0.0005
 3724,0.00075278,0.00033633,0.01744734,-0.02870816,-0.00445051,0.000768
 84,-0.00129856,-0.00053136,0.06095370,-0.07702804,-0.10437418,-0.00175
 752,-0.00159602,0.00022473,-0.00229577,-0.00025295,0.00034509,-0.06936
 751,0.08156194,0.10207743||0.00000490,-0.00001080,0.00000068,-0.000002
 44,-0.00000103,-0.00000622,-0.00000542,0.00002265,0.00002348,-0.000020
 99,-0.00001520,-0.00000997,0.00002829,-0.00000976,-0.00000653,0.000025
 04,-0.00000325,-0.00001291,0.00000275,0.00000104,0.00000035,-0.0000236
 2,-0.00000530,-0.00001340,-0.00000305,-0.00000030,-0.00000061,-0.00000
 458,0.00001254,0.00002410,-0.00000158,0.00000155,0.00000223,0.00000324
 ,-0.00000051,-0.00000041,0.00000167,-0.00000117,-0.00000220,0.00000964
 ,0.00001144,0.00001985,0.00000243,0.00002054,-0.00002626,-0.00001643,-
 0.00002891,-0.00000585,-0.00002143,-0.00002581,-0.00000121,0.00000065,
 -0.00000012,0.00000322,-0.00000057,0.00002545,-0.00002052,0.00000088,0
 .00000190,0.00000081,0.00002460,0.00000445,0.00002500,0.00000282,0.000
 00155,0.00000155,-0.00000130,-0.00000347,0.00000199,-0.00000286,-0.000
 00205,-0.00000301,-0.00000049,0.00000264,0.00000561,-0.00000232,0.0000
 0327,0.00000022,0.00000042,-0.00000423,0.00000226,0.00000347,-0.000000
 32,-0.00000156,-0.00000096,-0.00000121,0.00000029,0.00000117,0.0000013
 7,0.00000615,-0.00000046,0.00000005,-0.00000202,-0.00000077,-0.0000000
 2,-0.00000531,-0.00000082,-0.00000005,0.00000140,-0.00000068,0.0000013
 9,-0.00000159,-0.00000120,0.00000169,0.00000041|||@


                                                                                    A
                                                                                  AA
                                                                                 AAA
                                                                                AAAA
                                                                               AAAAA
                                                                              AAAAAA   KKKKKKKK
                                                                             AAAAAAA   KKKKKKKK
                                                                            AAAAAAAA   KKKKKKKK
                                       ZZZZZZZZZZZZZZZZZZZZ                AAAA  AAA   KKKKKKKK
                                       ZZZZZZZZZZZZZZZZZZZ                AAAA   AAA   KKKKKKKK          K
                                       ZZZZZZZZZZZZZZZZZZ                AAAA    AAA   KKKKKKKK         KKK
                                       ZZZZZZZZZZZZZZZZZ                AAAA     AAA   KKKKKKKK        KKKKK
                                       ZZZZZZZZZZZZZZZZ                AAAA      AAA   KKKKKKKK       KKKKKKK
                                                ZZZZZZ                AAAA       AAA   KKKKKKKK      KKKKKKK
                                               ZZZZZZ                AAAA        AAA   KKKKKKKK     KKKKKKK
                                              ZZZZZZ                AAAA         AAA   KKKKKKKK    KKKKKKK
                                             ZZZZZZ                AAAA          AAA   KKKKKKKK   KKKKKKK
                                            ZZZZZZ                AAAAAAAAAAAAAAAAAA   KKKKKKKK  KKKKKKK
                                           ZZZZZZ                AAAAAAAAAAAAAAAAAAA   KKKKKKKK KKKKKKK
                                          ZZZZZZ                AAAAAAAAAAAAAAAAAAAA   KKKKKKKKKKKKKKK
                                         ZZZZZZ                AAAAAAAAAAAAAAAAAAAAA   KKKKKKKKKKKKKK
                                        ZZZZZZ                AAAAAA        AAAAAAAA   KKKKKKKKKKKKK
                                       ZZZZZZ                AAAAAA         AAAAAAAA   KKKKKKKKKKKK
                                      ZZZZZZ                AAAAAA          AAAAAAAA   KKKKKKKKKKK
                                     ZZZZZZ                AAAAAA           AAAAAAAA   KKKKKKKKKKKK
                                    ZZZZZZ                AAAAAA            AAAAAAAA   KKKKKKKKKKKKK
                                   ZZZZZZ                AAAAAA             AAAAAAAA   KKKKKKKKKKKKKK
                                  ZZZZZZ                AAAAAA              AAAAAAAA   KKKKKKKKKKKKKKK
                                 ZZZZZZ                AAAAAA               AAAAAAAA   KKKKK KKKKKKKKKK
                                ZZZZZZ                AAAAAA                AAAAAAAA   KKKKK  KKKKKKKKKK
                               ZZZZZZ                AAAAAA                            KKKKK   KKKKKKKKKK
                              ZZZZZZ                AAAAAA                             KKKKK    KKKKKKKKKK
                             ZZZZZZ                                                    KKKKK     KKKKKKKKKK
                            ZZZZZZ                                                     KKKKK      KKKKKKKKKK
                           ZZZZZZ                                                      KKKKK       KKKKKKKKKK
                          ZZZZZZ                                                       KKKKK        KKKKKKKKKK
                         ZZZZZZZZZZZZZZZZZZZZZZZZZZZZZZZZZZZZZZZZ                      KKKKK         KKKKKKKKKK
                        ZZZZZZZZZZZZZZZZZZZZZZZZZZZZZZZZZZZZZZZZZ                      KKKKK          KKKKKKKKKK
                       ZZZZZZZZZZZZZZZZZZZZZZZZZZZZZZZZZZZZZZZZZZ                      KKKKK           KKKKKKKKKK
                       ZZZZZZZZZZZZZZZZZZZZZZZZZZZZZZZZZZZZZZZZZZ                      KKKKK            KKKKKKKKKK
                       ZZZZZZZZZZZZZZZZZZZZZZZZZZZZZZZZZZZZZZZZZZ                      KKKKK             KKKKKKKKKK
                       ZZZZZZZZZZZZZZZZZZZZZZZZZZZZZZZZZZZZZZZZZZ                      KKKKK              KKKKKKKKKK
                       ZZZZZZZZZZZZZZZZZZZZZZZZZZZZZZZZZZZZZZZZZZ                      KKKKK               KKKKKKKKKK
                       ZZZZZZZZZZZZZZZZZZZZZZZZZZZZZZZZZZZZZZZZZZ                      KKKKK                KKKKKKKKKK
                       ZZZZZZZZZZZZZZZZZZZZZZZZZZZZZZZZZZZZZZZZZZ                      KKKKK
                                                                                       KKKKK
                                                                                          (J.P.)
 Job cpu time:  0 days  0 hours  6 minutes 23.0 seconds.
 File lengths (MBytes):  RWF=    350 Int=      0 D2E=      0 Chk=      7 Scr=      1
 Normal termination of Gaussian 09 at Tue Sep 07 02:00:03 2021.
