 Entering Link 1 = b:\programy\g09w\l1.exe PID=     14632.
  
 Copyright (c) 1988,1990,1992,1993,1995,1998,2003,2009, Gaussian, Inc.
                  All Rights Reserved.
  
 This is part of the Gaussian(R) 09 program.  It is based on
 the Gaussian(R) 03 system (copyright 2003, Gaussian, Inc.),
 the Gaussian(R) 98 system (copyright 1998, Gaussian, Inc.),
 the Gaussian(R) 94 system (copyright 1995, Gaussian, Inc.),
 the Gaussian 92(TM) system (copyright 1992, Gaussian, Inc.),
 the Gaussian 90(TM) system (copyright 1990, Gaussian, Inc.),
 the Gaussian 88(TM) system (copyright 1988, Gaussian, Inc.),
 the Gaussian 86(TM) system (copyright 1986, Carnegie Mellon
 University), and the Gaussian 82(TM) system (copyright 1983,
 Carnegie Mellon University). Gaussian is a federally registered
 trademark of Gaussian, Inc.
  
 This software contains proprietary and confidential information,
 including trade secrets, belonging to Gaussian, Inc.
  
 This software is provided under written license and may be
 used, copied, transmitted, or stored only in accord with that
 written license.
  
 The following legend is applicable only to US Government
 contracts under FAR:
  
                    RESTRICTED RIGHTS LEGEND
  
 Use, reproduction and disclosure by the US Government is
 subject to restrictions as set forth in subparagraphs (a)
 and (c) of the Commercial Computer Software - Restricted
 Rights clause in FAR 52.227-19.
  
 Gaussian, Inc.
 340 Quinnipiac St., Bldg. 40, Wallingford CT 06492
  
  
 ---------------------------------------------------------------
 Warning -- This program may not be used in any manner that
 competes with the business of Gaussian, Inc. or will provide
 assistance to any competitor of Gaussian, Inc.  The licensee
 of this program is prohibited from giving any competitor of
 Gaussian, Inc. access to this program.  By using this program,
 the user acknowledges that Gaussian, Inc. is engaged in the
 business of creating and licensing software in the field of
 computational chemistry and represents and warrants to the
 licensee that it is not a competitor of Gaussian, Inc. and that
 it will not use this program in any manner prohibited above.
 ---------------------------------------------------------------
  

 Cite this work as:
 Gaussian 09, Revision A.02,
 M. J. Frisch, G. W. Trucks, H. B. Schlegel, G. E. Scuseria, 
 M. A. Robb, J. R. Cheeseman, G. Scalmani, V. Barone, B. Mennucci, 
 G. A. Petersson, H. Nakatsuji, M. Caricato, X. Li, H. P. Hratchian, 
 A. F. Izmaylov, J. Bloino, G. Zheng, J. L. Sonnenberg, M. Hada, 
 M. Ehara, K. Toyota, R. Fukuda, J. Hasegawa, M. Ishida, T. Nakajima, 
 Y. Honda, O. Kitao, H. Nakai, T. Vreven, J. A. Montgomery, Jr., 
 J. E. Peralta, F. Ogliaro, M. Bearpark, J. J. Heyd, E. Brothers, 
 K. N. Kudin, V. N. Staroverov, R. Kobayashi, J. Normand, 
 K. Raghavachari, A. Rendell, J. C. Burant, S. S. Iyengar, J. Tomasi, 
 M. Cossi, N. Rega, J. M. Millam, M. Klene, J. E. Knox, J. B. Cross, 
 V. Bakken, C. Adamo, J. Jaramillo, R. Gomperts, R. E. Stratmann, 
 O. Yazyev, A. J. Austin, R. Cammi, C. Pomelli, J. W. Ochterski, 
 R. L. Martin, K. Morokuma, V. G. Zakrzewski, G. A. Voth, 
 P. Salvador, J. J. Dannenberg, S. Dapprich, A. D. Daniels, 
 O. Farkas, J. B. Foresman, J. V. Ortiz, J. Cioslowski, 
 and D. J. Fox, Gaussian, Inc., Wallingford CT, 2009.
 
 ******************************************
 Gaussian 09:  IA32W-G09RevA.02 11-Jun-2009
                06-Sep-2021 
 ******************************************
 %nprocshared=12
 Will use up to   12 processors via shared memory.
 ----------------------------------------------
 # opt freq=noraman hf/6-311g geom=connectivity
 ----------------------------------------------
 1/18=20,19=15,38=1,57=2/1,3;
 2/9=110,12=2,17=6,18=5,40=1/2;
 3/5=4,6=6,11=9,16=1,25=1,30=1,71=1/1,2,3;
 4//1;
 5/5=2,38=5/2;
 6/7=2,8=2,9=2,10=2,28=1/1;
 7//1,2,3,16;
 1/18=20,19=15/3(2);
 2/9=110/2;
 99//99;
 2/9=110/2;
 3/5=4,6=6,11=9,16=1,25=1,30=1,71=1/1,2,3;
 4/5=5,16=3/1;
 5/5=2,38=5/2;
 7//1,2,3,16;
 1/18=20,19=15/3(-5);
 2/9=110/2;
 6/7=2,8=2,9=2,10=2,19=2,28=1/1;
 99/9=1/99;
 -----
 M0001
 -----
 Symbolic Z-matrix:
 Charge =  0 Multiplicity = 1
 C                    -0.30749  -0.17828   0.71154 
 H                    -0.74137  -0.42944   1.71608 
 C                    -0.47222   1.30925   0.5204 
 C                    -0.51512   2.13347   1.64831 
 C                    -0.57975   1.88395  -0.74676 
 C                    -0.66199   3.50832   1.50778 
 H                    -0.43002   1.69625   2.64985 
 C                    -0.72926   3.25954  -0.88409 
 H                    -0.55556   1.24102  -1.63652 
 C                    -0.76982   4.07411   0.24181 
 H                    -0.69333   4.14647   2.3968 
 H                    -0.81637   3.69987  -1.88264 
 H                    -0.88729   5.15694   0.13267 
 C                     1.14574  -0.58222   0.74609 
 C                     1.53798  -1.61768   1.59881 
 C                     2.10589   0.04504  -0.04879 
 C                     2.8681   -2.0171    1.65246 
 H                     0.79439  -2.12091   2.22767 
 C                     3.43633  -0.35518   0.00878 
 H                     1.80575   0.8652   -0.71425 
 C                     3.81987  -1.38675   0.85818 
 H                     3.16613  -2.82989   2.32268 
 H                     4.18227   0.14592  -0.61662 
 H                     4.86743  -1.70115   0.90266 
 C                    -1.08553  -0.96608  -0.31338 
 C                    -0.52456  -1.34925  -1.53247 
 C                    -2.40829  -1.31841  -0.03121 
 C                    -1.27294  -2.07369  -2.45357 
 H                     0.51693  -1.08331  -1.75653 
 C                    -3.15464  -2.04033  -0.9549 
 H                    -2.86265  -1.02283   0.92156 
 C                    -2.58872  -2.41975  -2.16746 
 H                    -0.82217  -2.37234  -3.40555 
 H                    -4.19049  -2.31095  -0.72601 
 H                    -3.1772   -2.9898   -2.89339 
 

 GradGradGradGradGradGradGradGradGradGradGradGradGradGradGradGradGradGrad
 Berny optimization.
 Initialization pass.
                           ----------------------------
                           !    Initial Parameters    !
                           ! (Angstroms and Degrees)  !
 --------------------------                            --------------------------
 ! Name  Definition              Value          Derivative Info.                !
 --------------------------------------------------------------------------------
 ! R1    R(1,2)                  1.1227         estimate D2E/DX2                !
 ! R2    R(1,3)                  1.5088         estimate D2E/DX2                !
 ! R3    R(1,14)                 1.5087         estimate D2E/DX2                !
 ! R4    R(1,25)                 1.5088         estimate D2E/DX2                !
 ! R5    R(3,4)                  1.3976         estimate D2E/DX2                !
 ! R6    R(3,5)                  1.3955         estimate D2E/DX2                !
 ! R7    R(4,6)                  1.3898         estimate D2E/DX2                !
 ! R8    R(4,7)                  1.0961         estimate D2E/DX2                !
 ! R9    R(5,8)                  1.3905         estimate D2E/DX2                !
 ! R10   R(5,9)                  1.098          estimate D2E/DX2                !
 ! R11   R(6,10)                 1.3908         estimate D2E/DX2                !
 ! R12   R(6,11)                 1.0948         estimate D2E/DX2                !
 ! R13   R(8,10)                 1.3903         estimate D2E/DX2                !
 ! R14   R(8,12)                 1.0948         estimate D2E/DX2                !
 ! R15   R(10,13)                1.0946         estimate D2E/DX2                !
 ! R16   R(14,15)                1.3976         estimate D2E/DX2                !
 ! R17   R(14,16)                1.3954         estimate D2E/DX2                !
 ! R18   R(15,17)                1.3898         estimate D2E/DX2                !
 ! R19   R(15,18)                1.0962         estimate D2E/DX2                !
 ! R20   R(16,19)                1.3905         estimate D2E/DX2                !
 ! R21   R(16,20)                1.098          estimate D2E/DX2                !
 ! R22   R(17,21)                1.3907         estimate D2E/DX2                !
 ! R23   R(17,22)                1.0948         estimate D2E/DX2                !
 ! R24   R(19,21)                1.3902         estimate D2E/DX2                !
 ! R25   R(19,23)                1.0948         estimate D2E/DX2                !
 ! R26   R(21,24)                1.0946         estimate D2E/DX2                !
 ! R27   R(25,26)                1.3956         estimate D2E/DX2                !
 ! R28   R(25,27)                1.3977         estimate D2E/DX2                !
 ! R29   R(26,28)                1.3904         estimate D2E/DX2                !
 ! R30   R(26,29)                1.098          estimate D2E/DX2                !
 ! R31   R(27,30)                1.3898         estimate D2E/DX2                !
 ! R32   R(27,31)                1.0962         estimate D2E/DX2                !
 ! R33   R(28,32)                1.3903         estimate D2E/DX2                !
 ! R34   R(28,33)                1.0948         estimate D2E/DX2                !
 ! R35   R(30,32)                1.3909         estimate D2E/DX2                !
 ! R36   R(30,34)                1.0948         estimate D2E/DX2                !
 ! R37   R(32,35)                1.0946         estimate D2E/DX2                !
 ! A1    A(2,1,3)              106.9607         estimate D2E/DX2                !
 ! A2    A(2,1,14)             106.9702         estimate D2E/DX2                !
 ! A3    A(2,1,25)             106.9602         estimate D2E/DX2                !
 ! A4    A(3,1,14)             111.8413         estimate D2E/DX2                !
 ! A5    A(3,1,25)             111.8653         estimate D2E/DX2                !
 ! A6    A(14,1,25)            111.8677         estimate D2E/DX2                !
 ! A7    A(1,3,4)              118.8513         estimate D2E/DX2                !
 ! A8    A(1,3,5)              121.9685         estimate D2E/DX2                !
 ! A9    A(4,3,5)              119.1801         estimate D2E/DX2                !
 ! A10   A(3,4,6)              120.3333         estimate D2E/DX2                !
 ! A11   A(3,4,7)              119.9848         estimate D2E/DX2                !
 ! A12   A(6,4,7)              119.6817         estimate D2E/DX2                !
 ! A13   A(3,5,8)              120.3554         estimate D2E/DX2                !
 ! A14   A(3,5,9)              119.5361         estimate D2E/DX2                !
 ! A15   A(8,5,9)              120.1057         estimate D2E/DX2                !
 ! A16   A(4,6,10)             120.1755         estimate D2E/DX2                !
 ! A17   A(4,6,11)             119.8374         estimate D2E/DX2                !
 ! A18   A(10,6,11)            119.9871         estimate D2E/DX2                !
 ! A19   A(5,8,10)             120.1842         estimate D2E/DX2                !
 ! A20   A(5,8,12)             119.7707         estimate D2E/DX2                !
 ! A21   A(10,8,12)            120.0451         estimate D2E/DX2                !
 ! A22   A(6,10,8)             119.7713         estimate D2E/DX2                !
 ! A23   A(6,10,13)            120.0979         estimate D2E/DX2                !
 ! A24   A(8,10,13)            120.1308         estimate D2E/DX2                !
 ! A25   A(1,14,15)            118.8601         estimate D2E/DX2                !
 ! A26   A(1,14,16)            121.9633         estimate D2E/DX2                !
 ! A27   A(15,14,16)           119.1765         estimate D2E/DX2                !
 ! A28   A(14,15,17)           120.3369         estimate D2E/DX2                !
 ! A29   A(14,15,18)           119.9858         estimate D2E/DX2                !
 ! A30   A(17,15,18)           119.6772         estimate D2E/DX2                !
 ! A31   A(14,16,19)           120.3568         estimate D2E/DX2                !
 ! A32   A(14,16,20)           119.5326         estimate D2E/DX2                !
 ! A33   A(19,16,20)           120.1079         estimate D2E/DX2                !
 ! A34   A(15,17,21)           120.1762         estimate D2E/DX2                !
 ! A35   A(15,17,22)           119.8357         estimate D2E/DX2                !
 ! A36   A(21,17,22)           119.9881         estimate D2E/DX2                !
 ! A37   A(16,19,21)           120.1869         estimate D2E/DX2                !
 ! A38   A(16,19,23)           119.7693         estimate D2E/DX2                !
 ! A39   A(21,19,23)           120.0437         estimate D2E/DX2                !
 ! A40   A(17,21,19)           119.7666         estimate D2E/DX2                !
 ! A41   A(17,21,24)           120.1027         estimate D2E/DX2                !
 ! A42   A(19,21,24)           120.1307         estimate D2E/DX2                !
 ! A43   A(1,25,26)            121.9691         estimate D2E/DX2                !
 ! A44   A(1,25,27)            118.8499         estimate D2E/DX2                !
 ! A45   A(26,25,27)           119.1808         estimate D2E/DX2                !
 ! A46   A(25,26,28)           120.3561         estimate D2E/DX2                !
 ! A47   A(25,26,29)           119.5396         estimate D2E/DX2                !
 ! A48   A(28,26,29)           120.1015         estimate D2E/DX2                !
 ! A49   A(25,27,30)           120.3325         estimate D2E/DX2                !
 ! A50   A(25,27,31)           119.9863         estimate D2E/DX2                !
 ! A51   A(30,27,31)           119.681          estimate D2E/DX2                !
 ! A52   A(26,28,32)           120.1818         estimate D2E/DX2                !
 ! A53   A(26,28,33)           119.7713         estimate D2E/DX2                !
 ! A54   A(32,28,33)           120.0468         estimate D2E/DX2                !
 ! A55   A(27,30,32)           120.1745         estimate D2E/DX2                !
 ! A56   A(27,30,34)           119.8388         estimate D2E/DX2                !
 ! A57   A(32,30,34)           119.9867         estimate D2E/DX2                !
 ! A58   A(28,32,30)           119.7741         estimate D2E/DX2                !
 ! A59   A(28,32,35)           120.1284         estimate D2E/DX2                !
 ! A60   A(30,32,35)           120.0974         estimate D2E/DX2                !
 ! D1    D(2,1,3,4)             27.5496         estimate D2E/DX2                !
 ! D2    D(2,1,3,5)           -152.5905         estimate D2E/DX2                !
 ! D3    D(14,1,3,4)           -89.2572         estimate D2E/DX2                !
 ! D4    D(14,1,3,5)            90.6027         estimate D2E/DX2                !
 ! D5    D(25,1,3,4)           144.3574         estimate D2E/DX2                !
 ! D6    D(25,1,3,5)           -35.7827         estimate D2E/DX2                !
 ! D7    D(2,1,14,15)           27.3384         estimate D2E/DX2                !
 ! D8    D(2,1,14,16)         -152.7913         estimate D2E/DX2                !
 ! D9    D(3,1,14,15)          144.1394         estimate D2E/DX2                !
 ! D10   D(3,1,14,16)          -35.9902         estimate D2E/DX2                !
 ! D11   D(25,1,14,15)         -89.4765         estimate D2E/DX2                !
 ! D12   D(25,1,14,16)          90.3939         estimate D2E/DX2                !
 ! D13   D(2,1,25,26)         -152.7022         estimate D2E/DX2                !
 ! D14   D(2,1,25,27)           27.4374         estimate D2E/DX2                !
 ! D15   D(3,1,25,26)           90.4897         estimate D2E/DX2                !
 ! D16   D(3,1,25,27)          -89.3707         estimate D2E/DX2                !
 ! D17   D(14,1,25,26)         -35.8813         estimate D2E/DX2                !
 ! D18   D(14,1,25,27)         144.2583         estimate D2E/DX2                !
 ! D19   D(1,3,4,6)            179.8113         estimate D2E/DX2                !
 ! D20   D(1,3,4,7)             -0.023          estimate D2E/DX2                !
 ! D21   D(5,3,4,6)             -0.0525         estimate D2E/DX2                !
 ! D22   D(5,3,4,7)           -179.8868         estimate D2E/DX2                !
 ! D23   D(1,3,5,8)           -179.9348         estimate D2E/DX2                !
 ! D24   D(1,3,5,9)              0.6711         estimate D2E/DX2                !
 ! D25   D(4,3,5,8)             -0.0754         estimate D2E/DX2                !
 ! D26   D(4,3,5,9)           -179.4695         estimate D2E/DX2                !
 ! D27   D(3,4,6,10)             0.1137         estimate D2E/DX2                !
 ! D28   D(3,4,6,11)          -179.9228         estimate D2E/DX2                !
 ! D29   D(7,4,6,10)           179.9485         estimate D2E/DX2                !
 ! D30   D(7,4,6,11)            -0.088          estimate D2E/DX2                !
 ! D31   D(3,5,8,10)             0.1429         estimate D2E/DX2                !
 ! D32   D(3,5,8,12)          -179.7786         estimate D2E/DX2                !
 ! D33   D(9,5,8,10)           179.5335         estimate D2E/DX2                !
 ! D34   D(9,5,8,12)            -0.388          estimate D2E/DX2                !
 ! D35   D(4,6,10,8)            -0.0464         estimate D2E/DX2                !
 ! D36   D(4,6,10,13)          179.8885         estimate D2E/DX2                !
 ! D37   D(11,6,10,8)          179.9902         estimate D2E/DX2                !
 ! D38   D(11,6,10,13)          -0.0749         estimate D2E/DX2                !
 ! D39   D(5,8,10,6)            -0.0815         estimate D2E/DX2                !
 ! D40   D(5,8,10,13)          179.9836         estimate D2E/DX2                !
 ! D41   D(12,8,10,6)          179.8398         estimate D2E/DX2                !
 ! D42   D(12,8,10,13)          -0.0951         estimate D2E/DX2                !
 ! D43   D(1,14,15,17)         179.8254         estimate D2E/DX2                !
 ! D44   D(1,14,15,18)          -0.0101         estimate D2E/DX2                !
 ! D45   D(16,14,15,17)         -0.0486         estimate D2E/DX2                !
 ! D46   D(16,14,15,18)       -179.8841         estimate D2E/DX2                !
 ! D47   D(1,14,16,19)        -179.935          estimate D2E/DX2                !
 ! D48   D(1,14,16,20)           0.6723         estimate D2E/DX2                !
 ! D49   D(15,14,16,19)         -0.065          estimate D2E/DX2                !
 ! D50   D(15,14,16,20)       -179.4578         estimate D2E/DX2                !
 ! D51   D(14,15,17,21)          0.0997         estimate D2E/DX2                !
 ! D52   D(14,15,17,22)       -179.9372         estimate D2E/DX2                !
 ! D53   D(18,15,17,21)        179.9358         estimate D2E/DX2                !
 ! D54   D(18,15,17,22)         -0.1011         estimate D2E/DX2                !
 ! D55   D(14,16,19,21)          0.1281         estimate D2E/DX2                !
 ! D56   D(14,16,19,23)       -179.7932         estimate D2E/DX2                !
 ! D57   D(20,16,19,21)        179.5174         estimate D2E/DX2                !
 ! D58   D(20,16,19,23)         -0.4039         estimate D2E/DX2                !
 ! D59   D(15,17,21,19)         -0.0368         estimate D2E/DX2                !
 ! D60   D(15,17,21,24)        179.8946         estimate D2E/DX2                !
 ! D61   D(22,17,21,19)       -179.9998         estimate D2E/DX2                !
 ! D62   D(22,17,21,24)         -0.0684         estimate D2E/DX2                !
 ! D63   D(16,19,21,17)         -0.0768         estimate D2E/DX2                !
 ! D64   D(16,19,21,24)        179.9918         estimate D2E/DX2                !
 ! D65   D(23,19,21,17)        179.8443         estimate D2E/DX2                !
 ! D66   D(23,19,21,24)         -0.0871         estimate D2E/DX2                !
 ! D67   D(1,25,26,28)        -179.9237         estimate D2E/DX2                !
 ! D68   D(1,25,26,29)           0.6807         estimate D2E/DX2                !
 ! D69   D(27,25,26,28)         -0.0638         estimate D2E/DX2                !
 ! D70   D(27,25,26,29)       -179.4594         estimate D2E/DX2                !
 ! D71   D(1,25,27,30)         179.8048         estimate D2E/DX2                !
 ! D72   D(1,25,27,31)          -0.0321         estimate D2E/DX2                !
 ! D73   D(26,25,27,30)         -0.0595         estimate D2E/DX2                !
 ! D74   D(26,25,27,31)       -179.8964         estimate D2E/DX2                !
 ! D75   D(25,26,28,32)          0.1366         estimate D2E/DX2                !
 ! D76   D(25,26,28,33)       -179.7868         estimate D2E/DX2                !
 ! D77   D(29,26,28,32)        179.5288         estimate D2E/DX2                !
 ! D78   D(29,26,28,33)         -0.3946         estimate D2E/DX2                !
 ! D79   D(25,27,30,32)          0.1106         estimate D2E/DX2                !
 ! D80   D(25,27,30,34)       -179.9246         estimate D2E/DX2                !
 ! D81   D(31,27,30,32)        179.9481         estimate D2E/DX2                !
 ! D82   D(31,27,30,34)         -0.0872         estimate D2E/DX2                !
 ! D83   D(26,28,32,30)         -0.0853         estimate D2E/DX2                !
 ! D84   D(26,28,32,35)        179.9789         estimate D2E/DX2                !
 ! D85   D(33,28,32,30)        179.8379         estimate D2E/DX2                !
 ! D86   D(33,28,32,35)         -0.0978         estimate D2E/DX2                !
 ! D87   D(27,30,32,28)         -0.038          estimate D2E/DX2                !
 ! D88   D(27,30,32,35)        179.8978         estimate D2E/DX2                !
 ! D89   D(34,30,32,28)        179.9974         estimate D2E/DX2                !
 ! D90   D(34,30,32,35)         -0.0669         estimate D2E/DX2                !
 --------------------------------------------------------------------------------
 Trust Radius=3.00D-01 FncErr=1.00D-07 GrdErr=1.00D-07
 Number of steps in this run= 197 maximum allowed number of steps= 210.
 GradGradGradGradGradGradGradGradGradGradGradGradGradGradGradGradGradGrad

                          Input orientation:                          
 ---------------------------------------------------------------------
 Center     Atomic      Atomic             Coordinates (Angstroms)
 Number     Number       Type             X           Y           Z
 ---------------------------------------------------------------------
      1          6           0       -0.307487   -0.178282    0.711543
      2          1           0       -0.741374   -0.429441    1.716083
      3          6           0       -0.472223    1.309252    0.520404
      4          6           0       -0.515123    2.133468    1.648308
      5          6           0       -0.579745    1.883949   -0.746757
      6          6           0       -0.661989    3.508322    1.507779
      7          1           0       -0.430018    1.696249    2.649853
      8          6           0       -0.729263    3.259543   -0.884092
      9          1           0       -0.555557    1.241024   -1.636524
     10          6           0       -0.769824    4.074107    0.241807
     11          1           0       -0.693331    4.146473    2.396805
     12          1           0       -0.816370    3.699869   -1.882637
     13          1           0       -0.887289    5.156937    0.132668
     14          6           0        1.145742   -0.582223    0.746085
     15          6           0        1.537976   -1.617675    1.598811
     16          6           0        2.105893    0.045041   -0.048786
     17          6           0        2.868097   -2.017105    1.652459
     18          1           0        0.794385   -2.120915    2.227675
     19          6           0        3.436333   -0.355182    0.008777
     20          1           0        1.805745    0.865200   -0.714247
     21          6           0        3.819872   -1.386748    0.858178
     22          1           0        3.166133   -2.829887    2.322680
     23          1           0        4.182275    0.145916   -0.616623
     24          1           0        4.867426   -1.701150    0.902659
     25          6           0       -1.085535   -0.966085   -0.313381
     26          6           0       -0.524563   -1.349251   -1.532467
     27          6           0       -2.408293   -1.318408   -0.031205
     28          6           0       -1.272942   -2.073694   -2.453574
     29          1           0        0.516928   -1.083313   -1.756528
     30          6           0       -3.154640   -2.040329   -0.954897
     31          1           0       -2.862649   -1.022830    0.921558
     32          6           0       -2.588723   -2.419754   -2.167461
     33          1           0       -0.822174   -2.372335   -3.405554
     34          1           0       -4.190489   -2.310946   -0.726010
     35          1           0       -3.177203   -2.989796   -2.893391
 ---------------------------------------------------------------------
                    Distance matrix (angstroms):
                    1          2          3          4          5
     1  C    0.000000
     2  H    1.122693   0.000000
     3  C    1.508784   2.127238   0.000000
     4  C    2.502964   2.573769   1.397619   0.000000
     5  C    2.540386   3.382821   1.395541   2.408894   0.000000
     6  C    3.788233   3.944067   2.418022   1.389799   2.779978
     7  H    2.699245   2.342526   2.164740   1.096128   3.405085
     8  C    3.813474   4.513276   2.417088   2.779739   1.390494
     9  H    2.754884   3.750327   2.159615   3.404146   1.098009
    10  C    4.303163   4.738801   2.794746   2.410227   2.410431
    11  H    4.657519   4.626519   3.408752   2.155039   3.874776
    12  H    4.693483   5.477920   3.407065   3.874523   2.154943
    13  H    5.397761   5.808279   3.889383   3.402504   3.403001
    14  C    1.508719   2.127309   2.499284   3.308694   3.359745
    15  C    2.502965   2.573148   3.710898   4.276534   4.716758
    16  C    2.540153   3.383316   2.927267   3.756511   3.328874
    17  C    3.788261   3.943730   4.848086   5.354759   5.732545
    18  H    2.699370   2.341232   4.035482   4.488903   5.174400
    19  C    3.813314   4.513718   4.278892   4.949287   4.659767
    20  H    2.754538   3.751055   2.628818   3.546350   2.594123
    21  C    4.303136   4.738924   5.079822   5.639894   5.712260
    22  H    4.657554   4.625875   5.798130   6.216215   6.758203
    23  H    4.693302   5.478583   4.930571   5.580844   5.070950
    24  H    5.397719   5.808402   6.141701   6.650723   6.726454
    25  C    1.508795   2.127242   2.499701   3.712253   2.926830
    26  C    2.540447   3.383213   3.359264   4.716646   3.327758
    27  C    2.502988   2.573305   3.310172   4.280223   3.756421
    28  C    3.813484   4.513555   4.574934   5.924520   4.365397
    29  H    2.755017   3.750986   3.447783   4.796427   3.320689
    30  C    3.788209   3.943722   4.537793   5.582500   4.698230
    31  H    2.699300   2.341621   3.363579   4.000158   4.055156
    32  C    4.303127   4.738772   5.060600   6.292197   4.957444
    33  H    4.693535   5.478370   5.393487   6.777762   5.024334
    34  H    4.657523   4.626043   5.337123   6.236867   5.534894
    35  H    5.397725   5.808264   6.119864   7.345852   5.925219
                    6          7          8          9         10
     6  C    0.000000
     7  H    2.154473   0.000000
     8  C    2.405714   3.875849   0.000000
     9  H    3.877964   4.312310   2.161191   0.000000
    10  C    1.390836   3.401229   1.390255   3.405935   0.000000
    11  H    1.094799   2.477290   3.398855   4.972761   2.157568
    12  H    3.399330   4.970636   1.094791   2.484856   2.157657
    13  H    2.158615   4.303682   2.158443   4.309810   1.094637
    14  C    4.536587   3.361366   4.575181   3.448981   5.060147
    15  C    5.578887   3.994970   5.923887   4.798170   6.289975
    16  C    4.698763   4.054625   4.366792   3.321838   4.958585
    17  C    6.558413   5.065704   6.871543   5.757970   7.233759
    18  H    5.858974   4.030898   6.399525   5.296886   6.690942
    19  C    5.828371   5.111978   5.587096   4.603269   6.112664
    20  H    4.244196   4.123887   3.491130   2.562731   4.224296
    21  C    6.668641   5.547660   6.731876   5.680942   7.160039
    22  H    7.449261   5.790100   7.908139   6.789595   8.215043
    23  H    6.267835   5.860601   5.821462   4.968553   6.378940
    24  H    7.620971   6.531303   7.689206   6.671775   8.097463
    25  C    4.849364   4.037138   4.278852   2.627339   5.080496
    26  C    5.732189   5.174534   4.658678   2.592550   5.711481
    27  C    5.358673   4.493307   4.950172   3.544061   5.642547
    28  C    6.872007   6.400622   5.585901   3.488491   6.731543
    29  H    5.755750   5.295174   4.601580   2.562649   5.678737
    30  C    6.562439   5.863429   5.828903   4.241123   6.671264
    31  H    5.071282   4.037089   5.113749   4.122073   5.551643
    32  C    7.236144   6.693878   6.112205   4.221013   7.161229
    33  H    7.664766   7.305828   6.171261   4.031987   7.406929
    34  H    7.162681   6.449434   6.560139   5.163163   7.307976
    35  H    8.241489   7.761031   7.005993   5.133477   8.094669
                   11         12         13         14         15
    11  H    0.000000
    12  H    4.304441   0.000000
    13  H    2.486960   2.487877   0.000000
    14  C    5.335506   5.394105   6.119432   0.000000
    15  C    6.232249   6.777883   7.343491   1.397552   0.000000
    16  C    5.535188   5.025972   5.926512   1.395411   2.408678
    17  C    7.157339   7.665245   8.238905   2.418038   1.389836
    18  H    6.443760   7.305526   7.757848   2.164747   1.096197
    19  C    6.559093   6.173036   7.006605   2.417019   2.779543
    20  H    5.166311   4.034348   5.136993   2.159446   3.403911
    21  C    7.304307   7.408136   8.093426   2.794781   2.410169
    22  H    7.973115   8.728273   9.220398   3.408758   2.155073
    23  H    6.989759   6.262573   7.167444   3.407006   3.874366
    24  H    8.206654   8.320722   8.985710   3.889402   3.402474
    25  C    5.799757   4.930125   6.142447   2.499683   3.311172
    26  C    6.758005   5.069653   6.725676   2.927464   3.759125
    27  C    6.221033   5.580782   6.653601   3.711780   4.280135
    28  C    7.909020   5.819661   7.688914   4.279292   4.952882
    29  H    6.787161   4.967134   6.669453   2.628606   3.547729
    30  C    7.454425   6.267222   7.623930   4.848989   5.359171
    31  H    5.796894   5.861284   6.535588   4.036350   4.491994
    32  C    8.218295   6.377471   8.098871   5.080502   5.644270
    33  H    8.728048   6.260269   8.319447   4.930852   5.584218
    34  H    7.979996   6.989446   8.210830   5.799216   6.220991
    35  H    9.223997   7.165666   8.987213   6.142479   6.655488
                   16         17         18         19         20
    16  C    0.000000
    17  C    2.779862   0.000000
    18  H    3.404951   2.154514   0.000000
    19  C    1.390526   2.405529   3.875720   0.000000
    20  H    1.097993   3.877831   4.312150   2.161230   0.000000
    21  C    2.410462   1.390722   3.401190   1.390220   3.405951
    22  H    3.874684   1.094823   2.477268   3.398724   4.972651
    23  H    2.154989   3.399184   4.970548   1.094830   2.484913
    24  H    3.403013   2.158551   4.303665   2.158398   4.309806
    25  C    3.358213   4.538763   3.365218   4.574306   3.445838
    26  C    3.326358   4.701055   4.058787   4.364894   3.317170
    27  C    4.715631   5.582400   4.000463   5.923602   4.795082
    28  C    4.657099   5.831888   5.117633   5.585135   4.597899
    29  H    2.591211   4.245132   4.126435   3.488467   2.558144
    30  C    5.730883   6.562942   5.072480   6.870904   5.753732
    31  H    5.173811   5.862102   4.035546   6.399695   5.294754
    32  C    5.709940   6.673140   5.554453   6.730511   5.675747
    33  H    5.068055   6.271187   5.865982   5.819059   4.962936
    34  H    6.756755   7.454334   5.797356   7.907803   6.785490
    35  H    6.724070   7.626043   6.538638   7.687824   6.666292
                   21         22         23         24         25
    21  C    0.000000
    22  H    2.157497   0.000000
    23  H    2.157645   4.304352   0.000000
    24  H    1.094622   2.486947   2.487831   0.000000
    25  C    5.060882   5.338470   5.392432   6.120197   0.000000
    26  C    4.958901   5.538563   5.022809   5.926821   1.395591
    27  C    6.291718   6.236952   6.776617   7.345385   1.397657
    28  C    6.113621   6.564284   6.169315   7.007654   2.417095
    29  H    4.223529   5.168050   4.030527   5.136129   2.159700
    30  C    7.235899   7.163665   7.663186   8.241305   2.418003
    31  H    6.692723   6.447854   7.304993   7.759802   2.164816
    32  C    7.161821   7.310810   7.405010   8.095442   2.794699
    33  H    6.379607   6.994899   6.258133   7.168175   3.407115
    34  H    8.217644   7.980207   8.726472   9.223353   3.408761
    35  H    8.099574   8.214067   8.317348   8.988140   3.889336
                   26         27         28         29         30
    26  C    0.000000
    27  C    2.408978   0.000000
    28  C    1.390442   2.779811   0.000000
    29  H    1.098012   3.404252   2.161103   0.000000
    30  C    2.780015   1.389751   2.405813   3.878003   0.000000
    31  H    3.405207   1.096159   3.875952   4.312464   2.154448
    32  C    2.410384   2.410209   1.390286   3.405879   1.390877
    33  H    2.154932   3.874631   1.094826   2.484766   3.399464
    34  H    3.874822   2.155019   3.398948   4.972809   1.094808
    35  H    3.402941   3.402480   2.158447   4.309727   2.158648
                   31         32         33         34         35
    31  H    0.000000
    32  C    3.401246   0.000000
    33  H    4.970775   2.157735   0.000000
    34  H    2.477273   2.157609   4.304564   0.000000
    35  H    4.303689   1.094638   2.487917   2.486992   0.000000
 Stoichiometry    C19H16
 Framework group  C1[X(C19H16)]
 Deg. of freedom    99
 Full point group                 C1      NOp   1
 Largest Abelian subgroup         C1      NOp   1
 Largest concise Abelian subgroup C1      NOp   1
                         Standard orientation:                         
 ---------------------------------------------------------------------
 Center     Atomic      Atomic             Coordinates (Angstroms)
 Number     Number       Type             X           Y           Z
 ---------------------------------------------------------------------
      1          6           0        0.000127   -0.000236   -0.779828
      2          1           0       -0.000041   -0.000201   -1.902520
      3          6           0       -0.318130    1.407366   -0.339601
      4          6           0       -1.082616    2.220501   -1.180856
      5          6           0        0.125370    1.917831    0.881165
      6          6           0       -1.397246    3.520767   -0.804218
      7          1           0       -1.439407    1.832382   -2.141877
      8          6           0       -0.188774    3.220028    1.254086
      9          1           0        0.733729    1.287041    1.542700
     10          6           0       -0.950793    4.023351    0.413367
     11          1           0       -1.997685    4.150231   -1.468924
     12          1           0        0.167199    3.611936    2.212343
     13          1           0       -1.197810    5.048263    0.707934
     14          6           0       -1.059882   -0.979310   -0.339342
     15          6           0       -1.385731   -2.045277   -1.182366
     16          6           0       -1.720239   -0.852570    0.883375
     17          6           0       -2.354989   -2.967338   -0.805556
     18          1           0       -0.873902   -2.158649   -2.145084
     19          6           0       -2.691213   -1.775314    1.256628
     20          1           0       -1.475203   -0.012265    1.546272
     21          6           0       -3.009863   -2.834228    0.414087
     22          1           0       -2.603080   -3.799866   -1.471877
     23          1           0       -3.205732   -1.664724    2.216676
     24          1           0       -3.774269   -3.560154    0.708893
     25          6           0        1.378360   -0.428507   -0.339920
     26          6           0        1.599282   -1.065716    0.881896
     27          6           0        2.464290   -0.175279   -1.182580
     28          6           0        2.884127   -1.444686    1.254568
     29          1           0        0.749249   -1.275560    1.544496
     30          6           0        3.747706   -0.552938   -0.806245
     31          1           0        2.306092    0.325957   -2.144505
     32          6           0        3.960323   -1.188571    0.412485
     33          1           0        3.046025   -1.947141    2.213721
     34          1           0        4.592663   -0.349507   -1.472029
     35          1           0        4.971509   -1.486988    0.706902
 ---------------------------------------------------------------------
 Rotational constants (GHZ):      0.3904820      0.3902574      0.2359339
 Standard basis: 6-311G (5D, 7F)
 There are   295 symmetry adapted basis functions of A   symmetry.
 Integral buffers will be    262144 words long.
 Raffenetti 1 integral format.
 Two-electron integral symmetry is turned on.
   295 basis functions,   574 primitive gaussians,   295 cartesian basis functions
    65 alpha electrons       65 beta electrons
       nuclear repulsion energy      1290.4473245222 Hartrees.
 NAtoms=   35 NActive=   35 NUniq=   35 SFac= 7.50D-01 NAtFMM=   80 NAOKFM=F Big=F
 One-electron integrals computed using PRISM.
 PrsmSu:  requested number of processors reduced to:  10 ShMem   1 Linda.
 NBasis=   295 RedAO= T  NBF=   295
 NBsUse=   295 1.00D-06 NBFU=   295
 Harris functional with IExCor=  205 diagonalized for initial guess.
 ExpMin= 1.03D-01 ExpMax= 4.56D+03 ExpMxC= 6.82D+02 IAcc=1 IRadAn=         1 AccDes= 0.00D+00
 HarFok:  IExCor=  205 AccDes= 0.00D+00 IRadAn=         1 IDoV= 1
 ScaDFX=  1.000000  1.000000  1.000000  1.000000
 FoFCou: FMM=F IPFlag=           0 FMFlag=      100000 FMFlg1=           0
         NFxFlg=           0 DoJE=T BraDBF=F KetDBF=T FulRan=T
         Omega=  0.000000  0.000000  1.000000  0.000000  0.000000 ICntrl=     500 IOpCl=  0
         NMat0=    1 NMatS0=    1 NMatT0=    0 NMatD0=    1 NMtDS0=    0 NMtDT0=    0
         I1Cent=           4 NGrid=           0.
 Petite list used in FoFCou.
 Initial guess orbital symmetries:
       Occupied  (A) (A) (A) (A) (A) (A) (A) (A) (A) (A) (A) (A)
                 (A) (A) (A) (A) (A) (A) (A) (A) (A) (A) (A) (A)
                 (A) (A) (A) (A) (A) (A) (A) (A) (A) (A) (A) (A)
                 (A) (A) (A) (A) (A) (A) (A) (A) (A) (A) (A) (A)
                 (A) (A) (A) (A) (A) (A) (A) (A) (A) (A) (A) (A)
                 (A) (A) (A) (A) (A)
       Virtual   (A) (A) (A) (A) (A) (A) (A) (A) (A) (A) (A) (A)
                 (A) (A) (A) (A) (A) (A) (A) (A) (A) (A) (A) (A)
                 (A) (A) (A) (A) (A) (A) (A) (A) (A) (A) (A) (A)
                 (A) (A) (A) (A) (A) (A) (A) (A) (A) (A) (A) (A)
                 (A) (A) (A) (A) (A) (A) (A) (A) (A) (A) (A) (A)
                 (A) (A) (A) (A) (A) (A) (A) (A) (A) (A) (A) (A)
                 (A) (A) (A) (A) (A) (A) (A) (A) (A) (A) (A) (A)
                 (A) (A) (A) (A) (A) (A) (A) (A) (A) (A) (A) (A)
                 (A) (A) (A) (A) (A) (A) (A) (A) (A) (A) (A) (A)
                 (A) (A) (A) (A) (A) (A) (A) (A) (A) (A) (A) (A)
                 (A) (A) (A) (A) (A) (A) (A) (A) (A) (A) (A) (A)
                 (A) (A) (A) (A) (A) (A) (A) (A) (A) (A) (A) (A)
                 (A) (A) (A) (A) (A) (A) (A) (A) (A) (A) (A) (A)
                 (A) (A) (A) (A) (A) (A) (A) (A) (A) (A) (A) (A)
                 (A) (A) (A) (A) (A) (A) (A) (A) (A) (A) (A) (A)
                 (A) (A) (A) (A) (A) (A) (A) (A) (A) (A) (A) (A)
                 (A) (A) (A) (A) (A) (A) (A) (A) (A) (A) (A) (A)
                 (A) (A) (A) (A) (A) (A) (A) (A) (A) (A) (A) (A)
                 (A) (A) (A) (A) (A) (A) (A) (A) (A) (A) (A) (A)
                 (A) (A)
 The electronic state of the initial guess is 1-A.
 Requested convergence on RMS density matrix=1.00D-08 within 128 cycles.
 Requested convergence on MAX density matrix=1.00D-06.
 Requested convergence on             energy=1.00D-06.
 No special actions if energy rises.
 Integral accuracy reduced to 1.0D-05 until final iterations.
 Initial convergence to 1.0D-05 achieved.  Increase integral accuracy.
 SCF Done:  E(RHF) =  -728.678070840     A.U. after   14 cycles
             Convg  =    0.6888D-08             -V/T =  2.0001

 **********************************************************************

            Population analysis using the SCF density.

 **********************************************************************

 Orbital symmetries:
       Occupied  (A) (A) (A) (A) (A) (A) (A) (A) (A) (A) (A) (A)
                 (A) (A) (A) (A) (A) (A) (A) (A) (A) (A) (A) (A)
                 (A) (A) (A) (A) (A) (A) (A) (A) (A) (A) (A) (A)
                 (A) (A) (A) (A) (A) (A) (A) (A) (A) (A) (A) (A)
                 (A) (A) (A) (A) (A) (A) (A) (A) (A) (A) (A) (A)
                 (A) (A) (A) (A) (A)
       Virtual   (A) (A) (A) (A) (A) (A) (A) (A) (A) (A) (A) (A)
                 (A) (A) (A) (A) (A) (A) (A) (A) (A) (A) (A) (A)
                 (A) (A) (A) (A) (A) (A) (A) (A) (A) (A) (A) (A)
                 (A) (A) (A) (A) (A) (A) (A) (A) (A) (A) (A) (A)
                 (A) (A) (A) (A) (A) (A) (A) (A) (A) (A) (A) (A)
                 (A) (A) (A) (A) (A) (A) (A) (A) (A) (A) (A) (A)
                 (A) (A) (A) (A) (A) (A) (A) (A) (A) (A) (A) (A)
                 (A) (A) (A) (A) (A) (A) (A) (A) (A) (A) (A) (A)
                 (A) (A) (A) (A) (A) (A) (A) (A) (A) (A) (A) (A)
                 (A) (A) (A) (A) (A) (A) (A) (A) (A) (A) (A) (A)
                 (A) (A) (A) (A) (A) (A) (A) (A) (A) (A) (A) (A)
                 (A) (A) (A) (A) (A) (A) (A) (A) (A) (A) (A) (A)
                 (A) (A) (A) (A) (A) (A) (A) (A) (A) (A) (A) (A)
                 (A) (A) (A) (A) (A) (A) (A) (A) (A) (A) (A) (A)
                 (A) (A) (A) (A) (A) (A) (A) (A) (A) (A) (A) (A)
                 (A) (A) (A) (A) (A) (A) (A) (A) (A) (A) (A) (A)
                 (A) (A) (A) (A) (A) (A) (A) (A) (A) (A) (A) (A)
                 (A) (A) (A) (A) (A) (A) (A) (A) (A) (A) (A) (A)
                 (A) (A) (A) (A) (A) (A) (A) (A) (A) (A) (A) (A)
                 (A) (A)
 The electronic state is 1-A.
 Alpha  occ. eigenvalues --  -11.25724 -11.25095 -11.25093 -11.25087 -11.24307
 Alpha  occ. eigenvalues --  -11.24307 -11.24305 -11.24284 -11.24283 -11.24282
 Alpha  occ. eigenvalues --  -11.24021 -11.24020 -11.24019 -11.23963 -11.23960
 Alpha  occ. eigenvalues --  -11.23960 -11.23818 -11.23817 -11.23815  -1.18578
 Alpha  occ. eigenvalues --   -1.15716  -1.15713  -1.09019  -1.02189  -1.02043
 Alpha  occ. eigenvalues --   -1.02040  -1.01371  -1.01367  -0.92881  -0.84082
 Alpha  occ. eigenvalues --   -0.82992  -0.82988  -0.81455  -0.81453  -0.77512
 Alpha  occ. eigenvalues --   -0.70624  -0.70624  -0.68788  -0.65637  -0.63789
 Alpha  occ. eigenvalues --   -0.63788  -0.61933  -0.61930  -0.61742  -0.59101
 Alpha  occ. eigenvalues --   -0.58738  -0.58734  -0.58059  -0.58056  -0.54339
 Alpha  occ. eigenvalues --   -0.51184  -0.50838  -0.50834  -0.49663  -0.49107
 Alpha  occ. eigenvalues --   -0.49105  -0.47444  -0.47178  -0.47174  -0.34456
 Alpha  occ. eigenvalues --   -0.34450  -0.34003  -0.33234  -0.33230  -0.31222
 Alpha virt. eigenvalues --    0.12200   0.12203   0.12406   0.14450   0.14458
 Alpha virt. eigenvalues --    0.14463   0.15131   0.16316   0.16317   0.17110
 Alpha virt. eigenvalues --    0.19070   0.19126   0.19127   0.21252   0.21254
 Alpha virt. eigenvalues --    0.21553   0.23842   0.23849   0.24468   0.26744
 Alpha virt. eigenvalues --    0.26754   0.28541   0.34017   0.34017   0.35102
 Alpha virt. eigenvalues --    0.39168   0.39182   0.39337   0.41078   0.43773
 Alpha virt. eigenvalues --    0.43877   0.43878   0.44968   0.44975   0.45561
 Alpha virt. eigenvalues --    0.45564   0.45806   0.48354   0.49760   0.49767
 Alpha virt. eigenvalues --    0.50694   0.50881   0.50886   0.55382   0.55389
 Alpha virt. eigenvalues --    0.57220   0.58702   0.58707   0.58768   0.59460
 Alpha virt. eigenvalues --    0.60067   0.60072   0.61459   0.61552   0.61556
 Alpha virt. eigenvalues --    0.61702   0.62243   0.62245   0.63516   0.63789
 Alpha virt. eigenvalues --    0.63797   0.65420   0.65423   0.66729   0.67122
 Alpha virt. eigenvalues --    0.67859   0.67866   0.69139   0.70648   0.70657
 Alpha virt. eigenvalues --    0.73047   0.74588   0.74594   0.74986   0.75563
 Alpha virt. eigenvalues --    0.75576   0.78146   0.80254   0.80262   0.80280
 Alpha virt. eigenvalues --    0.81937   0.82007   0.82009   0.82965   0.82968
 Alpha virt. eigenvalues --    0.83739   0.84367   0.84371   0.85144   0.86013
 Alpha virt. eigenvalues --    0.86018   0.86225   0.87296   0.87733   0.87741
 Alpha virt. eigenvalues --    0.88554   0.90856   0.90870   0.92779   0.94575
 Alpha virt. eigenvalues --    0.94601   0.97226   0.97235   0.97795   1.00018
 Alpha virt. eigenvalues --    1.00034   1.00726   1.04024   1.04038   1.06245
 Alpha virt. eigenvalues --    1.07006   1.07012   1.08762   1.08772   1.09867
 Alpha virt. eigenvalues --    1.11113   1.12259   1.12929   1.12937   1.14205
 Alpha virt. eigenvalues --    1.14658   1.14665   1.17904   1.20735   1.20753
 Alpha virt. eigenvalues --    1.26742   1.27475   1.27485   1.28638   1.30046
 Alpha virt. eigenvalues --    1.30058   1.39635   1.40619   1.40641   1.49093
 Alpha virt. eigenvalues --    1.52296   1.52302   1.54951   2.55826   2.55828
 Alpha virt. eigenvalues --    2.56440   2.61666   2.61669   2.61689   2.66491
 Alpha virt. eigenvalues --    2.66499   2.67964   2.70414   2.70428   2.70904
 Alpha virt. eigenvalues --    2.78495   2.84836   2.84850   2.88585   2.94548
 Alpha virt. eigenvalues --    2.94638   2.94640   2.97623   2.97630   2.97662
 Alpha virt. eigenvalues --    3.01451   3.01459   3.04372   3.06188   3.07548
 Alpha virt. eigenvalues --    3.07553   3.08633   3.08648   3.09330   3.15400
 Alpha virt. eigenvalues --    3.15404   3.15659   3.17438   3.18974   3.18991
 Alpha virt. eigenvalues --    3.23292   3.25374   3.25385   3.28844   3.28855
 Alpha virt. eigenvalues --    3.29670   3.33101   3.34948   3.34958   3.42272
 Alpha virt. eigenvalues --    3.42277   3.43273   3.48613   3.48637   3.53947
 Alpha virt. eigenvalues --    3.54080   3.54090   3.59968   3.60353   3.60378
 Alpha virt. eigenvalues --    3.63126   3.63598   3.63619   3.65836   3.65839
 Alpha virt. eigenvalues --    3.69787   3.69796   3.70509   3.70710   3.75207
 Alpha virt. eigenvalues --    3.75887   3.75898   3.84507   3.87410   3.87415
 Alpha virt. eigenvalues --    3.91512  24.25945  24.31574  24.31581  24.50734
 Alpha virt. eigenvalues --   24.50739  24.51247  24.54557  24.55833  24.55838
 Alpha virt. eigenvalues --   24.77634  24.79321  24.79329  24.79926  24.80799
 Alpha virt. eigenvalues --   24.80805  24.83351  25.05347  25.06153  25.06163
          Condensed to atoms (all electrons):
              1          2          3          4          5          6
     1  C    5.859387   0.483443   0.145352  -0.054879  -0.040937   0.007218
     2  H    0.483443   0.515302  -0.071948  -0.001130   0.005307   0.001483
     3  C    0.145352  -0.071948   5.357877   0.483855   0.479927  -0.065688
     4  C   -0.054879  -0.001130   0.483855   5.058881  -0.068652   0.463600
     5  C   -0.040937   0.005307   0.479927  -0.068652   5.114150  -0.029433
     6  C    0.007218   0.001483  -0.065688   0.463600  -0.029433   5.055084
     7  H    0.000511   0.001461  -0.048791   0.399262   0.004434  -0.036080
     8  C    0.004247  -0.000241  -0.067575  -0.031782   0.468951  -0.075869
     9  H   -0.000862  -0.000120  -0.042499   0.004181   0.392269  -0.000227
    10  C    0.001165  -0.000011  -0.016443  -0.087586  -0.093782   0.490248
    11  H   -0.000371  -0.000026   0.006677  -0.039638  -0.000533   0.397085
    12  H   -0.000337   0.000014   0.006127  -0.000381  -0.037820   0.005936
    13  H   -0.000017  -0.000001  -0.001541   0.007436   0.007820  -0.042939
    14  C    0.145540  -0.072077  -0.097392  -0.001103  -0.008211  -0.000632
    15  C   -0.054606  -0.001090   0.005675   0.000850  -0.000168   0.000003
    16  C   -0.041086   0.005318  -0.018601   0.000221  -0.005025   0.000382
    17  C    0.007228   0.001485  -0.000775  -0.000034   0.000027   0.000002
    18  H    0.000489   0.001474   0.000483   0.000045  -0.000031   0.000001
    19  C    0.004207  -0.000240   0.000097  -0.000168  -0.000018  -0.000009
    20  H   -0.000805  -0.000119  -0.001939  -0.000870   0.001480  -0.000191
    21  C    0.001169  -0.000012   0.000097  -0.000008  -0.000017   0.000000
    22  H   -0.000371  -0.000026   0.000011   0.000001   0.000000   0.000000
    23  H   -0.000337   0.000014   0.000028   0.000007   0.000018   0.000001
    24  H   -0.000017  -0.000001  -0.000001   0.000000   0.000000   0.000000
    25  C    0.145342  -0.072076  -0.097071   0.005752  -0.018636  -0.000776
    26  C   -0.041051   0.005301  -0.008125  -0.000167  -0.005081   0.000027
    27  C   -0.054793  -0.001067  -0.001141   0.000838   0.000226  -0.000034
    28  C    0.004233  -0.000241   0.000680   0.000022  -0.001064   0.000000
    29  H   -0.000838  -0.000120  -0.000786  -0.000017   0.000733   0.000003
    30  C    0.007232   0.001484  -0.000632   0.000003   0.000383   0.000002
    31  H    0.000494   0.001472   0.000946   0.000230   0.000223  -0.000005
    32  C    0.001168  -0.000011   0.000038  -0.000001   0.000068   0.000000
    33  H   -0.000337   0.000014  -0.000003   0.000000   0.000016   0.000000
    34  H   -0.000372  -0.000026   0.000024   0.000000   0.000003   0.000000
    35  H   -0.000017  -0.000001   0.000000   0.000000  -0.000001   0.000000
              7          8          9         10         11         12
     1  C    0.000511   0.004247  -0.000862   0.001165  -0.000371  -0.000337
     2  H    0.001461  -0.000241  -0.000120  -0.000011  -0.000026   0.000014
     3  C   -0.048791  -0.067575  -0.042499  -0.016443   0.006677   0.006127
     4  C    0.399262  -0.031782   0.004181  -0.087586  -0.039638  -0.000381
     5  C    0.004434   0.468951   0.392269  -0.093782  -0.000533  -0.037820
     6  C   -0.036080  -0.075869  -0.000227   0.490248   0.397085   0.005936
     7  H    0.507668  -0.000423  -0.000239   0.005359  -0.004230   0.000022
     8  C   -0.000423   5.051945  -0.029856   0.496710   0.006118   0.396193
     9  H   -0.000239  -0.029856   0.474229   0.004625   0.000018  -0.003311
    10  C    0.005359   0.496710   0.004625   5.033079  -0.040643  -0.040242
    11  H   -0.004230   0.006118   0.000018  -0.040643   0.517966  -0.000211
    12  H    0.000022   0.396193  -0.003311  -0.040242  -0.000211   0.515699
    13  H   -0.000179  -0.042462  -0.000174   0.399535  -0.004496  -0.004404
    14  C    0.000954   0.000677  -0.000791   0.000039   0.000023  -0.000003
    15  C    0.000237   0.000022  -0.000018  -0.000001   0.000000   0.000000
    16  C    0.000221  -0.001063   0.000735   0.000069   0.000003   0.000016
    17  C   -0.000005   0.000000   0.000003   0.000000   0.000000   0.000000
    18  H   -0.000001   0.000000   0.000000   0.000000   0.000000   0.000000
    19  C    0.000007  -0.000021   0.000043   0.000005   0.000000   0.000001
    20  H   -0.000038   0.000916   0.000220   0.000001   0.000003   0.000007
    21  C   -0.000009   0.000000   0.000000   0.000000   0.000000   0.000000
    22  H    0.000000   0.000000   0.000000   0.000000   0.000000   0.000000
    23  H    0.000000   0.000000  -0.000007  -0.000001   0.000000   0.000000
    24  H    0.000000   0.000000   0.000000   0.000000   0.000000   0.000000
    25  C    0.000487   0.000091  -0.001951   0.000097   0.000011   0.000029
    26  C   -0.000031  -0.000019   0.001440  -0.000017   0.000000   0.000018
    27  C    0.000043  -0.000168  -0.000880  -0.000008   0.000001   0.000007
    28  C    0.000000  -0.000022   0.000921   0.000000   0.000000   0.000000
    29  H    0.000000   0.000043   0.000212   0.000000   0.000000  -0.000007
    30  C    0.000001  -0.000009  -0.000190   0.000000   0.000000   0.000001
    31  H   -0.000001   0.000007  -0.000038  -0.000009   0.000000   0.000000
    32  C    0.000000   0.000005   0.000001   0.000000   0.000000  -0.000001
    33  H    0.000000   0.000001   0.000008   0.000000   0.000000   0.000000
    34  H    0.000000   0.000000   0.000003   0.000000   0.000000   0.000000
    35  H    0.000000   0.000000   0.000000   0.000000   0.000000   0.000000
             13         14         15         16         17         18
     1  C   -0.000017   0.145540  -0.054606  -0.041086   0.007228   0.000489
     2  H   -0.000001  -0.072077  -0.001090   0.005318   0.001485   0.001474
     3  C   -0.001541  -0.097392   0.005675  -0.018601  -0.000775   0.000483
     4  C    0.007436  -0.001103   0.000850   0.000221  -0.000034   0.000045
     5  C    0.007820  -0.008211  -0.000168  -0.005025   0.000027  -0.000031
     6  C   -0.042939  -0.000632   0.000003   0.000382   0.000002   0.000001
     7  H   -0.000179   0.000954   0.000237   0.000221  -0.000005  -0.000001
     8  C   -0.042462   0.000677   0.000022  -0.001063   0.000000   0.000000
     9  H   -0.000174  -0.000791  -0.000018   0.000735   0.000003   0.000000
    10  C    0.399535   0.000039  -0.000001   0.000069   0.000000   0.000000
    11  H   -0.004496   0.000023   0.000000   0.000003   0.000000   0.000000
    12  H   -0.004404  -0.000003   0.000000   0.000016   0.000000   0.000000
    13  H    0.517935   0.000000   0.000000  -0.000001   0.000000   0.000000
    14  C    0.000000   5.357914   0.484069   0.479503  -0.065739  -0.048775
    15  C    0.000000   0.484069   5.058799  -0.068622   0.463613   0.399229
    16  C   -0.000001   0.479503  -0.068622   5.114428  -0.029452   0.004440
    17  C    0.000000  -0.065739   0.463613  -0.029452   5.055097  -0.036080
    18  H    0.000000  -0.048775   0.399229   0.004440  -0.036080   0.507708
    19  C    0.000000  -0.067555  -0.031795   0.469136  -0.075896  -0.000423
    20  H    0.000000  -0.042566   0.004181   0.392269  -0.000227  -0.000239
    21  C    0.000000  -0.016432  -0.087601  -0.093762   0.490285   0.005360
    22  H    0.000000   0.006681  -0.039636  -0.000534   0.397084  -0.004230
    23  H    0.000000   0.006128  -0.000381  -0.037841   0.005940   0.000022
    24  H    0.000000  -0.001542   0.007436   0.007819  -0.042933  -0.000179
    25  C   -0.000001  -0.097177  -0.001101  -0.008197  -0.000631   0.000946
    26  C    0.000000  -0.018514   0.000266  -0.005098   0.000381   0.000221
    27  C    0.000000   0.005702   0.000835  -0.000165   0.000003   0.000231
    28  C    0.000000   0.000107  -0.000164  -0.000020  -0.000009   0.000007
    29  H    0.000000  -0.001969  -0.000869   0.001460  -0.000190  -0.000038
    30  C    0.000000  -0.000775  -0.000033   0.000027   0.000002  -0.000005
    31  H    0.000000   0.000484   0.000043  -0.000031   0.000001  -0.000001
    32  C    0.000000   0.000096  -0.000009  -0.000018   0.000000  -0.000009
    33  H    0.000000   0.000029   0.000007   0.000019   0.000001   0.000000
    34  H    0.000000   0.000011   0.000001   0.000000   0.000000   0.000000
    35  H    0.000000  -0.000001   0.000000   0.000000   0.000000   0.000000
             19         20         21         22         23         24
     1  C    0.004207  -0.000805   0.001169  -0.000371  -0.000337  -0.000017
     2  H   -0.000240  -0.000119  -0.000012  -0.000026   0.000014  -0.000001
     3  C    0.000097  -0.001939   0.000097   0.000011   0.000028  -0.000001
     4  C   -0.000168  -0.000870  -0.000008   0.000001   0.000007   0.000000
     5  C   -0.000018   0.001480  -0.000017   0.000000   0.000018   0.000000
     6  C   -0.000009  -0.000191   0.000000   0.000000   0.000001   0.000000
     7  H    0.000007  -0.000038  -0.000009   0.000000   0.000000   0.000000
     8  C   -0.000021   0.000916   0.000000   0.000000   0.000000   0.000000
     9  H    0.000043   0.000220   0.000000   0.000000  -0.000007   0.000000
    10  C    0.000005   0.000001   0.000000   0.000000  -0.000001   0.000000
    11  H    0.000000   0.000003   0.000000   0.000000   0.000000   0.000000
    12  H    0.000001   0.000007   0.000000   0.000000   0.000000   0.000000
    13  H    0.000000   0.000000   0.000000   0.000000   0.000000   0.000000
    14  C   -0.067555  -0.042566  -0.016432   0.006681   0.006128  -0.001542
    15  C   -0.031795   0.004181  -0.087601  -0.039636  -0.000381   0.007436
    16  C    0.469136   0.392269  -0.093762  -0.000534  -0.037841   0.007819
    17  C   -0.075896  -0.000227   0.490285   0.397084   0.005940  -0.042933
    18  H   -0.000423  -0.000239   0.005360  -0.004230   0.000022  -0.000179
    19  C    5.051700  -0.029817   0.496683   0.006121   0.396205  -0.042462
    20  H   -0.029817   0.474246   0.004622   0.000018  -0.003312  -0.000174
    21  C    0.496683   0.004622   5.033033  -0.040649  -0.040244   0.399540
    22  H    0.006121   0.000018  -0.040649   0.517969  -0.000211  -0.004499
    23  H    0.396205  -0.003312  -0.040244  -0.000211   0.515713  -0.004405
    24  H   -0.042462  -0.000174   0.399540  -0.004499  -0.004405   0.517902
    25  C    0.000685  -0.000797   0.000038   0.000023  -0.000003   0.000000
    26  C   -0.001073   0.000743   0.000068   0.000003   0.000016  -0.000001
    27  C    0.000022  -0.000017  -0.000001   0.000000   0.000000   0.000000
    28  C   -0.000022   0.000044   0.000005   0.000000   0.000001   0.000000
    29  H    0.000921   0.000223   0.000002   0.000003   0.000007   0.000000
    30  C    0.000000   0.000003   0.000000   0.000000   0.000000   0.000000
    31  H    0.000000   0.000000   0.000000   0.000000   0.000000   0.000000
    32  C    0.000000   0.000000   0.000000   0.000000   0.000000   0.000000
    33  H    0.000000  -0.000007  -0.000001   0.000000   0.000000   0.000000
    34  H    0.000000   0.000000   0.000000   0.000000   0.000000   0.000000
    35  H    0.000000   0.000000   0.000000   0.000000   0.000000   0.000000
             25         26         27         28         29         30
     1  C    0.145342  -0.041051  -0.054793   0.004233  -0.000838   0.007232
     2  H   -0.072076   0.005301  -0.001067  -0.000241  -0.000120   0.001484
     3  C   -0.097071  -0.008125  -0.001141   0.000680  -0.000786  -0.000632
     4  C    0.005752  -0.000167   0.000838   0.000022  -0.000017   0.000003
     5  C   -0.018636  -0.005081   0.000226  -0.001064   0.000733   0.000383
     6  C   -0.000776   0.000027  -0.000034   0.000000   0.000003   0.000002
     7  H    0.000487  -0.000031   0.000043   0.000000   0.000000   0.000001
     8  C    0.000091  -0.000019  -0.000168  -0.000022   0.000043  -0.000009
     9  H   -0.001951   0.001440  -0.000880   0.000921   0.000212  -0.000190
    10  C    0.000097  -0.000017  -0.000008   0.000000   0.000000   0.000000
    11  H    0.000011   0.000000   0.000001   0.000000   0.000000   0.000000
    12  H    0.000029   0.000018   0.000007   0.000000  -0.000007   0.000001
    13  H   -0.000001   0.000000   0.000000   0.000000   0.000000   0.000000
    14  C   -0.097177  -0.018514   0.005702   0.000107  -0.001969  -0.000775
    15  C   -0.001101   0.000266   0.000835  -0.000164  -0.000869  -0.000033
    16  C   -0.008197  -0.005098  -0.000165  -0.000020   0.001460   0.000027
    17  C   -0.000631   0.000381   0.000003  -0.000009  -0.000190   0.000002
    18  H    0.000946   0.000221   0.000231   0.000007  -0.000038  -0.000005
    19  C    0.000685  -0.001073   0.000022  -0.000022   0.000921   0.000000
    20  H   -0.000797   0.000743  -0.000017   0.000044   0.000223   0.000003
    21  C    0.000038   0.000068  -0.000001   0.000005   0.000002   0.000000
    22  H    0.000023   0.000003   0.000000   0.000000   0.000003   0.000000
    23  H   -0.000003   0.000016   0.000000   0.000001   0.000007   0.000000
    24  H    0.000000  -0.000001   0.000000   0.000000   0.000000   0.000000
    25  C    5.357814   0.479764   0.484174  -0.067621  -0.042513  -0.065778
    26  C    0.479764   5.114227  -0.068545   0.468963   0.392251  -0.029451
    27  C    0.484174  -0.068545   5.058601  -0.031792   0.004183   0.463604
    28  C   -0.067621   0.468963  -0.031792   5.051922  -0.029837  -0.075850
    29  H   -0.042513   0.392251   0.004183  -0.029837   0.474245  -0.000228
    30  C   -0.065778  -0.029451   0.463604  -0.075850  -0.000228   5.055073
    31  H   -0.048746   0.004436   0.399219  -0.000423  -0.000239  -0.036076
    32  C   -0.016411  -0.093807  -0.087614   0.496697   0.004625   0.490314
    33  H    0.006125  -0.037820  -0.000380   0.396187  -0.003313   0.005933
    34  H    0.006679  -0.000533  -0.039635   0.006116   0.000018   0.397077
    35  H   -0.001542   0.007822   0.007437  -0.042466  -0.000174  -0.042938
             31         32         33         34         35
     1  C    0.000494   0.001168  -0.000337  -0.000372  -0.000017
     2  H    0.001472  -0.000011   0.000014  -0.000026  -0.000001
     3  C    0.000946   0.000038  -0.000003   0.000024   0.000000
     4  C    0.000230  -0.000001   0.000000   0.000000   0.000000
     5  C    0.000223   0.000068   0.000016   0.000003  -0.000001
     6  C   -0.000005   0.000000   0.000000   0.000000   0.000000
     7  H   -0.000001   0.000000   0.000000   0.000000   0.000000
     8  C    0.000007   0.000005   0.000001   0.000000   0.000000
     9  H   -0.000038   0.000001   0.000008   0.000003   0.000000
    10  C   -0.000009   0.000000   0.000000   0.000000   0.000000
    11  H    0.000000   0.000000   0.000000   0.000000   0.000000
    12  H    0.000000  -0.000001   0.000000   0.000000   0.000000
    13  H    0.000000   0.000000   0.000000   0.000000   0.000000
    14  C    0.000484   0.000096   0.000029   0.000011  -0.000001
    15  C    0.000043  -0.000009   0.000007   0.000001   0.000000
    16  C   -0.000031  -0.000018   0.000019   0.000000   0.000000
    17  C    0.000001   0.000000   0.000001   0.000000   0.000000
    18  H   -0.000001  -0.000009   0.000000   0.000000   0.000000
    19  C    0.000000   0.000000   0.000000   0.000000   0.000000
    20  H    0.000000   0.000000  -0.000007   0.000000   0.000000
    21  C    0.000000   0.000000  -0.000001   0.000000   0.000000
    22  H    0.000000   0.000000   0.000000   0.000000   0.000000
    23  H    0.000000   0.000000   0.000000   0.000000   0.000000
    24  H    0.000000   0.000000   0.000000   0.000000   0.000000
    25  C   -0.048746  -0.016411   0.006125   0.006679  -0.001542
    26  C    0.004436  -0.093807  -0.037820  -0.000533   0.007822
    27  C    0.399219  -0.087614  -0.000380  -0.039635   0.007437
    28  C   -0.000423   0.496697   0.396187   0.006116  -0.042466
    29  H   -0.000239   0.004625  -0.003313   0.000018  -0.000174
    30  C   -0.036076   0.490314   0.005933   0.397077  -0.042938
    31  H    0.507649   0.005358   0.000022  -0.004229  -0.000179
    32  C    0.005358   5.033049  -0.040232  -0.040638   0.399531
    33  H    0.000022  -0.040232   0.515681  -0.000211  -0.004402
    34  H   -0.004229  -0.040638  -0.000211   0.517951  -0.004495
    35  H   -0.000179   0.399531  -0.004402  -0.004495   0.517939
 Mulliken atomic charges:
              1
     1  C   -0.526393
     2  H    0.197011
     3  C    0.053056
     4  C   -0.138770
     5  C   -0.166624
     6  C   -0.169193
     7  H    0.169360
     8  C   -0.176415
     9  H    0.202254
    10  C   -0.152187
    11  H    0.162243
    12  H    0.162645
    13  H    0.163489
    14  C    0.053296
    15  C   -0.139170
    16  C   -0.166551
    17  C   -0.169181
    18  H    0.169355
    19  C   -0.176333
    20  H    0.202140
    21  C   -0.152166
    22  H    0.162243
    23  H    0.162640
    24  H    0.163517
    25  C    0.052971
    26  C   -0.166612
    27  C   -0.138887
    28  C   -0.176374
    29  H    0.202209
    30  C   -0.169176
    31  H    0.169392
    32  C   -0.152199
    33  H    0.162664
    34  H    0.162258
    35  H    0.163487
 Sum of Mulliken atomic charges =   0.00000
 Mulliken charges with hydrogens summed into heavy atoms:
              1
     1  C   -0.329382
     3  C    0.053056
     4  C    0.030590
     5  C    0.035630
     6  C   -0.006950
     8  C   -0.013770
    10  C    0.011302
    14  C    0.053296
    15  C    0.030184
    16  C    0.035589
    17  C   -0.006938
    19  C   -0.013693
    21  C    0.011351
    25  C    0.052971
    26  C    0.035597
    27  C    0.030506
    28  C   -0.013710
    30  C   -0.006918
    32  C    0.011287
 Sum of Mulliken charges with hydrogens summed into heavy atoms =   0.00000
 Electronic spatial extent (au):  <R**2>=           4916.9784
 Charge=              0.0000 electrons
 Dipole moment (field-independent basis, Debye):
    X=             -0.0002    Y=             -0.0003    Z=             -0.0246  Tot=              0.0246
 Quadrupole moment (field-independent basis, Debye-Ang):
   XX=           -111.4587   YY=           -111.4892   ZZ=           -104.7026
   XY=              0.0088   XZ=              0.0175   YZ=              0.0013
 Traceless Quadrupole moment (field-independent basis, Debye-Ang):
   XX=             -2.2419   YY=             -2.2724   ZZ=              4.5143
   XY=              0.0088   XZ=              0.0175   YZ=              0.0013
 Octapole moment (field-independent basis, Debye-Ang**2):
  XXX=             35.2435  YYY=             22.5548  ZZZ=             -0.7847  XYY=            -35.2718
  XXY=            -22.5043  XXZ=              3.5504  XZZ=             -0.0101  YZZ=             -0.0565
  YYZ=              3.6610  XYZ=              0.0101
 Hexadecapole moment (field-independent basis, Debye-Ang**3):
 XXXX=          -2986.2719 YYYY=          -2984.7376 ZZZZ=           -746.3474 XXXY=              0.0110
 XXXZ=            -48.7062 YYYX=             -0.0009 YYYZ=             60.8943 ZZZX=              0.0028
 ZZZY=              0.0021 XXYY=           -994.8611 XXZZ=           -612.7277 YYZZ=           -612.5882
 XXYZ=            -60.7973 YYXZ=             48.9747 ZZXY=              0.1533
 N-N= 1.290447324522D+03 E-N=-4.276996566650D+03  KE= 7.285970019806D+02
 PrsmSu:  requested number of processors reduced to:  10 ShMem   1 Linda.
 Calling FoFJK, ICntrl=      2127 FMM=F ISym2X=0 I1Cent= 0 IOpClX= 0 NMat=1 NMatS=1 NMatT=0.
 ***** Axes restored to original set *****
 -------------------------------------------------------------------
 Center     Atomic                   Forces (Hartrees/Bohr)
 Number     Number              X              Y              Z
 -------------------------------------------------------------------
      1        6          -0.008729402   -0.005033523    0.020133713
      2        1           0.010020400    0.005789281   -0.023174513
      3        6          -0.005891061    0.011736177    0.003954685
      4        6           0.000613265   -0.001131812    0.005999528
      5        6          -0.001274344   -0.005386064   -0.008825185
      6        6           0.000086460    0.007601586    0.010629134
      7        1          -0.001395544    0.006229474   -0.016070844
      8        6          -0.000031946    0.005333629   -0.011135754
      9        1          -0.002065894    0.014264155    0.016094924
     10        6          -0.001369810    0.013472661   -0.001461258
     11        1           0.000287502   -0.009618470   -0.013549221
     12        1           0.001286693   -0.006614667    0.015236078
     13        1           0.001597997   -0.016593704    0.001683453
     14        6           0.010876866   -0.003768161    0.007438910
     15        6          -0.003159193   -0.003786534    0.003808303
     16        6          -0.001526316    0.008735024   -0.005550929
     17        6           0.003356078   -0.010063913    0.007744762
     18        1           0.011258633    0.008453743   -0.010117318
     19        6           0.008415502    0.004886513   -0.007693066
     20        1           0.008265717   -0.014882865    0.013265450
     21        6           0.013078701   -0.003889759    0.000399683
     22        1          -0.004400571    0.012469916   -0.010089821
     23        1          -0.011293137   -0.007666673    0.009594415
     24        1          -0.015993550    0.004937205   -0.000529338
     25        6          -0.008768222   -0.010172530   -0.002748300
     26        6           0.010120969    0.000868508   -0.002312614
     27        6          -0.003651973    0.001268192    0.004760965
     28        6           0.004455570   -0.002686664   -0.011206453
     29        1          -0.020098830   -0.007397784    0.002913959
     30        6          -0.012500194   -0.002844882    0.002525107
     31        1           0.007818788   -0.004435549   -0.014798273
     32        6          -0.007283973   -0.007007651   -0.009116546
     33        1          -0.006945998    0.004476300    0.014494260
     34        1           0.015775643    0.003909612   -0.003499114
     35        1           0.009065172    0.008549230    0.011201218
 -------------------------------------------------------------------
 Cartesian Forces:  Max     0.023174513 RMS     0.009006386

 GradGradGradGradGradGradGradGradGradGradGradGradGradGradGradGradGradGrad
 Berny optimization.
 Internal  Forces:  Max     0.025903323 RMS     0.006564784
 Search for a local minimum.
 Step number   1 out of a maximum of  197
 All quantities printed in internal units (Hartrees-Bohrs-Radians)
 Mixed Optimization -- RFO/linear search
 Second derivative matrix not updated -- first step.
     Eigenvalues ---    0.00650   0.00650   0.00651   0.01537   0.01537
     Eigenvalues ---    0.01538   0.02142   0.02143   0.02144   0.02171
     Eigenvalues ---    0.02171   0.02172   0.02182   0.02182   0.02182
     Eigenvalues ---    0.02201   0.02201   0.02201   0.02213   0.02213
     Eigenvalues ---    0.02214   0.02215   0.02215   0.02216   0.02216
     Eigenvalues ---    0.02216   0.02216   0.02218   0.02218   0.02218
     Eigenvalues ---    0.04655   0.06495   0.06498   0.15999   0.15999
     Eigenvalues ---    0.15999   0.16000   0.16000   0.16000   0.16000
     Eigenvalues ---    0.16000   0.16000   0.16000   0.16000   0.16000
     Eigenvalues ---    0.16000   0.16000   0.16000   0.19006   0.19009
     Eigenvalues ---    0.22000   0.22000   0.22000   0.22000   0.22000
     Eigenvalues ---    0.22000   0.23478   0.23478   0.23478   0.25000
     Eigenvalues ---    0.25000   0.25000   0.31292   0.31472   0.31473
     Eigenvalues ---    0.31480   0.33903   0.33903   0.33905   0.34106
     Eigenvalues ---    0.34111   0.34114   0.34260   0.34261   0.34261
     Eigenvalues ---    0.34263   0.34264   0.34265   0.34282   0.34282
     Eigenvalues ---    0.34284   0.42451   0.42456   0.42463   0.42579
     Eigenvalues ---    0.42580   0.42585   0.46390   0.46394   0.46405
     Eigenvalues ---    0.46771   0.46778   0.46795   0.47228   0.47229
     Eigenvalues ---    0.47235   0.47303   0.47306   0.473131000.00000
     Eigenvalues --- 1000.000001000.000001000.000001000.000001000.00000
     Eigenvalues --- 1000.000001000.000001000.000001000.000001000.00000
     Eigenvalues --- 1000.000001000.000001000.000001000.000001000.00000
     Eigenvalues --- 1000.000001000.000001000.000001000.000001000.00000
     Eigenvalues --- 1000.000001000.000001000.000001000.000001000.00000
     Eigenvalues --- 1000.000001000.000001000.000001000.000001000.00000
     Eigenvalues --- 1000.000001000.000001000.000001000.000001000.00000
     Eigenvalues --- 1000.000001000.000001000.000001000.000001000.00000
     Eigenvalues --- 1000.000001000.000001000.000001000.000001000.00000
     Eigenvalues --- 1000.000001000.000001000.000001000.000001000.00000
     Eigenvalues --- 1000.000001000.000001000.000001000.000001000.00000
     Eigenvalues --- 1000.000001000.000001000.000001000.000001000.00000
     Eigenvalues --- 1000.000001000.000001000.000001000.000001000.00000
     Eigenvalues --- 1000.000001000.000001000.000001000.000001000.00000
     Eigenvalues --- 1000.000001000.000001000.000001000.000001000.00000
     Eigenvalues --- 1000.000001000.000001000.000001000.000001000.00000
     Eigenvalues --- 1000.000001000.000001000.000001000.000001000.00000
     Eigenvalues --- 1000.000001000.00000
 RFO step:  Lambda=-2.71009137D-02 EMin= 6.49604831D-03
 Linear search not attempted -- first point.
 Maximum step size (   0.300) exceeded in Quadratic search.
    -- Step size scaled by   0.783
 Iteration  1 RMS(Cart)=  0.10439391 RMS(Int)=  0.00168555
 Iteration  2 RMS(Cart)=  0.00451942 RMS(Int)=  0.00032062
 Iteration  3 RMS(Cart)=  0.00000481 RMS(Int)=  0.00032061
 Iteration  4 RMS(Cart)=  0.00000000 RMS(Int)=  0.00032061
 Variable       Old X    -DE/DX   Delta X   Delta X   Delta X     New X
                                 (Linear)    (Quad)   (Total)
    R1        2.12158  -0.02590   0.00000  -0.05964  -0.05964   2.06194
    R2        2.85119   0.01959   0.00000   0.04486   0.04486   2.89605
    R3        2.85107   0.01960   0.00000   0.04488   0.04488   2.89595
    R4        2.85121   0.01956   0.00000   0.04481   0.04481   2.89602
    R5        2.64112  -0.00447   0.00000  -0.00723  -0.00721   2.63390
    R6        2.63719  -0.00237   0.00000  -0.00371  -0.00371   2.63348
    R7        2.62634  -0.00371   0.00000  -0.00590  -0.00590   2.62044
    R8        2.07138  -0.01728   0.00000  -0.03673  -0.03673   2.03465
    R9        2.62765  -0.00298   0.00000  -0.00458  -0.00458   2.62307
   R10        2.07494  -0.02144   0.00000  -0.04585  -0.04585   2.02909
   R11        2.62830  -0.00618   0.00000  -0.00976  -0.00977   2.61853
   R12        2.06887  -0.01662   0.00000  -0.03519  -0.03519   2.03368
   R13        2.62720  -0.00586   0.00000  -0.00914  -0.00916   2.61804
   R14        2.06885  -0.01666   0.00000  -0.03528  -0.03528   2.03358
   R15        2.06856  -0.01675   0.00000  -0.03546  -0.03546   2.03311
   R16        2.64099  -0.00442   0.00000  -0.00715  -0.00713   2.63386
   R17        2.63694  -0.00222   0.00000  -0.00348  -0.00347   2.63347
   R18        2.62641  -0.00372   0.00000  -0.00592  -0.00592   2.62049
   R19        2.07151  -0.01732   0.00000  -0.03684  -0.03684   2.03467
   R20        2.62771  -0.00304   0.00000  -0.00467  -0.00468   2.62304
   R21        2.07491  -0.02142   0.00000  -0.04579  -0.04579   2.02911
   R22        2.62808  -0.00608   0.00000  -0.00960  -0.00961   2.61847
   R23        2.06892  -0.01663   0.00000  -0.03522  -0.03522   2.03369
   R24        2.62714  -0.00580   0.00000  -0.00905  -0.00906   2.61808
   R25        2.06893  -0.01668   0.00000  -0.03533  -0.03533   2.03360
   R26        2.06853  -0.01675   0.00000  -0.03544  -0.03544   2.03310
   R27        2.63729  -0.00241   0.00000  -0.00378  -0.00377   2.63351
   R28        2.64119  -0.00451   0.00000  -0.00729  -0.00728   2.63391
   R29        2.62755  -0.00294   0.00000  -0.00450  -0.00451   2.62304
   R30        2.07494  -0.02145   0.00000  -0.04587  -0.04587   2.02907
   R31        2.62625  -0.00365   0.00000  -0.00581  -0.00581   2.62044
   R32        2.07144  -0.01730   0.00000  -0.03678  -0.03678   2.03466
   R33        2.62726  -0.00589   0.00000  -0.00918  -0.00920   2.61806
   R34        2.06892  -0.01668   0.00000  -0.03533  -0.03533   2.03359
   R35        2.62838  -0.00624   0.00000  -0.00985  -0.00986   2.61852
   R36        2.06889  -0.01662   0.00000  -0.03520  -0.03520   2.03369
   R37        2.06857  -0.01675   0.00000  -0.03546  -0.03546   2.03311
    A1        1.86682  -0.00347   0.00000  -0.03690  -0.03618   1.83064
    A2        1.86698  -0.00348   0.00000  -0.03699  -0.03627   1.83072
    A3        1.86681  -0.00348   0.00000  -0.03699  -0.03627   1.83054
    A4        1.95200   0.00312   0.00000   0.03331   0.03106   1.98306
    A5        1.95242   0.00314   0.00000   0.03337   0.03112   1.98354
    A6        1.95246   0.00314   0.00000   0.03335   0.03111   1.98357
    A7        2.07435  -0.00229   0.00000  -0.00628  -0.00629   2.06806
    A8        2.12875   0.00999   0.00000   0.02842   0.02841   2.15716
    A9        2.08009  -0.00771   0.00000  -0.02214  -0.02212   2.05796
   A10        2.10021   0.00545   0.00000   0.01654   0.01656   2.11677
   A11        2.09413  -0.00347   0.00000  -0.01137  -0.01138   2.08275
   A12        2.08884  -0.00199   0.00000  -0.00518  -0.00519   2.08365
   A13        2.10060   0.00331   0.00000   0.01037   0.01037   2.11097
   A14        2.08630   0.00072   0.00000   0.00474   0.00474   2.09104
   A15        2.09624  -0.00403   0.00000  -0.01515  -0.01515   2.08109
   A16        2.09746  -0.00004   0.00000  -0.00090  -0.00091   2.09655
   A17        2.09156   0.00013   0.00000   0.00091   0.00091   2.09247
   A18        2.09417  -0.00009   0.00000  -0.00001  -0.00001   2.09416
   A19        2.09761   0.00125   0.00000   0.00381   0.00378   2.10139
   A20        2.09039  -0.00052   0.00000  -0.00148  -0.00147   2.08892
   A21        2.09518  -0.00073   0.00000  -0.00233  -0.00232   2.09286
   A22        2.09040  -0.00227   0.00000  -0.00767  -0.00770   2.08270
   A23        2.09610   0.00113   0.00000   0.00381   0.00382   2.09993
   A24        2.09668   0.00114   0.00000   0.00386   0.00387   2.10055
   A25        2.07450  -0.00227   0.00000  -0.00624  -0.00625   2.06825
   A26        2.12866   0.00996   0.00000   0.02832   0.02832   2.15698
   A27        2.08002  -0.00769   0.00000  -0.02208  -0.02206   2.05796
   A28        2.10027   0.00543   0.00000   0.01648   0.01649   2.11677
   A29        2.09415  -0.00346   0.00000  -0.01134  -0.01135   2.08280
   A30        2.08876  -0.00198   0.00000  -0.00515  -0.00515   2.08361
   A31        2.10062   0.00331   0.00000   0.01037   0.01036   2.11098
   A32        2.08624   0.00073   0.00000   0.00479   0.00479   2.09103
   A33        2.09628  -0.00404   0.00000  -0.01519  -0.01519   2.08109
   A34        2.09747  -0.00004   0.00000  -0.00091  -0.00092   2.09655
   A35        2.09153   0.00013   0.00000   0.00091   0.00091   2.09244
   A36        2.09419  -0.00008   0.00000   0.00001   0.00001   2.09420
   A37        2.09766   0.00123   0.00000   0.00374   0.00372   2.10137
   A38        2.09037  -0.00052   0.00000  -0.00146  -0.00145   2.08891
   A39        2.09516  -0.00072   0.00000  -0.00229  -0.00228   2.09288
   A40        2.09032  -0.00224   0.00000  -0.00759  -0.00762   2.08270
   A41        2.09619   0.00111   0.00000   0.00376   0.00377   2.09996
   A42        2.09668   0.00113   0.00000   0.00383   0.00384   2.10051
   A43        2.12876   0.01001   0.00000   0.02847   0.02846   2.15723
   A44        2.07432  -0.00229   0.00000  -0.00628  -0.00629   2.06804
   A45        2.08010  -0.00773   0.00000  -0.02219  -0.02218   2.05792
   A46        2.10061   0.00332   0.00000   0.01038   0.01037   2.11098
   A47        2.08636   0.00071   0.00000   0.00471   0.00471   2.09107
   A48        2.09617  -0.00403   0.00000  -0.01512  -0.01512   2.08105
   A49        2.10020   0.00547   0.00000   0.01658   0.01660   2.11680
   A50        2.09416  -0.00348   0.00000  -0.01141  -0.01142   2.08274
   A51        2.08883  -0.00199   0.00000  -0.00518  -0.00519   2.08364
   A52        2.09757   0.00127   0.00000   0.00385   0.00383   2.10140
   A53        2.09040  -0.00053   0.00000  -0.00149  -0.00148   2.08893
   A54        2.09521  -0.00074   0.00000  -0.00237  -0.00237   2.09285
   A55        2.09744  -0.00003   0.00000  -0.00088  -0.00089   2.09655
   A56        2.09158   0.00013   0.00000   0.00091   0.00091   2.09250
   A57        2.09416  -0.00009   0.00000  -0.00003  -0.00003   2.09414
[...]
 5,-0.00053104,-0.00020792,0.00034097,0.00027615,-0.00000466,-0.0001927
 0,0.00036202,-0.00028165,0.00003360,0.00000650,0.00000225,0.00004298,-
 0.00053230,-0.00030912,-0.00031897,0.00013104,-0.00013418,0.00007471,0
 .00005416,0.00045570,-0.00004029,-0.00000894,0.00001339,0.00002445,-0.
 00000408,-0.00000523,-0.00000753,-0.00000798,-0.00000541,0.00030243,0.
 00004718,0.00129961,-0.00021289,-0.00004007,-0.00030991,0.00042686,-0.
 00011121,-0.00012555,0.00036650,-0.00005514,-0.00014518,-0.00004867,0.
 00000339,0.00010803,-0.00022680,0.00015071,-0.00013645,0.00003661,0.00
 004802,0.00003021,-0.00005439,-0.00023430,0.00021328,0.00001626,0.0000
 0008,-0.00000409,-0.00000086,-0.00000056,0.00000619,-0.00001159,0.0000
 0312,0.00000627,-0.08209318,0.01349547,0.06068958,-0.00729110,-0.04618
 375,-0.07924224,-0.02665042,-0.09834703,-0.22738986,0.09733415,0.02911
 027,0.02084372,-0.00029956,-0.00004700,-0.00123551,-0.07142270,0.24202
 151,0.59037411,0.00095152,0.00124525,0.00147568,-0.00030339,-0.0000520
 2,-0.00135593,0.00010953,-0.00027083,-0.00008147,-0.00001153,-0.000088
 60,-0.00003973,0.00003911,0.00008065,0.00020929,0.00001582,-0.00005370
 ,-0.00006804,-0.00004545,-0.00002011,-0.00003391,-0.00001105,-0.000031
 13,-0.00001645,-0.00002205,0.00004474,-0.00006114,-0.00003222,0.000045
 43,-0.00000756,0.00000207,0.00001413,0.00001205,-0.00000626,0.00002725
 ,-0.00002268,0.00000205,0.00001962,-0.00000904,0.00010650,0.00025926,-
 0.00037471,0.00000018,-0.00007835,0.00001662,0.00019654,-0.00011043,-0
 .00004367,0.00001128,-0.00000215,-0.00000990,-0.00002217,0.00005175,0.
 00000972,0.00005862,0.00003592,-0.00001302,-0.00000745,0.00001898,0.00
 001507,0.00002469,-0.00000709,0.00000137,0.00000860,-0.00000564,0.0000
 0960,0.00002636,0.00000532,0.00000420,0.00001209,0.00000156,0.00000203
 ,-0.00950497,0.01550193,0.03018323,-0.00627086,-0.00267288,0.00098314,
 -0.12828222,0.04880018,0.10574321,-0.00076420,-0.00046908,-0.00081590,
 -0.00056343,0.00078822,0.00145527,0.01324336,-0.01033885,-0.01900673,0
 .13108232,0.00004660,-0.00277088,0.00126505,-0.00036355,0.00035166,0.0
 0091352,-0.00023209,-0.00010609,-0.00014616,0.00010926,-0.00019137,-0.
 00011203,0.00008509,0.00000177,-0.00002540,-0.00003111,-0.00000299,-0.
 00007214,-0.00000641,0.00000544,0.00001712,0.00005713,-0.00009206,0.00
 004230,-0.00004589,0.00007486,0.00005143,-0.00000720,0.00000849,0.0000
 5138,-0.00000355,0.00000398,0.00001327,-0.00000663,-0.00000413,-0.0000
 0543,-0.00000360,0.00001411,0.00000278,0.00008592,0.00015661,0.0002697
 1,0.00015347,0.00008151,-0.00010045,-0.00000122,0.00001875,0.00005044,
 -0.00003223,-0.00003056,0.00000827,-0.00000237,-0.00002647,0.00003218,
 -0.00001179,-0.00005112,-0.00000505,-0.00001028,-0.00000646,0.00001853
 ,0.00002662,0.00000692,0.00000138,0.00001577,-0.00001040,0.00000476,0.
 00000172,-0.00000507,-0.00000630,0.00000021,-0.00000311,0.00000414,-0.
 00356994,0.00682623,0.00344489,-0.00240484,0.00571787,-0.00290615,0.04
 901304,-0.10480595,-0.10694762,-0.00040477,-0.00068913,0.00058450,-0.0
 0016686,0.00003649,0.00025720,0.01066092,-0.00187423,-0.01543873,-0.05
 035704,0.09702660,-0.00136282,0.00200456,-0.00033773,0.00018945,0.0001
 5394,0.00033328,0.00018974,0.00006766,0.00051446,-0.00010906,0.0003205
 7,0.00011462,-0.00019442,-0.00003223,-0.00012553,0.00002309,-0.0000546
 0,0.00011926,0.00002138,-0.00001182,-0.00003195,-0.00008816,0.00018355
 ,0.00002231,0.00012888,-0.00008990,-0.00005633,-0.00002047,0.00001158,
 -0.00010003,0.00000723,0.00001001,-0.00000987,0.00002128,0.00000400,-0
 .00000532,0.00001332,-0.00000313,-0.00000368,-0.00009420,-0.00018899,0
 .00015971,-0.00001317,0.00001631,0.00005060,-0.00009281,0.00004066,0.0
 0001346,-0.00000023,0.00003388,-0.00002110,0.00000763,-0.00000193,-0.0
 0002327,-0.00003190,-0.00001006,0.00002767,0.00000896,-0.00000326,-0.0
 0003142,0.00000730,-0.00000525,0.00000263,-0.00000482,-0.00000372,-0.0
 0000418,-0.00000285,0.00000217,-0.00000653,0.00000269,-0.00000196,-0.0
 0000426,-0.00136744,-0.00444472,-0.00104867,0.00130736,-0.00259514,0.0
 0352391,0.10632414,-0.10612052,-0.25605876,-0.00071433,0.00064417,0.00
 029824,0.00003260,-0.00012438,-0.00022305,0.01435965,-0.00839846,-0.01
 256409,-0.11518415,0.12137732,0.26619902,-0.00001386,0.00174786,0.0012
 7369,0.00027296,0.00030594,-0.00086883,0.00093564,0.00035465,0.0000262
 0,0.00025927,-0.00043032,-0.00010084,0.00025746,0.00007474,-0.00003575
 ,-0.00013966,0.00024070,-0.00022661,0.00000487,0.00001433,0.00000438,-
 0.00002069,-0.00039792,-0.00024491,-0.00027087,0.00004855,-0.00034856,
 0.00005818,0.00001861,0.00033337,-0.00004113,-0.00001852,0.00001043,0.
 00002253,-0.00003576,0.00000322,0.00000001,-0.00001512,-0.00000814,0.0
 0011290,-0.00051122,0.00038722,-0.00041853,-0.00003641,-0.00024596,0.0
 0040801,-0.00003530,-0.00018577,0.00044564,-0.00003563,-0.00008760,-0.
 00001931,0.00000600,0.00007865,-0.00023399,0.00026004,-0.00010859,0.00
 002970,0.00002474,-0.00000284,-0.00016815,-0.00025801,0.00024115,-0.00
 001064,0.00001750,-0.00002693,-0.00002464,-0.00000248,0.00001266,-0.00
 002390,0.00000212,-0.00000431,-0.07567959,0.01523645,0.04978292,-0.036
 25530,-0.05968055,-0.07996430,0.09310671,0.02422018,0.01129948,-0.3588
 7524,-0.01450744,0.07562919,0.00035744,-0.00282452,-0.00169032,-0.1959
 3849,-0.00155726,0.03882427,-0.00149021,-0.00396603,-0.00264414,0.7528
 1940,0.00069126,-0.00112863,0.00011729,-0.00017500,-0.00008474,0.00023
 672,-0.00067388,0.00014510,-0.00035470,-0.00003573,-0.00014372,0.00011
 919,0.00002450,-0.00006633,-0.00011831,0.00005473,-0.00003312,-0.00000
 551,-0.00001381,0.00002046,0.00000620,0.00001265,0.00005721,0.00010629
 ,0.00004239,0.00000404,0.00007855,-0.00000748,-0.00004089,-0.00005166,
 0.00001364,-0.00002671,-0.00000558,-0.00000464,-0.00001941,0.00000984,
 0.00000288,-0.00000253,0.00000954,0.00008112,0.00001404,-0.00015212,-0
 .00000065,-0.00005519,0.00006565,-0.00004304,0.00006057,-0.00005479,-0
 .00004093,-0.00000334,0.00004444,0.00003795,-0.00004140,0.00000238,0.0
 0004168,-0.00001936,0.00000247,-0.00000148,-0.00001229,-0.00000299,-0.
 00003214,0.00004754,-0.00001307,-0.00002516,0.00000965,-0.00002310,-0.
 00001593,-0.00000453,-0.00000243,-0.00001142,-0.00000120,-0.00000387,0
 .01603885,-0.00747284,-0.00677769,-0.02354062,0.01283671,0.01334427,-0
 .01125076,-0.01204037,-0.03161904,-0.06183812,-0.11198493,-0.02229079,
 -0.00289513,0.00424717,-0.00620156,0.04510855,-0.14125220,-0.10846630,
 -0.00362704,0.00474775,-0.00565584,0.12158754,0.37803314,0.00064829,-0
 .00115489,-0.00106093,-0.00059275,-0.00042111,0.00047246,-0.00114762,0
 .00014979,-0.00021379,-0.00019583,0.00009241,0.00029111,-0.00018346,-0
 .00033881,-0.00017150,0.00014643,-0.00020193,0.00014190,-0.00001023,0.
 00002066,0.00000889,-0.00000483,0.00031538,0.00017400,0.00010147,-0.00
 009416,0.00001199,-0.00003121,-0.00012424,-0.00026834,0.00003687,-0.00
 002991,-0.00001162,-0.00002622,-0.00005925,0.00003783,0.00000716,-0.00
 000992,0.00000602,0.00006543,0.00009978,-0.00044180,0.00017225,0.00003
 251,0.00020989,-0.00032695,0.00010669,0.00000951,-0.00026719,0.0000374
 8,0.00009894,0.00003563,-0.00003796,-0.00006270,0.00017611,-0.00015364
 ,0.00005334,-0.00000572,-0.00000711,-0.00000997,0.00001971,0.00018352,
 -0.00013064,-0.00001827,0.00000109,-0.00001046,-0.00001659,-0.00000603
 ,-0.00000643,-0.00000258,0.00000084,-0.00000716,0.05101190,-0.00547725
 ,-0.03614595,-0.02085249,0.02621397,0.05958402,-0.04839349,-0.04414100
 ,-0.04481045,0.00127460,-0.03944444,-0.14630992,-0.00205751,-0.0064505
 6,-0.00037613,0.11346696,-0.09114583,-0.27108105,-0.00199168,-0.005386
 22,0.00111001,-0.01605721,0.28003679,0.62792068,0.00053354,-0.00021087
 ,-0.00062115,-0.00006855,-0.00009072,-0.00016600,-0.00003278,0.0000071
 4,-0.00005586,-0.00000585,-0.00002919,-0.00000935,0.00000042,0.0000063
 3,0.00001253,0.00000496,-0.00000407,-0.00000463,-0.00000324,0.00000066
 ,0.00000604,0.00000893,-0.00000925,0.00001432,0.00000055,-0.00001537,0
 .00001796,0.00000047,-0.00000153,0.00000057,0.00000106,-0.00000104,0.0
 0000037,-0.00000163,0.00000332,-0.00000124,-0.00000157,0.00000249,0.00
 000162,0.00010638,0.00004092,0.00006538,-0.00001129,0.00001606,0.00000
 373,0.00000068,-0.00000041,0.00004096,-0.00000068,0.00001195,-0.000001
 86,-0.00000216,-0.00000346,-0.00000867,-0.00001719,0.00000473,0.000010
 39,0.00000132,-0.00001133,-0.00000762,-0.00002162,0.00001092,0.0000039
 5,-0.00000226,-0.00000205,-0.00000254,-0.00000348,-0.00000431,-0.00000
 654,0.00000086,-0.00000312,-0.00000404,-0.00148465,-0.00373642,-0.0022
 2055,0.01318238,-0.01006041,-0.01873750,-0.00087226,-0.00046372,-0.000
 81392,-0.12978599,0.04965866,0.10758599,0.00108360,0.00131273,-0.00007
 184,-0.00603465,-0.00278131,0.00096264,0.00002344,0.00024542,-0.000059
 80,-0.00827207,0.01641516,0.03094586,0.13129112,0.00048569,-0.00023059
 ,-0.00047897,-0.00015238,-0.00019281,-0.00017556,-0.00004649,0.0001475
 8,-0.00014039,0.00002631,-0.00010588,0.00003873,-0.00004258,-0.0001008
 5,-0.00003646,-0.00000385,0.00000059,-0.00000575,0.00000899,0.00000881
 ,0.00001932,-0.00000895,0.00000982,-0.00000378,0.00002484,0.00004040,-
 0.00004070,0.00000434,-0.00002262,0.00000630,-0.00000074,-0.00001172,-
 0.00000033,0.00000824,-0.00002803,0.00001067,0.00000439,-0.00000707,0.
 00000024,0.00022290,-0.00003714,0.00006410,0.00000900,0.00003155,0.000
 01157,-0.00009523,0.00004541,0.00001107,-0.00002704,-0.00001310,0.0000
 0681,-0.00000452,-0.00001379,0.00002085,0.00002174,-0.00001878,0.00002
 020,0.00000718,-0.00001702,-0.00001033,-0.00001466,0.00003043,-0.00001
 242,-0.00000122,0.00000263,0.00000275,-0.00002144,-0.00001057,-0.00000
 221,-0.00000778,0.00000161,-0.00000292,-0.00383150,0.00460436,-0.00504
 763,0.01065152,-0.00189237,-0.01556083,-0.00042553,-0.00066386,0.00062
 728,0.04977579,-0.10551426,-0.10795389,0.00053301,-0.00309528,0.002833
 57,-0.00253636,0.00639877,-0.00313367,0.00026030,-0.00087475,0.0005114
 9,-0.00447076,0.00718680,0.00409573,-0.05160199,0.09743835,0.00094785,
 0.00003479,-0.00045156,-0.00009323,-0.00015294,-0.00022368,-0.00017416
 ,0.00006793,-0.00015640,-0.00000711,-0.00010208,0.00004378,0.00000028,
 -0.00005830,0.00004595,0.00001519,-0.00002051,-0.00000450,-0.00000013,
 0.00001414,0.00000918,-0.00000878,0.00001538,-0.00001991,0.00001541,0.
 00002137,-0.00003982,-0.00000102,-0.00002552,-0.00001346,0.00000379,-0
 .00001863,-0.00001021,0.00000851,-0.00001242,0.00001113,0.00000153,-0.
 00001594,-0.00000109,0.00017924,-0.00010078,0.00002985,-0.00008304,0.0
 0002271,-0.00000775,-0.00001102,0.00004063,-0.00001364,0.00003523,0.00
 000454,0.00002277,0.00001735,-0.00002904,0.00000030,-0.00002095,0.0000
 3214,0.00000837,0.00001717,-0.00000329,-0.00001185,-0.00006996,0.00000
 970,0.00003203,-0.00001884,0.00001214,-0.00002854,-0.00002313,-0.00001
 139,-0.00000448,-0.00002097,-0.00000330,-0.00001140,-0.00262256,-0.005
 51734,0.00087546,0.01414750,-0.00802726,-0.01228856,-0.00093681,0.0005
 9602,0.00030941,0.10739005,-0.10784643,-0.25840537,-0.00101634,0.00265
 564,-0.00042815,0.00140958,-0.00298730,0.00370814,-0.00005216,0.000513
 54,-0.00043515,-0.00197419,-0.00340940,0.00091401,-0.11704293,0.121544
 30,0.26729267,-0.00067713,0.00022695,0.00052345,0.00000136,-0.00001344
 ,-0.00005125,-0.00011276,0.00014054,-0.00011037,0.00003013,-0.00009498
 ,0.00003461,0.00002638,-0.00005333,0.00004265,0.00001467,-0.00001567,-
 0.00001178,-0.00001069,0.00001378,0.00000656,0.00000095,0.00001052,-0.
 00002679,-0.00001818,0.00003917,-0.00003630,0.00001031,-0.00003362,-0.
 00001220,-0.00000604,-0.00002143,-0.00000960,-0.00000651,-0.00001669,0
 .00001821,-0.00000339,-0.00001953,-0.00000094,0.00006525,-0.00024695,-
 0.00018835,-0.00007603,-0.00001598,0.00001246,-0.00007442,0.00005820,-
 0.00004140,0.00000948,-0.00001622,0.00002094,0.00001320,-0.00001188,0.
 00001190,0.00001575,0.00001450,0.00000652,0.00000789,0.00000405,0.0000
 0115,-0.00002803,0.00000757,-0.00000404,-0.00001424,0.00001791,-0.0000
 0679,-0.00001818,-0.00000267,0.00000768,-0.00001548,0.00000427,-0.0000
 0118,0.00054518,-0.00319836,-0.00196129,0.00095297,0.00015518,-0.00042
 789,-0.01335439,0.00052797,0.00780882,0.00112394,0.00023896,0.00317414
 ,-0.00015150,0.00019954,-0.00009111,-0.35855700,-0.03953580,0.05096827
 ,0.00102606,0.00068630,-0.00119969,-0.00900466,-0.00474181,-0.00222072
 ,-0.00066801,-0.00012522,-0.00000536,0.37800760,-0.00073638,0.00002603
 ,0.00034149,0.00003891,0.00005868,0.00005061,-0.00009569,0.00005275,-0
 .00007476,-0.00000611,-0.00005080,0.00001590,0.00002543,-0.00004448,0.
 00000266,0.00001616,-0.00000180,-0.00000543,-0.00000775,0.00000503,0.0
 0001145,0.00002127,-0.00000464,-0.00001348,-0.00004024,0.00001560,-0.0
 0000406,0.00001383,-0.00003346,0.00000174,-0.00000284,-0.00000776,-0.0
 0000011,-0.00001112,-0.00001762,0.00001474,-0.00000751,-0.00000678,0.0
 0000099,-0.00009434,-0.00030368,-0.00013502,-0.00004426,0.00003899,-0.
 00004197,-0.00001075,0.00002348,-0.00001032,0.00005621,-0.00000411,0.0
 0001143,0.00000250,-0.00000141,0.00000539,-0.00003267,0.00004172,0.000
 00324,-0.00000116,-0.00001297,-0.00000793,-0.00003968,-0.00003458,0.00
 002652,0.00000073,0.00000259,-0.00000362,-0.00001099,-0.00000018,0.000
 00452,-0.00000491,-0.00000031,-0.00000136,-0.00268197,0.00437747,-0.00
 635600,0.00027741,-0.00098142,-0.00019655,-0.02025738,0.00345334,0.004
 02566,-0.00007247,0.00482978,-0.00610310,0.00013678,-0.00083954,0.0006
 0614,-0.03945306,-0.06057122,-0.00441485,0.00136982,-0.00316168,0.0027
 0455,0.01590903,0.00726374,-0.00296034,0.00072333,0.00002946,-0.000082
 61,0.04449836,0.04881711,-0.00103216,0.00011715,0.00034668,0.00004914,
 0.00004821,-0.00003319,0.00002546,0.00011095,0.00001062,0.00003761,-0.
 00004334,-0.00002329,0.00000667,-0.00000308,0.00000500,-0.00000278,0.0
 0000587,-0.00001657,-0.00000770,0.00000301,-0.00000032,-0.00000786,-0.
 00001877,0.00001224,0.00001237,-0.00000958,-0.00001204,0.00000297,0.00
 000242,0.00001169,-0.00000576,-0.00000537,-0.00000133,0.00000468,0.000
 00285,-0.00000406,0.00000114,-0.00000023,0.00000095,0.00003863,-0.0001
 5048,-0.00019608,-0.00003296,-0.00000551,0.00003570,-0.00006511,0.0000
 3507,0.00001363,-0.00002435,0.00000894,0.00001490,0.00000634,-0.000004
 99,-0.00001560,0.00001750,-0.00000138,0.00002494,0.00000036,-0.0000084
 0,-0.00000846,-0.00001372,0.00002558,-0.00001677,-0.00000926,0.0000056
 8,-0.00000349,-0.00000741,-0.00000253,-0.00000250,-0.00000278,-0.00000
 062,-0.00000388,-0.00158773,-0.00636803,-0.00033332,-0.00038971,-0.000
 22921,-0.00117299,-0.02529361,-0.00371165,0.00910901,0.00270780,-0.006
 17574,-0.00222704,-0.00010876,0.00059666,-0.00027161,0.05118958,-0.004
 33403,-0.07484737,-0.00009877,0.00290139,-0.00050449,0.03067698,0.0046
 9836,0.00165852,0.00140329,0.00023046,-0.00020722,-0.05621507,0.009810
 43,0.06904865,0.00006575,0.00023523,-0.00007755,0.00000095,-0.00003563
 ,-0.00011319,-0.00000059,0.00004569,-0.00000530,0.00000690,-0.00002124
 ,0.00001159,0.00001870,-0.00001748,0.00003911,0.00000318,-0.00000733,0
 .00000052,-0.00000273,0.00000418,0.00000091,-0.00000601,0.00000759,-0.
 00002635,-0.00002020,0.00002661,-0.00002626,-0.00000097,-0.00001023,-0
 .00000429,-0.00000146,-0.00000708,-0.00000499,0.00000249,-0.00000494,0
 .00000597,0.00000042,-0.00000950,-0.00000200,0.00003460,-0.00003334,-0
 .00002792,-0.00000958,-0.00004606,0.00001134,-0.00001752,0.00001313,-0
 .00006472,-0.00000253,-0.00001631,0.00001411,0.00000771,-0.00000181,0.
 00000925,0.00004193,-0.00000917,-0.00001174,0.00000745,0.00002147,0.00
 001234,-0.00000052,0.00001663,-0.00000121,-0.00000703,0.00001038,-0.00
 000886,-0.00000898,-0.00000308,0.00000621,-0.00001301,0.00000350,-0.00
 000211,-0.00069151,0.00061788,0.00087650,-0.00557897,-0.00135213,0.003
 08452,-0.00044121,0.00023440,0.00375623,-0.01197156,-0.02034648,-0.026
 09313,-0.00077159,-0.00085964,-0.00111777,0.01330199,0.01020452,0.0132
 1656,0.00039730,0.00043994,0.00053974,-0.16218979,-0.09117813,-0.10370
 613,0.00105022,0.00137398,-0.00000597,0.00094553,0.00052151,-0.0012750
 3,0.16585065,0.00011660,-0.00080906,0.00041759,-0.00006788,0.00002823,
 0.00013976,-0.00009409,-0.00000662,-0.00015639,0.00001430,-0.00006737,
 0.00003336,0.00000897,-0.00004610,0.00000169,0.00000781,-0.00001103,-0
 .00000328,0.00000082,0.00000577,0.00000815,-0.00000077,0.00002363,-0.0
 0002446,-0.00001509,0.00004036,-0.00003027,0.00000268,-0.00001924,-0.0
 0000781,-0.00000017,-0.00001040,-0.00000304,-0.00000250,-0.00001886,0.
 00001339,-0.00000135,-0.00001072,-0.00000134,-0.00000638,-0.00004622,-
 0.00001296,-0.00001432,-0.00002181,-0.00003407,0.00000281,0.00001874,-
 0.00003309,0.00000916,-0.00002019,0.00000529,-0.00000164,-0.00000180,0
 .00001730,0.00001311,0.00000505,-0.00000218,0.00000296,0.00000128,0.00
 000741,-0.00001202,0.00000432,0.00000305,0.00000023,0.00000639,0.00000
 158,-0.00000962,-0.00000488,0.00000205,-0.00000746,0.00000274,0.000000
 58,0.00068560,-0.00031965,0.00073657,-0.00172463,0.00666546,-0.0030662
 0,0.00055947,0.00552059,-0.00525531,0.00065689,0.00291544,-0.00386832,
 0.00000706,-0.00014558,-0.00009977,-0.01053288,-0.00205370,-0.00745155
 ,-0.00038536,-0.00037258,-0.00034052,-0.09128576,-0.14024018,-0.113742
 05,0.00057072,-0.00312606,0.00283951,0.00131978,-0.00295733,0.00246991
 ,0.10018294,0.13507137,-0.00012701,0.00054955,-0.00021652,0.00007038,-
 0.00003355,-0.00002321,-0.00002326,0.00008643,0.00005539,-0.00000878,0
 .00000673,0.00001951,-0.00001403,-0.00002280,0.00002379,0.00000242,-0.
 00000550,0.00001438,0.00000597,0.00000664,0.00000167,-0.00000671,0.000
 01714,-0.00001578,0.00001279,0.00000805,-0.00002110,0.00000200,-0.0000
 0938,-0.00001208,-0.00000032,-0.00000727,-0.00000782,0.00000197,-0.000
 00354,0.00000744,0.00000098,-0.00001168,-0.00000090,0.00005460,-0.0000
 7458,0.00000253,-0.00003091,0.00001934,0.00001040,-0.00005374,0.000026
 05,-0.00000336,0.00000469,-0.00000682,0.00001032,0.00001265,-0.0000152
 8,0.00000658,-0.00000169,0.00000252,-0.00000241,0.00000776,0.00000619,
 -0.00000311,-0.00001167,0.00000062,-0.00000015,-0.00000866,0.00000846,
 -0.00000859,-0.00000841,-0.00000101,0.00000414,-0.00000991,0.00000160,
 -0.00000092,0.00084626,0.00061724,-0.00032967,0.00248921,-0.00314263,0
 .00315359,0.00433332,-0.00514470,-0.00115343,0.00688173,0.00367702,0.0
 0858051,0.00020592,0.00019907,0.00015683,-0.01977055,-0.01517112,-0.01
 183604,-0.00083384,-0.00067339,-0.00089374,-0.10375798,-0.11366924,-0.
 19158430,-0.00123957,0.00255041,-0.00054033,-0.00001525,0.00277403,-0.
 00039093,0.11098963,0.12743540,0.19499730||0.00001626,0.00000921,-0.00
 003846,0.00000575,0.00000302,-0.00001724,-0.00001569,0.00000990,0.0000
 7032,-0.00000478,-0.00004662,-0.00002872,-0.00000358,0.00006990,-0.000
 03317,-0.00000608,0.00004583,-0.00003335,0.00000579,-0.00000018,0.0000
 1494,0.00001162,-0.00006586,-0.00001671,-0.00000074,-0.00001025,-0.000
 00967,0.00000614,-0.00000362,0.00005960,0.00000387,-0.00000050,0.00001
 007,-0.00000670,0.00000701,-0.00000596,-0.00000487,0.00001129,-0.00000
 749,-0.00001243,-0.00004154,0.00006806,-0.00003469,0.00004562,-0.00002
 032,0.00008005,-0.00000719,-0.00002240,0.00005973,0.00000613,-0.000018
 94,-0.00000642,-0.00001312,0.00000675,-0.00006139,0.00003473,-0.000024
 47,-0.00000646,0.00001131,-0.00000630,-0.00002605,-0.00004426,0.000041
 09,-0.00000492,-0.00000861,0.00000441,0.00001039,0.00000487,0.00000097
 ,0.00001405,0.00000318,-0.00000169,-0.00005140,-0.00001629,0.00005014,
 -0.00002096,-0.00003398,-0.00006889,0.00005356,0.00001471,0.00001152,0
 .00005328,0.00003882,0.00002703,0.00001375,0.00000322,0.,-0.00000459,-
 0.00002703,-0.00005220,-0.00001224,0.00000568,0.00000880,-0.00004339,0
 .00000923,0.00004342,0.00000155,-0.00000930,-0.00000646,-0.00000790,0.
 00000407,0.00000626,-0.00000053,-0.00000938,-0.00001092|||@


 A COMPUTER IS LIKE A HORSE, IT WILL SENSE WEAKNESS.
     -- GREG WETTSTEIN
 Job cpu time:  0 days  0 hours  6 minutes 33.0 seconds.
 File lengths (MBytes):  RWF=    350 Int=      0 D2E=      0 Chk=      7 Scr=      1
 Normal termination of Gaussian 09 at Mon Sep 06 13:56:41 2021.
