 Entering Link 1 = b:\programy\g09w\l1.exe PID=      2828.
  
 Copyright (c) 1988,1990,1992,1993,1995,1998,2003,2009, Gaussian, Inc.
                  All Rights Reserved.
  
 This is part of the Gaussian(R) 09 program.  It is based on
 the Gaussian(R) 03 system (copyright 2003, Gaussian, Inc.),
 the Gaussian(R) 98 system (copyright 1998, Gaussian, Inc.),
 the Gaussian(R) 94 system (copyright 1995, Gaussian, Inc.),
 the Gaussian 92(TM) system (copyright 1992, Gaussian, Inc.),
 the Gaussian 90(TM) system (copyright 1990, Gaussian, Inc.),
 the Gaussian 88(TM) system (copyright 1988, Gaussian, Inc.),
 the Gaussian 86(TM) system (copyright 1986, Carnegie Mellon
 University), and the Gaussian 82(TM) system (copyright 1983,
 Carnegie Mellon University). Gaussian is a federally registered
 trademark of Gaussian, Inc.
  
 This software contains proprietary and confidential information,
 including trade secrets, belonging to Gaussian, Inc.
  
 This software is provided under written license and may be
 used, copied, transmitted, or stored only in accord with that
 written license.
  
 The following legend is applicable only to US Government
 contracts under FAR:
  
                    RESTRICTED RIGHTS LEGEND
  
 Use, reproduction and disclosure by the US Government is
 subject to restrictions as set forth in subparagraphs (a)
 and (c) of the Commercial Computer Software - Restricted
 Rights clause in FAR 52.227-19.
  
 Gaussian, Inc.
 340 Quinnipiac St., Bldg. 40, Wallingford CT 06492
  
  
 ---------------------------------------------------------------
 Warning -- This program may not be used in any manner that
 competes with the business of Gaussian, Inc. or will provide
 assistance to any competitor of Gaussian, Inc.  The licensee
 of this program is prohibited from giving any competitor of
 Gaussian, Inc. access to this program.  By using this program,
 the user acknowledges that Gaussian, Inc. is engaged in the
 business of creating and licensing software in the field of
 computational chemistry and represents and warrants to the
 licensee that it is not a competitor of Gaussian, Inc. and that
 it will not use this program in any manner prohibited above.
 ---------------------------------------------------------------
  

 Cite this work as:
 Gaussian 09, Revision A.02,
 M. J. Frisch, G. W. Trucks, H. B. Schlegel, G. E. Scuseria, 
 M. A. Robb, J. R. Cheeseman, G. Scalmani, V. Barone, B. Mennucci, 
 G. A. Petersson, H. Nakatsuji, M. Caricato, X. Li, H. P. Hratchian, 
 A. F. Izmaylov, J. Bloino, G. Zheng, J. L. Sonnenberg, M. Hada, 
 M. Ehara, K. Toyota, R. Fukuda, J. Hasegawa, M. Ishida, T. Nakajima, 
 Y. Honda, O. Kitao, H. Nakai, T. Vreven, J. A. Montgomery, Jr., 
 J. E. Peralta, F. Ogliaro, M. Bearpark, J. J. Heyd, E. Brothers, 
 K. N. Kudin, V. N. Staroverov, R. Kobayashi, J. Normand, 
 K. Raghavachari, A. Rendell, J. C. Burant, S. S. Iyengar, J. Tomasi, 
 M. Cossi, N. Rega, J. M. Millam, M. Klene, J. E. Knox, J. B. Cross, 
 V. Bakken, C. Adamo, J. Jaramillo, R. Gomperts, R. E. Stratmann, 
 O. Yazyev, A. J. Austin, R. Cammi, C. Pomelli, J. W. Ochterski, 
 R. L. Martin, K. Morokuma, V. G. Zakrzewski, G. A. Voth, 
 P. Salvador, J. J. Dannenberg, S. Dapprich, A. D. Daniels, 
 O. Farkas, J. B. Foresman, J. V. Ortiz, J. Cioslowski, 
 and D. J. Fox, Gaussian, Inc., Wallingford CT, 2009.
 
 ******************************************
 Gaussian 09:  IA32W-G09RevA.02 11-Jun-2009
                07-Sep-2021 
 ******************************************
 %nprocshared=12
 Will use up to   12 processors via shared memory.
 ----------------------------------------------
 # opt freq=noraman hf/6-311g geom=connectivity
 ----------------------------------------------
 1/18=20,19=15,38=1,57=2/1,3;
 2/9=110,12=2,17=6,18=5,40=1/2;
 3/5=4,6=6,11=9,16=1,25=1,30=1,71=1/1,2,3;
 4//1;
 5/5=2,38=5/2;
 6/7=2,8=2,9=2,10=2,28=1/1;
 7//1,2,3,16;
 1/18=20,19=15/3(2);
 2/9=110/2;
 99//99;
 2/9=110/2;
 3/5=4,6=6,11=9,16=1,25=1,30=1,71=1/1,2,3;
 4/5=5,16=3/1;
 5/5=2,38=5/2;
 7//1,2,3,16;
 1/18=20,19=15/3(-5);
 2/9=110/2;
 6/7=2,8=2,9=2,10=2,19=2,28=1/1;
 99/9=1/99;
 -----
 M0001
 -----
 Symbolic Z-matrix:
 Charge =  0 Multiplicity = 1
 C                    -0.7123    0.15167   0.26158 
 H                    -1.75568   0.4       0.59489 
 C                    -0.7576   -0.14974  -1.21725 
 C                     0.41143  -0.34827  -1.95462 
 C                    -1.99278  -0.22575  -1.86421 
 C                     0.34717  -0.61158  -3.31744 
 H                     1.38247  -0.31117  -1.43774 
 C                    -2.05467  -0.49193  -3.22763 
 H                    -2.91929  -0.07613  -1.29752 
 C                    -0.88627  -0.68258  -3.95668 
 H                     1.26958  -0.76417  -3.887 
 H                    -3.0272   -0.55079  -3.72709 
 H                    -0.93681  -0.88954  -5.0304 
 C                     0.08982   1.3985    0.5423 
 C                    -0.21792   2.56162  -0.17214 
 C                     1.08389   1.44843   1.51846 
 C                     0.46037   3.74589   0.08254 
 H                    -0.9982    2.53027  -0.94199 
 C                     1.76126   2.63681   1.77334 
 H                     1.33507   0.54632   2.09073 
 C                     1.45276   3.7865    1.05721 
 H                     0.21264   4.64884  -0.48474 
 H                     2.5395    2.6628    2.54295 
 H                     1.98679   4.72048   1.25855 
 C                    -0.26738  -1.06129   1.03952 
 C                     0.97737  -1.65785   0.82526 
 C                    -1.12714  -1.60813   1.9949 
 C                     1.35559  -2.77968   1.55273 
 H                     1.64953  -1.23479   0.06198 
 C                    -0.74645  -2.73055   2.72217 
 H                    -2.10807  -1.15232   2.17445 
 C                     0.49461  -3.3178    2.50343 
 H                     2.33267  -3.24025   1.37463 
 H                    -1.42747  -3.15217   3.46852 
 H                     0.79272  -4.20166   3.07631 
 

 GradGradGradGradGradGradGradGradGradGradGradGradGradGradGradGradGradGrad
 Berny optimization.
 Initialization pass.
                           ----------------------------
                           !    Initial Parameters    !
                           ! (Angstroms and Degrees)  !
 --------------------------                            --------------------------
 ! Name  Definition              Value          Derivative Info.                !
 --------------------------------------------------------------------------------
 ! R1    R(1,2)                  1.1231         estimate D2E/DX2                !
 ! R2    R(1,3)                  1.5099         estimate D2E/DX2                !
 ! R3    R(1,14)                 1.5089         estimate D2E/DX2                !
 ! R4    R(1,25)                 1.5081         estimate D2E/DX2                !
 ! R5    R(3,4)                  1.3963         estimate D2E/DX2                !
 ! R6    R(3,5)                  1.3964         estimate D2E/DX2                !
 ! R7    R(4,6)                  1.3895         estimate D2E/DX2                !
 ! R8    R(4,7)                  1.1007         estimate D2E/DX2                !
 ! R9    R(5,8)                  1.3905         estimate D2E/DX2                !
 ! R10   R(5,9)                  1.0963         estimate D2E/DX2                !
 ! R11   R(6,10)                 1.3911         estimate D2E/DX2                !
 ! R12   R(6,11)                 1.0948         estimate D2E/DX2                !
 ! R13   R(8,10)                 1.3903         estimate D2E/DX2                !
 ! R14   R(8,12)                 1.0949         estimate D2E/DX2                !
 ! R15   R(10,13)                1.0947         estimate D2E/DX2                !
 ! R16   R(14,15)                1.3993         estimate D2E/DX2                !
 ! R17   R(14,16)                1.3941         estimate D2E/DX2                !
 ! R18   R(15,17)                1.3883         estimate D2E/DX2                !
 ! R19   R(15,18)                1.0966         estimate D2E/DX2                !
 ! R20   R(16,19)                1.3914         estimate D2E/DX2                !
 ! R21   R(16,20)                1.0974         estimate D2E/DX2                !
 ! R22   R(17,21)                1.3916         estimate D2E/DX2                !
 ! R23   R(17,22)                1.0948         estimate D2E/DX2                !
 ! R24   R(19,21)                1.3892         estimate D2E/DX2                !
 ! R25   R(19,23)                1.0948         estimate D2E/DX2                !
 ! R26   R(21,24)                1.0946         estimate D2E/DX2                !
 ! R27   R(25,26)                1.3969         estimate D2E/DX2                !
 ! R28   R(25,27)                1.3968         estimate D2E/DX2                !
 ! R29   R(26,28)                1.3895         estimate D2E/DX2                !
 ! R30   R(26,29)                1.1015         estimate D2E/DX2                !
 ! R31   R(27,30)                1.3906         estimate D2E/DX2                !
 ! R32   R(27,31)                1.0965         estimate D2E/DX2                !
 ! R33   R(28,32)                1.3909         estimate D2E/DX2                !
 ! R34   R(28,33)                1.0948         estimate D2E/DX2                !
 ! R35   R(30,32)                1.3903         estimate D2E/DX2                !
 ! R36   R(30,34)                1.0948         estimate D2E/DX2                !
 ! R37   R(32,35)                1.0947         estimate D2E/DX2                !
 ! A1    A(2,1,3)              107.8737         estimate D2E/DX2                !
 ! A2    A(2,1,14)             104.8291         estimate D2E/DX2                !
 ! A3    A(2,1,25)             107.387          estimate D2E/DX2                !
 ! A4    A(3,1,14)             111.2914         estimate D2E/DX2                !
 ! A5    A(3,1,25)             110.7022         estimate D2E/DX2                !
 ! A6    A(14,1,25)            114.3182         estimate D2E/DX2                !
 ! A7    A(1,3,4)              121.3634         estimate D2E/DX2                !
 ! A8    A(1,3,5)              119.4174         estimate D2E/DX2                !
 ! A9    A(4,3,5)              119.2184         estimate D2E/DX2                !
 ! A10   A(3,4,6)              120.4082         estimate D2E/DX2                !
 ! A11   A(3,4,7)              119.0669         estimate D2E/DX2                !
 ! A12   A(6,4,7)              120.5158         estimate D2E/DX2                !
 ! A13   A(3,5,8)              120.2685         estimate D2E/DX2                !
 ! A14   A(3,5,9)              120.0399         estimate D2E/DX2                !
 ! A15   A(8,5,9)              119.6915         estimate D2E/DX2                !
 ! A16   A(4,6,10)             120.0914         estimate D2E/DX2                !
 ! A17   A(4,6,11)             119.8485         estimate D2E/DX2                !
 ! A18   A(10,6,11)            120.0601         estimate D2E/DX2                !
 ! A19   A(5,8,10)             120.1979         estimate D2E/DX2                !
 ! A20   A(5,8,12)             119.8091         estimate D2E/DX2                !
 ! A21   A(10,8,12)            119.993          estimate D2E/DX2                !
 ! A22   A(6,10,8)             119.8146         estimate D2E/DX2                !
 ! A23   A(6,10,13)            120.0882         estimate D2E/DX2                !
 ! A24   A(8,10,13)            120.0971         estimate D2E/DX2                !
 ! A25   A(1,14,15)            118.3567         estimate D2E/DX2                !
 ! A26   A(1,14,16)            122.6095         estimate D2E/DX2                !
 ! A27   A(15,14,16)           118.9832         estimate D2E/DX2                !
 ! A28   A(14,15,17)           120.527          estimate D2E/DX2                !
 ! A29   A(14,15,18)           119.4178         estimate D2E/DX2                !
 ! A30   A(17,15,18)           120.0543         estimate D2E/DX2                !
 ! A31   A(14,16,19)           120.3963         estimate D2E/DX2                !
 ! A32   A(14,16,20)           119.9262         estimate D2E/DX2                !
 ! A33   A(19,16,20)           119.6775         estimate D2E/DX2                !
 ! A34   A(15,17,21)           120.1193         estimate D2E/DX2                !
 ! A35   A(15,17,22)           119.8645         estimate D2E/DX2                !
 ! A36   A(21,17,22)           120.0162         estimate D2E/DX2                !
 ! A37   A(16,19,21)           120.2851         estimate D2E/DX2                !
 ! A38   A(16,19,23)           119.6762         estimate D2E/DX2                !
 ! A39   A(21,19,23)           120.0387         estimate D2E/DX2                !
 ! A40   A(17,21,19)           119.6886         estimate D2E/DX2                !
 ! A41   A(17,21,24)           120.1109         estimate D2E/DX2                !
 ! A42   A(19,21,24)           120.2005         estimate D2E/DX2                !
 ! A43   A(1,25,26)            121.8206         estimate D2E/DX2                !
 ! A44   A(1,25,27)            119.0855         estimate D2E/DX2                !
 ! A45   A(26,25,27)           119.0928         estimate D2E/DX2                !
 ! A46   A(25,26,28)           120.4672         estimate D2E/DX2                !
 ! A47   A(25,26,29)           119.0795         estimate D2E/DX2                !
 ! A48   A(28,26,29)           120.4482         estimate D2E/DX2                !
 ! A49   A(25,27,30)           120.3464         estimate D2E/DX2                !
 ! A50   A(25,27,31)           119.9954         estimate D2E/DX2                !
 ! A51   A(30,27,31)           119.6582         estimate D2E/DX2                !
 ! A52   A(26,28,32)           120.1129         estimate D2E/DX2                !
 ! A53   A(26,28,33)           119.8292         estimate D2E/DX2                !
 ! A54   A(32,28,33)           120.0579         estimate D2E/DX2                !
 ! A55   A(27,30,32)           120.2008         estimate D2E/DX2                !
 ! A56   A(27,30,34)           119.8079         estimate D2E/DX2                !
 ! A57   A(32,30,34)           119.9912         estimate D2E/DX2                !
 ! A58   A(28,32,30)           119.7799         estimate D2E/DX2                !
 ! A59   A(28,32,35)           120.1002         estimate D2E/DX2                !
 ! A60   A(30,32,35)           120.1199         estimate D2E/DX2                !
 ! D1    D(2,1,3,4)            172.7536         estimate D2E/DX2                !
 ! D2    D(2,1,3,5)             -6.9397         estimate D2E/DX2                !
 ! D3    D(14,1,3,4)            58.279          estimate D2E/DX2                !
 ! D4    D(14,1,3,5)          -121.4143         estimate D2E/DX2                !
 ! D5    D(25,1,3,4)           -70.0191         estimate D2E/DX2                !
 ! D6    D(25,1,3,5)           110.2876         estimate D2E/DX2                !
 ! D7    D(2,1,14,15)          -65.1024         estimate D2E/DX2                !
 ! D8    D(2,1,14,16)          112.2833         estimate D2E/DX2                !
 ! D9    D(3,1,14,15)           51.2524         estimate D2E/DX2                !
 ! D10   D(3,1,14,16)         -131.3618         estimate D2E/DX2                !
 ! D11   D(25,1,14,15)         177.584          estimate D2E/DX2                !
 ! D12   D(25,1,14,16)          -5.0302         estimate D2E/DX2                !
 ! D13   D(2,1,25,26)          177.7157         estimate D2E/DX2                !
 ! D14   D(2,1,25,27)           -1.8854         estimate D2E/DX2                !
 ! D15   D(3,1,25,26)           60.1897         estimate D2E/DX2                !
 ! D16   D(3,1,25,27)         -119.4114         estimate D2E/DX2                !
 ! D17   D(14,1,25,26)         -66.4477         estimate D2E/DX2                !
 ! D18   D(14,1,25,27)         113.9513         estimate D2E/DX2                !
 ! D19   D(1,3,4,6)           -179.3658         estimate D2E/DX2                !
 ! D20   D(1,3,4,7)              1.7244         estimate D2E/DX2                !
 ! D21   D(5,3,4,6)              0.328          estimate D2E/DX2                !
 ! D22   D(5,3,4,7)           -178.5818         estimate D2E/DX2                !
 ! D23   D(1,3,5,8)            179.4967         estimate D2E/DX2                !
 ! D24   D(1,3,5,9)             -0.5469         estimate D2E/DX2                !
 ! D25   D(4,3,5,8)             -0.2032         estimate D2E/DX2                !
 ! D26   D(4,3,5,9)            179.7532         estimate D2E/DX2                !
 ! D27   D(3,4,6,10)            -0.1651         estimate D2E/DX2                !
 ! D28   D(3,4,6,11)           179.9014         estimate D2E/DX2                !
 ! D29   D(7,4,6,10)           178.7288         estimate D2E/DX2                !
 ! D30   D(7,4,6,11)            -1.2047         estimate D2E/DX2                !
 ! D31   D(3,5,8,10)            -0.0846         estimate D2E/DX2                !
 ! D32   D(3,5,8,12)           179.9427         estimate D2E/DX2                !
 ! D33   D(9,5,8,10)           179.9589         estimate D2E/DX2                !
 ! D34   D(9,5,8,12)            -0.0138         estimate D2E/DX2                !
 ! D35   D(4,6,10,8)            -0.1254         estimate D2E/DX2                !
 ! D36   D(4,6,10,13)          179.9707         estimate D2E/DX2                !
 ! D37   D(11,6,10,8)          179.8078         estimate D2E/DX2                !
 ! D38   D(11,6,10,13)          -0.096          estimate D2E/DX2                !
 ! D39   D(5,8,10,6)             0.25           estimate D2E/DX2                !
 ! D40   D(5,8,10,13)         -179.8461         estimate D2E/DX2                !
 ! D41   D(12,8,10,6)         -179.7774         estimate D2E/DX2                !
 ! D42   D(12,8,10,13)           0.1265         estimate D2E/DX2                !
 ! D43   D(1,14,15,17)         177.7817         estimate D2E/DX2                !
 ! D44   D(1,14,15,18)          -2.5534         estimate D2E/DX2                !
 ! D45   D(16,14,15,17)          0.299          estimate D2E/DX2                !
 ! D46   D(16,14,15,18)        179.9639         estimate D2E/DX2                !
 ! D47   D(1,14,16,19)        -177.5841         estimate D2E/DX2                !
 ! D48   D(1,14,16,20)           2.3959         estimate D2E/DX2                !
 ! D49   D(15,14,16,19)         -0.214          estimate D2E/DX2                !
 ! D50   D(15,14,16,20)        179.766          estimate D2E/DX2                !
 ! D51   D(14,15,17,21)         -0.201          estimate D2E/DX2                !
 ! D52   D(14,15,17,22)        179.8379         estimate D2E/DX2                !
 ! D53   D(18,15,17,21)       -179.8638         estimate D2E/DX2                !
 ! D54   D(18,15,17,22)          0.1752         estimate D2E/DX2                !
 ! D55   D(14,16,19,21)          0.0315         estimate D2E/DX2                !
 ! D56   D(14,16,19,23)        179.9696         estimate D2E/DX2                !
 ! D57   D(20,16,19,21)       -179.9486         estimate D2E/DX2                !
 ! D58   D(20,16,19,23)         -0.0104         estimate D2E/DX2                !
 ! D59   D(15,17,21,19)          0.0144         estimate D2E/DX2                !
 ! D60   D(15,17,21,24)       -179.942          estimate D2E/DX2                !
 ! D61   D(22,17,21,19)        179.9755         estimate D2E/DX2                !
 ! D62   D(22,17,21,24)          0.019          estimate D2E/DX2                !
 ! D63   D(16,19,21,17)          0.0701         estimate D2E/DX2                !
 ! D64   D(16,19,21,24)       -179.9735         estimate D2E/DX2                !
 ! D65   D(23,19,21,17)       -179.8678         estimate D2E/DX2                !
 ! D66   D(23,19,21,24)          0.0886         estimate D2E/DX2                !
 ! D67   D(1,25,26,28)        -179.6218         estimate D2E/DX2                !
 ! D68   D(1,25,26,29)          -0.4393         estimate D2E/DX2                !
 ! D69   D(27,25,26,28)         -0.0208         estimate D2E/DX2                !
 ! D70   D(27,25,26,29)        179.1617         estimate D2E/DX2                !
 ! D71   D(1,25,27,30)         179.6571         estimate D2E/DX2                !
 ! D72   D(1,25,27,31)          -0.331          estimate D2E/DX2                !
 ! D73   D(26,25,27,30)          0.0451         estimate D2E/DX2                !
 ! D74   D(26,25,27,31)       -179.9431         estimate D2E/DX2                !
 ! D75   D(25,26,28,32)         -0.0447         estimate D2E/DX2                !
 ! D76   D(25,26,28,33)        179.8558         estimate D2E/DX2                !
 ! D77   D(29,26,28,32)       -179.2159         estimate D2E/DX2                !
 ! D78   D(29,26,28,33)          0.6845         estimate D2E/DX2                !
 ! D79   D(25,27,30,32)         -0.004          estimate D2E/DX2                !
 ! D80   D(25,27,30,34)       -179.9712         estimate D2E/DX2                !
 ! D81   D(31,27,30,32)        179.9842         estimate D2E/DX2                !
 ! D82   D(31,27,30,34)          0.017          estimate D2E/DX2                !
 ! D83   D(26,28,32,30)          0.0859         estimate D2E/DX2                !
 ! D84   D(26,28,32,35)        179.9915         estimate D2E/DX2                !
 ! D85   D(33,28,32,30)       -179.8143         estimate D2E/DX2                !
 ! D86   D(33,28,32,35)          0.0913         estimate D2E/DX2                !
 ! D87   D(27,30,32,28)         -0.0616         estimate D2E/DX2                !
 ! D88   D(27,30,32,35)       -179.9672         estimate D2E/DX2                !
 ! D89   D(34,30,32,28)        179.9055         estimate D2E/DX2                !
 ! D90   D(34,30,32,35)         -0.0001         estimate D2E/DX2                !
 --------------------------------------------------------------------------------
 Trust Radius=3.00D-01 FncErr=1.00D-07 GrdErr=1.00D-07
 Number of steps in this run= 197 maximum allowed number of steps= 210.
 GradGradGradGradGradGradGradGradGradGradGradGradGradGradGradGradGradGrad

                          Input orientation:                          
 ---------------------------------------------------------------------
 Center     Atomic      Atomic             Coordinates (Angstroms)
 Number     Number       Type             X           Y           Z
 ---------------------------------------------------------------------
      1          6           0       -0.712299    0.151673    0.261583
      2          1           0       -1.755676    0.400003    0.594887
      3          6           0       -0.757604   -0.149740   -1.217249
      4          6           0        0.411432   -0.348272   -1.954623
      5          6           0       -1.992784   -0.225748   -1.864215
      6          6           0        0.347175   -0.611578   -3.317441
      7          1           0        1.382466   -0.311167   -1.437742
      8          6           0       -2.054674   -0.491931   -3.227626
      9          1           0       -2.919292   -0.076125   -1.297521
     10          6           0       -0.886268   -0.682578   -3.956675
     11          1           0        1.269582   -0.764165   -3.886996
     12          1           0       -3.027200   -0.550788   -3.727086
     13          1           0       -0.936809   -0.889537   -5.030397
     14          6           0        0.089820    1.398495    0.542296
     15          6           0       -0.217920    2.561622   -0.172144
     16          6           0        1.083887    1.448427    1.518463
     17          6           0        0.460374    3.745887    0.082536
     18          1           0       -0.998195    2.530273   -0.941989
     19          6           0        1.761258    2.636806    1.773341
     20          1           0        1.335068    0.546321    2.090728
     21          6           0        1.452760    3.786497    1.057213
     22          1           0        0.212637    4.648840   -0.484740
     23          1           0        2.539495    2.662803    2.542954
     24          1           0        1.986788    4.720484    1.258550
     25          6           0       -0.267379   -1.061290    1.039517
     26          6           0        0.977375   -1.657849    0.825255
     27          6           0       -1.127143   -1.608135    1.994897
     28          6           0        1.355589   -2.779677    1.552727
     29          1           0        1.649533   -1.234789    0.061982
     30          6           0       -0.746453   -2.730554    2.722170
     31          1           0       -2.108075   -1.152323    2.174447
     32          6           0        0.494611   -3.317802    2.503432
     33          1           0        2.332673   -3.240252    1.374634
     34          1           0       -1.427474   -3.152170    3.468519
     35          1           0        0.792722   -4.201659    3.076313
 ---------------------------------------------------------------------
                    Distance matrix (angstroms):
                    1          2          3          4          5
     1  C    0.000000
     2  H    1.123119   0.000000
     3  C    1.509916   2.140607   0.000000
     4  C    2.534617   3.428742   1.396346   0.000000
     5  C    2.510201   2.548522   1.396428   2.409033   0.000000
     6  C    3.809784   4.555391   2.417569   1.389508   2.781392
     7  H    2.736781   3.805954   2.157447   1.100659   3.403159
     8  C    3.793519   3.936566   2.416838   2.779003   1.390530
     9  H    2.711737   2.271983   2.164430   3.405814   1.096333
    10  C    4.303480   4.758631   2.793730   2.409149   2.410697
    11  H    4.687997   5.531252   3.408013   2.154868   3.876154
    12  H    4.664944   4.604370   3.407519   3.873865   2.155448
    13  H    5.398108   5.829003   3.888382   3.401633   3.402999
    14  C    1.508894   2.098955   2.492220   3.064186   3.573053
    15  C    2.498076   2.761454   2.955501   3.469986   3.712503
    16  C    2.547076   3.164696   3.664607   3.967700   4.869422
    17  C    3.784917   4.045779   4.283552   4.573243   5.057837
    18  H    2.681056   2.733828   2.704833   3.361324   3.071703
    19  C    3.818348   4.331382   4.801367   4.962906   5.959770
    20  H    2.773667   3.436809   3.975737   4.244793   5.226114
    21  C    4.304934   4.687873   5.054983   5.220329   6.041906
    22  H    4.651560   4.805462   4.950182   5.212600   5.525255
    23  H    4.699425   5.231035   5.737629   5.815791   6.950426
    24  H    5.399356   5.754393   6.113947   6.204717   7.074876
    25  C    1.508116   2.132628   2.482788   3.151833   3.479484
    26  C    2.539113   3.428906   3.075121   3.124581   4.255115
    27  C    2.504675   2.527390   3.547021   4.421898   4.189639
    28  C    3.812614   4.550582   4.365194   4.370888   5.423066
    29  H    2.745973   3.814706   2.933951   2.526955   4.242036
    30  C    3.789840   3.917173   4.709537   5.374789   5.372366
    31  H    2.703266   2.242524   3.785835   4.903431   4.145193
    32  C    4.303461   4.746410   5.044613   5.357171   5.901209
    33  H    4.692110   5.529382   5.081234   4.810267   6.187646
    34  H    4.659538   4.580765   5.605331   6.376040   6.109138
    35  H    5.398082   5.816107   6.103788   6.348566   6.926451
                    6          7          8          9         10
     6  C    0.000000
     7  H    2.166874   0.000000
     8  C    2.406504   3.879471   0.000000
     9  H    3.877704   4.310456   2.155404   0.000000
    10  C    1.391058   3.410297   1.390335   3.401775   0.000000
    11  H    1.094765   2.493350   3.399935   4.972469   2.158519
    12  H    3.399693   4.974301   1.094865   2.477849   2.157236
    13  H    2.158725   4.315173   2.158169   4.304212   1.094653
    14  C    4.359381   2.917950   4.731267   3.822851   5.052164
    15  C    4.503491   3.523620   4.694021   3.939745   5.029334
    16  C    5.307761   3.453182   6.011732   5.126349   6.196759
    17  C    5.528125   4.429581   5.936476   5.285308   6.143287
    18  H    4.162214   3.739934   3.933702   3.257350   4.407184
    19  C    6.202233   4.375510   7.025668   6.220750   7.131675
    20  H    5.618270   3.631478   6.391652   5.474235   6.558629
    21  C    6.301031   4.797979   6.997635   6.291221   7.112156
    22  H    5.976144   5.184437   6.252332   5.726682   6.456465
    23  H    7.062016   5.101878   8.022365   7.214522   8.072955
    24  H    7.215186   5.740445   7.976745   7.321924   8.040280
    25  C    4.423008   3.069444   4.661234   3.669460   5.048602
    26  C    4.319001   2.664359   5.194087   4.710843   5.224096
    27  C    5.602471   4.445591   5.420422   4.049551   6.027926
    28  C    5.425504   3.877779   6.302020   5.805834   6.306922
    29  H    3.674919   1.781453   5.009442   4.905599   4.783809
    30  C    6.493303   5.262186   6.490219   5.284423   6.987183
    31  H    6.039992   5.093068   5.442552   3.724357   6.269301
    32  C    6.420899   5.035970   6.879639   6.050656   7.112258
    33  H    5.733036   4.170359   6.926968   6.688441   6.732469
    34  H    7.460110   6.327595   7.232469   5.865382   7.843806
    35  H    7.346243   5.988357   7.849165   7.066080   8.041509
                   11         12         13         14         15
    11  H    0.000000
    12  H    4.305048   0.000000
    13  H    2.488221   2.486585   0.000000
    14  C    5.068291   5.634105   6.110971   0.000000
    15  C    5.203235   5.496977   6.002493   1.399283   0.000000
    16  C    5.843717   6.957993   7.241329   1.394117   2.406669
    17  C    6.062390   6.718468   7.041403   2.420524   1.388318
    18  H    4.966810   4.622398   5.330474   2.160510   1.096573
    19  C    6.621764   7.958943   8.124377   2.417144   2.776276
    20  H    6.120037   7.353910   7.611408   2.162056   3.404968
    21  C    6.722149   7.859491   8.039548   2.797373   2.408902
    22  H    6.480209   6.931484   7.256572   3.410957   2.153966
    23  H    7.396016   8.979346   9.058667   3.406173   3.871090
    24  H    7.554628   8.819464   8.920235   3.891929   3.401221
    25  C    5.169242   5.531521   6.109131   2.534830   3.820479
    26  C    4.805140   6.163279   6.208306   3.195162   4.497497
    27  C    6.407281   6.121216   7.064514   3.553994   4.786401
    28  C    5.801747   7.214791   7.222550   4.481101   5.829287
    29  H    3.995032   6.057782   5.721948   3.097998   4.237327
    30  C    7.184160   7.179560   7.970437   4.743443   6.055042
    31  H    6.949844   6.002893   7.304156   3.741836   4.782528
    32  C    6.925259   7.673257   8.043880   5.123804   6.498772
    33  H    5.911507   7.873310   7.565698   5.219306   6.523787
    34  H    8.190255   7.816843   8.808622   5.619032   6.882215
    35  H    7.780195   8.614342   8.926375   6.186844   7.570723
                   16         17         18         19         20
    16  C    0.000000
    17  C    2.780104   0.000000
    18  H    3.399894   2.157497   0.000000
    19  C    1.391416   2.404409   3.872847   0.000000
    20  H    1.097441   3.877519   4.310169   2.156966   0.000000
    21  C    2.411512   1.391573   3.403247   1.389173   3.403050
    22  H    3.874859   1.094760   2.482643   3.397857   4.972278
    23  H    2.154783   3.398452   4.967660   1.094821   2.476823
    24  H    3.404283   2.159348   4.306915   2.158144   4.305914
    25  C    2.890327   4.955239   4.166507   4.281329   2.501459
    26  C    3.184468   5.478986   4.956450   4.467371   2.566658
    27  C    3.802396   5.902787   5.076254   5.139209   3.273125
    28  C    4.236964   6.748767   6.321351   5.436131   3.369292
    29  H    3.104986   5.120709   4.711063   4.234440   2.717913
    30  C    4.718361   7.097069   6.416053   5.999786   3.933110
    31  H    4.169273   5.913162   4.950305   5.430481   3.840265
    32  C    4.902484   7.467103   6.949776   6.131459   3.975945
    33  H    4.854263   7.347188   7.054104   5.918217   3.980721
    34  H    5.592419   7.912778   7.206041   6.823041   4.817549
    35  H    5.868147   8.499214   8.041955   7.028542   4.879429
                   21         22         23         24         25
    21  C    0.000000
    22  H    2.158508   0.000000
    23  H    2.156643   4.304131   0.000000
    24  H    1.094556   2.488334   2.487816   0.000000
    25  C    5.143951   5.929532   4.899769   6.209521   0.000000
    26  C    5.469982   6.486543   4.904971   6.472232   1.396855
    27  C    6.052868   6.862459   5.655574   7.091558   1.396777
    28  C    6.585562   7.787199   5.657099   7.532421   2.418732
    29  H    5.122746   6.081173   4.705155   6.083650   2.158755
    30  C    7.076763   8.103059   6.318059   8.070362   2.418114
    31  H    6.190291   6.790469   6.024192   7.217800   2.164375
    32  C    7.313048   8.513287   6.320661   8.269847   2.795626
    33  H    7.088739   8.377923   6.021114   7.969092   3.408878
    34  H    7.890200   8.897976   7.099819   8.861142   3.408468
    35  H    8.265776   9.557663   7.103276   9.183392   3.890279
                   26         27         28         29         30
    26  C    0.000000
    27  C    2.408222   0.000000
    28  C    1.389517   2.780645   0.000000
    29  H    1.101527   3.403745   2.166887   0.000000
    30  C    2.778590   1.390566   2.405949   3.880033   0.000000
    31  H    3.405272   1.096462   3.877085   4.311488   2.155186
    32  C    2.409312   2.410738   1.390936   3.410786   1.390305
    33  H    2.154681   3.875418   1.094778   2.492312   3.399509
    34  H    3.873388   2.155413   3.399184   4.974818   1.094800
    35  H    3.401812   3.403191   2.158742   4.315395   2.158385
                   31         32         33         34         35
    31  H    0.000000
    32  C    3.401692   0.000000
    33  H    4.971860   2.158395   0.000000
    34  H    2.477343   2.157137   4.304744   0.000000
    35  H    4.304234   1.094653   2.488265   2.486869   0.000000
 Stoichiometry    C19H16
 Framework group  C1[X(C19H16)]
 Deg. of freedom    99
 Full point group                 C1      NOp   1
 Largest Abelian subgroup         C1      NOp   1
 Largest concise Abelian subgroup C1      NOp   1
                         Standard orientation:                         
 ---------------------------------------------------------------------
 Center     Atomic      Atomic             Coordinates (Angstroms)
 Number     Number       Type             X           Y           Z
 ---------------------------------------------------------------------
      1          6           0       -0.013377    0.012241   -0.759376
      2          1           0        0.017327    0.014544   -1.882073
      3          6           0        0.741659   -1.203357   -0.277623
      4          6           0        1.007428   -1.403543    1.078502
      5          6           0        1.189863   -2.144969   -1.206328
      6          6           0        1.715456   -2.522864    1.498683
      7          1           0        0.632672   -0.672005    1.810526
      8          6           0        1.895983   -3.265648   -0.783189
      9          1           0        0.985160   -2.003272   -2.274019
     10          6           0        2.162184   -3.455396    0.568167
     11          1           0        1.920090   -2.669889    2.564056
     12          1           0        2.243052   -3.999634   -1.517722
     13          1           0        2.720378   -4.336930    0.899196
     14          6           0        0.683103    1.287083   -0.351387
     15          6           0        2.044358    1.423992   -0.645047
     16          6           0        0.012888    2.348272    0.255449
     17          6           0        2.719027    2.596110   -0.331375
     18          1           0        2.578690    0.593530   -1.121801
     19          6           0        0.690559    3.522792    0.567380
     20          1           0       -1.055668    2.259042    0.489122
     21          6           0        2.042931    3.649765    0.276226
     22          1           0        3.784701    2.690539   -0.563584
     23          1           0        0.152506    4.348960    1.043383
     24          1           0        2.574758    4.574162    0.522604
     25          6           0       -1.462459   -0.062701   -0.348330
     26          6           0       -1.844849   -0.130640    0.993447
     27          6           0       -2.449050   -0.072698   -1.337029
     28          6           0       -3.188252   -0.206696    1.340211
     29          1           0       -1.066058   -0.136804    1.772425
     30          6           0       -3.792917   -0.148357   -0.987786
     31          1           0       -2.165478   -0.020926   -2.394921
     32          6           0       -4.165155   -0.214802    0.350112
     33          1           0       -3.476107   -0.261901    2.395024
     34          1           0       -4.558887   -0.156062   -1.769973
     35          1           0       -5.223411   -0.274864    0.623521
 ---------------------------------------------------------------------
 Rotational constants (GHZ):      0.4046560      0.3803581      0.2328497
 Standard basis: 6-311G (5D, 7F)
 There are   295 symmetry adapted basis functions of A   symmetry.
 Integral buffers will be    262144 words long.
 Raffenetti 1 integral format.
 Two-electron integral symmetry is turned on.
   295 basis functions,   574 primitive gaussians,   295 cartesian basis functions
    65 alpha electrons       65 beta electrons
       nuclear repulsion energy      1290.4781135376 Hartrees.
 NAtoms=   35 NActive=   35 NUniq=   35 SFac= 7.50D-01 NAtFMM=   80 NAOKFM=F Big=F
 One-electron integrals computed using PRISM.
 PrsmSu:  requested number of processors reduced to:  10 ShMem   1 Linda.
 NBasis=   295 RedAO= T  NBF=   295
 NBsUse=   295 1.00D-06 NBFU=   295
 Harris functional with IExCor=  205 diagonalized for initial guess.
 ExpMin= 1.03D-01 ExpMax= 4.56D+03 ExpMxC= 6.82D+02 IAcc=1 IRadAn=         1 AccDes= 0.00D+00
 HarFok:  IExCor=  205 AccDes= 0.00D+00 IRadAn=         1 IDoV= 1
 ScaDFX=  1.000000  1.000000  1.000000  1.000000
 FoFCou: FMM=F IPFlag=           0 FMFlag=      100000 FMFlg1=           0
         NFxFlg=           0 DoJE=T BraDBF=F KetDBF=T FulRan=T
         Omega=  0.000000  0.000000  1.000000  0.000000  0.000000 ICntrl=     500 IOpCl=  0
         NMat0=    1 NMatS0=    1 NMatT0=    0 NMatD0=    1 NMtDS0=    0 NMtDT0=    0
         I1Cent=           4 NGrid=           0.
 Petite list used in FoFCou.
 Initial guess orbital symmetries:
       Occupied  (A) (A) (A) (A) (A) (A) (A) (A) (A) (A) (A) (A)
                 (A) (A) (A) (A) (A) (A) (A) (A) (A) (A) (A) (A)
                 (A) (A) (A) (A) (A) (A) (A) (A) (A) (A) (A) (A)
                 (A) (A) (A) (A) (A) (A) (A) (A) (A) (A) (A) (A)
                 (A) (A) (A) (A) (A) (A) (A) (A) (A) (A) (A) (A)
                 (A) (A) (A) (A) (A)
       Virtual   (A) (A) (A) (A) (A) (A) (A) (A) (A) (A) (A) (A)
                 (A) (A) (A) (A) (A) (A) (A) (A) (A) (A) (A) (A)
                 (A) (A) (A) (A) (A) (A) (A) (A) (A) (A) (A) (A)
                 (A) (A) (A) (A) (A) (A) (A) (A) (A) (A) (A) (A)
                 (A) (A) (A) (A) (A) (A) (A) (A) (A) (A) (A) (A)
                 (A) (A) (A) (A) (A) (A) (A) (A) (A) (A) (A) (A)
                 (A) (A) (A) (A) (A) (A) (A) (A) (A) (A) (A) (A)
                 (A) (A) (A) (A) (A) (A) (A) (A) (A) (A) (A) (A)
                 (A) (A) (A) (A) (A) (A) (A) (A) (A) (A) (A) (A)
                 (A) (A) (A) (A) (A) (A) (A) (A) (A) (A) (A) (A)
                 (A) (A) (A) (A) (A) (A) (A) (A) (A) (A) (A) (A)
                 (A) (A) (A) (A) (A) (A) (A) (A) (A) (A) (A) (A)
                 (A) (A) (A) (A) (A) (A) (A) (A) (A) (A) (A) (A)
                 (A) (A) (A) (A) (A) (A) (A) (A) (A) (A) (A) (A)
                 (A) (A) (A) (A) (A) (A) (A) (A) (A) (A) (A) (A)
                 (A) (A) (A) (A) (A) (A) (A) (A) (A) (A) (A) (A)
                 (A) (A) (A) (A) (A) (A) (A) (A) (A) (A) (A) (A)
                 (A) (A) (A) (A) (A) (A) (A) (A) (A) (A) (A) (A)
                 (A) (A) (A) (A) (A) (A) (A) (A) (A) (A) (A) (A)
                 (A) (A)
 The electronic state of the initial guess is 1-A.
 Requested convergence on RMS density matrix=1.00D-08 within 128 cycles.
 Requested convergence on MAX density matrix=1.00D-06.
 Requested convergence on             energy=1.00D-06.
 No special actions if energy rises.
 Integral accuracy reduced to 1.0D-05 until final iterations.
 Initial convergence to 1.0D-05 achieved.  Increase integral accuracy.
 SCF Done:  E(RHF) =  -728.672368479     A.U. after   14 cycles
             Convg  =    0.8507D-08             -V/T =  2.0001

 **********************************************************************

            Population analysis using the SCF density.

 **********************************************************************

 Orbital symmetries:
       Occupied  (A) (A) (A) (A) (A) (A) (A) (A) (A) (A) (A) (A)
                 (A) (A) (A) (A) (A) (A) (A) (A) (A) (A) (A) (A)
                 (A) (A) (A) (A) (A) (A) (A) (A) (A) (A) (A) (A)
                 (A) (A) (A) (A) (A) (A) (A) (A) (A) (A) (A) (A)
                 (A) (A) (A) (A) (A) (A) (A) (A) (A) (A) (A) (A)
                 (A) (A) (A) (A) (A)
       Virtual   (A) (A) (A) (A) (A) (A) (A) (A) (A) (A) (A) (A)
                 (A) (A) (A) (A) (A) (A) (A) (A) (A) (A) (A) (A)
                 (A) (A) (A) (A) (A) (A) (A) (A) (A) (A) (A) (A)
                 (A) (A) (A) (A) (A) (A) (A) (A) (A) (A) (A) (A)
                 (A) (A) (A) (A) (A) (A) (A) (A) (A) (A) (A) (A)
                 (A) (A) (A) (A) (A) (A) (A) (A) (A) (A) (A) (A)
                 (A) (A) (A) (A) (A) (A) (A) (A) (A) (A) (A) (A)
                 (A) (A) (A) (A) (A) (A) (A) (A) (A) (A) (A) (A)
                 (A) (A) (A) (A) (A) (A) (A) (A) (A) (A) (A) (A)
                 (A) (A) (A) (A) (A) (A) (A) (A) (A) (A) (A) (A)
                 (A) (A) (A) (A) (A) (A) (A) (A) (A) (A) (A) (A)
                 (A) (A) (A) (A) (A) (A) (A) (A) (A) (A) (A) (A)
                 (A) (A) (A) (A) (A) (A) (A) (A) (A) (A) (A) (A)
                 (A) (A) (A) (A) (A) (A) (A) (A) (A) (A) (A) (A)
                 (A) (A) (A) (A) (A) (A) (A) (A) (A) (A) (A) (A)
                 (A) (A) (A) (A) (A) (A) (A) (A) (A) (A) (A) (A)
                 (A) (A) (A) (A) (A) (A) (A) (A) (A) (A) (A) (A)
                 (A) (A) (A) (A) (A) (A) (A) (A) (A) (A) (A) (A)
                 (A) (A) (A) (A) (A) (A) (A) (A) (A) (A) (A) (A)
                 (A) (A)
 The electronic state is 1-A.
 Alpha  occ. eigenvalues --  -11.25766 -11.25238 -11.25191 -11.24928 -11.24524
 Alpha  occ. eigenvalues --  -11.24434 -11.24419 -11.24368 -11.24223 -11.24169
 Alpha  occ. eigenvalues --  -11.24144 -11.24117 -11.24077 -11.24040 -11.24029
 Alpha  occ. eigenvalues --  -11.23974 -11.23731 -11.23646 -11.23500  -1.18614
 Alpha  occ. eigenvalues --   -1.15873  -1.15578  -1.09029  -1.02381  -1.02236
 Alpha  occ. eigenvalues --   -1.01876  -1.01490  -1.01105  -0.92923  -0.84301
 Alpha  occ. eigenvalues --   -0.83338  -0.82351  -0.81895  -0.81160  -0.77595
 Alpha  occ. eigenvalues --   -0.70864  -0.70372  -0.68986  -0.65708  -0.63890
 Alpha  occ. eigenvalues --   -0.63604  -0.62505  -0.61716  -0.61603  -0.59713
 Alpha  occ. eigenvalues --   -0.58850  -0.58485  -0.58322  -0.56842  -0.54992
 Alpha  occ. eigenvalues --   -0.51727  -0.50932  -0.50250  -0.49848  -0.49382
 Alpha  occ. eigenvalues --   -0.48448  -0.47925  -0.47516  -0.46331  -0.35001
 Alpha  occ. eigenvalues --   -0.34317  -0.33929  -0.33338  -0.32626  -0.31421
 Alpha virt. eigenvalues --    0.11513   0.12281   0.12807   0.13571   0.14950
 Alpha virt. eigenvalues --    0.15070   0.15590   0.16238   0.16478   0.16929
 Alpha virt. eigenvalues --    0.18905   0.19181   0.19230   0.21251   0.21304
 Alpha virt. eigenvalues --    0.21576   0.23579   0.23983   0.25003   0.25428
 Alpha virt. eigenvalues --    0.26965   0.31314   0.33240   0.34264   0.35775
 Alpha virt. eigenvalues --    0.37517   0.39841   0.40450   0.41540   0.43143
 Alpha virt. eigenvalues --    0.44094   0.44427   0.44887   0.45459   0.45635
 Alpha virt. eigenvalues --    0.45862   0.46755   0.47198   0.48061   0.50564
 Alpha virt. eigenvalues --    0.51115   0.51452   0.52065   0.54920   0.56019
 Alpha virt. eigenvalues --    0.57355   0.57840   0.58475   0.58977   0.59377
 Alpha virt. eigenvalues --    0.60130   0.60431   0.60631   0.61163   0.61454
 Alpha virt. eigenvalues --    0.62077   0.62260   0.62947   0.63562   0.63729
 Alpha virt. eigenvalues --    0.64294   0.64538   0.65217   0.65908   0.66403
 Alpha virt. eigenvalues --    0.67179   0.67808   0.68588   0.69894   0.72350
 Alpha virt. eigenvalues --    0.73149   0.73930   0.74261   0.75222   0.75752
 Alpha virt. eigenvalues --    0.76711   0.78876   0.79307   0.79821   0.81374
 Alpha virt. eigenvalues --    0.81512   0.82184   0.82501   0.82935   0.83223
 Alpha virt. eigenvalues --    0.83819   0.84346   0.84764   0.84834   0.85469
 Alpha virt. eigenvalues --    0.85997   0.86283   0.86428   0.87661   0.88177
 Alpha virt. eigenvalues --    0.90330   0.90726   0.92232   0.93352   0.94940
 Alpha virt. eigenvalues --    0.95992   0.96419   0.97073   0.98181   0.99645
 Alpha virt. eigenvalues --    0.99898   1.02317   1.03004   1.04624   1.06199
 Alpha virt. eigenvalues --    1.07081   1.08246   1.09182   1.10266   1.10596
 Alpha virt. eigenvalues --    1.11333   1.11760   1.12482   1.12678   1.13841
 Alpha virt. eigenvalues --    1.14938   1.16601   1.19409   1.20616   1.20928
 Alpha virt. eigenvalues --    1.23919   1.25847   1.27250   1.28421   1.28949
 Alpha virt. eigenvalues --    1.29396   1.32171   1.33098   1.46652   1.47642
 Alpha virt. eigenvalues --    1.52169   1.54089   1.57209   2.53559   2.55685
 Alpha virt. eigenvalues --    2.56140   2.57757   2.62079   2.62265   2.63926
 Alpha virt. eigenvalues --    2.66293   2.67236   2.68499   2.71905   2.74335
 Alpha virt. eigenvalues --    2.78334   2.83469   2.86521   2.91550   2.94354
 Alpha virt. eigenvalues --    2.94587   2.94746   2.96035   2.98024   2.98541
 Alpha virt. eigenvalues --    3.00027   3.02195   3.03880   3.04517   3.06427
 Alpha virt. eigenvalues --    3.08523   3.09158   3.09706   3.10125   3.13185
 Alpha virt. eigenvalues --    3.15205   3.16245   3.17681   3.18411   3.19357
 Alpha virt. eigenvalues --    3.21631   3.24145   3.25183   3.27635   3.28764
 Alpha virt. eigenvalues --    3.31315   3.33868   3.34237   3.35668   3.41099
 Alpha virt. eigenvalues --    3.41464   3.44183   3.45118   3.49928   3.52372
 Alpha virt. eigenvalues --    3.53458   3.55881   3.57466   3.58226   3.59677
 Alpha virt. eigenvalues --    3.62288   3.64194   3.64995   3.66220   3.66574
 Alpha virt. eigenvalues --    3.67659   3.69228   3.71272   3.72522   3.74016
 Alpha virt. eigenvalues --    3.76047   3.77375   3.78642   3.85454   3.87888
 Alpha virt. eigenvalues --    3.91217  24.25975  24.30058  24.31809  24.50504
 Alpha virt. eigenvalues --   24.50794  24.51029  24.53144  24.54581  24.56517
 Alpha virt. eigenvalues --   24.76311  24.77095  24.79114  24.80201  24.80647
 Alpha virt. eigenvalues --   24.82697  24.87207  25.04678  25.05804  25.07116
          Condensed to atoms (all electrons):
              1          2          3          4          5          6
     1  C    6.091488   0.473608   0.152289  -0.054815  -0.024522   0.003101
     2  H    0.473608   0.503836  -0.070801   0.005598   0.001430  -0.000266
     3  C    0.152289  -0.070801   5.387514   0.445908   0.493202  -0.058396
     4  C   -0.054815   0.005598   0.445908   5.070464  -0.072009   0.479097
     5  C   -0.024522   0.001430   0.493202  -0.072009   5.092369  -0.030625
     6  C    0.003101  -0.000266  -0.058396   0.479097  -0.030625   5.039892
     7  H    0.000340   0.000116  -0.044760   0.389043   0.004066  -0.028368
     8  C    0.006853   0.001581  -0.073462  -0.026614   0.453840  -0.078510
     9  H   -0.000029   0.002330  -0.050738   0.004327   0.400497  -0.000281
    10  C    0.001265  -0.000002  -0.018794  -0.091124  -0.086217   0.491237
    11  H   -0.000346   0.000011   0.006024  -0.038942  -0.000480   0.397218
    12  H   -0.000340  -0.000039   0.006935  -0.000683  -0.039697   0.006238
    13  H   -0.000011  -0.000001  -0.001544   0.007882   0.007486  -0.042906
    14  C    0.038834  -0.062615  -0.099193  -0.007926  -0.001792  -0.000574
    15  C   -0.085670  -0.004963  -0.006207  -0.007815   0.000648  -0.000321
    16  C   -0.028354   0.001215  -0.000113   0.001672  -0.000442   0.000023
    17  C    0.007944   0.000711  -0.001507  -0.000205  -0.000047  -0.000006
    18  H   -0.002153  -0.000145   0.003855  -0.000544   0.001804  -0.000225
    19  C    0.011982  -0.000135  -0.000781   0.000049   0.000007   0.000005
    20  H   -0.011062  -0.000275   0.000394   0.000079  -0.000018  -0.000001
    21  C    0.000442   0.000030   0.000125   0.000036  -0.000003   0.000002
    22  H   -0.000354   0.000003   0.000014   0.000014  -0.000005   0.000002
    23  H   -0.000360   0.000014   0.000012   0.000000   0.000000   0.000000
    24  H   -0.000014  -0.000002   0.000002   0.000000   0.000000   0.000000
    25  C    0.119728  -0.076312  -0.138136  -0.003678  -0.001843   0.001902
    26  C   -0.070098   0.004447  -0.003320  -0.012135   0.000529  -0.000476
    27  C   -0.025097   0.006546  -0.004233   0.000724   0.000604   0.000030
    28  C    0.002354  -0.000226   0.001984  -0.000100   0.000045  -0.000101
    29  H    0.000970  -0.000042  -0.003637   0.002159  -0.000216   0.001159
    30  C    0.008286   0.001470  -0.000601   0.000051  -0.000011  -0.000001
    31  H   -0.002089   0.002821   0.000167  -0.000025   0.000181   0.000001
    32  C    0.001729   0.000004  -0.000052  -0.000003  -0.000013   0.000002
    33  H   -0.000370   0.000012   0.000026   0.000036   0.000002  -0.000001
    34  H   -0.000414  -0.000034   0.000020  -0.000001   0.000001   0.000000
    35  H   -0.000026  -0.000002  -0.000003   0.000001   0.000000   0.000000
              7          8          9         10         11         12
     1  C    0.000340   0.006853  -0.000029   0.001265  -0.000346  -0.000340
     2  H    0.000116   0.001581   0.002330  -0.000002   0.000011  -0.000039
     3  C   -0.044760  -0.073462  -0.050738  -0.018794   0.006024   0.006935
     4  C    0.389043  -0.026614   0.004327  -0.091124  -0.038942  -0.000683
     5  C    0.004066   0.453840   0.400497  -0.086217  -0.000480  -0.039697
     6  C   -0.028368  -0.078510  -0.000281   0.491237   0.397218   0.006238
     7  H    0.496751   0.000009  -0.000271   0.004552  -0.003333   0.000015
     8  C    0.000009   5.059847  -0.034927   0.497434   0.005979   0.396971
     9  H   -0.000271  -0.034927   0.509905   0.005249   0.000025  -0.004211
    10  C    0.004552   0.497434   0.005249   5.034120  -0.039829  -0.040682
    11  H   -0.003333   0.005979   0.000025  -0.039829   0.514858  -0.000206
    12  H    0.000015   0.396971  -0.004211  -0.040682  -0.000206   0.518111
    13  H   -0.000172  -0.042559  -0.000185   0.399674  -0.004473  -0.004588
    14  C    0.001049  -0.000414   0.000129   0.000053   0.000023   0.000011
    15  C    0.000143  -0.000117   0.000304   0.000100   0.000017  -0.000002
    16  C   -0.000013   0.000021  -0.000036  -0.000002   0.000000   0.000000
    17  C    0.000030   0.000014  -0.000008   0.000002   0.000001   0.000000
    18  H   -0.000075   0.000117   0.000212  -0.000091   0.000004   0.000005
    19  C   -0.000075   0.000000   0.000000   0.000000   0.000000   0.000000
    20  H    0.000015   0.000000   0.000001   0.000000   0.000000   0.000000
    21  C   -0.000044   0.000000   0.000001   0.000000   0.000000   0.000000
    22  H    0.000005  -0.000001   0.000000   0.000000   0.000000   0.000000
    23  H    0.000001   0.000000   0.000000   0.000000   0.000000   0.000000
    24  H    0.000001   0.000000   0.000000   0.000000   0.000000   0.000000
    25  C   -0.002784  -0.000516   0.000378  -0.000087   0.000026   0.000025
    26  C   -0.001138   0.000132  -0.000006  -0.000023   0.000056   0.000000
    27  C   -0.000198  -0.000017   0.000260  -0.000008   0.000000   0.000001
    28  C    0.000862   0.000001  -0.000001   0.000001   0.000002   0.000000
    29  H    0.001739  -0.000065   0.000001   0.000008  -0.000062   0.000001
    30  C    0.000003   0.000002   0.000007   0.000000   0.000000   0.000000
    31  H   -0.000002  -0.000002   0.000056  -0.000001   0.000000   0.000000
    32  C   -0.000014   0.000000  -0.000002   0.000000   0.000000   0.000000
    33  H   -0.000034   0.000000   0.000000   0.000000   0.000001   0.000000
    34  H    0.000000   0.000000   0.000000   0.000000   0.000000   0.000000
    35  H    0.000000   0.000000   0.000000   0.000000   0.000000   0.000000
             13         14         15         16         17         18
     1  C   -0.000011   0.038834  -0.085670  -0.028354   0.007944  -0.002153
     2  H   -0.000001  -0.062615  -0.004963   0.001215   0.000711  -0.000145
     3  C   -0.001544  -0.099193  -0.006207  -0.000113  -0.001507   0.003855
     4  C    0.007882  -0.007926  -0.007815   0.001672  -0.000205  -0.000544
     5  C    0.007486  -0.001792   0.000648  -0.000442  -0.000047   0.001804
     6  C   -0.042906  -0.000574  -0.000321   0.000023  -0.000006  -0.000225
     7  H   -0.000172   0.001049   0.000143  -0.000013   0.000030  -0.000075
     8  C   -0.042559  -0.000414  -0.000117   0.000021   0.000014   0.000117
     9  H   -0.000185   0.000129   0.000304  -0.000036  -0.000008   0.000212
    10  C    0.399674   0.000053   0.000100  -0.000002   0.000002  -0.000091
    11  H   -0.004473   0.000023   0.000017   0.000000   0.000001   0.000004
    12  H   -0.004588   0.000011  -0.000002   0.000000   0.000000   0.000005
    13  H    0.517402   0.000000   0.000000   0.000000   0.000000   0.000000
    14  C    0.000000   5.353908   0.470517   0.502339  -0.056802  -0.045892
    15  C    0.000000   0.470517   5.121606  -0.082742   0.464498   0.397675
    16  C    0.000000   0.502339  -0.082742   5.093473  -0.029888   0.004423
    17  C    0.000000  -0.056802   0.464498  -0.029888   5.060308  -0.035149
    18  H    0.000000  -0.045892   0.397675   0.004423  -0.035149   0.491262
    19  C    0.000000  -0.069613  -0.033344   0.454667  -0.074115  -0.000459
    20  H    0.000000  -0.034690   0.004937   0.393630  -0.000419  -0.000199
    21  C    0.000000  -0.020476  -0.085021  -0.090383   0.480271   0.005237
    22  H    0.000000   0.006162  -0.038493  -0.000446   0.397189  -0.003908
    23  H    0.000000   0.006491  -0.000410  -0.036825   0.006020   0.000017
    24  H    0.000000  -0.001459   0.007439   0.007683  -0.043263  -0.000174
    25  C   -0.000003  -0.066645   0.011397  -0.012445  -0.000879   0.000839
    26  C    0.000000   0.006518   0.000740  -0.017709  -0.000021  -0.000042
    27  C    0.000000  -0.000700  -0.000253   0.000864   0.000008  -0.000005
    28  C    0.000000   0.000851   0.000017  -0.001455   0.000000   0.000000
    29  H    0.000000   0.001236   0.000032   0.001495  -0.000041   0.000021
    30  C    0.000000  -0.000776   0.000005   0.000367   0.000000   0.000000
    31  H    0.000000   0.000506   0.000012   0.000145  -0.000001  -0.000002
    32  C    0.000000  -0.000070   0.000000   0.000123   0.000000   0.000000
    33  H    0.000000   0.000017   0.000000   0.000006   0.000000   0.000000
    34  H    0.000000   0.000025   0.000000  -0.000007   0.000000   0.000000
    35  H    0.000000   0.000002   0.000000  -0.000003   0.000000   0.000000
             19         20         21         22         23         24
     1  C    0.011982  -0.011062   0.000442  -0.000354  -0.000360  -0.000014
     2  H   -0.000135  -0.000275   0.000030   0.000003   0.000014  -0.000002
     3  C   -0.000781   0.000394   0.000125   0.000014   0.000012   0.000002
     4  C    0.000049   0.000079   0.000036   0.000014   0.000000   0.000000
     5  C    0.000007  -0.000018  -0.000003  -0.000005   0.000000   0.000000
     6  C    0.000005  -0.000001   0.000002   0.000002   0.000000   0.000000
     7  H   -0.000075   0.000015  -0.000044   0.000005   0.000001   0.000001
     8  C    0.000000   0.000000   0.000000  -0.000001   0.000000   0.000000
     9  H    0.000000   0.000001   0.000001   0.000000   0.000000   0.000000
    10  C    0.000000   0.000000   0.000000   0.000000   0.000000   0.000000
    11  H    0.000000   0.000000   0.000000   0.000000   0.000000   0.000000
    12  H    0.000000   0.000000   0.000000   0.000000   0.000000   0.000000
    13  H    0.000000   0.000000   0.000000   0.000000   0.000000   0.000000
    14  C   -0.069613  -0.034690  -0.020476   0.006162   0.006491  -0.001459
    15  C   -0.033344   0.004937  -0.085021  -0.038493  -0.000410   0.007439
    16  C    0.454667   0.393630  -0.090383  -0.000446  -0.036825   0.007683
    17  C   -0.074115  -0.000419   0.480271   0.397189   0.006020  -0.043263
    18  H   -0.000459  -0.000199   0.005237  -0.003908   0.000017  -0.000174
    19  C    5.078040  -0.036226   0.496681   0.006011   0.395583  -0.042112
    20  H   -0.036226   0.476962   0.005008   0.000017  -0.003494  -0.000170
    21  C    0.496681   0.005008   5.042421  -0.040842  -0.041241   0.399499
    22  H    0.006011   0.000017  -0.040842   0.517653  -0.000213  -0.004411
    23  H    0.395583  -0.003494  -0.041241  -0.000213   0.517814  -0.004473
    24  H   -0.042112  -0.000170   0.399499  -0.004411  -0.004473   0.519347
    25  C   -0.001457   0.000664   0.000118   0.000012   0.000058   0.000000
    26  C   -0.000888  -0.001174  -0.000019   0.000000   0.000029   0.000001
    27  C   -0.000118  -0.001167  -0.000004   0.000000   0.000004   0.000000
    28  C   -0.000040   0.000442   0.000000   0.000000  -0.000001   0.000000
    29  H    0.000086  -0.000006   0.000001  -0.000001   0.000000   0.000000
    30  C    0.000003  -0.000123   0.000000   0.000000   0.000000   0.000000
    31  H    0.000005   0.000077   0.000000   0.000000   0.000000   0.000000
    32  C    0.000004   0.000087   0.000000   0.000000  -0.000001   0.000000
    33  H   -0.000002   0.000041   0.000000   0.000000   0.000000   0.000000
    34  H    0.000000   0.000010   0.000000   0.000000   0.000000   0.000000
    35  H    0.000000   0.000009   0.000000   0.000000   0.000000   0.000000
             25         26         27         28         29         30
     1  C    0.119728  -0.070098  -0.025097   0.002354   0.000970   0.008286
     2  H   -0.076312   0.004447   0.006546  -0.000226  -0.000042   0.001470
     3  C   -0.138136  -0.003320  -0.004233   0.001984  -0.003637  -0.000601
     4  C   -0.003678  -0.012135   0.000724  -0.000100   0.002159   0.000051
     5  C   -0.001843   0.000529   0.000604   0.000045  -0.000216  -0.000011
     6  C    0.001902  -0.000476   0.000030  -0.000101   0.001159  -0.000001
     7  H   -0.002784  -0.001138  -0.000198   0.000862   0.001739   0.000003
     8  C   -0.000516   0.000132  -0.000017   0.000001  -0.000065   0.000002
     9  H    0.000378  -0.000006   0.000260  -0.000001   0.000001   0.000007
    10  C   -0.000087  -0.000023  -0.000008   0.000001   0.000008   0.000000
    11  H    0.000026   0.000056   0.000000   0.000002  -0.000062   0.000000
    12  H    0.000025   0.000000   0.000001   0.000000   0.000001   0.000000
    13  H   -0.000003   0.000000   0.000000   0.000000   0.000000   0.000000
    14  C   -0.066645   0.006518  -0.000700   0.000851   0.001236  -0.000776
    15  C    0.011397   0.000740  -0.000253   0.000017   0.000032   0.000005
    16  C   -0.012445  -0.017709   0.000864  -0.001455   0.001495   0.000367
    17  C   -0.000879  -0.000021   0.000008   0.000000  -0.000041   0.000000
    18  H    0.000839  -0.000042  -0.000005   0.000000   0.000021   0.000000
    19  C   -0.001457  -0.000888  -0.000118  -0.000040   0.000086   0.000003
    20  H    0.000664  -0.001174  -0.001167   0.000442  -0.000006  -0.000123
    21  C    0.000118  -0.000019  -0.000004   0.000000   0.000001   0.000000
    22  H    0.000012   0.000000   0.000000   0.000000  -0.000001   0.000000
    23  H    0.000058   0.000029   0.000004  -0.000001   0.000000   0.000000
    24  H    0.000000   0.000001   0.000000   0.000000   0.000000   0.000000
    25  C    5.390690   0.450873   0.499871  -0.064610  -0.048105  -0.076938
    26  C    0.450873   5.099761  -0.062813   0.480098   0.386272  -0.029643
    27  C    0.499871  -0.062813   5.045999  -0.034209   0.004617   0.468997
    28  C   -0.064610   0.480098  -0.034209   5.047019  -0.026948  -0.077243
    29  H   -0.048105   0.386272   0.004617  -0.026948   0.497418  -0.000139
    30  C   -0.076938  -0.029643   0.468997  -0.077243  -0.000139   5.046579
    31  H   -0.045397   0.004767   0.394252  -0.000290  -0.000269  -0.033764
    32  C   -0.015989  -0.093644  -0.088902   0.490215   0.004649   0.499573
    33  H    0.005967  -0.038506  -0.000373   0.396968  -0.003394   0.005897
    34  H    0.007042  -0.000631  -0.039492   0.006279   0.000017   0.396389
    35  H   -0.001673   0.007982   0.007557  -0.042933  -0.000171  -0.042545
             31         32         33         34         35
     1  C   -0.002089   0.001729  -0.000370  -0.000414  -0.000026
     2  H    0.002821   0.000004   0.000012  -0.000034  -0.000002
     3  C    0.000167  -0.000052   0.000026   0.000020  -0.000003
     4  C   -0.000025  -0.000003   0.000036  -0.000001   0.000001
     5  C    0.000181  -0.000013   0.000002   0.000001   0.000000
     6  C    0.000001   0.000002  -0.000001   0.000000   0.000000
     7  H   -0.000002  -0.000014  -0.000034   0.000000   0.000000
     8  C   -0.000002   0.000000   0.000000   0.000000   0.000000
     9  H    0.000056  -0.000002   0.000000   0.000000   0.000000
    10  C   -0.000001   0.000000   0.000000   0.000000   0.000000
    11  H    0.000000   0.000000   0.000001   0.000000   0.000000
    12  H    0.000000   0.000000   0.000000   0.000000   0.000000
    13  H    0.000000   0.000000   0.000000   0.000000   0.000000
    14  C    0.000506  -0.000070   0.000017   0.000025   0.000002
    15  C    0.000012   0.000000   0.000000   0.000000   0.000000
    16  C    0.000145   0.000123   0.000006  -0.000007  -0.000003
    17  C   -0.000001   0.000000   0.000000   0.000000   0.000000
    18  H   -0.000002   0.000000   0.000000   0.000000   0.000000
    19  C    0.000005   0.000004  -0.000002   0.000000   0.000000
    20  H    0.000077   0.000087   0.000041   0.000010   0.000009
    21  C    0.000000   0.000000   0.000000   0.000000   0.000000
    22  H    0.000000   0.000000   0.000000   0.000000   0.000000
    23  H    0.000000  -0.000001   0.000000   0.000000   0.000000
    24  H    0.000000   0.000000   0.000000   0.000000   0.000000
    25  C   -0.045397  -0.015989   0.005967   0.007042  -0.001673
    26  C    0.004767  -0.093644  -0.038506  -0.000631   0.007982
    27  C    0.394252  -0.088902  -0.000373  -0.039492   0.007557
    28  C   -0.000290   0.490215   0.396968   0.006279  -0.042933
    29  H   -0.000269   0.004649  -0.003394   0.000017  -0.000171
    30  C   -0.033764   0.499573   0.005897   0.396389  -0.042545
    31  H    0.506429   0.005069   0.000025  -0.004078  -0.000179
    32  C    0.005069   5.033794  -0.039796  -0.041082   0.399430
    33  H    0.000025  -0.039796   0.514429  -0.000206  -0.004361
    34  H   -0.004078  -0.041082  -0.000206   0.517983  -0.004555
    35  H   -0.000179   0.399430  -0.004361  -0.004555   0.516889
 Mulliken atomic charges:
              1
     1  C   -0.615089
     2  H    0.210077
     3  C    0.077809
     4  C   -0.090521
     5  C   -0.198773
     6  C   -0.178852
     7  H    0.182542
     8  C   -0.165598
     9  H    0.167015
    10  C   -0.156833
    11  H    0.163427
    12  H    0.162135
    13  H    0.163997
    14  C    0.080965
    15  C   -0.134728
    16  C   -0.161282
    17  C   -0.174647
    18  H    0.183593
    19  C   -0.183758
    20  H    0.206649
    21  C   -0.151839
    22  H    0.161592
    23  H    0.160975
    24  H    0.162105
    25  C    0.067905
    26  C   -0.109918
    27  C   -0.172746
    28  C   -0.178982
    29  H    0.181217
    30  C   -0.165847
    31  H    0.171585
    32  C   -0.155109
    33  H    0.163617
    34  H    0.162736
    35  H    0.164582
 Sum of Mulliken atomic charges =   0.00000
 Mulliken charges with hydrogens summed into heavy atoms:
              1
     1  C   -0.405013
     3  C    0.077809
     4  C    0.092022
     5  C   -0.031757
     6  C   -0.015425
     8  C   -0.003462
    10  C    0.007164
    14  C    0.080965
    15  C    0.048864
    16  C    0.045367
    17  C   -0.013055
    19  C   -0.022783
    21  C    0.010266
    25  C    0.067905
    26  C    0.071298
    27  C   -0.001161
    28  C   -0.015366
    30  C   -0.003110
    32  C    0.009473
 Sum of Mulliken charges with hydrogens summed into heavy atoms =   0.00000
 Electronic spatial extent (au):  <R**2>=           4933.0727
 Charge=              0.0000 electrons
 Dipole moment (field-independent basis, Debye):
    X=             -0.0926    Y=             -0.1635    Z=             -0.0197  Tot=              0.1889
 Quadrupole moment (field-independent basis, Debye-Ang):
   XX=           -107.8089   YY=           -113.3333   ZZ=           -106.6052
   XY=             -2.7154   XZ=             -1.1260   YZ=              2.6086
 Traceless Quadrupole moment (field-independent basis, Debye-Ang):
   XX=              1.4402   YY=             -4.0842   ZZ=              2.6439
   XY=             -2.7154   XZ=             -1.1260   YZ=              2.6086
 Octapole moment (field-independent basis, Debye-Ang**2):
  XXX=            -28.4360  YYY=              7.8304  ZZZ=              0.6329  XYY=             37.5564
  XXY=              2.3668  XXZ=             -3.6687  XZZ=             -9.7820  YZZ=            -17.7532
  YYZ=             12.4678  XYZ=             -1.4301
 Hexadecapole moment (field-independent basis, Debye-Ang**3):
 XXXX=          -3060.4060 YYYY=          -2906.7009 ZZZZ=           -673.9909 XXXY=             60.2796
 XXXZ=            -17.4214 YYYX=            -63.1426 YYYZ=             76.7566 ZZZX=              6.5851
 ZZZY=             -3.1106 XXYY=          -1018.1195 XXZZ=           -629.2870 YYZZ=           -632.1062
 XXYZ=            -12.1323 YYXZ=              9.7874 ZZXY=            -33.2674
 N-N= 1.290478113538D+03 E-N=-4.277029137148D+03  KE= 7.286024234231D+02
 PrsmSu:  requested number of processors reduced to:  10 ShMem   1 Linda.
 Calling FoFJK, ICntrl=      2127 FMM=F ISym2X=0 I1Cent= 0 IOpClX= 0 NMat=1 NMatS=1 NMatT=0.
 ***** Axes restored to original set *****
 -------------------------------------------------------------------
 Center     Atomic                   Forces (Hartrees/Bohr)
 Number     Number              X              Y              Z
 -------------------------------------------------------------------
      1        6          -0.021833677    0.003755916    0.007140683
      2        1           0.021894227   -0.009298866   -0.009058298
      3        6          -0.009923703   -0.000655849   -0.010396351
      4        6           0.010864898    0.000424390    0.003162966
      5        6          -0.004811058    0.000488330    0.003418215
      6        6           0.011582761   -0.001709869   -0.003938296
      7        1          -0.020292464    0.004586762   -0.018372235
      8        6          -0.010831235   -0.001361765   -0.008326000
      9        1           0.015173413   -0.002252054   -0.008530593
     10        6          -0.002753618   -0.002501615   -0.013231401
     11        1          -0.014133178    0.002300546    0.008623715
     12        1           0.014866458    0.000931029    0.007397741
     13        1           0.000756373    0.003234224    0.016477874
     14        6           0.007890138    0.011740642    0.005034755
     15        6          -0.005417812    0.002497019   -0.006031403
     16        6           0.002387104   -0.009882425    0.006889152
     17        6          -0.004722518    0.009257085   -0.007472928
     18        1           0.013426133    0.001430889    0.012682162
     19        6           0.009456171    0.003597641    0.007907592
     20        1          -0.004659116    0.019200645   -0.009957345
     21        6           0.008058570    0.010478110    0.004119562
     22        1           0.003701429   -0.013681661    0.008655628
     23        1          -0.011823319   -0.000330640   -0.011712256
     24        1          -0.008039305   -0.014226147   -0.003073901
     25        6          -0.005634501   -0.007862761    0.009698002
     26        6           0.008465860    0.001805669   -0.008978754
     27        6          -0.005087249    0.003140198    0.000892471
     28        6           0.011444116   -0.003390670   -0.003640381
     29        1          -0.012025326   -0.013802516    0.023410554
     30        6          -0.006694385   -0.006949170    0.009665501
     31        1           0.016092223   -0.006935871   -0.003247390
     32        6           0.001722445   -0.010819579    0.008174059
     33        1          -0.014912320    0.006980134    0.002776754
     34        1           0.010440131    0.006265445   -0.011352095
     35        1          -0.004627664    0.013546786   -0.008807757
 -------------------------------------------------------------------
 Cartesian Forces:  Max     0.023410554 RMS     0.009554695

 GradGradGradGradGradGradGradGradGradGradGradGradGradGradGradGradGradGrad
 Berny optimization.
 Internal  Forces:  Max     0.028860714 RMS     0.007787819
 Search for a local minimum.
 Step number   1 out of a maximum of  197
 All quantities printed in internal units (Hartrees-Bohrs-Radians)
 Mixed Optimization -- RFO/linear search
 Second derivative matrix not updated -- first step.
     Eigenvalues ---    0.00635   0.00648   0.00659   0.01533   0.01538
     Eigenvalues ---    0.01539   0.02137   0.02141   0.02146   0.02170
     Eigenvalues ---    0.02173   0.02173   0.02181   0.02184   0.02184
     Eigenvalues ---    0.02200   0.02202   0.02203   0.02211   0.02212
     Eigenvalues ---    0.02212   0.02214   0.02215   0.02215   0.02215
     Eigenvalues ---    0.02218   0.02219   0.02219   0.02220   0.02227
     Eigenvalues ---    0.04549   0.06387   0.06644   0.15997   0.15998
     Eigenvalues ---    0.16000   0.16000   0.16000   0.16000   0.16000
     Eigenvalues ---    0.16000   0.16000   0.16000   0.16000   0.16000
     Eigenvalues ---    0.16000   0.16000   0.16000   0.18870   0.19355
     Eigenvalues ---    0.22000   0.22000   0.22000   0.22000   0.22000
     Eigenvalues ---    0.22000   0.23468   0.23477   0.23478   0.24973
     Eigenvalues ---    0.24999   0.25000   0.31250   0.31359   0.31462
     Eigenvalues ---    0.31541   0.33514   0.33609   0.33967   0.34064
     Eigenvalues ---    0.34076   0.34091   0.34256   0.34261   0.34264
     Eigenvalues ---    0.34266   0.34268   0.34268   0.34280   0.34280
     Eigenvalues ---    0.34291   0.42389   0.42460   0.42485   0.42553
     Eigenvalues ---    0.42575   0.42630   0.46323   0.46384   0.46437
     Eigenvalues ---    0.46732   0.46753   0.46830   0.47211   0.47216
     Eigenvalues ---    0.47217   0.47332   0.47334   0.474661000.00000
     Eigenvalues --- 1000.000001000.000001000.000001000.000001000.00000
     Eigenvalues --- 1000.000001000.000001000.000001000.000001000.00000
     Eigenvalues --- 1000.000001000.000001000.000001000.000001000.00000
     Eigenvalues --- 1000.000001000.000001000.000001000.000001000.00000
     Eigenvalues --- 1000.000001000.000001000.000001000.000001000.00000
     Eigenvalues --- 1000.000001000.000001000.000001000.000001000.00000
     Eigenvalues --- 1000.000001000.000001000.000001000.000001000.00000
     Eigenvalues --- 1000.000001000.000001000.000001000.000001000.00000
     Eigenvalues --- 1000.000001000.000001000.000001000.000001000.00000
     Eigenvalues --- 1000.000001000.000001000.000001000.000001000.00000
     Eigenvalues --- 1000.000001000.000001000.000001000.000001000.00000
     Eigenvalues --- 1000.000001000.000001000.000001000.000001000.00000
     Eigenvalues --- 1000.000001000.000001000.000001000.000001000.00000
     Eigenvalues --- 1000.000001000.000001000.000001000.000001000.00000
     Eigenvalues --- 1000.000001000.000001000.000001000.000001000.00000
     Eigenvalues --- 1000.000001000.000001000.000001000.000001000.00000
     Eigenvalues --- 1000.000001000.000001000.000001000.000001000.00000
     Eigenvalues --- 1000.000001000.00000
 RFO step:  Lambda=-4.19148789D-02 EMin= 6.34781286D-03
 Linear search not attempted -- first point.
 Maximum step size (   0.300) exceeded in Quadratic search.
    -- Step size scaled by   0.590
 Iteration  1 RMS(Cart)=  0.12543789 RMS(Int)=  0.00302437
 Iteration  2 RMS(Cart)=  0.00610538 RMS(Int)=  0.00028072
 Iteration  3 RMS(Cart)=  0.00001064 RMS(Int)=  0.00028065
 Iteration  4 RMS(Cart)=  0.00000000 RMS(Int)=  0.00028065
 Variable       Old X    -DE/DX   Delta X   Delta X   Delta X     New X
                                 (Linear)    (Quad)   (Total)
    R1        2.12239  -0.02508   0.00000  -0.04176  -0.04176   2.08063
    R2        2.85333   0.02282   0.00000   0.03786   0.03786   2.89119
    R3        2.85140   0.02336   0.00000   0.03865   0.03865   2.89004
    R4        2.84993   0.02384   0.00000   0.03937   0.03937   2.88930
    R5        2.63871  -0.00010   0.00000  -0.00001   0.00001   2.63872
    R6        2.63887  -0.00425   0.00000  -0.00492  -0.00490   2.63396
    R7        2.62579  -0.00475   0.00000  -0.00540  -0.00539   2.62040
    R8        2.07994  -0.02638   0.00000  -0.04117  -0.04117   2.03878
    R9        2.62772  -0.00227   0.00000  -0.00264  -0.00265   2.62507
   R10        2.07177  -0.01754   0.00000  -0.02703  -0.02703   2.04474
   R11        2.62872  -0.00535   0.00000  -0.00621  -0.00623   2.62249
   R12        2.06881  -0.01672   0.00000  -0.02564  -0.02564   2.04316
   R13        2.62735  -0.00867   0.00000  -0.01004  -0.01006   2.61729
   R14        2.06900  -0.01663   0.00000  -0.02552  -0.02552   2.04348
   R15        2.06859  -0.01681   0.00000  -0.02578  -0.02578   2.04282
   R16        2.64426  -0.00211   0.00000  -0.00245  -0.00245   2.64182
   R17        2.63450  -0.00232   0.00000  -0.00257  -0.00256   2.63194
   R18        2.62354  -0.00494   0.00000  -0.00571  -0.00571   2.61784
   R19        2.07222  -0.01850   0.00000  -0.02853  -0.02853   2.04370
   R20        2.62940  -0.00118   0.00000  -0.00128  -0.00128   2.62811
   R21        2.07386  -0.02204   0.00000  -0.03408  -0.03408   2.03978
   R22        2.62969  -0.00475   0.00000  -0.00559  -0.00560   2.62409
   R23        2.06880  -0.01661   0.00000  -0.02548  -0.02548   2.04332
   R24        2.62516  -0.00750   0.00000  -0.00861  -0.00862   2.61654
   R25        2.06891  -0.01665   0.00000  -0.02554  -0.02554   2.04337
   R26        2.06841  -0.01663   0.00000  -0.02549  -0.02549   2.04292
   R27        2.63967   0.00075   0.00000   0.00102   0.00104   2.64071
   R28        2.63953  -0.00417   0.00000  -0.00482  -0.00480   2.63472
   R29        2.62581  -0.00442   0.00000  -0.00498  -0.00498   2.62082
   R30        2.08158  -0.02886   0.00000  -0.04516  -0.04516   2.03643
   R31        2.62779  -0.00251   0.00000  -0.00297  -0.00296   2.62483
   R32        2.07201  -0.01781   0.00000  -0.02746  -0.02746   2.04455
   R33        2.62849  -0.00565   0.00000  -0.00656  -0.00658   2.62191
   R34        2.06883  -0.01670   0.00000  -0.02562  -0.02562   2.04322
   R35        2.62730  -0.00917   0.00000  -0.01065  -0.01067   2.61663
   R36        2.06887  -0.01665   0.00000  -0.02554  -0.02554   2.04333
   R37        2.06859  -0.01681   0.00000  -0.02578  -0.02578   2.04282
    A1        1.88275  -0.00841   0.00000  -0.04724  -0.04643   1.83632
    A2        1.82961   0.00360   0.00000  -0.00085  -0.00060   1.82901
    A3        1.87426  -0.01004   0.00000  -0.05128  -0.05036   1.82389
    A4        1.94240  -0.00354   0.00000   0.01130   0.00912   1.95152
    A5        1.93212   0.01533   0.00000   0.05424   0.05309   1.98521
    A6        1.99523   0.00117   0.00000   0.02224   0.02036   2.01559
    A7        2.11819   0.01823   0.00000   0.03686   0.03679   2.15498
    A8        2.08423  -0.00759   0.00000  -0.01533  -0.01538   2.06884
    A9        2.08075  -0.01064   0.00000  -0.02160  -0.02160   2.05916
   A10        2.10152   0.00418   0.00000   0.00936   0.00930   2.11082
   A11        2.07811   0.00367   0.00000   0.01230   0.01219   2.09030
   A12        2.10340  -0.00781   0.00000  -0.02124  -0.02135   2.08205
   A13        2.09908   0.00729   0.00000   0.01605   0.01606   2.11514
   A14        2.09509  -0.00432   0.00000  -0.01001  -0.01002   2.08507
   A15        2.08901  -0.00297   0.00000  -0.00605  -0.00606   2.08295
   A16        2.09599   0.00225   0.00000   0.00462   0.00461   2.10060
   A17        2.09175  -0.00103   0.00000  -0.00203  -0.00204   2.08971
   A18        2.09544  -0.00122   0.00000  -0.00258  -0.00258   2.09286
   A19        2.09785  -0.00030   0.00000  -0.00138  -0.00140   2.09645
   A20        2.09106   0.00036   0.00000   0.00129   0.00130   2.09237
   A21        2.09427  -0.00005   0.00000   0.00008   0.00009   2.09437
   A22        2.09116  -0.00277   0.00000  -0.00697  -0.00701   2.08415
   A23        2.09594   0.00141   0.00000   0.00356   0.00356   2.09950
   A24        2.09609   0.00136   0.00000   0.00343   0.00343   2.09952
   A25        2.06571   0.00022   0.00000   0.00037   0.00036   2.06608
   A26        2.13994   0.00764   0.00000   0.01539   0.01537   2.15531
   A27        2.07665  -0.00788   0.00000  -0.01596  -0.01595   2.06070
   A28        2.10359   0.00476   0.00000   0.01035   0.01036   2.11395
   A29        2.08423  -0.00137   0.00000  -0.00223  -0.00224   2.08200
   A30        2.09534  -0.00339   0.00000  -0.00812  -0.00813   2.08722
   A31        2.10131   0.00345   0.00000   0.00788   0.00789   2.10920
   A32        2.09311  -0.00006   0.00000   0.00092   0.00091   2.09402
   A33        2.08877  -0.00339   0.00000  -0.00880  -0.00880   2.07996
   A34        2.09648   0.00078   0.00000   0.00106   0.00105   2.09753
   A35        2.09203  -0.00040   0.00000  -0.00055  -0.00054   2.09149
   A36        2.09468  -0.00039   0.00000  -0.00051  -0.00051   2.09417
   A37        2.09937   0.00112   0.00000   0.00231   0.00230   2.10167
   A38        2.08874  -0.00049   0.00000  -0.00095  -0.00095   2.08779
   A39        2.09507  -0.00063   0.00000  -0.00136  -0.00135   2.09372
   A40        2.08896  -0.00223   0.00000  -0.00565  -0.00566   2.08330
   A41        2.09633   0.00116   0.00000   0.00296   0.00297   2.09930
   A42        2.09789   0.00107   0.00000   0.00268   0.00269   2.10058
   A43        2.12617   0.02313   0.00000   0.04679   0.04676   2.17293
   A44        2.07843  -0.01123   0.00000  -0.02267  -0.02269   2.05574
   A45        2.07856  -0.01190   0.00000  -0.02409  -0.02405   2.05451
   A46        2.10255   0.00452   0.00000   0.01018   0.01017   2.11272
   A47        2.07833   0.00442   0.00000   0.01447   0.01444   2.09277
   A48        2.10222  -0.00892   0.00000  -0.02449  -0.02452   2.07770
   A49        2.10044   0.00818   0.00000   0.01793   0.01796   2.11840
   A50        2.09432  -0.00470   0.00000  -0.01074  -0.01075   2.08356
   A51        2.08843  -0.00349   0.00000  -0.00720  -0.00721   2.08122
   A52        2.09637   0.00241   0.00000   0.00501   0.00499   2.10135
   A53        2.09141  -0.00113   0.00000  -0.00228  -0.00227   2.08914
   A54        2.09540  -0.00128   0.00000  -0.00273  -0.00272   2.09269
   A55        2.09790  -0.00023   0.00000  -0.00143  -0.00144   2.09646
   A56        2.09104   0.00028   0.00000   0.00120   0.00120   2.09224
   A57        2.09424  -0.00005   0.00000   0.00023   0.00024   2.09448
[...]
 -0.00018517,-0.00006445,-0.00000563,-0.00006534,0.00007964,0.00015677,
 -0.00007233,0.00001127,-0.00004590,0.00006972,0.00000905,-0.00001167,-
 0.00000293,0.00000720,-0.00002728,0.00005091,-0.00008478,0.00000654,-0
 .00004753,-0.00001232,-0.00000948,-0.00000963,0.00000476,-0.00000285,-
 0.00001053,-0.00000186,-0.00001141,-0.00000669,-0.00000751,0.00000383,
 -0.00000297,-0.00031379,0.00006533,0.00040901,-0.00010880,0.00034389,0
 .00016908,-0.00013076,-0.00010019,0.00030208,-0.00015841,-0.00007422,-
 0.00010882,0.00003384,-0.00000281,-0.00001978,0.00003396,0.00023549,0.
 00008106,0.00013829,-0.00006352,-0.00033257,0.00015492,-0.00012766,0.0
 0005022,0.00001918,-0.00002382,-0.00001721,-0.00001305,0.00000672,-0.0
 0000637,-0.00000512,-0.00002475,-0.00001466,0.00978507,0.02469670,-0.0
 4223909,-0.00940500,0.01472782,-0.00623026,-0.02355751,0.14754329,-0.2
 2696419,0.02666970,-0.03594231,0.00075424,-0.00083246,-0.00006168,0.00
 064309,-0.20325744,-0.10877354,0.74578028,-0.00194698,-0.00184197,-0.0
 0188938,0.00006786,-0.00006888,0.00041923,0.00024739,0.00021274,-0.000
 09010,0.00000254,-0.00004339,-0.00012545,0.00009430,-0.00003414,-0.000
 06197,0.00002977,-0.00001906,-0.00002932,-0.00003485,0.00002147,0.0000
 0672,-0.00003948,-0.00002949,0.00000312,-0.00003412,0.00001788,0.00000
 532,0.00000632,0.00000485,-0.00000994,-0.00000261,-0.00000088,-0.00000
 980,-0.00000515,0.00000133,-0.00001466,-0.00000481,0.00000334,-0.00000
 147,0.00032852,-0.00039415,0.00032222,-0.00000563,-0.00041199,-0.00014
 855,-0.00005540,0.00010869,-0.00023223,0.00013900,-0.00004001,0.000062
 25,-0.00002727,0.00002015,0.00002610,-0.00006878,-0.00018455,-0.000118
 73,-0.00002569,0.00013398,0.00013557,-0.00009014,0.00005370,-0.0000274
 3,-0.00001817,0.00000461,0.00000355,-0.00000225,-0.00000089,0.00002281
 ,0.00000115,0.00001291,0.00001335,-0.00370865,0.01333191,0.00182548,0.
 00472219,0.00181008,0.00474628,-0.16599633,0.13925422,0.06392439,-0.00
 023306,-0.00093883,-0.00033058,-0.00045766,0.00055268,0.00013347,0.001
 09522,0.00352013,0.00507916,0.16366682,-0.00165366,-0.00089027,0.00022
 487,-0.00070354,0.00078138,0.00008829,-0.00023755,0.00019093,-0.000085
 77,-0.00003746,0.00005404,0.00003600,0.00012059,0.00004070,-0.00010556
 ,-0.00003506,-0.00004031,0.00001739,-0.00000593,-0.00000543,0.00000374
 ,-0.00000917,-0.00001134,0.00002714,-0.00002582,-0.00001305,-0.0000072
 1,0.00000546,0.00000453,-0.00002651,0.00000595,-0.00000704,0.00000091,
 -0.00000439,-0.00000856,-0.00001310,-0.00000278,-0.00000244,-0.0000022
 0,-0.00014906,-0.00000675,0.00008598,0.00004043,-0.00003963,-0.0000382
 8,0.00005968,-0.00004851,0.00002838,-0.00000886,-0.00002931,0.00001496
 ,0.00000043,-0.00000066,-0.00000399,-0.00003750,0.00002551,-0.00001798
 ,-0.00000096,0.00003086,-0.00001969,0.00000339,0.00001108,0.00001732,-
 0.00000246,0.00001068,-0.00000072,0.00000656,-0.00000487,-0.00000265,0
 .00000512,0.00001022,-0.00000189,-0.00137676,0.00486104,0.00367318,0.0
 0219769,0.00295701,0.00210974,0.14016460,-0.22410943,-0.06438130,-0.00
 085669,0.00002030,0.00052183,-0.00015408,0.00004293,0.00010529,0.01796
 070,-0.01400949,-0.01266950,-0.15630078,0.23235618,0.00006958,-0.00225
 663,0.00068197,-0.00109823,0.00068498,-0.00046796,-0.00042210,-0.00000
 861,-0.00001595,-0.00003133,0.00011031,0.00017234,0.00007274,0.0000557
 6,-0.00000251,-0.00003483,-0.00003135,0.00004561,-0.00000159,-0.000019
 50,-0.00000505,-0.00001920,-0.00000002,0.00001054,-0.00001812,-0.00004
 755,-0.00002478,0.00000047,0.00000675,0.00002335,-0.00000520,-0.000007
 23,0.00002439,0.00000802,0.00000073,0.00000774,-0.00000273,-0.00000173
 ,0.00001197,0.00010148,0.00019552,0.00019597,0.00000751,0.00000695,-0.
 00004305,0.00012717,-0.00014916,0.00001941,-0.00000788,0.00007186,0.00
 002240,-0.00001662,0.00003920,-0.00004404,-0.00001327,-0.00000494,-0.0
 0003754,-0.00007574,0.00001887,-0.00000871,-0.00004068,-0.00002535,-0.
 00004469,-0.00000043,-0.00001747,0.00000367,-0.00003180,-0.00001409,-0
 .00000858,-0.00001728,-0.00001054,0.00000111,0.02084033,-0.02537292,-0
 .00487936,0.00458605,0.00242097,-0.00471027,0.06351271,-0.06411701,-0.
 09908073,-0.00039194,0.00060913,-0.00094234,0.00094605,-0.00128126,-0.
 00033529,-0.01464881,0.01905224,0.01172215,-0.07240649,0.06624805,0.09
 832119,-0.00074057,0.00134889,0.00009934,0.00070973,0.00012212,-0.0003
 4542,-0.00042966,0.00001569,-0.00010149,0.00010798,-0.00009606,-0.0003
 3761,0.00009764,-0.00015098,0.00026791,0.00010085,0.00012705,0.0002128
 1,-0.00000073,0.00000851,-0.00001113,0.00012224,-0.00007435,-0.0002908
 0,-0.00005984,0.00004719,0.00000524,-0.00024073,-0.00009771,0.00001539
 ,-0.00000469,0.00000571,-0.00000281,0.00001005,0.00000305,0.00000016,-
 0.00000520,0.00000087,0.00000722,0.00017505,0.00003178,-0.00087392,0.0
 0012767,-0.00031244,-0.00018852,0.00010081,0.00028897,-0.00020735,0.00
 021813,0.00010575,0.00018513,0.00000170,-0.00000664,-0.00000340,-0.000
 01522,-0.00036775,-0.00001138,0.00005849,0.00005871,0.00014437,-0.0001
 9323,0.00021346,-0.00007913,-0.00001165,0.00001295,0.00003305,0.000045
 07,0.00001799,-0.00001591,0.00000309,0.00000238,0.00000574,-0.04330377
 ,0.02197296,0.04514188,0.04076540,-0.05573142,0.00932515,0.00641553,0.
 04650478,-0.05676072,-0.14734176,0.04365930,0.07747868,0.00569761,0.00
 476922,0.00074552,-0.18722518,0.10217067,0.08218259,0.00617876,0.00335
 194,0.00165681,0.39362476,-0.00016070,-0.00152221,-0.00098182,-0.00058
 159,-0.00004372,0.00030907,0.00033974,-0.00010734,-0.00002988,0.000044
 61,0.00006890,0.00020257,-0.00013191,0.00004196,-0.00010827,-0.0000363
 3,-0.00006390,-0.00012890,-0.00000082,-0.00001588,0.00000359,-0.000101
 47,0.00005103,0.00013915,0.00000948,-0.00006011,-0.00004960,0.00011366
 ,0.00007842,0.00004692,-0.00000351,-0.00000855,0.00002167,0.00001943,-
 0.00000392,0.00003594,0.00000307,-0.00000382,0.00001241,0.00020245,-0.
 00002211,0.00119737,-0.00027358,0.00003398,0.00006311,0.00004835,-0.00
 027717,0.00007268,-0.00008141,-0.00007928,-0.00013725,0.00000055,0.000
 02900,0.00001766,-0.00005985,0.00025314,-0.00002075,-0.00006292,-0.000
 00091,-0.00009918,0.00009854,-0.00016156,0.00004232,-0.00000184,-0.000
 03795,-0.00003035,-0.00004664,-0.00002764,0.00000595,-0.00001153,-0.00
 000090,-0.00000863,0.02352640,-0.01825666,-0.03322766,-0.02996323,0.03
 847885,0.02506500,0.02114336,-0.05034793,0.03708490,0.00994881,-0.1450
 2789,0.05908479,0.00447496,-0.00200448,0.00459320,0.13594833,-0.250774
 34,-0.06488397,0.00374797,-0.00064020,0.00508411,-0.23300160,0.6638538
 7,0.00015346,-0.00190070,0.00005978,-0.00081741,0.00016209,-0.00000565
 ,0.00046118,0.00028090,0.00022219,-0.00021549,0.00009662,0.00030137,-0
 .00008646,0.00011923,-0.00040361,-0.00014191,-0.00015464,-0.00023715,-
 0.00002069,-0.00001951,0.00002396,-0.00013449,0.00005497,0.00036829,0.
 00005822,-0.00003259,-0.00000374,0.00031796,0.00009913,-0.00008884,0.0
 0001684,-0.00000243,-0.00002238,-0.00002723,-0.00000231,-0.00001759,-0
 .00000057,0.00000042,-0.00002329,-0.00031037,-0.00033350,0.00071362,0.
 00007902,0.00036709,0.00024521,-0.00010123,0.00001078,0.00019660,-0.00
 023286,-0.00008632,-0.00016980,-0.00000346,-0.00001644,0.00000350,-0.0
 0003149,0.00039713,-0.00002748,-0.00025784,0.00013707,-0.00031278,0.00
 023107,-0.00012946,0.00010385,0.00002444,0.00001474,-0.00002990,0.0000
 2419,0.00003462,0.00002357,0.00000043,0.00001812,0.00000129,0.04443406
 ,-0.03226173,-0.05773769,-0.02611354,0.08025190,-0.04307870,-0.0204939
 1,-0.01786489,0.08018855,0.12118313,-0.01174131,-0.32490580,0.00103650
 ,0.00442069,0.00053280,0.03791641,0.00546403,-0.17019181,0.00123713,0.
 00561336,-0.00116852,-0.15251646,-0.15543033,0.70135053,-0.00022019,-0
 .00014507,0.00044481,-0.00005643,0.00005844,-0.00000887,0.00001405,0.0
 0007811,0.00003533,-0.00003621,-0.00000126,0.00002619,0.00000418,0.000
 00479,-0.00007435,-0.00001429,-0.00002916,-0.00002824,-0.00000917,-0.0
 0000475,0.00000950,0.00000203,-0.00001458,0.00004436,-0.00000194,0.000
 01932,0.00001766,0.00004238,-0.00000786,-0.00004092,0.00000270,0.00000
 437,-0.00000914,-0.00002302,0.00000324,-0.00002078,-0.00000207,0.00000
 621,-0.00001559,-0.00002031,0.00003698,-0.00012975,0.00003839,0.000019
 75,-0.00000849,0.00004479,-0.00001957,0.00002985,0.00000451,0.00001521
 ,0.00001524,-0.00000475,-0.00000616,-0.00000466,-0.00001984,-0.0000009
 4,-0.00001008,-0.00001926,0.00000610,-0.00000229,-0.00000680,0.0000170
 0,-0.00000444,-0.00000352,0.00001342,0.00000276,0.00000295,-0.00000347
 ,0.00000471,0.00000389,0.00001051,0.00000060,0.00582515,0.00370595,0.0
 0111468,0.00121157,0.00317108,0.00493539,-0.00018221,-0.00088337,-0.00
 048516,-0.16729563,0.14136813,0.06458080,-0.00266148,-0.00224836,-0.00
 200008,0.00521790,0.00223658,0.00495760,-0.00083334,-0.00041850,-0.000
 36149,-0.00279724,0.01228757,0.00162919,0.16491312,0.00065647,-0.00045
 885,-0.00075167,0.00007638,-0.00033674,0.00019804,-0.00003577,-0.00003
 557,-0.00029662,0.00000390,0.00005344,0.00009295,0.00000495,0.00003709
 ,0.00003269,-0.00001761,0.00000873,-0.00001359,0.00000830,-0.00002150,
 -0.00001297,-0.00002028,-0.00000065,0.00000327,-0.00002679,-0.00001416
 ,-0.00001025,0.00000091,0.00002949,0.00004717,-0.00000962,-0.00001508,
 0.00002824,0.00001083,0.00000193,0.00001255,0.00000316,-0.00000391,0.0
 0001774,0.00021738,0.00005103,0.00017440,-0.00010685,-0.00009964,-0.00
 004502,-0.00005155,-0.00010827,0.00002629,0.00000296,-0.00001135,-0.00
 000319,-0.00001028,0.00002274,-0.00001023,0.00001537,0.00000806,0.0000
 1574,0.00007411,0.00001523,-0.00001322,-0.00001312,-0.00002853,-0.0000
 0658,-0.00000403,-0.00001919,-0.00000216,-0.00002402,-0.00002020,-0.00
 001703,-0.00000493,-0.00001219,-0.00000588,0.00318677,-0.00060781,0.00
 544547,0.01798954,-0.01386172,-0.01255067,-0.00092059,0.00004074,0.000
 63147,0.14147103,-0.22624569,-0.06529754,-0.00267220,-0.00025118,-0.00
 060583,0.00247565,0.00327445,0.00224283,-0.00041297,-0.00035523,-0.000
 30620,-0.00253683,0.00626322,0.00452256,-0.15708488,0.23299635,-0.0006
 1688,0.00044868,0.00053018,-0.00010171,0.00017275,-0.00009173,0.000018
 01,-0.00005172,0.00012075,0.00002829,-0.00001906,0.00001518,-0.0000006
 4,-0.00001498,-0.00002874,0.00000756,-0.00001560,-0.00002208,-0.000003
 81,0.00001267,0.00000311,-0.00000672,-0.00001325,0.00000758,-0.0000062
 1,0.00001151,0.00000041,0.00001278,-0.00001323,-0.00003090,-0.00000247
 ,0.00000793,-0.00000615,-0.00000588,0.00000382,-0.00000711,-0.00000277
 ,0.00000612,-0.00000297,-0.00004861,0.00002902,-0.00007248,0.00001449,
 0.00003476,-0.00000666,0.00001777,-0.00001678,0.00000904,-0.00000230,0
 .00000920,0.00000789,0.00000464,-0.00000469,-0.00000324,0.00001064,0.0
 0000134,0.00001059,0.00001910,0.00000684,0.00000514,-0.00000050,0.0000
 0474,-0.00000029,-0.00000025,0.00000364,0.00000185,-0.00000176,-0.0000
 0332,-0.00000129,0.00000147,-0.00000074,-0.00000143,0.00142183,0.00528
 309,-0.00122448,-0.01449882,0.01859205,0.01165147,-0.00035733,0.000616
 57,-0.00108530,0.06480850,-0.06530528,-0.10019119,-0.00152761,-0.00166
 846,0.00047410,0.00467756,0.00262465,-0.00441746,-0.00036120,-0.000290
 25,-0.00009801,0.02101367,-0.02679624,-0.00363467,-0.07325718,0.068091
 86,0.09813744,0.00009843,-0.00004703,-0.00039971,-0.00004846,0.0000026
 8,0.00001432,-0.00009951,-0.00002339,0.00004100,0.00002664,-0.00001779
 ,-0.00003028,0.00004754,-0.00000520,0.00001903,0.00002089,0.00001175,0
 .00003195,-0.00000223,0.00000387,-0.00000139,0.00000743,-0.00001278,-0
 .00004826,-0.00001586,0.00000956,-0.00000200,-0.00004122,-0.00002019,0
 .00000317,-0.00000496,0.00000408,0.00000152,0.00000131,0.00000013,-0.0
 0000506,-0.00000225,0.00000232,0.00000279,0.00001964,-0.00006846,0.000
 09617,-0.00003928,0.00001051,0.00002069,-0.00001603,-0.00002286,-0.000
 01554,-0.00000943,-0.00000385,-0.00001538,-0.00000456,0.00000559,-0.00
 000182,0.00003056,0.00000417,-0.00001017,0.00000308,0.00002126,0.00003
 454,0.00000054,-0.00002730,-0.00000614,-0.00000023,-0.00000360,-0.0000
 0251,-0.00002092,-0.00000595,0.00000604,-0.00000385,-0.00000662,0.0000
 0435,0.00574352,0.00460788,0.00102954,-0.00066915,0.00020439,-0.000836
 05,0.00810833,0.00236522,-0.00819254,0.00308688,0.00662725,0.00291526,
 -0.00078185,-0.00052602,-0.00030425,-0.10914468,0.00485953,0.11952726,
 -0.00272188,-0.00269930,-0.00157935,-0.00265180,-0.00325229,0.02120065
 ,-0.00044333,-0.00012980,0.00095734,0.10200492,-0.00061604,0.00028009,
 0.00102809,0.00002104,0.00007960,-0.00005347,0.00001481,-0.00040036,0.
 00006759,0.00001082,0.00003150,0.00004391,0.00002007,0.00001835,0.0000
 6096,-0.00000062,0.00003883,0.00002133,0.00000234,-0.00001869,0.000001
 23,-0.00000623,0.00000858,-0.00004081,0.00000157,-0.00000430,-0.000005
 06,-0.00003113,-0.00000954,0.00003568,-0.00000602,0.00000007,0.0000122
 8,0.00000567,0.00000218,0.00000512,0.00000111,-0.00000191,0.00000612,0
 .00008234,0.00005855,0.00009419,-0.00003007,-0.00005647,-0.00001966,-0
 .00001729,-0.00003400,-0.00003054,0.00001420,-0.00000486,-0.00001028,-
 0.00000828,0.00000986,0.00000898,0.00000307,-0.00001418,-0.00001496,0.
 00000593,0.00000394,0.00003211,-0.00001596,-0.00002212,-0.00001774,-0.
 00000478,-0.00000880,0.00000424,-0.00001794,-0.00000752,0.00000384,-0.
 00000529,-0.00000494,0.00000507,0.00473581,-0.00192280,0.00423330,0.00
 019831,-0.00119729,-0.00003528,-0.01268710,0.00464449,0.02770852,0.006
 44748,-0.00173420,0.00020050,-0.00054925,-0.00022019,-0.00019558,0.004
 97495,-0.06740890,0.01439406,-0.00225907,-0.00027158,-0.00171017,0.011
 67886,0.00690968,-0.02633750,0.00048785,0.00004636,-0.00121124,-0.0097
 9706,0.06144729,0.00052816,-0.00045985,-0.00068263,-0.00005021,0.00003
 777,-0.00000435,-0.00008916,0.00030562,0.00006512,-0.00004093,-0.00003
 641,-0.00009545,0.00004623,0.00000801,-0.00006711,0.00000023,-0.000013
 50,0.00002275,-0.00000311,-0.00000350,0.00000736,0.00002558,0.00000191
 ,0.00000425,0.00000958,0.00000713,0.00001635,-0.00001025,-0.00000935,-
 0.00002871,0.00001097,-0.00000021,-0.00001597,-0.00001079,-0.00001289,
 -0.00001863,-0.00000006,-0.00000271,-0.00001551,-0.00013281,-0.0000891
 4,-0.00012757,0.00005899,0.00007144,0.00005181,0.00005294,0.00002254,0
 .00003691,-0.00000846,0.00001886,0.00001058,0.00000074,-0.00001424,-0.
 00001126,-0.00002198,0.00000407,-0.00000781,-0.00004554,-0.00001335,-0
 .00002165,0.00000250,0.00002999,0.00001013,0.00000272,0.00002319,-0.00
 000610,0.00002054,0.00000512,0.00000025,0.00000809,0.00001667,-0.00000
 043,0.00094067,0.00485189,0.00077074,-0.00081301,0.00009537,0.00066501
 ,0.01139663,-0.00355549,-0.01354224,0.00318238,-0.00026436,0.00237134,
 -0.00031792,-0.00025582,-0.00026052,0.11936963,0.01454820,-0.31744465,
 -0.00223506,-0.00066368,0.00035176,0.00172963,0.00473394,-0.00434260,0
 .00010668,0.00009162,-0.00044884,-0.13230445,-0.01781771,0.33244406,-0
 .00062965,-0.00053096,-0.00032569,-0.00005521,0.00005684,0.00008155,0.
 00001925,0.00002518,0.00004809,0.00002725,-0.00002179,-0.00003914,0.00
 000642,-0.00004250,-0.00001732,0.00000406,-0.00000220,-0.00001599,-0.0
 0000841,0.00000394,0.00000198,-0.00000015,-0.00000764,0.00000026,-0.00
 000037,0.00001250,0.00001024,0.00000210,0.00000505,-0.00000411,0.00000
 042,-0.00000238,-0.00000089,-0.00000501,0.00000101,-0.00000732,0.00000
 027,0.00000084,-0.00000233,0.00006803,-0.00011588,0.00003766,-0.000015
 83,-0.00003582,-0.00001973,0.00001193,-0.00000954,-0.00001817,0.000011
 58,-0.00000804,0.00000035,-0.00000429,-0.00000085,0.00000455,0.0000025
 4,-0.00000365,-0.00000369,0.00000392,0.00001446,0.00002384,-0.00000662
 ,0.00000027,-0.00000074,-0.00000373,0.00000202,-0.00000070,-0.00000428
 ,-0.00000539,0.00000136,0.00000137,0.00000267,0.00000172,-0.00107175,-
 0.00010770,0.00034713,0.00453128,0.00318810,0.00528884,0.00286655,0.00
 591158,0.00435732,0.00819733,-0.01254504,0.01022517,0.00009969,-0.0005
 7664,0.00037044,0.00142469,0.01738836,-0.01517916,-0.00026757,0.000797
 74,-0.00070381,-0.06953929,0.05581392,-0.02849848,-0.00267657,-0.00211
 557,-0.00221102,-0.00247824,-0.00265414,-0.00140914,0.05948829,-0.0004
 3041,-0.00028128,-0.00014384,-0.00009881,0.00006016,0.00000625,-0.0000
 2092,-0.00007191,-0.00002557,0.00003510,0.00001082,0.00003105,0.000011
 14,-0.00002127,0.00003019,0.00000767,0.00000360,-0.00000957,-0.0000012
 5,0.00000610,-0.00000666,-0.00001556,-0.00001424,-0.00001418,-0.000018
 90,0.00000089,-0.00000881,-0.00000392,0.00000483,0.00001564,-0.0000081
 7,-0.00000258,0.00001094,0.00000581,0.00000730,0.00000530,-0.00000109,
 0.00000279,0.00001135,0.00009256,-0.00002241,0.00011699,-0.00005720,-0
 .00003208,-0.00002186,-0.00003406,-0.00003965,-0.00000945,-0.00000711,
 -0.00000915,-0.00000991,-0.00000243,0.00001102,-0.00000405,0.00003748,
 0.00001203,0.00001241,0.00004811,0.00001794,0.00001862,0.00000186,-0.0
 0002481,-0.00000312,-0.00000030,-0.00001414,0.00000016,-0.00002187,-0.
 00000914,-0.00000364,-0.00000554,-0.00001402,-0.00000057,-0.00021510,0
 .00024798,-0.00106685,0.00298101,0.00334854,0.00110253,0.00614330,-0.0
 0017688,-0.00119605,0.00234609,0.00389930,-0.00325062,0.00002170,-0.00
 004659,-0.00009511,0.00237760,-0.01350431,0.01933859,0.00016841,-0.000
 90329,0.00077630,0.05585696,-0.24657359,0.14424818,-0.00268266,-0.0003
 4144,-0.00053644,-0.00207072,-0.00023671,-0.00166115,-0.06443876,0.254
 70619,-0.00033623,-0.00029742,-0.00004901,-0.00009691,0.00009937,0.000
 00102,-0.00001290,0.00004854,0.00004337,-0.00005324,0.00001418,-0.0000
 4013,0.00003504,0.00002686,-0.00000600,-0.00001461,0.00001314,0.000036
 98,-0.00000255,-0.00002444,0.00000790,0.00002050,0.00000633,0.00000204
 ,0.00000713,0.,0.00001196,-0.00000819,-0.00001334,-0.00000341,0.000008
 98,-0.00000065,-0.00000756,-0.00001217,-0.00000488,-0.00001151,-0.0000
 0052,-0.00000188,-0.00001426,-0.00000995,-0.00006499,0.00000251,0.0000
 1468,0.00000547,0.00000695,0.00004102,-0.00000527,0.00002414,0.0000057
 0,0.00000453,0.00000410,-0.00000149,-0.00000433,-0.00000202,-0.0000247
 2,0.00000497,-0.00001274,-0.00002990,-0.00000815,-0.00002280,-0.000000
 30,0.00001124,-0.00000088,-0.00000164,0.00000917,-0.00000181,0.0000059
 3,0.00000036,0.00000448,0.00000281,0.00001008,0.00000145,0.00040323,-0
 .00099614,-0.00051708,0.00564200,0.00052670,-0.00363724,0.00399853,-0.
 00067793,0.00123381,-0.00915173,0.02818607,-0.01256886,-0.00039649,0.0
 0118814,-0.00081319,0.00433373,-0.01183556,0.01148983,0.00012623,-0.00
 048615,0.00030181,-0.02850425,0.14411646,-0.17793310,-0.00149388,-0.00
 172625,0.00040029,-0.00215075,-0.00046713,0.00031362,0.02765693,-0.157
 65707,0.18175535||-0.00000402,-0.00000355,-0.00001049,0.00000523,-0.00
 000226,-0.00000090,-0.00000403,0.00000147,0.00000390,0.00000066,0.0000
 0106,0.00000366,-0.00000311,-0.00000271,-0.00000217,0.00000042,0.00000
 211,-0.00000299,-0.00000006,-0.00000157,0.00000038,-0.00000552,0.00000
 233,0.00000205,0.00000179,-0.00000038,-0.00000020,0.00000512,-0.000000
 94,-0.00000085,-0.00000095,-0.00000048,0.00000084,0.00000173,0.0000002
 9,0.00000073,0.00000029,0.00000033,0.00000177,-0.00001954,0.00001567,0
 .00000590,0.00000200,-0.00003404,-0.00000926,0.00003047,0.00001641,0.0
 0000427,0.00002744,0.00001777,0.00001119,-0.00000065,0.00000214,0.0000
 0082,-0.00000126,-0.00003479,-0.00000256,-0.00000311,0.00000023,0.0000
 0019,-0.00002885,0.00002179,-0.00000681,-0.00000264,-0.00000305,-0.000
 00079,-0.00000141,0.00000322,-0.00000029,0.00000307,-0.00000333,-0.000
 00016,-0.00001460,0.00001346,0.00002671,0.00000979,-0.00002624,0.00000
 115,-0.00000219,0.00001186,-0.00002859,0.00000617,0.00001446,-0.000023
 31,-0.00000071,0.00000267,-0.00000115,0.00001658,-0.00002063,0.0000084
 6,0.00000088,-0.00000206,0.00000175,-0.00001880,0.00000705,0.00001870,
 -0.00000110,-0.00000004,0.00000279,-0.00000051,0.00000176,-0.00000239,
 0.00000141,0.,-0.00000236|||@


 ACHIEVEMENT--  THE MAN WHO ROWS THE BOAT GENERALLY 
                DOESN'T HAVE TIME TO ROCK IT.

                   -- FROM THE BACK OF A SUGAR PACKET
 Job cpu time:  0 days  0 hours  6 minutes 25.0 seconds.
 File lengths (MBytes):  RWF=    350 Int=      0 D2E=      0 Chk=      7 Scr=      1
 Normal termination of Gaussian 09 at Tue Sep 07 03:12:23 2021.
