 Entering Link 1 = b:\programy\g09w\l1.exe PID=     14468.
  
 Copyright (c) 1988,1990,1992,1993,1995,1998,2003,2009, Gaussian, Inc.
                  All Rights Reserved.
  
 This is part of the Gaussian(R) 09 program.  It is based on
 the Gaussian(R) 03 system (copyright 2003, Gaussian, Inc.),
 the Gaussian(R) 98 system (copyright 1998, Gaussian, Inc.),
 the Gaussian(R) 94 system (copyright 1995, Gaussian, Inc.),
 the Gaussian 92(TM) system (copyright 1992, Gaussian, Inc.),
 the Gaussian 90(TM) system (copyright 1990, Gaussian, Inc.),
 the Gaussian 88(TM) system (copyright 1988, Gaussian, Inc.),
 the Gaussian 86(TM) system (copyright 1986, Carnegie Mellon
 University), and the Gaussian 82(TM) system (copyright 1983,
 Carnegie Mellon University). Gaussian is a federally registered
 trademark of Gaussian, Inc.
  
 This software contains proprietary and confidential information,
 including trade secrets, belonging to Gaussian, Inc.
  
 This software is provided under written license and may be
 used, copied, transmitted, or stored only in accord with that
 written license.
  
 The following legend is applicable only to US Government
 contracts under FAR:
  
                    RESTRICTED RIGHTS LEGEND
  
 Use, reproduction and disclosure by the US Government is
 subject to restrictions as set forth in subparagraphs (a)
 and (c) of the Commercial Computer Software - Restricted
 Rights clause in FAR 52.227-19.
  
 Gaussian, Inc.
 340 Quinnipiac St., Bldg. 40, Wallingford CT 06492
  
  
 ---------------------------------------------------------------
 Warning -- This program may not be used in any manner that
 competes with the business of Gaussian, Inc. or will provide
 assistance to any competitor of Gaussian, Inc.  The licensee
 of this program is prohibited from giving any competitor of
 Gaussian, Inc. access to this program.  By using this program,
 the user acknowledges that Gaussian, Inc. is engaged in the
 business of creating and licensing software in the field of
 computational chemistry and represents and warrants to the
 licensee that it is not a competitor of Gaussian, Inc. and that
 it will not use this program in any manner prohibited above.
 ---------------------------------------------------------------
  

 Cite this work as:
 Gaussian 09, Revision A.02,
 M. J. Frisch, G. W. Trucks, H. B. Schlegel, G. E. Scuseria, 
 M. A. Robb, J. R. Cheeseman, G. Scalmani, V. Barone, B. Mennucci, 
 G. A. Petersson, H. Nakatsuji, M. Caricato, X. Li, H. P. Hratchian, 
 A. F. Izmaylov, J. Bloino, G. Zheng, J. L. Sonnenberg, M. Hada, 
 M. Ehara, K. Toyota, R. Fukuda, J. Hasegawa, M. Ishida, T. Nakajima, 
 Y. Honda, O. Kitao, H. Nakai, T. Vreven, J. A. Montgomery, Jr., 
 J. E. Peralta, F. Ogliaro, M. Bearpark, J. J. Heyd, E. Brothers, 
 K. N. Kudin, V. N. Staroverov, R. Kobayashi, J. Normand, 
 K. Raghavachari, A. Rendell, J. C. Burant, S. S. Iyengar, J. Tomasi, 
 M. Cossi, N. Rega, J. M. Millam, M. Klene, J. E. Knox, J. B. Cross, 
 V. Bakken, C. Adamo, J. Jaramillo, R. Gomperts, R. E. Stratmann, 
 O. Yazyev, A. J. Austin, R. Cammi, C. Pomelli, J. W. Ochterski, 
 R. L. Martin, K. Morokuma, V. G. Zakrzewski, G. A. Voth, 
 P. Salvador, J. J. Dannenberg, S. Dapprich, A. D. Daniels, 
 O. Farkas, J. B. Foresman, J. V. Ortiz, J. Cioslowski, 
 and D. J. Fox, Gaussian, Inc., Wallingford CT, 2009.
 
 ******************************************
 Gaussian 09:  IA32W-G09RevA.02 11-Jun-2009
                07-Sep-2021 
 ******************************************
 %nprocshared=12
 Will use up to   12 processors via shared memory.
 ----------------------------------------------
 # opt freq=noraman hf/6-311g geom=connectivity
 ----------------------------------------------
 1/18=20,19=15,38=1,57=2/1,3;
 2/9=110,12=2,17=6,18=5,40=1/2;
 3/5=4,6=6,11=9,16=1,25=1,30=1,71=1/1,2,3;
 4//1;
 5/5=2,38=5/2;
 6/7=2,8=2,9=2,10=2,28=1/1;
 7//1,2,3,16;
 1/18=20,19=15/3(2);
 2/9=110/2;
 99//99;
 2/9=110/2;
 3/5=4,6=6,11=9,16=1,25=1,30=1,71=1/1,2,3;
 4/5=5,16=3/1;
 5/5=2,38=5/2;
 7//1,2,3,16;
 1/18=20,19=15/3(-5);
 2/9=110/2;
 6/7=2,8=2,9=2,10=2,19=2,28=1/1;
 99/9=1/99;
 -----
 M0001
 -----
 Symbolic Z-matrix:
 Charge =  0 Multiplicity = 1
 C                    -0.75846  -0.08949  -0.13197 
 H                    -1.84837  -0.27101  -0.33321 
 C                    -0.50464   1.38537  -0.31871 
 C                    -1.57414   2.2232   -0.64285 
 C                     0.77239   1.9352   -0.18425 
 C                    -1.36792   3.58595  -0.82785 
 H                    -2.58265   1.80726  -0.7529 
 C                     0.97628   3.29704  -0.36993 
 H                     1.61794   1.27192   0.05767 
 C                    -0.09383   4.12542  -0.69136 
 H                    -2.21248   4.23455  -1.08236 
 H                     1.98199   3.71643  -0.26418 
 H                     0.06707   5.19823  -0.83775 
 C                    -0.53826  -0.58377   1.27651 
 C                    -0.24315   0.2738    2.33544 
 C                    -0.69068  -1.95073   1.53345 
 C                    -0.09844  -0.22505   3.62629 
 H                    -0.12398   1.34928   2.15206 
 C                    -0.54425  -2.4467    2.82196 
 H                    -0.92214  -2.63188   0.70583 
 C                    -0.24763  -1.58401   3.87291 
 H                     0.13318   0.4592    4.44902 
 H                    -0.66319  -3.51857   3.01025 
 H                    -0.13342  -1.97506   4.88881 
 C                     0.03802  -0.89742  -1.1282 
 C                     1.42757  -0.99916  -1.03537 
 C                    -0.62655  -1.56163  -2.16122 
 C                     2.14035  -1.75856  -1.95513 
 H                     1.95095  -0.45454  -0.2348 
 C                     0.08927  -2.31861  -3.08236 
 H                    -1.71684  -1.48744  -2.2496 
 C                     1.4721   -2.42095  -2.97967 
 H                     3.22945  -1.83338  -1.87245 
 H                    -0.4392   -2.83536  -3.89013 
 H                     2.03363  -3.01951  -3.70395 
 

 GradGradGradGradGradGradGradGradGradGradGradGradGradGradGradGradGradGrad
 Berny optimization.
 Initialization pass.
                           ----------------------------
                           !    Initial Parameters    !
                           ! (Angstroms and Degrees)  !
 --------------------------                            --------------------------
 ! Name  Definition              Value          Derivative Info.                !
 --------------------------------------------------------------------------------
 ! R1    R(1,2)                  1.1231         estimate D2E/DX2                !
 ! R2    R(1,3)                  1.5081         estimate D2E/DX2                !
 ! R3    R(1,14)                 1.5088         estimate D2E/DX2                !
 ! R4    R(1,25)                 1.5098         estimate D2E/DX2                !
 ! R5    R(3,4)                  1.3967         estimate D2E/DX2                !
 ! R6    R(3,5)                  1.3968         estimate D2E/DX2                !
 ! R7    R(4,6)                  1.3906         estimate D2E/DX2                !
 ! R8    R(4,7)                  1.0964         estimate D2E/DX2                !
 ! R9    R(5,8)                  1.3895         estimate D2E/DX2                !
 ! R10   R(5,9)                  1.1016         estimate D2E/DX2                !
 ! R11   R(6,10)                 1.3903         estimate D2E/DX2                !
 ! R12   R(6,11)                 1.0949         estimate D2E/DX2                !
 ! R13   R(8,10)                 1.3909         estimate D2E/DX2                !
 ! R14   R(8,12)                 1.0948         estimate D2E/DX2                !
 ! R15   R(10,13)                1.0946         estimate D2E/DX2                !
 ! R16   R(14,15)                1.3942         estimate D2E/DX2                !
 ! R17   R(14,16)                1.3992         estimate D2E/DX2                !
 ! R18   R(15,17)                1.3914         estimate D2E/DX2                !
 ! R19   R(15,18)                1.0975         estimate D2E/DX2                !
 ! R20   R(16,19)                1.3884         estimate D2E/DX2                !
 ! R21   R(16,20)                1.0966         estimate D2E/DX2                !
 ! R22   R(17,21)                1.3892         estimate D2E/DX2                !
 ! R23   R(17,22)                1.0949         estimate D2E/DX2                !
 ! R24   R(19,21)                1.3917         estimate D2E/DX2                !
 ! R25   R(19,23)                1.0948         estimate D2E/DX2                !
 ! R26   R(21,24)                1.0945         estimate D2E/DX2                !
 ! R27   R(25,26)                1.3964         estimate D2E/DX2                !
 ! R28   R(25,27)                1.3964         estimate D2E/DX2                !
 ! R29   R(26,28)                1.3895         estimate D2E/DX2                !
 ! R30   R(26,29)                1.1007         estimate D2E/DX2                !
 ! R31   R(27,30)                1.3907         estimate D2E/DX2                !
 ! R32   R(27,31)                1.0964         estimate D2E/DX2                !
 ! R33   R(28,32)                1.391          estimate D2E/DX2                !
 ! R34   R(28,33)                1.0948         estimate D2E/DX2                !
 ! R35   R(30,32)                1.3904         estimate D2E/DX2                !
 ! R36   R(30,34)                1.0949         estimate D2E/DX2                !
 ! R37   R(32,35)                1.0946         estimate D2E/DX2                !
 ! A1    A(2,1,3)              107.4094         estimate D2E/DX2                !
 ! A2    A(2,1,14)             104.8296         estimate D2E/DX2                !
 ! A3    A(2,1,25)             107.8919         estimate D2E/DX2                !
 ! A4    A(3,1,14)             114.2916         estimate D2E/DX2                !
 ! A5    A(3,1,25)             110.6596         estimate D2E/DX2                !
 ! A6    A(14,1,25)            111.3246         estimate D2E/DX2                !
 ! A7    A(1,3,4)              119.1092         estimate D2E/DX2                !
 ! A8    A(1,3,5)              121.7948         estimate D2E/DX2                !
 ! A9    A(4,3,5)              119.0948         estimate D2E/DX2                !
 ! A10   A(3,4,6)              120.3411         estimate D2E/DX2                !
 ! A11   A(3,4,7)              120.0026         estimate D2E/DX2                !
 ! A12   A(6,4,7)              119.6564         estimate D2E/DX2                !
 ! A13   A(3,5,8)              120.4694         estimate D2E/DX2                !
 ! A14   A(3,5,9)              119.0703         estimate D2E/DX2                !
 ! A15   A(8,5,9)              120.4552         estimate D2E/DX2                !
 ! A16   A(4,6,10)             120.2044         estimate D2E/DX2                !
 ! A17   A(4,6,11)             119.8054         estimate D2E/DX2                !
 ! A18   A(10,6,11)            119.9901         estimate D2E/DX2                !
 ! A19   A(5,8,10)             120.1128         estimate D2E/DX2                !
 ! A20   A(5,8,12)             119.8247         estimate D2E/DX2                !
 ! A21   A(10,8,12)            120.0624         estimate D2E/DX2                !
 ! A22   A(6,10,8)             119.7774         estimate D2E/DX2                !
 ! A23   A(6,10,13)            120.123          estimate D2E/DX2                !
 ! A24   A(8,10,13)            120.0996         estimate D2E/DX2                !
 ! A25   A(1,14,15)            122.5741         estimate D2E/DX2                !
 ! A26   A(1,14,16)            118.3951         estimate D2E/DX2                !
 ! A27   A(15,14,16)           118.9793         estimate D2E/DX2                !
 ! A28   A(14,15,17)           120.4046         estimate D2E/DX2                !
 ! A29   A(14,15,18)           119.9222         estimate D2E/DX2                !
 ! A30   A(17,15,18)           119.6732         estimate D2E/DX2                !
 ! A31   A(14,16,19)           120.525          estimate D2E/DX2                !
 ! A32   A(14,16,20)           119.4223         estimate D2E/DX2                !
 ! A33   A(19,16,20)           120.0518         estimate D2E/DX2                !
 ! A34   A(15,17,21)           120.2812         estimate D2E/DX2                !
 ! A35   A(15,17,22)           119.6743         estimate D2E/DX2                !
 ! A36   A(21,17,22)           120.0445         estimate D2E/DX2                !
 ! A37   A(16,19,21)           120.124          estimate D2E/DX2                !
 ! A38   A(16,19,23)           119.8616         estimate D2E/DX2                !
 ! A39   A(21,19,23)           120.0143         estimate D2E/DX2                !
 ! A40   A(17,21,19)           119.6853         estimate D2E/DX2                !
 ! A41   A(17,21,24)           120.203          estimate D2E/DX2                !
 ! A42   A(19,21,24)           120.1117         estimate D2E/DX2                !
 ! A43   A(1,25,26)            121.3378         estimate D2E/DX2                !
 ! A44   A(1,25,27)            119.4451         estimate D2E/DX2                !
 ! A45   A(26,25,27)           119.2166         estimate D2E/DX2                !
 ! A46   A(25,26,28)           120.4174         estimate D2E/DX2                !
 ! A47   A(25,26,29)           119.0452         estimate D2E/DX2                !
 ! A48   A(28,26,29)           120.528          estimate D2E/DX2                !
 ! A49   A(25,27,30)           120.2621         estimate D2E/DX2                !
 ! A50   A(25,27,31)           120.0477         estimate D2E/DX2                !
 ! A51   A(30,27,31)           119.6902         estimate D2E/DX2                !
 ! A52   A(26,28,32)           120.089          estimate D2E/DX2                !
 ! A53   A(26,28,33)           119.8459         estimate D2E/DX2                !
 ! A54   A(32,28,33)           120.065          estimate D2E/DX2                !
 ! A55   A(27,30,32)           120.2035         estimate D2E/DX2                !
 ! A56   A(27,30,34)           119.8106         estimate D2E/DX2                !
 ! A57   A(32,30,34)           119.9859         estimate D2E/DX2                !
 ! A58   A(28,32,30)           119.8101         estimate D2E/DX2                !
 ! A59   A(28,32,35)           120.0853         estimate D2E/DX2                !
 ! A60   A(30,32,35)           120.1046         estimate D2E/DX2                !
 ! D1    D(2,1,3,4)              1.7695         estimate D2E/DX2                !
 ! D2    D(2,1,3,5)           -177.8385         estimate D2E/DX2                !
 ! D3    D(14,1,3,4)          -114.0675         estimate D2E/DX2                !
 ! D4    D(14,1,3,5)            66.3246         estimate D2E/DX2                !
 ! D5    D(25,1,3,4)           119.3072         estimate D2E/DX2                !
 ! D6    D(25,1,3,5)           -60.3008         estimate D2E/DX2                !
 ! D7    D(2,1,14,15)         -111.8445         estimate D2E/DX2                !
 ! D8    D(2,1,14,16)           65.5168         estimate D2E/DX2                !
 ! D9    D(3,1,14,15)            5.4826         estimate D2E/DX2                !
 ! D10   D(3,1,14,16)         -177.156          estimate D2E/DX2                !
 ! D11   D(25,1,14,15)         131.7625         estimate D2E/DX2                !
 ! D12   D(25,1,14,16)         -50.8761         estimate D2E/DX2                !
 ! D13   D(2,1,25,26)         -172.6172         estimate D2E/DX2                !
 ! D14   D(2,1,25,27)            7.1275         estimate D2E/DX2                !
 ! D15   D(3,1,25,26)           70.1414         estimate D2E/DX2                !
 ! D16   D(3,1,25,27)         -110.1139         estimate D2E/DX2                !
 ! D17   D(14,1,25,26)         -58.1137         estimate D2E/DX2                !
 ! D18   D(14,1,25,27)         121.6309         estimate D2E/DX2                !
 ! D19   D(1,3,4,6)           -179.6582         estimate D2E/DX2                !
 ! D20   D(1,3,4,7)              0.3293         estimate D2E/DX2                !
 ! D21   D(5,3,4,6)             -0.0395         estimate D2E/DX2                !
 ! D22   D(5,3,4,7)            179.948          estimate D2E/DX2                !
 ! D23   D(1,3,5,8)            179.6282         estimate D2E/DX2                !
 ! D24   D(1,3,5,9)              0.4465         estimate D2E/DX2                !
 ! D25   D(4,3,5,8)              0.0202         estimate D2E/DX2                !
 ! D26   D(4,3,5,9)           -179.1616         estimate D2E/DX2                !
 ! D27   D(3,4,6,10)             0.0001         estimate D2E/DX2                !
 ! D28   D(3,4,6,11)           179.9612         estimate D2E/DX2                !
 ! D29   D(7,4,6,10)          -179.9875         estimate D2E/DX2                !
 ! D30   D(7,4,6,11)            -0.0263         estimate D2E/DX2                !
 ! D31   D(3,5,8,10)             0.0386         estimate D2E/DX2                !
 ! D32   D(3,5,8,12)          -179.8611         estimate D2E/DX2                !
 ! D33   D(9,5,8,10)           179.209          estimate D2E/DX2                !
 ! D34   D(9,5,8,12)            -0.6908         estimate D2E/DX2                !
 ! D35   D(4,6,10,8)             0.059          estimate D2E/DX2                !
 ! D36   D(4,6,10,13)          179.9706         estimate D2E/DX2                !
 ! D37   D(11,6,10,8)         -179.9021         estimate D2E/DX2                !
 ! D38   D(11,6,10,13)           0.0096         estimate D2E/DX2                !
 ! D39   D(5,8,10,6)            -0.0782         estimate D2E/DX2                !
 ! D40   D(5,8,10,13)         -179.9899         estimate D2E/DX2                !
 ! D41   D(12,8,10,6)          179.8213         estimate D2E/DX2                !
 ! D42   D(12,8,10,13)          -0.0903         estimate D2E/DX2                !
 ! D43   D(1,14,15,17)         177.5625         estimate D2E/DX2                !
 ! D44   D(1,14,15,18)          -2.4291         estimate D2E/DX2                !
 ! D45   D(16,14,15,17)          0.2159         estimate D2E/DX2                !
 ! D46   D(16,14,15,18)       -179.7756         estimate D2E/DX2                !
 ! D47   D(1,14,16,19)        -177.7536         estimate D2E/DX2                !
 ! D48   D(1,14,16,20)           2.5845         estimate D2E/DX2                !
 ! D49   D(15,14,16,19)         -0.2954         estimate D2E/DX2                !
 ! D50   D(15,14,16,20)       -179.9573         estimate D2E/DX2                !
 ! D51   D(14,15,17,21)         -0.0419         estimate D2E/DX2                !
 ! D52   D(14,15,17,22)       -179.9905         estimate D2E/DX2                !
 ! D53   D(18,15,17,21)        179.9497         estimate D2E/DX2                !
 ! D54   D(18,15,17,22)          0.0011         estimate D2E/DX2                !
 ! D55   D(14,16,19,21)          0.2004         estimate D2E/DX2                !
 ! D56   D(14,16,19,23)       -179.8352         estimate D2E/DX2                !
 ! D57   D(20,16,19,21)        179.8601         estimate D2E/DX2                !
 ! D58   D(20,16,19,23)         -0.1755         estimate D2E/DX2                !
 ! D59   D(15,17,21,19)         -0.0568         estimate D2E/DX2                !
 ! D60   D(15,17,21,24)        179.9938         estimate D2E/DX2                !
 ! D61   D(22,17,21,19)        179.8916         estimate D2E/DX2                !
 ! D62   D(22,17,21,24)         -0.0578         estimate D2E/DX2                !
 ! D63   D(16,19,21,17)         -0.0223         estimate D2E/DX2                !
 ! D64   D(16,19,21,24)        179.9272         estimate D2E/DX2                !
 ! D65   D(23,19,21,17)       -179.9866         estimate D2E/DX2                !
 ! D66   D(23,19,21,24)         -0.0371         estimate D2E/DX2                !
 ! D67   D(1,25,26,28)         179.3723         estimate D2E/DX2                !
 ! D68   D(1,25,26,29)          -1.7401         estimate D2E/DX2                !
 ! D69   D(27,25,26,28)         -0.3729         estimate D2E/DX2                !
 ! D70   D(27,25,26,29)        178.5148         estimate D2E/DX2                !
 ! D71   D(1,25,27,30)        -179.5236         estimate D2E/DX2                !
 ! D72   D(1,25,27,31)           0.521          estimate D2E/DX2                !
 ! D73   D(26,25,27,30)          0.2265         estimate D2E/DX2                !
 ! D74   D(26,25,27,31)       -179.729          estimate D2E/DX2                !
 ! D75   D(25,26,28,32)          0.193          estimate D2E/DX2                !
 ! D76   D(25,26,28,33)       -179.8875         estimate D2E/DX2                !
 ! D77   D(29,26,28,32)       -178.678          estimate D2E/DX2                !
 ! D78   D(29,26,28,33)          1.2415         estimate D2E/DX2                !
 ! D79   D(25,27,30,32)          0.0998         estimate D2E/DX2                !
 ! D80   D(25,27,30,34)       -179.9265         estimate D2E/DX2                !
 ! D81   D(31,27,30,32)       -179.9446         estimate D2E/DX2                !
 ! D82   D(31,27,30,34)          0.0291         estimate D2E/DX2                !
 ! D83   D(26,28,32,30)          0.1365         estimate D2E/DX2                !
 ! D84   D(26,28,32,35)       -179.9737         estimate D2E/DX2                !
 ! D85   D(33,28,32,30)       -179.7829         estimate D2E/DX2                !
 ! D86   D(33,28,32,35)          0.107          estimate D2E/DX2                !
 ! D87   D(27,30,32,28)         -0.2825         estimate D2E/DX2                !
 ! D88   D(27,30,32,35)        179.8277         estimate D2E/DX2                !
 ! D89   D(34,30,32,28)        179.7439         estimate D2E/DX2                !
 ! D90   D(34,30,32,35)         -0.1459         estimate D2E/DX2                !
 --------------------------------------------------------------------------------
 Trust Radius=3.00D-01 FncErr=1.00D-07 GrdErr=1.00D-07
 Number of steps in this run= 197 maximum allowed number of steps= 210.
 GradGradGradGradGradGradGradGradGradGradGradGradGradGradGradGradGradGrad

                          Input orientation:                          
 ---------------------------------------------------------------------
 Center     Atomic      Atomic             Coordinates (Angstroms)
 Number     Number       Type             X           Y           Z
 ---------------------------------------------------------------------
      1          6           0       -0.758458   -0.089489   -0.131968
      2          1           0       -1.848370   -0.271010   -0.333208
      3          6           0       -0.504637    1.385365   -0.318712
      4          6           0       -1.574141    2.223199   -0.642850
      5          6           0        0.772388    1.935197   -0.184253
      6          6           0       -1.367917    3.585947   -0.827845
      7          1           0       -2.582647    1.807259   -0.752901
      8          6           0        0.976276    3.297045   -0.369928
      9          1           0        1.617940    1.271920    0.057669
     10          6           0       -0.093828    4.125423   -0.691357
     11          1           0       -2.212483    4.234553   -1.082359
     12          1           0        1.981993    3.716426   -0.264184
     13          1           0        0.067070    5.198230   -0.837747
     14          6           0       -0.538256   -0.583766    1.276511
     15          6           0       -0.243153    0.273805    2.335443
     16          6           0       -0.690676   -1.950728    1.533450
     17          6           0       -0.098437   -0.225050    3.626286
     18          1           0       -0.123978    1.349275    2.152057
     19          6           0       -0.544249   -2.446705    2.821965
     20          1           0       -0.922140   -2.631884    0.705834
     21          6           0       -0.247632   -1.584014    3.872911
     22          1           0        0.133181    0.459197    4.449023
     23          1           0       -0.663195   -3.518573    3.010249
     24          1           0       -0.133417   -1.975062    4.888809
     25          6           0        0.038024   -0.897420   -1.128197
     26          6           0        1.427566   -0.999164   -1.035368
     27          6           0       -0.626545   -1.561627   -2.161221
     28          6           0        2.140354   -1.758564   -1.955133
     29          1           0        1.950949   -0.454540   -0.234803
     30          6           0        0.089272   -2.318610   -3.082363
     31          1           0       -1.716839   -1.487442   -2.249604
     32          6           0        1.472102   -2.420947   -2.979675
     33          1           0        3.229451   -1.833377   -1.872454
     34          1           0       -0.439198   -2.835359   -3.890127
     35          1           0        2.033632   -3.019513   -3.703950
 ---------------------------------------------------------------------
                    Distance matrix (angstroms):
                    1          2          3          4          5
     1  C    0.000000
     2  H    1.123101   0.000000
     3  C    1.508142   2.132935   0.000000
     4  C    2.504968   2.528272   1.396736   0.000000
     5  C    2.538813   3.428981   1.396848   2.408206   0.000000
     6  C    3.790054   3.918114   2.418063   1.390623   2.778505
     7  H    2.703863   2.243771   2.164403   1.096449   3.405287
     8  C    3.812418   4.550933   2.418728   2.780693   1.389488
     9  H    2.745298   3.814279   2.158672   3.403680   1.101554
    10  C    4.303502   4.747137   2.795629   2.410837   2.409268
    11  H    4.659911   4.581911   3.408484   2.155503   3.873382
    12  H    4.691752   5.529566   3.408834   3.875462   2.154603
    13  H    5.398110   5.816877   3.890268   3.403288   3.401751
    14  C    1.508845   2.098907   2.534431   3.554723   3.193241
    15  C    2.546692   3.161525   2.889373   3.800249   3.184401
    16  C    2.498485   2.765162   3.820292   4.789411   4.493492
    17  C    3.818178   4.329201   4.280356   5.137816   4.466006
    18  H    2.772973   3.431530   2.500180   3.267754   2.570042
    19  C    3.785244   4.048394   4.954814   5.905389   5.474663
    20  H    2.681880   2.740664   4.166809   5.080934   4.951960
    21  C    4.305068   4.688047   5.143245   6.053643   5.466796
    22  H    4.699102   5.227761   4.898561   5.652771   4.904529
    23  H    4.652014   4.809367   5.929228   6.866069   6.481462
    24  H    5.399469   5.754504   6.208748   7.092272   6.468892
    25  C    1.509837   2.140766   2.482107   3.545829   3.074742
    26  C    2.534234   3.428556   3.151664   4.421305   3.124761
    27  C    2.510470   2.549545   3.477710   4.186681   4.253609
    28  C    3.809574   4.555588   4.422459   5.601250   4.318706
    29  H    2.735823   3.805023   3.069559   4.445565   2.665034
    30  C    3.793739   3.937635   4.659391   5.417213   5.192356
    31  H    2.712406   2.273671   3.667533   4.046094   4.709180
    32  C    4.303548   4.759364   5.047398   6.025649   5.223023
    33  H    4.687628   5.531233   5.168929   6.406422   4.805136
    34  H    4.665349   4.605792   5.529358   6.117345   6.161140
    35  H    5.398135   5.829761   6.107831   7.062039   6.207105
                    6          7          8          9         10
     6  C    0.000000
     7  H    2.155206   0.000000
     8  C    2.405908   3.877120   0.000000
     9  H    3.879974   4.311443   2.166957   0.000000
    10  C    1.390311   3.401748   1.390916   3.410816   0.000000
    11  H    1.094879   2.477361   3.399215   4.974837   2.157195
    12  H    3.399505   4.971891   1.094774   2.492336   2.158422
    13  H    2.158412   4.304286   2.158706   4.315423   1.094639
    14  C    4.743749   3.743667   4.479426   3.094887   5.123131
    15  C    4.716118   4.166843   4.236274   3.106148   4.900895
    16  C    6.057156   4.788468   5.825865   4.230023   6.498123
    17  C    5.997880   5.429444   5.434141   4.233426   6.129329
    18  H    3.928091   3.833220   3.371168   2.725201   3.974029
    19  C    7.098762   5.918694   6.744689   5.113175   7.465867
    20  H    6.419682   4.958950   6.317709   4.702320   6.949780
    21  C    7.076768   6.192832   6.582125   5.117889   7.311215
    22  H    6.314681   6.021047   5.655659   4.706274   6.317931
    23  H    8.105665   6.797800   7.782423   6.072078   8.512153
    24  H    8.070250   7.220358   7.528668   6.078656   8.267752
    25  C    4.708233   3.784713   4.364496   2.934015   5.043526
    26  C    5.374108   4.902816   4.370799   2.527607   5.356713
    27  C    5.368895   4.142353   5.420743   4.241483   5.898035
    28  C    6.491729   6.038808   5.424679   3.675340   6.419502
    29  H    5.262329   5.092902   3.878484   1.782442   5.036428
    30  C    6.486142   5.439516   6.299179   5.008845   6.875754
    31  H    5.280380   3.720860   5.803220   4.904929   6.047028
    32  C    6.984186   6.267155   6.304923   4.783721   7.109394
    33  H    7.183041   6.948965   5.801346   3.995649   6.924339
    34  H    7.174486   5.999205   7.211223   6.056950   7.668369
    35  H    7.967096   7.301811   7.220291   5.721798   8.040641
                   11         12         13         14         15
    11  H    0.000000
    12  H    4.304822   0.000000
    13  H    2.486940   2.488302   0.000000
    14  C    5.619920   5.216996   6.186112   0.000000
    15  C    5.589916   4.853965   5.866458   1.394220   0.000000
    16  C    6.885932   6.518534   7.569964   1.399227   2.406661
    17  C    6.821187   5.916011   7.026162   2.417346   1.391430
    18  H    4.811250   3.984563   4.877487   2.162141   1.097484
    19  C    7.916183   7.341008   8.497778   2.420538   2.780024
    20  H    7.211836   7.048118   8.041882   2.160516   3.399952
    21  C    7.891202   7.083887   8.263666   2.797544   2.411498
    22  H    7.095889   6.020130   7.100193   3.406381   2.154813
    23  H    8.902848   8.370433   9.556308   3.410947   3.874781
    24  H    8.862092   7.963751   9.180945   3.892081   3.404280
    25  C    5.603929   5.080660   6.102635   2.492608   3.667101
    26  C    6.375261   4.810292   6.348047   3.062972   3.971665
    27  C    6.105312   6.185553   6.923030   3.575194   4.871939
    28  C    7.458310   5.732356   7.344661   4.358741   5.312313
    29  H    6.327726   4.171185   5.988852   2.914946   3.456984
    30  C    7.227865   6.924318   7.844850   4.733208   6.015292
    31  H    5.860831   6.686067   7.062144   3.826117   5.128001
    32  C    7.840386   6.730618   8.038272   5.052909   6.201150
    33  H    8.188936   5.911260   7.779124   5.066865   5.848555
    34  H    7.811002   7.869912   8.608826   5.636810   6.961541
    35  H    8.804755   7.563566   8.922655   6.111666   7.245961
                   16         17         18         19         20
    16  C    0.000000
    17  C    2.776451   0.000000
    18  H    3.404974   2.156967   0.000000
    19  C    1.388418   2.404461   3.877482   0.000000
    20  H    1.096584   3.873032   4.310250   2.157568   0.000000
    21  C    2.409117   1.389196   3.403060   1.391656   3.403435
    22  H    3.871311   1.094869   2.476777   3.398602   4.967892
    23  H    2.154026   3.397904   4.972243   1.094761   2.482660
    24  H    3.401406   2.158177   4.305940   2.159415   4.307061
    25  C    2.953782   4.803729   3.979189   4.282885   2.700732
    26  C    3.462839   4.965779   4.252310   4.567543   3.349430
    27  C    3.715657   5.963269   5.227838   5.061845   3.074546
    28  C    4.496874   6.206134   5.626267   5.522798   4.149977
    29  H    3.513330   4.377289   3.640903   4.420245   3.725624
    30  C    4.695677   7.030235   6.395155   5.939599   3.933387
    31  H    3.947042   6.224062   5.473462   5.293010   3.267401
    32  C    5.026630   7.136335   6.564809   6.142097   4.399985
    33  H    5.194358   6.625534   6.129556   6.054300   4.951858
    34  H    5.500999   7.964063   7.356528   6.724155   4.625742
    35  H    5.999543   8.129398   7.618032   7.039968   5.322879
                   21         22         23         24         25
    21  C    0.000000
    22  H    2.156765   0.000000
    23  H    2.158564   4.304294   0.000000
    24  H    1.094537   2.487992   2.488389   0.000000
    25  C    5.056095   5.740631   4.948625   6.115150   0.000000
    26  C    5.219152   5.820722   5.204395   6.203622   1.396351
    27  C    6.046059   6.953866   5.529475   7.079338   1.396411
    28  C    6.300718   7.068269   5.967624   7.215016   2.417682
    29  H    4.794037   5.106606   5.172274   5.736547   2.157215
    30  C    7.002069   8.027447   6.255081   7.981678   2.416851
    31  H    6.297070   7.216896   5.736002   7.328160   2.164537
    32  C    7.114483   8.079201   6.453175   8.042981   2.793865
    33  H    6.720232   7.402963   6.467872   7.552724   3.408100
    34  H    7.865578   8.984606   6.937733   8.826286   3.407580
    35  H    8.041993   9.065545   7.252752   8.923143   3.888475
                   26         27         28         29         30
    26  C    0.000000
    27  C    2.409000   0.000000
    28  C    1.389505   2.781545   0.000000
    29  H    1.100659   3.402970   2.167000   0.000000
    30  C    2.778876   1.390654   2.406499   3.879329   0.000000
    31  H    3.405886   1.096382   3.877906   4.310334   2.155542
    32  C    2.409103   2.410937   1.391042   3.410333   1.390409
    33  H    2.154858   3.876332   1.094790   2.493523   3.400009
    34  H    3.873766   2.155599   3.399673   4.974183   1.094894
    35  H    3.401537   3.403232   2.158643   4.315194   2.158280
                   31         32         33         34         35
    31  H    0.000000
    32  C    3.402025   0.000000
    33  H    4.972695   2.158577   0.000000
    34  H    2.478015   2.157251   4.305109   0.000000
    35  H    4.304462   1.094611   2.488228   2.486658   0.000000
 Stoichiometry    C19H16
 Framework group  C1[X(C19H16)]
 Deg. of freedom    99
 Full point group                 C1      NOp   1
 Largest Abelian subgroup         C1      NOp   1
 Largest concise Abelian subgroup C1      NOp   1
                         Standard orientation:                         
 ---------------------------------------------------------------------
 Center     Atomic      Atomic             Coordinates (Angstroms)
 Number     Number       Type             X           Y           Z
 ---------------------------------------------------------------------
      1          6           0        0.012844    0.012301   -0.760509
      2          1           0       -0.017253    0.014818   -1.883204
      3          6           0        1.461534   -0.063357   -0.348118
      4          6           0        2.449314   -0.076135   -1.335538
      5          6           0        1.842143   -0.129120    0.994267
      6          6           0        3.792691   -0.152507   -0.984345
      7          1           0        2.167245   -0.026018   -2.393898
      8          6           0        3.184986   -0.205784    1.342938
      9          1           0        1.062206   -0.133082    1.772151
     10          6           0        4.163164   -0.216810    0.354154
     11          1           0        4.559712   -0.162569   -1.765587
     12          1           0        3.471320   -0.259173    2.398254
     13          1           0        5.220984   -0.277379    0.629076
     14          6           0       -0.682833    1.287574   -0.352679
     15          6           0       -0.009616    2.351285    0.246610
     16          6           0       -2.045807    1.422818   -0.638767
     17          6           0       -0.685952    3.526578    0.558590
     18          1           0        1.060348    2.263304    0.474440
     19          6           0       -2.719195    2.595808   -0.325163
     20          1           0       -2.582625    0.590471   -1.109427
     21          6           0       -2.040062    3.651983    0.274817
     22          1           0       -0.145469    4.354472    1.028918
     23          1           0       -3.786277    2.688898   -0.551375
     24          1           0       -2.570847    4.577044    0.520871
     25          6           0       -0.742269   -1.203236   -0.278968
     26          6           0       -1.010687   -1.401385    1.076940
     27          6           0       -1.186905   -2.147285   -1.206887
     28          6           0       -1.718588   -2.520551    1.497734
     29          1           0       -0.637610   -0.668264    1.808239
     30          6           0       -1.892585   -3.268139   -0.783071
     31          1           0       -0.979825   -2.007551   -2.274429
     32          6           0       -2.162121   -3.455407    0.568047
     33          1           0       -1.925406   -2.665667    2.562973
     34          1           0       -2.236691   -4.004288   -1.516875
     35          1           0       -2.720151   -4.336810    0.899561
 ---------------------------------------------------------------------
 Rotational constants (GHZ):      0.4045152      0.3807151      0.2328435
 Standard basis: 6-311G (5D, 7F)
 There are   295 symmetry adapted basis functions of A   symmetry.
 Integral buffers will be    262144 words long.
 Raffenetti 1 integral format.
 Two-electron integral symmetry is turned on.
   295 basis functions,   574 primitive gaussians,   295 cartesian basis functions
    65 alpha electrons       65 beta electrons
       nuclear repulsion energy      1290.5429892922 Hartrees.
 NAtoms=   35 NActive=   35 NUniq=   35 SFac= 7.50D-01 NAtFMM=   80 NAOKFM=F Big=F
 One-electron integrals computed using PRISM.
 PrsmSu:  requested number of processors reduced to:  10 ShMem   1 Linda.
 NBasis=   295 RedAO= T  NBF=   295
 NBsUse=   295 1.00D-06 NBFU=   295
 Harris functional with IExCor=  205 diagonalized for initial guess.
 ExpMin= 1.03D-01 ExpMax= 4.56D+03 ExpMxC= 6.82D+02 IAcc=1 IRadAn=         1 AccDes= 0.00D+00
 HarFok:  IExCor=  205 AccDes= 0.00D+00 IRadAn=         1 IDoV= 1
 ScaDFX=  1.000000  1.000000  1.000000  1.000000
 FoFCou: FMM=F IPFlag=           0 FMFlag=      100000 FMFlg1=           0
         NFxFlg=           0 DoJE=T BraDBF=F KetDBF=T FulRan=T
         Omega=  0.000000  0.000000  1.000000  0.000000  0.000000 ICntrl=     500 IOpCl=  0
         NMat0=    1 NMatS0=    1 NMatT0=    0 NMatD0=    1 NMtDS0=    0 NMtDT0=    0
         I1Cent=           4 NGrid=           0.
 Petite list used in FoFCou.
 Initial guess orbital symmetries:
       Occupied  (A) (A) (A) (A) (A) (A) (A) (A) (A) (A) (A) (A)
                 (A) (A) (A) (A) (A) (A) (A) (A) (A) (A) (A) (A)
                 (A) (A) (A) (A) (A) (A) (A) (A) (A) (A) (A) (A)
                 (A) (A) (A) (A) (A) (A) (A) (A) (A) (A) (A) (A)
                 (A) (A) (A) (A) (A) (A) (A) (A) (A) (A) (A) (A)
                 (A) (A) (A) (A) (A)
       Virtual   (A) (A) (A) (A) (A) (A) (A) (A) (A) (A) (A) (A)
                 (A) (A) (A) (A) (A) (A) (A) (A) (A) (A) (A) (A)
                 (A) (A) (A) (A) (A) (A) (A) (A) (A) (A) (A) (A)
                 (A) (A) (A) (A) (A) (A) (A) (A) (A) (A) (A) (A)
                 (A) (A) (A) (A) (A) (A) (A) (A) (A) (A) (A) (A)
                 (A) (A) (A) (A) (A) (A) (A) (A) (A) (A) (A) (A)
                 (A) (A) (A) (A) (A) (A) (A) (A) (A) (A) (A) (A)
                 (A) (A) (A) (A) (A) (A) (A) (A) (A) (A) (A) (A)
                 (A) (A) (A) (A) (A) (A) (A) (A) (A) (A) (A) (A)
                 (A) (A) (A) (A) (A) (A) (A) (A) (A) (A) (A) (A)
                 (A) (A) (A) (A) (A) (A) (A) (A) (A) (A) (A) (A)
                 (A) (A) (A) (A) (A) (A) (A) (A) (A) (A) (A) (A)
                 (A) (A) (A) (A) (A) (A) (A) (A) (A) (A) (A) (A)
                 (A) (A) (A) (A) (A) (A) (A) (A) (A) (A) (A) (A)
                 (A) (A) (A) (A) (A) (A) (A) (A) (A) (A) (A) (A)
                 (A) (A) (A) (A) (A) (A) (A) (A) (A) (A) (A) (A)
                 (A) (A) (A) (A) (A) (A) (A) (A) (A) (A) (A) (A)
                 (A) (A) (A) (A) (A) (A) (A) (A) (A) (A) (A) (A)
                 (A) (A) (A) (A) (A) (A) (A) (A) (A) (A) (A) (A)
                 (A) (A)
 The electronic state of the initial guess is 1-A.
 Requested convergence on RMS density matrix=1.00D-08 within 128 cycles.
 Requested convergence on MAX density matrix=1.00D-06.
 Requested convergence on             energy=1.00D-06.
 No special actions if energy rises.
 Integral accuracy reduced to 1.0D-05 until final iterations.
 Initial convergence to 1.0D-05 achieved.  Increase integral accuracy.
 SCF Done:  E(RHF) =  -728.672387839     A.U. after   14 cycles
             Convg  =    0.8557D-08             -V/T =  2.0001

 **********************************************************************

            Population analysis using the SCF density.

 **********************************************************************

 Orbital symmetries:
       Occupied  (A) (A) (A) (A) (A) (A) (A) (A) (A) (A) (A) (A)
                 (A) (A) (A) (A) (A) (A) (A) (A) (A) (A) (A) (A)
                 (A) (A) (A) (A) (A) (A) (A) (A) (A) (A) (A) (A)
                 (A) (A) (A) (A) (A) (A) (A) (A) (A) (A) (A) (A)
                 (A) (A) (A) (A) (A) (A) (A) (A) (A) (A) (A) (A)
                 (A) (A) (A) (A) (A)
       Virtual   (A) (A) (A) (A) (A) (A) (A) (A) (A) (A) (A) (A)
                 (A) (A) (A) (A) (A) (A) (A) (A) (A) (A) (A) (A)
                 (A) (A) (A) (A) (A) (A) (A) (A) (A) (A) (A) (A)
                 (A) (A) (A) (A) (A) (A) (A) (A) (A) (A) (A) (A)
                 (A) (A) (A) (A) (A) (A) (A) (A) (A) (A) (A) (A)
                 (A) (A) (A) (A) (A) (A) (A) (A) (A) (A) (A) (A)
                 (A) (A) (A) (A) (A) (A) (A) (A) (A) (A) (A) (A)
                 (A) (A) (A) (A) (A) (A) (A) (A) (A) (A) (A) (A)
                 (A) (A) (A) (A) (A) (A) (A) (A) (A) (A) (A) (A)
                 (A) (A) (A) (A) (A) (A) (A) (A) (A) (A) (A) (A)
                 (A) (A) (A) (A) (A) (A) (A) (A) (A) (A) (A) (A)
                 (A) (A) (A) (A) (A) (A) (A) (A) (A) (A) (A) (A)
                 (A) (A) (A) (A) (A) (A) (A) (A) (A) (A) (A) (A)
                 (A) (A) (A) (A) (A) (A) (A) (A) (A) (A) (A) (A)
                 (A) (A) (A) (A) (A) (A) (A) (A) (A) (A) (A) (A)
                 (A) (A) (A) (A) (A) (A) (A) (A) (A) (A) (A) (A)
                 (A) (A) (A) (A) (A) (A) (A) (A) (A) (A) (A) (A)
                 (A) (A) (A) (A) (A) (A) (A) (A) (A) (A) (A) (A)
                 (A) (A) (A) (A) (A) (A) (A) (A) (A) (A) (A) (A)
                 (A) (A)
 The electronic state is 1-A.
 Alpha  occ. eigenvalues --  -11.25765 -11.25236 -11.25190 -11.24927 -11.24522
 Alpha  occ. eigenvalues --  -11.24435 -11.24420 -11.24371 -11.24222 -11.24168
 Alpha  occ. eigenvalues --  -11.24142 -11.24120 -11.24076 -11.24040 -11.24031
 Alpha  occ. eigenvalues --  -11.23975 -11.23733 -11.23646 -11.23502  -1.18615
 Alpha  occ. eigenvalues --   -1.15872  -1.15575  -1.09029  -1.02378  -1.02236
 Alpha  occ. eigenvalues --   -1.01874  -1.01489  -1.01101  -0.92923  -0.84296
 Alpha  occ. eigenvalues --   -0.83342  -0.82349  -0.81896  -0.81154  -0.77592
 Alpha  occ. eigenvalues --   -0.70865  -0.70370  -0.68986  -0.65702  -0.63892
 Alpha  occ. eigenvalues --   -0.63607  -0.62505  -0.61713  -0.61599  -0.59711
 Alpha  occ. eigenvalues --   -0.58850  -0.58486  -0.58320  -0.56832  -0.55006
 Alpha  occ. eigenvalues --   -0.51724  -0.50930  -0.50245  -0.49849  -0.49381
 Alpha  occ. eigenvalues --   -0.48444  -0.47928  -0.47514  -0.46331  -0.35005
 Alpha  occ. eigenvalues --   -0.34318  -0.33934  -0.33335  -0.32613  -0.31425
 Alpha virt. eigenvalues --    0.11519   0.12285   0.12789   0.13563   0.14957
 Alpha virt. eigenvalues --    0.15076   0.15599   0.16238   0.16478   0.16929
 Alpha virt. eigenvalues --    0.18906   0.19183   0.19229   0.21246   0.21302
 Alpha virt. eigenvalues --    0.21578   0.23578   0.23984   0.24991   0.25417
 Alpha virt. eigenvalues --    0.26938   0.31320   0.33232   0.34258   0.35769
 Alpha virt. eigenvalues --    0.37525   0.39841   0.40466   0.41532   0.43135
 Alpha virt. eigenvalues --    0.44093   0.44425   0.44892   0.45454   0.45635
 Alpha virt. eigenvalues --    0.45857   0.46755   0.47199   0.48048   0.50573
 Alpha virt. eigenvalues --    0.51093   0.51445   0.52082   0.54925   0.56027
 Alpha virt. eigenvalues --    0.57352   0.57838   0.58480   0.58962   0.59373
 Alpha virt. eigenvalues --    0.60141   0.60438   0.60629   0.61166   0.61452
 Alpha virt. eigenvalues --    0.62070   0.62251   0.62951   0.63541   0.63722
 Alpha virt. eigenvalues --    0.64289   0.64531   0.65212   0.65909   0.66403
 Alpha virt. eigenvalues --    0.67184   0.67809   0.68587   0.69896   0.72360
 Alpha virt. eigenvalues --    0.73149   0.73919   0.74273   0.75239   0.75752
 Alpha virt. eigenvalues --    0.76715   0.78873   0.79313   0.79841   0.81367
 Alpha virt. eigenvalues --    0.81512   0.82186   0.82501   0.82939   0.83239
 Alpha virt. eigenvalues --    0.83821   0.84346   0.84769   0.84859   0.85467
 Alpha virt. eigenvalues --    0.85988   0.86279   0.86431   0.87682   0.88172
 Alpha virt. eigenvalues --    0.90329   0.90754   0.92206   0.93385   0.94939
 Alpha virt. eigenvalues --    0.95978   0.96408   0.97066   0.98172   0.99649
 Alpha virt. eigenvalues --    0.99913   1.02323   1.02986   1.04654   1.06202
 Alpha virt. eigenvalues --    1.07088   1.08231   1.09206   1.10258   1.10642
 Alpha virt. eigenvalues --    1.11344   1.11751   1.12477   1.12685   1.13839
 Alpha virt. eigenvalues --    1.14942   1.16579   1.19468   1.20610   1.20970
 Alpha virt. eigenvalues --    1.23930   1.25827   1.27282   1.28374   1.28982
 Alpha virt. eigenvalues --    1.29412   1.32159   1.33048   1.46640   1.47659
 Alpha virt. eigenvalues --    1.52133   1.54099   1.57177   2.53569   2.55690
 Alpha virt. eigenvalues --    2.56130   2.57765   2.62075   2.62278   2.63926
 Alpha virt. eigenvalues --    2.66323   2.67203   2.68498   2.71933   2.74323
 Alpha virt. eigenvalues --    2.78319   2.83475   2.86542   2.91540   2.94355
 Alpha virt. eigenvalues --    2.94590   2.94749   2.96032   2.98034   2.98541
 Alpha virt. eigenvalues --    3.00030   3.02211   3.03886   3.04508   3.06426
 Alpha virt. eigenvalues --    3.08517   3.09167   3.09701   3.10116   3.13189
 Alpha virt. eigenvalues --    3.15191   3.16236   3.17707   3.18418   3.19358
 Alpha virt. eigenvalues --    3.21623   3.24128   3.25161   3.27640   3.28765
 Alpha virt. eigenvalues --    3.31310   3.33872   3.34263   3.35669   3.41059
 Alpha virt. eigenvalues --    3.41450   3.44190   3.45120   3.49916   3.52388
 Alpha virt. eigenvalues --    3.53465   3.55898   3.57487   3.58242   3.59662
 Alpha virt. eigenvalues --    3.62290   3.64177   3.65011   3.66226   3.66588
 Alpha virt. eigenvalues --    3.67655   3.69226   3.71268   3.72488   3.74055
 Alpha virt. eigenvalues --    3.76093   3.77382   3.78629   3.85474   3.87894
 Alpha virt. eigenvalues --    3.91196  24.25992  24.30053  24.31803  24.50505
 Alpha virt. eigenvalues --   24.50790  24.51031  24.53136  24.54589  24.56513
 Alpha virt. eigenvalues --   24.76295  24.77092  24.79104  24.80199  24.80663
 Alpha virt. eigenvalues --   24.82711  24.87255  25.04675  25.05792  25.07113
          Condensed to atoms (all electrons):
              1          2          3          4          5          6
     1  C    6.094712   0.473545   0.119252  -0.024996  -0.070462   0.008277
     2  H    0.473545   0.503643  -0.076190   0.006528   0.004443   0.001468
     3  C    0.119252  -0.076190   5.391910   0.499673   0.450964  -0.076889
     4  C   -0.024996   0.006528   0.499673   5.046425  -0.062894   0.468822
     5  C   -0.070462   0.004443   0.450964  -0.062894   5.099085  -0.029630
     6  C    0.008277   0.001468  -0.076889   0.468822  -0.029630   5.046831
     7  H   -0.002084   0.002819  -0.045444   0.394319   0.004766  -0.033775
     8  C    0.002397  -0.000225  -0.064516  -0.034168   0.480245  -0.077263
     9  H    0.000928  -0.000040  -0.048044   0.004621   0.386225  -0.000138
    10  C    0.001722   0.000004  -0.016033  -0.088893  -0.093643   0.499595
    11  H   -0.000413  -0.000034   0.007039  -0.039488  -0.000631   0.396383
    12  H   -0.000371   0.000012   0.005972  -0.000373  -0.038499   0.005897
    13  H   -0.000026  -0.000002  -0.001674   0.007556   0.007982  -0.042541
    14  C    0.037773  -0.062623  -0.066482  -0.000687   0.006609  -0.000774
    15  C   -0.028701   0.001149  -0.012495   0.000854  -0.017814   0.000365
    16  C   -0.085830  -0.004914   0.011411  -0.000256   0.000756   0.000005
    17  C    0.012033  -0.000134  -0.001485  -0.000118  -0.000902   0.000004
    18  H   -0.011119  -0.000275   0.000716  -0.001156  -0.001152  -0.000124
    19  C    0.008030   0.000699  -0.000880   0.000009  -0.000021   0.000000
    20  H   -0.002302  -0.000142   0.000835  -0.000005  -0.000041   0.000000
    21  C    0.000431   0.000030   0.000119  -0.000004  -0.000019   0.000000
    22  H   -0.000360   0.000014   0.000058   0.000004   0.000028   0.000000
    23  H   -0.000355   0.000004   0.000012   0.000000   0.000000   0.000000
    24  H   -0.000014  -0.000002   0.000001   0.000000   0.000001   0.000000
    25  C    0.151592  -0.070647  -0.138773  -0.004264  -0.003299  -0.000600
    26  C   -0.054902   0.005589  -0.003704   0.000720  -0.012111   0.000051
    27  C   -0.024687   0.001418  -0.001876   0.000612   0.000535  -0.000011
    28  C    0.003132  -0.000266   0.001901   0.000029  -0.000478  -0.000001
    29  H    0.000293   0.000115  -0.002784  -0.000197  -0.001111   0.000003
    30  C    0.006847   0.001571  -0.000513  -0.000017   0.000133   0.000002
    31  H   -0.000034   0.002330   0.000373   0.000266  -0.000006   0.000007
    32  C    0.001266  -0.000001  -0.000087  -0.000008  -0.000023   0.000000
    33  H   -0.000347   0.000011   0.000026   0.000000   0.000056   0.000000
    34  H   -0.000340  -0.000039   0.000025   0.000001   0.000000   0.000000
    35  H   -0.000012  -0.000001  -0.000003   0.000000   0.000000   0.000000
              7          8          9         10         11         12
     1  C   -0.002084   0.002397   0.000928   0.001722  -0.000413  -0.000371
     2  H    0.002819  -0.000225  -0.000040   0.000004  -0.000034   0.000012
     3  C   -0.045444  -0.064516  -0.048044  -0.016033   0.007039   0.005972
     4  C    0.394319  -0.034168   0.004621  -0.088893  -0.039488  -0.000373
     5  C    0.004766   0.480245   0.386225  -0.093643  -0.000631  -0.038499
     6  C   -0.033775  -0.077263  -0.000138   0.499595   0.396383   0.005897
     7  H    0.506450  -0.000290  -0.000269   0.005068  -0.004077   0.000025
     8  C   -0.000290   5.046875  -0.026958   0.490179   0.006279   0.396969
     9  H   -0.000269  -0.026958   0.497399   0.004651   0.000017  -0.003398
    10  C    0.005068   0.490179   0.004651   5.033792  -0.041079  -0.039803
    11  H   -0.004077   0.006279   0.000017  -0.041079   0.518000  -0.000206
    12  H    0.000025   0.396969  -0.003398  -0.039803  -0.000206   0.514428
    13  H   -0.000179  -0.042937  -0.000171   0.399433  -0.004555  -0.004362
    14  C    0.000504   0.000839   0.001270  -0.000069   0.000024   0.000017
    15  C    0.000144  -0.001454   0.001507   0.000126  -0.000007   0.000006
    16  C    0.000012   0.000016   0.000031   0.000000   0.000000   0.000000
    17  C    0.000005  -0.000040   0.000089   0.000004   0.000000  -0.000002
    18  H    0.000080   0.000417   0.000000   0.000091   0.000010   0.000040
    19  C   -0.000001   0.000000  -0.000042   0.000000   0.000000   0.000000
    20  H   -0.000002   0.000000   0.000021   0.000000   0.000000   0.000000
    21  C    0.000000   0.000000   0.000001   0.000000   0.000000   0.000000
    22  H    0.000000  -0.000001   0.000000  -0.000001   0.000000   0.000000
    23  H    0.000000   0.000000  -0.000001   0.000000   0.000000   0.000000
    24  H    0.000000   0.000000   0.000000   0.000000   0.000000   0.000000
    25  C    0.000164   0.001983  -0.003652  -0.000053   0.000020   0.000026
    26  C   -0.000025  -0.000097   0.002175  -0.000003  -0.000001   0.000036
    27  C    0.000184   0.000045  -0.000216  -0.000014   0.000001   0.000002
    28  C    0.000001  -0.000101   0.001158   0.000002   0.000000  -0.000001
    29  H   -0.000002   0.000859   0.001747  -0.000014   0.000000  -0.000034
    30  C   -0.000002   0.000001  -0.000065   0.000000   0.000000   0.000000
    31  H    0.000058  -0.000001   0.000001  -0.000002   0.000000   0.000000
    32  C   -0.000001   0.000001   0.000008   0.000000   0.000000   0.000000
    33  H    0.000000   0.000002  -0.000062   0.000000   0.000000   0.000001
    34  H    0.000000   0.000000   0.000001   0.000000   0.000000   0.000000
    35  H    0.000000   0.000000   0.000000   0.000000   0.000000   0.000000
             13         14         15         16         17         18
     1  C   -0.000026   0.037773  -0.028701  -0.085830   0.012033  -0.011119
     2  H   -0.000002  -0.062623   0.001149  -0.004914  -0.000134  -0.000275
     3  C   -0.001674  -0.066482  -0.012495   0.011411  -0.001485   0.000716
     4  C    0.007556  -0.000687   0.000854  -0.000256  -0.000118  -0.001156
     5  C    0.007982   0.006609  -0.017814   0.000756  -0.000902  -0.001152
     6  C   -0.042541  -0.000774   0.000365   0.000005   0.000004  -0.000124
     7  H   -0.000179   0.000504   0.000144   0.000012   0.000005   0.000080
     8  C   -0.042937   0.000839  -0.001454   0.000016  -0.000040   0.000417
     9  H   -0.000171   0.001270   0.001507   0.000031   0.000089   0.000000
    10  C    0.399433  -0.000069   0.000126   0.000000   0.000004   0.000091
    11  H   -0.004555   0.000024  -0.000007   0.000000   0.000000   0.000010
    12  H   -0.004362   0.000017   0.000006   0.000000  -0.000002   0.000040
    13  H    0.516881   0.000002  -0.000003   0.000000   0.000000   0.000009
    14  C    0.000002   5.353733   0.502046   0.470714  -0.069516  -0.034718
    15  C   -0.000003   0.502046   5.093915  -0.082812   0.454601   0.393701
    16  C    0.000000   0.470714  -0.082812   5.122039  -0.033373   0.004942
    17  C    0.000000  -0.069516   0.454601  -0.033373   5.078246  -0.036257
    18  H    0.000009  -0.034718   0.393701   0.004942  -0.036257   0.477038
    19  C    0.000000  -0.056798  -0.029945   0.464237  -0.074063  -0.000422
    20  H    0.000000  -0.045776   0.004433   0.397699  -0.000462  -0.000199
    21  C    0.000000  -0.020490  -0.090325  -0.084998   0.496448   0.005016
    22  H    0.000000   0.006485  -0.036803  -0.000408   0.395568  -0.003498
    23  H    0.000000   0.006158  -0.000444  -0.038471   0.006010   0.000017
    24  H    0.000000  -0.001458   0.007680   0.007438  -0.042113  -0.000170
    25  C   -0.000003  -0.098009   0.000117  -0.006289  -0.000788   0.000398
    26  C    0.000001  -0.008020   0.001664  -0.008088   0.000051   0.000076
    27  C    0.000000  -0.001598  -0.000441   0.000668   0.000007  -0.000018
    28  C    0.000000  -0.000582   0.000022  -0.000331   0.000005   0.000000
    29  H    0.000000   0.001072  -0.000030   0.000159  -0.000079   0.000017
    30  C    0.000000  -0.000422   0.000021  -0.000111   0.000000   0.000000
    31  H    0.000000   0.000136  -0.000036   0.000298   0.000000   0.000001
    32  C    0.000000   0.000052  -0.000002   0.000101   0.000000   0.000000
    33  H    0.000000   0.000023   0.000000   0.000017   0.000000   0.000000
    34  H    0.000000   0.000011   0.000000  -0.000002   0.000000   0.000000
    35  H    0.000000   0.000000   0.000000   0.000000   0.000000   0.000000
             19         20         21         22         23         24
     1  C    0.008030  -0.002302   0.000431  -0.000360  -0.000355  -0.000014
     2  H    0.000699  -0.000142   0.000030   0.000014   0.000004  -0.000002
     3  C   -0.000880   0.000835   0.000119   0.000058   0.000012   0.000001
     4  C    0.000009  -0.000005  -0.000004   0.000004   0.000000   0.000000
     5  C   -0.000021  -0.000041  -0.000019   0.000028   0.000000   0.000001
     6  C    0.000000   0.000000   0.000000   0.000000   0.000000   0.000000
     7  H   -0.000001  -0.000002   0.000000   0.000000   0.000000   0.000000
     8  C    0.000000   0.000000   0.000000  -0.000001   0.000000   0.000000
     9  H   -0.000042   0.000021   0.000001   0.000000  -0.000001   0.000000
    10  C    0.000000   0.000000   0.000000  -0.000001   0.000000   0.000000
    11  H    0.000000   0.000000   0.000000   0.000000   0.000000   0.000000
    12  H    0.000000   0.000000   0.000000   0.000000   0.000000   0.000000
    13  H    0.000000   0.000000   0.000000   0.000000   0.000000   0.000000
    14  C   -0.056798  -0.045776  -0.020490   0.006485   0.006158  -0.001458
    15  C   -0.029945   0.004433  -0.090325  -0.036803  -0.000444   0.007680
    16  C    0.464237   0.397699  -0.084998  -0.000408  -0.038471   0.007438
    17  C   -0.074063  -0.000462   0.496448   0.395568   0.006010  -0.042113
    18  H   -0.000422  -0.000199   0.005016  -0.003498   0.000017  -0.000170
    19  C    5.060744  -0.035162   0.480319   0.006014   0.397174  -0.043250
    20  H   -0.035162   0.491088   0.005235   0.000017  -0.003903  -0.000173
    21  C    0.480319   0.005235   5.042478  -0.041237  -0.040843   0.399491
    22  H    0.006014   0.000017  -0.041237   0.517793  -0.000213  -0.004469
    23  H    0.397174  -0.003903  -0.040843  -0.000213   0.517647  -0.004409
    24  H   -0.043250  -0.000173   0.399491  -0.004469  -0.004409   0.519334
    25  C   -0.001530   0.003916   0.000125   0.000012   0.000014   0.000002
    26  C   -0.000218  -0.000550   0.000037   0.000000   0.000014   0.000000
    27  C   -0.000047   0.001769  -0.000003   0.000000  -0.000005   0.000000
    28  C   -0.000006  -0.000230   0.000002   0.000000   0.000002   0.000000
    29  H    0.000033  -0.000072  -0.000043   0.000000   0.000005   0.000001
    30  C    0.000013   0.000116   0.000000   0.000000  -0.000001   0.000000
    31  H   -0.000008   0.000206   0.000001   0.000000   0.000000   0.000000
    32  C    0.000002  -0.000091   0.000000   0.000000   0.000000   0.000000
    33  H    0.000001   0.000005   0.000000   0.000000   0.000000   0.000000
    34  H    0.000000   0.000005   0.000000   0.000000   0.000000   0.000000
    35  H    0.000000   0.000001   0.000000   0.000000   0.000000   0.000000
             25         26         27         28         29         30
     1  C    0.151592  -0.054902  -0.024687   0.003132   0.000293   0.006847
     2  H   -0.070647   0.005589   0.001418  -0.000266   0.000115   0.001571
     3  C   -0.138773  -0.003704  -0.001876   0.001901  -0.002784  -0.000513
     4  C   -0.004264   0.000720   0.000612   0.000029  -0.000197  -0.000017
     5  C   -0.003299  -0.012111   0.000535  -0.000478  -0.001111   0.000133
     6  C   -0.000600   0.000051  -0.000011  -0.000001   0.000003   0.000002
     7  H    0.000164  -0.000025   0.000184   0.000001  -0.000002  -0.000002
     8  C    0.001983  -0.000097   0.000045  -0.000101   0.000859   0.000001
     9  H   -0.003652   0.002175  -0.000216   0.001158   0.001747  -0.000065
    10  C   -0.000053  -0.000003  -0.000014   0.000002  -0.000014   0.000000
    11  H    0.000020  -0.000001   0.000001   0.000000   0.000000   0.000000
    12  H    0.000026   0.000036   0.000002  -0.000001  -0.000034   0.000000
    13  H   -0.000003   0.000001   0.000000   0.000000   0.000000   0.000000
    14  C   -0.098009  -0.008020  -0.001598  -0.000582   0.001072  -0.000422
    15  C    0.000117   0.001664  -0.000441   0.000022  -0.000030   0.000021
    16  C   -0.006289  -0.008088   0.000668  -0.000331   0.000159  -0.000111
    17  C   -0.000788   0.000051   0.000007   0.000005  -0.000079   0.000000
    18  H    0.000398   0.000076  -0.000018   0.000000   0.000017   0.000000
    19  C   -0.001530  -0.000218  -0.000047  -0.000006   0.000033   0.000013
    20  H    0.003916  -0.000550   0.001769  -0.000230  -0.000072   0.000116
    21  C    0.000125   0.000037  -0.000003   0.000002  -0.000043   0.000000
    22  H    0.000012   0.000000   0.000000   0.000000   0.000000   0.000000
    23  H    0.000014   0.000014  -0.000005   0.000002   0.000005  -0.000001
    24  H    0.000002   0.000000   0.000000   0.000000   0.000001   0.000000
    25  C    5.388208   0.446250   0.492742  -0.058406  -0.044734  -0.073377
    26  C    0.446250   5.070890  -0.072122   0.479019   0.389061  -0.026594
    27  C    0.492742  -0.072122   5.092115  -0.030591   0.004072   0.453979
    28  C   -0.058406   0.479019  -0.030591   5.040021  -0.028389  -0.078549
    29  H   -0.044734   0.389061   0.004072  -0.028389   0.496689   0.000010
    30  C   -0.073377  -0.026594   0.453979  -0.078549   0.000010   5.059738
    31  H   -0.050759   0.004327   0.400501  -0.000282  -0.000271  -0.034910
    32  C   -0.018796  -0.091130  -0.086224   0.491185   0.004552   0.497453
    33  H    0.006022  -0.038940  -0.000479   0.397212  -0.003332   0.005976
    34  H    0.006931  -0.000683  -0.039692   0.006241   0.000015   0.396972
    35  H   -0.001544   0.007884   0.007481  -0.042913  -0.000172  -0.042544
             31         32         33         34         35
     1  C   -0.000034   0.001266  -0.000347  -0.000340  -0.000012
     2  H    0.002330  -0.000001   0.000011  -0.000039  -0.000001
     3  C    0.000373  -0.000087   0.000026   0.000025  -0.000003
     4  C    0.000266  -0.000008   0.000000   0.000001   0.000000
     5  C   -0.000006  -0.000023   0.000056   0.000000   0.000000
     6  C    0.000007   0.000000   0.000000   0.000000   0.000000
     7  H    0.000058  -0.000001   0.000000   0.000000   0.000000
     8  C   -0.000001   0.000001   0.000002   0.000000   0.000000
     9  H    0.000001   0.000008  -0.000062   0.000001   0.000000
    10  C   -0.000002   0.000000   0.000000   0.000000   0.000000
    11  H    0.000000   0.000000   0.000000   0.000000   0.000000
    12  H    0.000000   0.000000   0.000001   0.000000   0.000000
    13  H    0.000000   0.000000   0.000000   0.000000   0.000000
    14  C    0.000136   0.000052   0.000023   0.000011   0.000000
    15  C   -0.000036  -0.000002   0.000000   0.000000   0.000000
    16  C    0.000298   0.000101   0.000017  -0.000002   0.000000
    17  C    0.000000   0.000000   0.000000   0.000000   0.000000
    18  H    0.000001   0.000000   0.000000   0.000000   0.000000
    19  C   -0.000008   0.000002   0.000001   0.000000   0.000000
    20  H    0.000206  -0.000091   0.000005   0.000005   0.000001
    21  C    0.000001   0.000000   0.000000   0.000000   0.000000
    22  H    0.000000   0.000000   0.000000   0.000000   0.000000
    23  H    0.000000   0.000000   0.000000   0.000000   0.000000
    24  H    0.000000   0.000000   0.000000   0.000000   0.000000
    25  C   -0.050759  -0.018796   0.006022   0.006931  -0.001544
    26  C    0.004327  -0.091130  -0.038940  -0.000683   0.007884
    27  C    0.400501  -0.086224  -0.000479  -0.039692   0.007481
    28  C   -0.000282   0.491185   0.397212   0.006241  -0.042913
    29  H   -0.000271   0.004552  -0.003332   0.000015  -0.000172
    30  C   -0.034910   0.497453   0.005976   0.396972  -0.042544
    31  H    0.509857   0.005246   0.000025  -0.004209  -0.000184
    32  C    0.005246   5.034162  -0.039828  -0.040693   0.399676
    33  H    0.000025  -0.039828   0.514844  -0.000206  -0.004472
    34  H   -0.004209  -0.040693  -0.000206   0.518127  -0.004586
    35  H   -0.000184   0.399676  -0.004472  -0.004586   0.517375
 Mulliken atomic charges:
              1
     1  C   -0.614876
     2  H    0.210142
     3  C    0.067584
     4  C   -0.172916
     5  C   -0.109093
     6  C   -0.165964
     7  H    0.171551
     8  C   -0.179056
     9  H    0.181208
    10  C   -0.155059
    11  H    0.162720
    12  H    0.163618
    13  H    0.164588
    14  C    0.080553
    15  C   -0.161036
    16  C   -0.134661
    17  C   -0.183742
    18  H    0.206537
    19  C   -0.174881
    20  H    0.183766
    21  C   -0.151771
    22  H    0.160996
    23  H    0.161586
    24  H    0.162111
    25  C    0.077003
    26  C   -0.090660
    27  C   -0.198106
    28  C   -0.178808
    29  H    0.182562
    30  C   -0.165728
    31  H    0.167069
    32  C   -0.156818
    33  H    0.163445
    34  H    0.162122
    35  H    0.164013
 Sum of Mulliken atomic charges =   0.00000
 Mulliken charges with hydrogens summed into heavy atoms:
              1
     1  C   -0.404734
     3  C    0.067584
     4  C   -0.001364
     5  C    0.072115
     6  C   -0.003245
     8  C   -0.015438
    10  C    0.009528
    14  C    0.080553
    15  C    0.045501
    16  C    0.049105
    17  C   -0.022746
    19  C   -0.013295
    21  C    0.010340
    25  C    0.077003
    26  C    0.091902
    27  C   -0.031037
    28  C   -0.015362
    30  C   -0.003606
    32  C    0.007195
 Sum of Mulliken charges with hydrogens summed into heavy atoms =   0.00000
 Electronic spatial extent (au):  <R**2>=           4932.3462
 Charge=              0.0000 electrons
 Dipole moment (field-independent basis, Debye):
    X=              0.0931    Y=             -0.1638    Z=             -0.0187  Tot=              0.1894
 Quadrupole moment (field-independent basis, Debye-Ang):
   XX=           -107.8004   YY=           -113.3055   ZZ=           -106.6476
   XY=              2.7234   XZ=              1.0704   YZ=              2.6217
 Traceless Quadrupole moment (field-independent basis, Debye-Ang):
   XX=              1.4508   YY=             -4.0543   ZZ=              2.6036
   XY=              2.7234   XZ=              1.0704   YZ=              2.6217
 Octapole moment (field-independent basis, Debye-Ang**2):
  XXX=             28.3474  YYY=              7.9151  ZZZ=              0.6642  XYY=            -37.4298
  XXY=              2.3452  XXZ=             -3.4739  XZZ=              9.8299  YZZ=            -17.8563
  YYZ=             12.3263  XYZ=              1.4477
 Hexadecapole moment (field-independent basis, Debye-Ang**3):
 XXXX=          -3058.2033 YYYY=          -2907.7370 ZZZZ=           -672.7049 XXXY=            -60.6110
 XXXZ=             16.9312 YYYX=             63.5500 YYYZ=             76.7470 ZZZX=             -6.7368
 ZZZY=             -2.9714 XXYY=          -1018.3633 XXZZ=           -628.9415 YYZZ=           -632.7545
 XXYZ=            -11.9120 YYXZ=            -10.0015 ZZXY=             33.2553
 N-N= 1.290542989292D+03 E-N=-4.277158769820D+03  KE= 7.286012831217D+02
 PrsmSu:  requested number of processors reduced to:  10 ShMem   1 Linda.
 Calling FoFJK, ICntrl=      2127 FMM=F ISym2X=0 I1Cent= 0 IOpClX= 0 NMat=1 NMatS=1 NMatT=0.
 ***** Axes restored to original set *****
 -------------------------------------------------------------------
 Center     Atomic                   Forces (Hartrees/Bohr)
 Number     Number              X              Y              Z
 -------------------------------------------------------------------
      1        6          -0.022571318   -0.002669396   -0.005098118
      2        1           0.024868925    0.005256885    0.000342378
      3        6          -0.007777101    0.010836405   -0.003225079
      4        6          -0.005384347   -0.002695743   -0.000078390
      5        6           0.011176132   -0.005491526    0.000994442
      6        6          -0.008870359    0.009937789   -0.003223391
      7        1           0.016563613    0.006228041    0.002017091
      8        6           0.012143678    0.002422079    0.001795786
      9        1          -0.018666670    0.022857373   -0.003477118
     10        6          -0.000261566    0.013482807   -0.002188614
     11        1           0.012984416   -0.009771312    0.003832811
     12        1          -0.015368231   -0.006316191   -0.001621916
     13        1          -0.002505405   -0.016466177    0.002195028
     14        6           0.001160379   -0.002913274    0.014746760
     15        6           0.000684773    0.012112316   -0.001857162
     16        6          -0.001891601   -0.007141689   -0.004231103
     17        6           0.002783488    0.005076863    0.011429909
     18        1          -0.003119573   -0.021241627    0.005406008
     19        6          -0.002144282   -0.012547380   -0.000028356
     20        1           0.004070581    0.010727527    0.014573917
     21        6           0.001976935   -0.002703251    0.013339988
     22        1          -0.003547266   -0.010476553   -0.012482781
     23        1           0.001723479    0.016271711   -0.002849023
     24        1          -0.001636948    0.005964312   -0.015421848
     25        6          -0.002602349   -0.008876734   -0.011069671
     26        6           0.007204561    0.004329318    0.007601676
     27        6          -0.005822180    0.000844131   -0.000443126
     28        6           0.011987883    0.001145046    0.002875146
     29        1          -0.008285791   -0.020299980   -0.017012082
     30        6          -0.004287126   -0.007136110   -0.010876902
     31        1           0.017450785   -0.000845282    0.001983544
     32        6           0.005063348   -0.007842910   -0.009986516
     33        1          -0.016640243    0.001099008   -0.001352585
     34        1           0.008189258    0.007716647    0.012272252
     35        1          -0.008649878    0.009126880    0.011117047
 -------------------------------------------------------------------
 Cartesian Forces:  Max     0.024868925 RMS     0.009555744

 GradGradGradGradGradGradGradGradGradGradGradGradGradGradGradGradGradGrad
 Berny optimization.
 Internal  Forces:  Max     0.028855242 RMS     0.007790781
 Search for a local minimum.
 Step number   1 out of a maximum of  197
 All quantities printed in internal units (Hartrees-Bohrs-Radians)
 Mixed Optimization -- RFO/linear search
 Second derivative matrix not updated -- first step.
     Eigenvalues ---    0.00636   0.00649   0.00658   0.01533   0.01538
     Eigenvalues ---    0.01539   0.02137   0.02142   0.02146   0.02170
     Eigenvalues ---    0.02172   0.02173   0.02181   0.02184   0.02184
     Eigenvalues ---    0.02200   0.02201   0.02202   0.02211   0.02211
     Eigenvalues ---    0.02212   0.02214   0.02214   0.02215   0.02215
     Eigenvalues ---    0.02217   0.02219   0.02219   0.02220   0.02226
     Eigenvalues ---    0.04554   0.06389   0.06641   0.15997   0.15998
     Eigenvalues ---    0.16000   0.16000   0.16000   0.16000   0.16000
     Eigenvalues ---    0.16000   0.16000   0.16000   0.16000   0.16000
     Eigenvalues ---    0.16000   0.16000   0.16000   0.18865   0.19349
     Eigenvalues ---    0.22000   0.22000   0.22000   0.22000   0.22000
     Eigenvalues ---    0.22000   0.23467   0.23477   0.23478   0.24973
     Eigenvalues ---    0.24999   0.25000   0.31251   0.31367   0.31467
     Eigenvalues ---    0.31538   0.33511   0.33609   0.33962   0.34063
     Eigenvalues ---    0.34078   0.34085   0.34253   0.34255   0.34256
     Eigenvalues ---    0.34265   0.34267   0.34268   0.34282   0.34285
     Eigenvalues ---    0.34294   0.42391   0.42463   0.42485   0.42552
     Eigenvalues ---    0.42568   0.42619   0.46323   0.46386   0.46436
     Eigenvalues ---    0.46734   0.46751   0.46815   0.47200   0.47211
     Eigenvalues ---    0.47214   0.47328   0.47333   0.474531000.00000
     Eigenvalues --- 1000.000001000.000001000.000001000.000001000.00000
     Eigenvalues --- 1000.000001000.000001000.000001000.000001000.00000
     Eigenvalues --- 1000.000001000.000001000.000001000.000001000.00000
     Eigenvalues --- 1000.000001000.000001000.000001000.000001000.00000
     Eigenvalues --- 1000.000001000.000001000.000001000.000001000.00000
     Eigenvalues --- 1000.000001000.000001000.000001000.000001000.00000
     Eigenvalues --- 1000.000001000.000001000.000001000.000001000.00000
     Eigenvalues --- 1000.000001000.000001000.000001000.000001000.00000
     Eigenvalues --- 1000.000001000.000001000.000001000.000001000.00000
     Eigenvalues --- 1000.000001000.000001000.000001000.000001000.00000
     Eigenvalues --- 1000.000001000.000001000.000001000.000001000.00000
     Eigenvalues --- 1000.000001000.000001000.000001000.000001000.00000
     Eigenvalues --- 1000.000001000.000001000.000001000.000001000.00000
     Eigenvalues --- 1000.000001000.000001000.000001000.000001000.00000
     Eigenvalues --- 1000.000001000.000001000.000001000.000001000.00000
     Eigenvalues --- 1000.000001000.000001000.000001000.000001000.00000
     Eigenvalues --- 1000.000001000.000001000.000001000.000001000.00000
     Eigenvalues --- 1000.000001000.00000
 RFO step:  Lambda=-4.19344212D-02 EMin= 6.35823563D-03
 Linear search not attempted -- first point.
 Maximum step size (   0.300) exceeded in Quadratic search.
    -- Step size scaled by   0.590
 Iteration  1 RMS(Cart)=  0.12552829 RMS(Int)=  0.00302729
 Iteration  2 RMS(Cart)=  0.00611893 RMS(Int)=  0.00028122
 Iteration  3 RMS(Cart)=  0.00001068 RMS(Int)=  0.00028115
 Iteration  4 RMS(Cart)=  0.00000000 RMS(Int)=  0.00028115
 Variable       Old X    -DE/DX   Delta X   Delta X   Delta X     New X
                                 (Linear)    (Quad)   (Total)
    R1        2.12235  -0.02505   0.00000  -0.04170  -0.04170   2.08065
    R2        2.84998   0.02384   0.00000   0.03937   0.03937   2.88935
    R3        2.85130   0.02338   0.00000   0.03870   0.03870   2.89000
    R4        2.85318   0.02283   0.00000   0.03789   0.03789   2.89107
    R5        2.63945  -0.00417   0.00000  -0.00483  -0.00481   2.63464
    R6        2.63966   0.00075   0.00000   0.00103   0.00105   2.64071
    R7        2.62790  -0.00254   0.00000  -0.00300  -0.00300   2.62490
    R8        2.07199  -0.01780   0.00000  -0.02745  -0.02745   2.04454
    R9        2.62575  -0.00443   0.00000  -0.00498  -0.00498   2.62077
   R10        2.08164  -0.02886   0.00000  -0.04517  -0.04517   2.03647
   R11        2.62731  -0.00918   0.00000  -0.01068  -0.01069   2.61662
   R12        2.06902  -0.01670   0.00000  -0.02563  -0.02563   2.04339
   R13        2.62845  -0.00560   0.00000  -0.00650  -0.00652   2.62193
   R14        2.06882  -0.01669   0.00000  -0.02562  -0.02562   2.04320
   R15        2.06857  -0.01680   0.00000  -0.02577  -0.02577   2.04280
   R16        2.63469  -0.00237   0.00000  -0.00263  -0.00262   2.63207
   R17        2.64416  -0.00208   0.00000  -0.00242  -0.00241   2.64175
   R18        2.62942  -0.00124   0.00000  -0.00134  -0.00134   2.62808
   R19        2.07394  -0.02206   0.00000  -0.03412  -0.03412   2.03982
   R20        2.62373  -0.00500   0.00000  -0.00578  -0.00578   2.61795
   R21        2.07224  -0.01852   0.00000  -0.02858  -0.02858   2.04367
   R22        2.62520  -0.00749   0.00000  -0.00861  -0.00862   2.61658
   R23        2.06900  -0.01668   0.00000  -0.02560  -0.02560   2.04340
   R24        2.62985  -0.00486   0.00000  -0.00573  -0.00573   2.62411
   R25        2.06880  -0.01661   0.00000  -0.02549  -0.02549   2.04331
   R26        2.06838  -0.01662   0.00000  -0.02548  -0.02548   2.04289
   R27        2.63872  -0.00009   0.00000   0.00000   0.00002   2.63874
   R28        2.63883  -0.00427   0.00000  -0.00494  -0.00493   2.63390
   R29        2.62578  -0.00478   0.00000  -0.00542  -0.00541   2.62037
   R30        2.07994  -0.02636   0.00000  -0.04115  -0.04115   2.03879
   R31        2.62796  -0.00238   0.00000  -0.00278  -0.00278   2.62517
   R32        2.07186  -0.01757   0.00000  -0.02709  -0.02709   2.04477
   R33        2.62869  -0.00532   0.00000  -0.00617  -0.00619   2.62250
   R34        2.06885  -0.01673   0.00000  -0.02568  -0.02568   2.04318
   R35        2.62749  -0.00874   0.00000  -0.01013  -0.01015   2.61734
   R36        2.06905  -0.01665   0.00000  -0.02556  -0.02556   2.04349
   R37        2.06851  -0.01678   0.00000  -0.02574  -0.02574   2.04277
    A1        1.87465  -0.01005   0.00000  -0.05135  -0.05043   1.82422
    A2        1.82962   0.00360   0.00000  -0.00082  -0.00057   1.82905
    A3        1.88307  -0.00842   0.00000  -0.04732  -0.04652   1.83655
    A4        1.99476   0.00121   0.00000   0.02240   0.02052   2.01528
    A5        1.93137   0.01530   0.00000   0.05420   0.05304   1.98441
    A6        1.94298  -0.00353   0.00000   0.01136   0.00917   1.95215
    A7        2.07885  -0.01125   0.00000  -0.02272  -0.02274   2.05610
    A8        2.12572   0.02313   0.00000   0.04679   0.04677   2.17249
    A9        2.07860  -0.01187   0.00000  -0.02404  -0.02401   2.05459
   A10        2.10035   0.00819   0.00000   0.01794   0.01797   2.11831
   A11        2.09444  -0.00471   0.00000  -0.01077  -0.01078   2.08366
   A12        2.08840  -0.00348   0.00000  -0.00717  -0.00719   2.08121
   A13        2.10259   0.00449   0.00000   0.01013   0.01012   2.11271
   A14        2.07817   0.00443   0.00000   0.01450   0.01447   2.09264
   A15        2.10234  -0.00891   0.00000  -0.02448  -0.02451   2.07783
   A16        2.09796  -0.00024   0.00000  -0.00146  -0.00147   2.09649
   A17        2.09100   0.00029   0.00000   0.00121   0.00122   2.09222
   A18        2.09422  -0.00005   0.00000   0.00025   0.00025   2.09447
   A19        2.09636   0.00240   0.00000   0.00500   0.00498   2.10134
   A20        2.09134  -0.00111   0.00000  -0.00224  -0.00223   2.08910
   A21        2.09548  -0.00129   0.00000  -0.00275  -0.00274   2.09274
   A22        2.09051  -0.00297   0.00000  -0.00757  -0.00760   2.08291
   A23        2.09654   0.00144   0.00000   0.00365   0.00367   2.10021
   A24        2.09613   0.00153   0.00000   0.00392   0.00394   2.10007
   A25        2.13932   0.00766   0.00000   0.01542   0.01541   2.15473
   A26        2.06639   0.00020   0.00000   0.00031   0.00030   2.06669
   A27        2.07658  -0.00788   0.00000  -0.01595  -0.01594   2.06064
   A28        2.10146   0.00342   0.00000   0.00782   0.00783   2.10928
   A29        2.09304  -0.00005   0.00000   0.00092   0.00092   2.09396
   A30        2.08869  -0.00336   0.00000  -0.00875  -0.00875   2.07994
   A31        2.10356   0.00476   0.00000   0.01036   0.01037   2.11393
   A32        2.08431  -0.00137   0.00000  -0.00222  -0.00223   2.08209
   A33        2.09530  -0.00340   0.00000  -0.00815  -0.00815   2.08715
   A34        2.09930   0.00113   0.00000   0.00234   0.00233   2.10163
   A35        2.08871  -0.00049   0.00000  -0.00095  -0.00094   2.08777
   A36        2.09517  -0.00064   0.00000  -0.00139  -0.00139   2.09379
   A37        2.09656   0.00077   0.00000   0.00103   0.00102   2.09758
   A38        2.09198  -0.00039   0.00000  -0.00053  -0.00053   2.09145
   A39        2.09465  -0.00038   0.00000  -0.00050  -0.00049   2.09415
   A40        2.08890  -0.00221   0.00000  -0.00562  -0.00563   2.08327
   A41        2.09794   0.00106   0.00000   0.00268   0.00268   2.10062
   A42        2.09634   0.00115   0.00000   0.00294   0.00295   2.09929
   A43        2.11774   0.01829   0.00000   0.03699   0.03693   2.15467
   A44        2.08471  -0.00769   0.00000  -0.01552  -0.01558   2.06913
   A45        2.08072  -0.01061   0.00000  -0.02154  -0.02153   2.05919
   A46        2.10168   0.00412   0.00000   0.00925   0.00919   2.11087
   A47        2.07773   0.00373   0.00000   0.01244   0.01234   2.09007
   A48        2.10361  -0.00780   0.00000  -0.02127  -0.02138   2.08223
   A49        2.09897   0.00731   0.00000   0.01608   0.01609   2.11506
   A50        2.09523  -0.00434   0.00000  -0.01004  -0.01006   2.08517
   A51        2.08899  -0.00297   0.00000  -0.00604  -0.00605   2.08294
   A52        2.09595   0.00224   0.00000   0.00462   0.00461   2.10056
   A53        2.09171  -0.00102   0.00000  -0.00201  -0.00202   2.08969
   A54        2.09553  -0.00122   0.00000  -0.00260  -0.00260   2.09293
   A55        2.09795  -0.00032   0.00000  -0.00143  -0.00145   2.09650
   A56        2.09109   0.00035   0.00000   0.00128   0.00129   2.09238
   A57        2.09415  -0.00003   0.00000   0.00015   0.00016   2.09430
[...]
 48718,0.00018655,0.00010560,0.00060211,0.00027432,-0.00023849,0.000150
 28,0.00006162,0.00012238,0.00032312,0.00010037,0.00016408,-0.00009309,
 -0.00003008,-0.00001304,-0.00002154,0.00008001,-0.00024132,0.00005195,
 -0.00014040,0.00003665,-0.00034318,-0.00020779,0.00003919,0.00004703,-
 0.00002882,0.00001767,-0.00001943,0.00001831,0.00000387,-0.00000334,-0
 .00000652,0.00002724,-0.00001137,0.00062849,-0.00085419,-0.00031200,0.
 00007916,0.00005237,-0.00004519,0.00000376,-0.00017259,-0.00013529,-0.
 00003920,0.00004854,0.00005810,-0.00001045,0.00000482,-0.00000364,-0.0
 0001568,0.00001579,0.00008631,0.00008055,0.00004695,-0.00004027,-0.000
 00889,-0.00000290,-0.00002034,-0.00000718,0.00000263,-0.00001242,-0.00
 000165,0.00001337,-0.00000804,0.00000959,0.00000059,-0.00000376,0.0044
 1777,-0.02015120,-0.04936235,0.01788354,-0.00993389,-0.00709066,0.1066
 5194,-0.10581049,-0.24486189,-0.04202463,0.02144441,0.00357162,0.00065
 469,0.00024608,0.00078093,0.09236480,0.12941304,0.79780455,-0.00024719
 ,-0.00176856,0.00150464,0.00051490,-0.00014949,-0.00030080,0.00049017,
 -0.00008504,-0.00023989,0.00013822,-0.00032278,0.00007896,-0.00012647,
 0.00003555,0.00021664,0.00012040,0.00005029,-0.00003647,-0.00003017,0.
 00000835,-0.00002329,0.00004216,-0.00018407,0.00007579,-0.00006604,0.0
 0009416,-0.00011964,-0.00009302,-0.00000824,0.00002929,-0.00001177,-0.
 00000819,-0.00000527,-0.00000525,0.00000037,-0.00002123,-0.00000422,0.
 00000567,-0.00001222,0.00022572,0.00022429,0.00007808,0.00003947,-0.00
 005773,0.00011464,0.00004666,-0.00002820,0.00000188,0.00003402,0.00001
 670,0.00003598,-0.00003392,0.00000518,-0.00000479,-0.00001772,-0.00003
 367,0.00000480,-0.00002516,0.00000946,-0.00000702,0.00000163,0.0000040
 9,-0.00000462,-0.00000618,-0.00000158,0.00000747,-0.00000462,0.0000028
 9,0.00000636,-0.00000454,0.00000212,-0.00000026,-0.00537038,0.00627592
 ,0.00097070,0.00287276,0.00216180,-0.00252953,-0.28940533,0.10884310,-
 0.08249449,0.00052829,-0.00068358,0.00052554,-0.00043953,0.00022428,-0
 .00004226,-0.01199706,0.00678634,-0.01087671,0.30276702,-0.00115082,-0
 .00288324,0.00018990,-0.00097661,0.00032665,-0.00022038,0.00012650,-0.
 00009485,-0.00026163,0.00013482,-0.00019754,0.00009091,0.00003767,0.00
 000066,0.00008561,0.00006909,0.00000215,-0.00004228,-0.00001946,0.0000
 0567,-0.00000347,-0.00003031,-0.00009897,0.00006321,-0.00006250,0.0000
 7593,-0.00003946,-0.00005486,0.00000592,0.00000189,-0.00001384,0.00000
 313,-0.00000178,0.00000395,-0.00000442,-0.00000787,-0.00000394,0.00001
 384,-0.00000326,-0.00025970,0.00014811,0.00012781,-0.00005093,0.000017
 84,0.00000606,0.00012077,0.00008291,0.00013915,0.00000534,-0.00005093,
 -0.00001357,-0.00002029,-0.00000709,-0.00000772,-0.00001279,-0.0000312
 0,-0.00003135,-0.00003179,-0.00002821,0.00000186,0.00000224,0.00000668
 ,0.00002599,0.00000645,-0.00000505,0.00000037,-0.00000212,-0.00001059,
 0.00001605,-0.00000410,-0.00000321,0.00000047,-0.00360400,0.00666084,-
 0.00277194,0.00249919,0.00595757,-0.00262488,0.10967965,-0.10022613,0.
 03095221,-0.00061684,-0.00071122,-0.00029912,-0.00026049,0.00002278,-0
 .00012204,0.01606411,-0.00118652,0.00777786,-0.12375138,0.09163273,-0.
 00135387,0.00140574,0.00097589,0.00122217,0.00001944,-0.00046003,0.000
 03578,-0.00026218,0.00012254,0.00002265,-0.00004471,-0.00002901,-0.000
 18684,0.00006951,0.00004106,0.00005547,-0.00005975,0.00000949,0.000031
 93,-0.00001968,-0.00004745,0.00000908,-0.00000576,-0.00002400,0.000065
 29,0.00003504,-0.00001327,0.00001426,0.00004793,-0.00003659,-0.0000106
 5,0.00001512,0.00000484,0.00002187,0.00002816,-0.00000601,0.00000936,0
 .00001945,0.00000287,0.00034593,0.00024133,0.00004859,0.00006860,-0.00
 010472,0.00017154,-0.00001906,-0.00007410,0.00000305,0.00001559,0.0000
 3246,0.00005198,-0.00001207,0.00001786,-0.00000433,0.00001398,0.000002
 22,0.00000867,-0.00001137,0.00005048,-0.00001863,0.00000216,-0.0000081
 4,0.00002586,0.00000048,0.00000495,0.00002599,-0.00000757,-0.00000673,
 0.00000922,0.00000026,0.00000095,0.00001246,-0.03125370,0.01412571,-0.
 00501875,-0.00219259,-0.00283748,-0.00586328,-0.08189385,0.03087825,-0
 .09955610,0.00063120,-0.00034983,-0.00097218,-0.00149834,0.00073062,-0
 .00033327,0.02320295,-0.01110326,0.01199326,0.08961150,-0.03020419,0.0
 9994491,-0.00134830,0.00139815,-0.00045023,0.00066949,0.00046924,0.000
 54783,-0.00003582,-0.00012887,0.00130385,0.00033955,-0.00014420,0.0001
 8291,-0.00014390,0.00033883,0.00024661,0.00014091,0.00024290,-0.000184
 41,0.00001034,-0.00001887,0.00000949,0.00021792,-0.00036435,-0.0000360
 5,0.00004061,0.00010413,-0.00014589,-0.00030907,0.00011682,0.00008649,
 -0.00001984,0.00002796,-0.00003987,0.00003960,0.00005457,0.00002478,0.
 00000607,0.00000803,-0.00000799,-0.00049435,-0.00018601,0.00001733,0.0
 0009231,-0.00011712,0.00037185,0.00021023,-0.00002461,-0.00026429,0.00
 003254,0.00019512,-0.00021295,-0.00000842,0.00001046,0.00001142,0.0001
 5909,-0.00004410,0.00030923,-0.00007939,0.00003784,-0.00002745,-0.0001
 6261,-0.00022420,-0.00002329,-0.00000643,0.00000528,0.00001446,-0.0000
 0459,0.00000068,0.00001806,-0.00000660,-0.00000068,0.00000036,-0.05165
 716,0.00755365,-0.05478128,0.07322730,-0.03299430,0.00509148,-0.038749
 61,0.04504144,0.06851546,-0.16288723,0.03617233,-0.02742176,-0.0001401
 2,0.00581493,0.00230441,-0.29633288,0.08781904,-0.09859130,0.00145610,
 0.00464179,0.00173909,0.64858441,0.00000030,-0.00113743,0.00066038,-0.
 00025548,-0.00008159,-0.00012813,0.00024786,0.00015563,-0.00069555,-0.
 00011230,-0.00014185,-0.00002076,0.00011659,-0.00005460,0.00000814,0.0
 0001421,-0.00003189,0.00005068,-0.00000826,0.00001965,-0.00001220,-0.0
 0010368,0.00005123,0.00002910,-0.00007703,0.00000290,0.00005553,0.0000
 4870,-0.00003596,-0.00001525,0.00000792,-0.00002556,0.00001180,-0.0000
 0873,-0.00001723,-0.00000332,-0.00000896,-0.00000230,0.00000395,0.0001
 5458,0.00002259,0.00005615,0.00004400,0.00006007,-0.00004577,-0.000061
 06,-0.00005743,0.00000908,0.00000367,-0.00001969,0.00003987,0.00000274
 ,-0.00001235,-0.00000242,-0.00004818,-0.00000454,-0.00003380,0.0000035
 6,-0.00004109,0.00003643,0.00000743,0.00004720,-0.00003062,0.00000040,
 -0.00000399,-0.00001531,0.00001835,0.00001041,-0.00002720,0.00000201,-
 0.00000097,-0.00001137,0.00892881,-0.00762535,0.01453201,-0.01631647,0
 .01303097,-0.01997402,0.02882011,-0.01005252,-0.01582354,0.01397290,-0
 .10896394,-0.06035399,0.00556707,0.00470326,-0.00359566,0.11008073,-0.
 13614751,0.02723195,0.00494260,0.00519150,-0.00420871,-0.25297876,0.35
 785704,-0.00112700,0.00150785,0.00028303,0.00079878,0.00026052,0.00007
 257,0.00010869,0.00036309,0.00074653,0.00009881,-0.00041758,0.00020915
 ,0.00009379,0.00002184,0.00021851,0.00017984,0.00021650,-0.00013980,-0
 .00000571,0.00001733,0.00000421,0.00021937,-0.00034089,-0.00005857,0.0
 0030121,0.00004863,-0.00029823,-0.00027995,-0.00000950,0.00009388,-0.0
 0001288,-0.00002280,-0.00003407,-0.00000489,-0.00004480,0.00001860,0.0
 0000752,-0.00001624,-0.00000026,-0.00028349,-0.00050245,0.00015661,0.0
 0023355,-0.00001843,0.00032619,0.00015516,-0.00001962,-0.00041705,0.00
 006286,0.00024131,-0.00021321,0.00000755,0.00002278,0.00002807,0.00012
 966,-0.00003450,0.00038728,-0.00007042,-0.00000234,-0.00000336,-0.0002
 3489,-0.00023229,-0.00013586,-0.00001526,-0.00000328,-0.00002521,0.000
 02591,0.00001875,-0.00001727,0.00000172,0.00000277,-0.00002473,-0.0535
 0797,0.01395919,-0.06001455,0.06543728,-0.05230969,-0.05009356,0.00761
 332,0.01588696,0.08505735,-0.10340322,-0.01796645,-0.34550488,0.001931
 51,-0.00357140,-0.00033937,-0.02233902,-0.01446978,-0.17562748,0.00240
 629,-0.00448735,-0.00227547,0.02359934,0.15335427,0.75238776,-0.000490
 40,-0.00005472,-0.00081341,-0.00019143,0.00013610,0.00011741,-0.000122
 86,-0.00007723,0.00018715,0.00004337,0.00010080,0.00000097,0.00004078,
 0.00006251,-0.00000393,-0.00000644,0.00001983,-0.00001311,0.00000894,-
 0.00001386,-0.00000210,-0.00001973,-0.00001762,0.00001288,-0.00004423,
 -0.00002541,-0.00001003,-0.00001365,0.00002523,0.00000336,-0.00001106,
 0.00001835,-0.00000171,0.00000973,0.00001399,-0.00001013,-0.00000199,0
 .00001630,-0.00000131,-0.00000526,0.00010993,-0.00016730,-0.00001579,-
 0.00004226,0.00001523,0.00000422,-0.00002256,0.00008019,0.00001063,-0.
 00003072,0.00001587,-0.00001328,0.00000203,-0.00001520,0.00001787,-0.0
 0000117,-0.00003728,-0.00000119,0.00002896,-0.00001690,0.00004028,-0.0
 0000896,0.00006126,-0.00000052,0.00001043,0.00002344,-0.00002456,-0.00
 001351,0.00002190,-0.00000772,0.00000210,0.00002246,0.00126429,0.00478
 626,0.00240694,-0.01173249,0.00646024,-0.01071873,0.00056790,-0.000638
 19,0.00072983,-0.29222059,0.11060609,-0.08338333,-0.00010651,-0.002382
 96,0.00113389,0.00303464,0.00252315,-0.00261056,-0.00038511,-0.0004620
 9,0.00009660,-0.00340022,0.00541353,0.00147970,0.30438402,0.00052044,-
 0.00022212,0.00037443,0.00014803,-0.00017922,-0.00017440,0.00012369,0.
 00014989,-0.00005664,-0.00003067,-0.00010381,0.00002959,0.00003416,-0.
 00009736,-0.00004959,0.00000483,0.00000149,-0.00000508,-0.00001767,0.0
 0000767,0.00001182,0.00000188,0.00000974,-0.00000904,0.00004185,0.0000
 4076,0.00001927,-0.00000542,-0.00002209,0.00000482,0.00000020,-0.00001
 112,-0.00000110,-0.00000837,-0.00002814,0.00000884,0.00000056,-0.00000
 671,0.00000422,-0.00002947,-0.00004019,0.00022165,-0.00002550,0.000045
 34,-0.00009150,-0.00001084,0.00003008,0.00001403,-0.00001581,-0.000020
 82,0.00002488,0.00001114,-0.00001654,0.00000481,-0.00000978,-0.0000131
 3,-0.00002727,-0.00002112,-0.00001342,-0.00000223,0.00001074,0.0000306
 2,-0.00001339,-0.00000074,-0.00000976,-0.00002096,-0.00000374,0.000002
 20,-0.00000005,0.00000143,0.00000195,-0.00000743,0.00431643,0.00502974
 ,-0.00430890,0.01619785,-0.00122014,0.00775345,-0.00066209,-0.00068444
 ,-0.00030183,0.11072869,-0.10085005,0.03155574,-0.00265143,-0.00328194
 ,0.00087892,0.00269559,0.00666385,-0.00278132,-0.00045827,-0.00091269,
 0.00031520,-0.00431564,0.00697553,-0.00357881,-0.12406466,0.09204514,0
 .00078355,-0.00019952,0.00056354,0.00018860,-0.00010829,-0.00011429,0.
 00007077,0.00002306,-0.00006877,0.00000250,-0.00004543,-0.00000744,-0.
 00001797,-0.00000466,0.00000210,0.00000647,-0.00000690,0.00000603,-0.0
 0000812,0.00000268,-0.00000186,-0.00000991,-0.00000720,0.00000879,-0.0
 0001038,-0.00001171,0.00000459,0.00000143,-0.00000559,0.00000011,0.000
 00142,-0.00000392,0.00000132,-0.00000063,0.00000092,-0.00000012,-0.000
 00161,0.00000002,-0.00000103,-0.00005078,0.00002105,0.00014466,-0.0000
 3899,0.00000516,0.00000283,-0.00000662,0.00002007,-0.00002177,-0.00001
 481,0.00000884,-0.00001747,0.00001023,-0.00001176,0.00000226,-0.000001
 32,0.00001212,0.00000422,0.00000828,-0.00000760,-0.00000107,-0.0000130
 4,0.00001308,-0.00002991,0.00000621,-0.00000576,-0.00000825,0.00000577
 ,0.00000004,-0.00000585,0.00000539,-0.00000332,-0.00000316,0.00199549,
 -0.00429142,-0.00230296,0.02287935,-0.01077969,0.01195274,0.00060649,-
 0.00034865,-0.00111026,-0.08357140,0.03144802,-0.10066350,0.00016415,0
 .00159955,0.00095111,-0.00215474,-0.00299092,-0.00562151,0.00010461,0.
 00030090,0.00001120,-0.03216003,0.01513235,-0.00374236,0.09131588,-0.0
 3135533,0.09961876,0.00041159,-0.00009156,0.00089278,-0.00002962,-0.00
 005101,-0.00004651,0.00002097,-0.00008975,-0.00004377,-0.00003278,0.00
 003036,-0.00002785,-0.00000149,-0.00000337,-0.00000339,-0.00001385,-0.
 00000851,0.00000633,0.,-0.00000127,0.00000634,0.00001594,0.00002052,0.
 00000547,-0.00000912,0.00001469,-0.00001234,0.00001313,-0.00000589,-0.
 00000385,0.00000070,0.00000237,0.00000490,-0.00000680,-0.00000483,-0.0
 0000442,0.00000095,-0.00000233,-0.00000161,-0.00017584,0.00011700,0.00
 000073,0.00002742,-0.00002728,0.00005030,0.00003531,0.00000273,0.00001
 799,0.00002150,0.00000331,-0.00001744,-0.00000881,0.00000894,0.0000022
 4,0.00001567,-0.00001107,0.00002182,-0.00001754,0.00000283,-0.00000190
 ,-0.00001301,-0.00002398,0.00001219,-0.00000276,0.00000194,0.00000551,
 -0.00000144,-0.00000332,0.00000733,-0.00000361,0.00000111,0.00000122,-
 0.00012056,0.00568859,0.00185096,-0.00102679,0.00023454,0.00067319,0.0
 1120667,0.00349820,0.02233775,-0.00331307,0.00596942,-0.00196412,-0.00
 021083,-0.00054734,0.00010452,-0.09504869,-0.00048543,-0.08824938,-0.0
 0015177,-0.00269854,0.00018720,-0.00258498,-0.00493379,-0.03211098,-0.
 00041282,-0.00022762,-0.00146333,0.09146691,-0.00041918,0.00002109,-0.
 00064072,-0.00004799,0.00005527,0.00004568,0.00005766,0.00005077,-0.00
 010301,-0.00001568,-0.00004822,-0.00000634,0.00000288,-0.00004395,0.00
 002390,0.00000702,-0.00000185,0.00001512,-0.00001239,0.00000450,-0.000
 00556,0.00001643,-0.00000422,0.00001926,-0.00000309,0.00001597,-0.0000
 4000,0.00000124,-0.00003321,0.00001297,-0.00000026,-0.00000720,-0.0000
 0268,-0.00001553,-0.00001764,-0.00000931,-0.00000187,-0.00000635,-0.00
 000740,0.00011869,-0.00028971,-0.00011976,0.00000834,0.00002196,-0.000
 00848,0.00003565,0.00004136,-0.00004698,-0.00000829,0.00004198,-0.0000
 3195,0.00000776,-0.00001252,-0.00000264,-0.00000224,-0.00000536,0.0000
 5765,-0.00000527,-0.00000126,0.00000287,-0.00003141,-0.00003567,-0.000
 03527,-0.00000593,-0.00000001,-0.00000972,0.00000349,0.00000220,0.0000
 0079,0.00000056,-0.00000024,-0.00000471,0.00574407,0.00484204,-0.00342
 046,0.00021751,-0.00097543,0.00022838,-0.00644407,0.00376202,-0.018495
 52,0.00586286,0.00518032,-0.00093431,-0.00056540,-0.00087963,0.0002109
 6,-0.00040004,-0.05905509,-0.03632933,-0.00242884,-0.00335887,0.001665
 56,0.00491759,0.00703135,0.01471584,0.00017406,0.00001540,0.00067516,-
 0.00417403,0.04682747,-0.00069402,0.00023870,-0.00073674,0.00005533,-0
 .00000381,0.00000115,0.00008819,0.00016094,-0.00012111,-0.00002324,-0.
 00010262,0.00003708,-0.00003717,-0.00005580,0.00003232,0.00001644,-0.0
 0001454,0.00001199,-0.00000868,0.00001416,-0.00001047,0.00002462,0.000
 00836,-0.00000317,0.00003389,0.00003909,-0.00002147,0.00001271,-0.0000
 3347,0.00000863,0.00000919,-0.00002173,-0.00000863,-0.00001798,-0.0000
 1687,-0.00000376,0.00000080,-0.00001941,-0.00000383,0.00023184,-0.0002
 6672,0.00003081,0.00002518,0.00006564,-0.00008666,-0.00002750,-0.00001
 493,-0.00007786,-0.00000793,0.00001440,0.00001899,0.00000130,0.0000023
 9,0.00000776,-0.00002140,-0.00001571,0.00000994,-0.00000725,-0.0000130
 3,0.00001499,0.00000114,0.00001111,-0.00003080,-0.00000994,-0.00000290
 ,-0.00001810,0.00000449,0.00001905,-0.00001589,-0.00000065,0.00000445,
 -0.00001581,0.00223820,-0.00392429,-0.00012820,0.00071387,0.00010323,0
 .00080079,-0.01148273,0.00008120,-0.01575658,-0.00244035,-0.00064874,0
 .00185472,0.00008485,0.00027132,-0.00017209,-0.08802494,-0.03639537,-0
 .33989520,0.00131124,0.00104659,0.00086773,0.00150067,-0.00374169,-0.0
 0453262,-0.00002525,-0.00008189,-0.00044839,0.09639460,0.04170864,0.35
 760281,-0.00015817,-0.00049595,0.00014793,-0.00001342,0.00002838,-0.00
 006593,0.00005662,-0.00007765,0.00001617,0.00001986,-0.00000755,0.0000
 0640,0.00001957,0.00002150,0.00001403,0.00001349,0.00000512,-0.0000040
 3,0.00000098,-0.00000596,-0.00000663,-0.00001109,-0.00001695,0.0000071
 7,-0.00001974,-0.00000549,-0.00001255,-0.00001196,0.00000801,-0.000000
 35,-0.00000718,0.00000624,0.00000125,0.00000648,0.00000352,-0.00000242
 ,-0.00000103,0.00001046,-0.00000056,-0.00000279,0.00007110,-0.00004779
 ,0.00001293,-0.00002506,0.00004890,0.00001262,-0.00002534,0.00002754,0
 .00000041,-0.00000403,0.00000722,-0.00000546,-0.00000312,-0.00000601,0
 .00000738,0.00000530,-0.00000619,0.00000355,0.00001526,-0.00001175,0.0
 0000169,0.00000140,0.00001166,0.00000425,0.00000066,0.00000675,-0.0000
 0582,-0.00000739,0.00000835,0.00000061,-0.00000131,0.00000811,-0.00055
 077,-0.00051028,-0.00089439,0.00203702,0.00286613,-0.00349673,-0.00255
 960,0.00499104,-0.00395715,0.01094874,-0.00612802,-0.01031677,0.000272
 68,-0.00030165,-0.00036221,-0.01098142,0.01575147,0.02382857,-0.000852
 07,0.00069582,0.00103653,-0.16685493,0.09651465,0.10850383,-0.00019883
 ,-0.00227865,0.00136710,-0.00005059,-0.00259431,0.00008050,0.16886598,
 -0.00038163,-0.00084258,0.00016158,-0.00015149,0.00002683,-0.00004820,
 0.00014312,-0.00000379,-0.00011510,-0.00002842,-0.00006833,0.00001756,
 0.00000216,-0.00004527,0.00000811,0.00000506,-0.00001077,0.00000686,-0
 .00000804,0.00000525,0.00000195,0.00002263,0.00002368,-0.00000336,0.00
 002570,0.00004076,-0.00001833,0.00000818,-0.00001861,0.00000118,0.0000
 0294,-0.00000998,-0.00000073,-0.00001281,-0.00001900,-0.00000110,0.000
 00134,-0.00001015,-0.00000177,0.00001239,-0.00004303,-0.00001117,0.000
 03175,0.00001861,0.00000057,0.00003292,-0.00002024,-0.00001862,0.00000
 354,0.00000507,0.00001206,-0.00000685,0.00000046,0.00000362,-0.0000028
 0,-0.00002000,0.00000938,-0.00001705,-0.00000178,0.00000026,-0.0000049
 0,0.00000402,-0.00001105,-0.00000300,-0.00000470,-0.00000896,-0.000002
 04,0.00000589,0.00000101,-0.00000171,0.00000272,-0.00000674,-0.0006188
 5,-0.00038000,0.00076093,0.00275199,0.00689648,-0.00200564,0.00513531,
 0.00580707,-0.00020148,0.00365615,0.00324128,0.00018705,0.00009050,-0.
 00013468,-0.00000135,0.00583346,-0.00139431,-0.01114133,0.00027647,-0.
 00034420,-0.00041675,0.09657093,-0.13070154,-0.10258944,-0.00265395,-0
 .00331574,0.00092465,-0.00220564,-0.00313727,0.00158425,-0.10850736,0.
 12444783,0.00009730,0.00029641,0.00004075,0.00011365,-0.00003633,-0.00
 000742,-0.00000180,0.00005749,-0.00000471,-0.00001339,-0.00002197,0.00
 000751,-0.00003874,-0.00002301,0.00002209,-0.00000173,-0.00000840,0.00
 000380,-0.00000169,0.00000519,-0.00000152,0.00002727,0.00001140,-0.000
 01075,0.00002592,0.00002948,-0.00002193,0.00000629,-0.00001167,-0.0000
 0173,0.00000605,-0.00000805,-0.00000252,-0.00000663,-0.00000604,0.0000
 0358,0.00000249,-0.00001123,-0.00000002,0.00003451,-0.00004443,0.00003
 659,0.00006048,0.00001953,-0.00003358,-0.00001267,-0.00004341,-0.00001
 322,0.00001805,-0.00000890,0.00003917,-0.00001118,0.00002157,0.0000105
 9,-0.00001513,-0.00001801,0.00000029,-0.00000892,-0.00000450,0.0000107
 2,0.00000032,0.00001667,-0.00000224,-0.00000809,-0.00000332,-0.0000092
 8,0.00000836,0.00001204,-0.00000929,0.,0.00000405,-0.00001453,-0.00092
 328,0.00067695,-0.00041004,-0.00410401,-0.00166293,-0.00468896,-0.0033
 6922,-0.00049191,0.00067393,0.02338042,-0.01863532,-0.01466080,0.00099
 116,-0.00078087,-0.00089815,-0.00987780,0.00738988,0.01178436,-0.00036
 592,0.00031545,0.00032723,0.10845166,-0.10247240,-0.19649182,0.0001053
 3,0.00164508,0.00089569,0.00136753,0.00087138,0.00078766,-0.11593660,0
 .11292011,0.20263857||0.00000259,-0.00000480,-0.00001109,0.00000709,0.
 00000318,0.00000106,-0.00003094,0.00000441,0.00001446,0.00001009,-0.00
 002926,-0.00000715,0.00001413,0.00002237,-0.00001166,0.00001419,0.0000
 2518,-0.00000097,0.00000077,0.00000339,-0.00000024,0.00001484,-0.00002
 608,0.00000104,-0.00000052,-0.00000290,0.00000084,-0.00002833,0.000004
 26,0.00000465,0.00000079,-0.00000355,-0.00000041,-0.00000294,0.0000014
 2,0.00000080,0.00000265,-0.00000191,-0.00000040,-0.00002209,-0.0000099
 3,0.00000597,0.00001962,-0.00000221,0.00002756,0.00001342,0.00001684,-
 0.00002601,0.00000844,0.00002224,-0.00002439,-0.00000342,-0.00000072,-
 0.00000088,0.00001189,0.00000058,0.00003043,-0.00000121,-0.00000088,0.
 00000166,-0.00002463,-0.00002568,-0.00000303,-0.00000198,-0.00000304,0
 .00000086,-0.00000081,0.00000151,-0.00000415,0.00000350,0.00000316,-0.
 00000132,-0.00000633,0.00000062,0.00000044,-0.00000107,0.00000268,0.00
 000328,-0.00000116,-0.00000092,-0.00000492,0.00000198,-0.00000359,0.00
 000028,-0.00000003,0.00000062,-0.00000144,-0.00000645,-0.00000105,-0.0
 0000091,0.00000215,0.00000049,0.00000074,0.00000526,0.00000059,0.00000
 168,-0.00000157,0.00000091,-0.00000054,0.00000121,0.00000074,0.0000021
 0,-0.00000111,0.00000132,0.00000167|||@


 WE STILL HAVE JUDGEMENT HERE,
 THAT WE TEACH BUT BLOODY INSTRUCTIONS,
 WHICH, BEING TAUGHT,
 RETURN TO PLAGUE THE INVENTOR.
           MACBETH ACT I, SCENE VII
 Job cpu time:  0 days  0 hours  6 minutes 25.0 seconds.
 File lengths (MBytes):  RWF=    350 Int=      0 D2E=      0 Chk=      7 Scr=      1
 Normal termination of Gaussian 09 at Tue Sep 07 01:28:32 2021.
