 Entering Link 1 = b:\programy\g09w\l1.exe PID=     18532.
  
 Copyright (c) 1988,1990,1992,1993,1995,1998,2003,2009, Gaussian, Inc.
                  All Rights Reserved.
  
 This is part of the Gaussian(R) 09 program.  It is based on
 the Gaussian(R) 03 system (copyright 2003, Gaussian, Inc.),
 the Gaussian(R) 98 system (copyright 1998, Gaussian, Inc.),
 the Gaussian(R) 94 system (copyright 1995, Gaussian, Inc.),
 the Gaussian 92(TM) system (copyright 1992, Gaussian, Inc.),
 the Gaussian 90(TM) system (copyright 1990, Gaussian, Inc.),
 the Gaussian 88(TM) system (copyright 1988, Gaussian, Inc.),
 the Gaussian 86(TM) system (copyright 1986, Carnegie Mellon
 University), and the Gaussian 82(TM) system (copyright 1983,
 Carnegie Mellon University). Gaussian is a federally registered
 trademark of Gaussian, Inc.
  
 This software contains proprietary and confidential information,
 including trade secrets, belonging to Gaussian, Inc.
  
 This software is provided under written license and may be
 used, copied, transmitted, or stored only in accord with that
 written license.
  
 The following legend is applicable only to US Government
 contracts under FAR:
  
                    RESTRICTED RIGHTS LEGEND
  
 Use, reproduction and disclosure by the US Government is
 subject to restrictions as set forth in subparagraphs (a)
 and (c) of the Commercial Computer Software - Restricted
 Rights clause in FAR 52.227-19.
  
 Gaussian, Inc.
 340 Quinnipiac St., Bldg. 40, Wallingford CT 06492
  
  
 ---------------------------------------------------------------
 Warning -- This program may not be used in any manner that
 competes with the business of Gaussian, Inc. or will provide
 assistance to any competitor of Gaussian, Inc.  The licensee
 of this program is prohibited from giving any competitor of
 Gaussian, Inc. access to this program.  By using this program,
 the user acknowledges that Gaussian, Inc. is engaged in the
 business of creating and licensing software in the field of
 computational chemistry and represents and warrants to the
 licensee that it is not a competitor of Gaussian, Inc. and that
 it will not use this program in any manner prohibited above.
 ---------------------------------------------------------------
  

 Cite this work as:
 Gaussian 09, Revision A.02,
 M. J. Frisch, G. W. Trucks, H. B. Schlegel, G. E. Scuseria, 
 M. A. Robb, J. R. Cheeseman, G. Scalmani, V. Barone, B. Mennucci, 
 G. A. Petersson, H. Nakatsuji, M. Caricato, X. Li, H. P. Hratchian, 
 A. F. Izmaylov, J. Bloino, G. Zheng, J. L. Sonnenberg, M. Hada, 
 M. Ehara, K. Toyota, R. Fukuda, J. Hasegawa, M. Ishida, T. Nakajima, 
 Y. Honda, O. Kitao, H. Nakai, T. Vreven, J. A. Montgomery, Jr., 
 J. E. Peralta, F. Ogliaro, M. Bearpark, J. J. Heyd, E. Brothers, 
 K. N. Kudin, V. N. Staroverov, R. Kobayashi, J. Normand, 
 K. Raghavachari, A. Rendell, J. C. Burant, S. S. Iyengar, J. Tomasi, 
 M. Cossi, N. Rega, J. M. Millam, M. Klene, J. E. Knox, J. B. Cross, 
 V. Bakken, C. Adamo, J. Jaramillo, R. Gomperts, R. E. Stratmann, 
 O. Yazyev, A. J. Austin, R. Cammi, C. Pomelli, J. W. Ochterski, 
 R. L. Martin, K. Morokuma, V. G. Zakrzewski, G. A. Voth, 
 P. Salvador, J. J. Dannenberg, S. Dapprich, A. D. Daniels, 
 O. Farkas, J. B. Foresman, J. V. Ortiz, J. Cioslowski, 
 and D. J. Fox, Gaussian, Inc., Wallingford CT, 2009.
 
 ******************************************
 Gaussian 09:  IA32W-G09RevA.02 11-Jun-2009
                06-Sep-2021 
 ******************************************
 %nprocshared=12
 Will use up to   12 processors via shared memory.
 ----------------------------------------------
 # opt freq=noraman hf/6-311g geom=connectivity
 ----------------------------------------------
 1/18=20,19=15,38=1,57=2/1,3;
 2/9=110,12=2,17=6,18=5,40=1/2;
 3/5=4,6=6,11=9,16=1,25=1,30=1,71=1/1,2,3;
 4//1;
 5/5=2,38=5/2;
 6/7=2,8=2,9=2,10=2,28=1/1;
 7//1,2,3,16;
 1/18=20,19=15/3(2);
 2/9=110/2;
 99//99;
 2/9=110/2;
 3/5=4,6=6,11=9,16=1,25=1,30=1,71=1/1,2,3;
 4/5=5,16=3/1;
 5/5=2,38=5/2;
 7//1,2,3,16;
 1/18=20,19=15/3(-5);
 2/9=110/2;
 6/7=2,8=2,9=2,10=2,19=2,28=1/1;
 99/9=1/99;
 -----
 M0001
 -----
 Symbolic Z-matrix:
 Charge =  0 Multiplicity = 1
 C                    -0.04782  -0.75426  -0.13847 
 H                    -0.12681  -1.84376  -0.40317 
 C                    -0.17987  -0.67191   1.36199 
 C                     0.22631   0.44401   2.09546 
 C                    -0.73631  -1.76053   2.04054 
 C                     0.08378   0.47057   3.47817 
 H                     0.6704    1.30553   1.57122 
 C                    -0.88065  -1.73131   3.42251 
 H                    -1.0634   -2.64524   1.48139 
 C                    -0.47017  -0.61612   4.14493 
 H                     0.41023   1.35087   4.04129 
 H                    -1.3181   -2.58963   3.94271 
 H                    -0.5821   -0.5947    5.2336 
 C                     1.2902   -0.27311  -0.6442 
 C                     2.18354  -1.2001   -1.18674 
 C                     1.65215   1.07434  -0.60451 
 C                     3.41259  -0.78281  -1.68505 
 H                     1.91649  -2.26295  -1.22203 
 C                     2.87933   1.49068  -1.10636 
 H                     0.95931   1.79886  -0.15005 
 C                     3.76144   0.56278  -1.64944 
 H                     4.10629  -1.51686  -2.10775 
 H                     3.15028   2.55085  -1.07254 
 H                     4.72772   0.89033  -2.04601 
 C                    -1.16759  -0.05353  -0.86996 
 C                    -1.59206  -0.58007  -2.09418 
 C                    -1.78472   1.0958   -0.37714 
 C                    -2.61278   0.03413  -2.8088 
 H                    -1.11496  -1.48128  -2.49675 
 C                    -2.8081    1.70788  -1.09328 
 H                    -1.46869   1.51625   0.58613 
 C                    -3.22386   1.17993  -2.30962 
 H                    -2.93638  -0.38544  -3.76691 
 H                    -3.28665   2.60824  -0.69446 
 H                    -4.02905   1.66258  -2.87252 
 

 GradGradGradGradGradGradGradGradGradGradGradGradGradGradGradGradGradGrad
 Berny optimization.
 Initialization pass.
                           ----------------------------
                           !    Initial Parameters    !
                           ! (Angstroms and Degrees)  !
 --------------------------                            --------------------------
 ! Name  Definition              Value          Derivative Info.                !
 --------------------------------------------------------------------------------
 ! R1    R(1,2)                  1.124          estimate D2E/DX2                !
 ! R2    R(1,3)                  1.5085         estimate D2E/DX2                !
 ! R3    R(1,14)                 1.5092         estimate D2E/DX2                !
 ! R4    R(1,25)                 1.51           estimate D2E/DX2                !
 ! R5    R(3,4)                  1.3958         estimate D2E/DX2                !
 ! R6    R(3,5)                  1.3983         estimate D2E/DX2                !
 ! R7    R(4,6)                  1.3903         estimate D2E/DX2                !
 ! R8    R(4,7)                  1.1019         estimate D2E/DX2                !
 ! R9    R(5,8)                  1.3898         estimate D2E/DX2                !
 ! R10   R(5,9)                  1.0965         estimate D2E/DX2                !
 ! R11   R(6,10)                 1.3901         estimate D2E/DX2                !
 ! R12   R(6,11)                 1.0948         estimate D2E/DX2                !
 ! R13   R(8,10)                 1.3907         estimate D2E/DX2                !
 ! R14   R(8,12)                 1.0948         estimate D2E/DX2                !
 ! R15   R(10,13)                1.0946         estimate D2E/DX2                !
 ! R16   R(14,15)                1.397          estimate D2E/DX2                !
 ! R17   R(14,16)                1.3958         estimate D2E/DX2                !
 ! R18   R(15,17)                1.3903         estimate D2E/DX2                !
 ! R19   R(15,18)                1.0965         estimate D2E/DX2                !
 ! R20   R(16,19)                1.3897         estimate D2E/DX2                !
 ! R21   R(16,20)                1.1007         estimate D2E/DX2                !
 ! R22   R(17,21)                1.3905         estimate D2E/DX2                !
 ! R23   R(17,22)                1.0949         estimate D2E/DX2                !
 ! R24   R(19,21)                1.3907         estimate D2E/DX2                !
 ! R25   R(19,23)                1.0948         estimate D2E/DX2                !
 ! R26   R(21,24)                1.0946         estimate D2E/DX2                !
 ! R27   R(25,26)                1.3986         estimate D2E/DX2                !
 ! R28   R(25,27)                1.3945         estimate D2E/DX2                !
 ! R29   R(26,28)                1.3892         estimate D2E/DX2                !
 ! R30   R(26,29)                1.0963         estimate D2E/DX2                !
 ! R31   R(27,30)                1.391          estimate D2E/DX2                !
 ! R32   R(27,31)                1.0975         estimate D2E/DX2                !
 ! R33   R(28,32)                1.3912         estimate D2E/DX2                !
 ! R34   R(28,33)                1.0949         estimate D2E/DX2                !
 ! R35   R(30,32)                1.3896         estimate D2E/DX2                !
 ! R36   R(30,34)                1.0949         estimate D2E/DX2                !
 ! R37   R(32,35)                1.0946         estimate D2E/DX2                !
 ! A1    A(2,1,3)              106.3204         estimate D2E/DX2                !
 ! A2    A(2,1,14)             107.0032         estimate D2E/DX2                !
 ! A3    A(2,1,25)             106.4774         estimate D2E/DX2                !
 ! A4    A(3,1,14)             113.1739         estimate D2E/DX2                !
 ! A5    A(3,1,25)             113.0547         estimate D2E/DX2                !
 ! A6    A(14,1,25)            110.316          estimate D2E/DX2                !
 ! A7    A(1,3,4)              122.7418         estimate D2E/DX2                !
 ! A8    A(1,3,5)              118.3614         estimate D2E/DX2                !
 ! A9    A(4,3,5)              118.8966         estimate D2E/DX2                !
 ! A10   A(3,4,6)              120.5347         estimate D2E/DX2                !
 ! A11   A(3,4,7)              119.4945         estimate D2E/DX2                !
 ! A12   A(6,4,7)              119.9689         estimate D2E/DX2                !
 ! A13   A(3,5,8)              120.4985         estimate D2E/DX2                !
 ! A14   A(3,5,9)              119.9604         estimate D2E/DX2                !
 ! A15   A(8,5,9)              119.5411         estimate D2E/DX2                !
 ! A16   A(4,6,10)             120.1963         estimate D2E/DX2                !
 ! A17   A(4,6,11)             119.7579         estimate D2E/DX2                !
 ! A18   A(10,6,11)            120.0458         estimate D2E/DX2                !
 ! A19   A(5,8,10)             120.1822         estimate D2E/DX2                !
 ! A20   A(5,8,12)             119.8332         estimate D2E/DX2                !
 ! A21   A(10,8,12)            119.9846         estimate D2E/DX2                !
 ! A22   A(6,10,8)             119.6912         estimate D2E/DX2                !
 ! A23   A(6,10,13)            120.1655         estimate D2E/DX2                !
 ! A24   A(8,10,13)            120.1432         estimate D2E/DX2                !
 ! A25   A(1,14,15)            119.0475         estimate D2E/DX2                !
 ! A26   A(1,14,16)            121.8813         estimate D2E/DX2                !
 ! A27   A(15,14,16)           119.0635         estimate D2E/DX2                !
 ! A28   A(14,15,17)           120.3524         estimate D2E/DX2                !
 ! A29   A(14,15,18)           119.997          estimate D2E/DX2                !
 ! A30   A(17,15,18)           119.6506         estimate D2E/DX2                !
 ! A31   A(14,16,19)           120.5275         estimate D2E/DX2                !
 ! A32   A(14,16,20)           118.9447         estimate D2E/DX2                !
 ! A33   A(19,16,20)           120.5151         estimate D2E/DX2                !
 ! A34   A(15,17,21)           120.2011         estimate D2E/DX2                !
 ! A35   A(15,17,22)           119.8178         estimate D2E/DX2                !
 ! A36   A(21,17,22)           119.9811         estimate D2E/DX2                !
 ! A37   A(16,19,21)           120.0835         estimate D2E/DX2                !
 ! A38   A(16,19,23)           119.8369         estimate D2E/DX2                !
 ! A39   A(21,19,23)           120.0796         estimate D2E/DX2                !
 ! A40   A(17,21,19)           119.77           estimate D2E/DX2                !
 ! A41   A(17,21,24)           120.115          estimate D2E/DX2                !
 ! A42   A(19,21,24)           120.115          estimate D2E/DX2                !
 ! A43   A(1,25,26)            118.3195         estimate D2E/DX2                !
 ! A44   A(1,25,27)            122.6468         estimate D2E/DX2                !
 ! A45   A(26,25,27)           119.0327         estimate D2E/DX2                !
 ! A46   A(25,26,28)           120.4523         estimate D2E/DX2                !
 ! A47   A(25,26,29)           119.9223         estimate D2E/DX2                !
 ! A48   A(28,26,29)           119.625          estimate D2E/DX2                !
 ! A49   A(25,27,30)           120.4185         estimate D2E/DX2                !
 ! A50   A(25,27,31)           119.8995         estimate D2E/DX2                !
 ! A51   A(30,27,31)           119.6795         estimate D2E/DX2                !
 ! A52   A(26,28,32)           120.1524         estimate D2E/DX2                !
 ! A53   A(26,28,33)           119.8614         estimate D2E/DX2                !
 ! A54   A(32,28,33)           119.9862         estimate D2E/DX2                !
 ! A55   A(27,30,32)           120.2374         estimate D2E/DX2                !
 ! A56   A(27,30,34)           119.7294         estimate D2E/DX2                !
 ! A57   A(32,30,34)           120.0332         estimate D2E/DX2                !
 ! A58   A(28,32,30)           119.7066         estimate D2E/DX2                !
 ! A59   A(28,32,35)           120.1154         estimate D2E/DX2                !
 ! A60   A(30,32,35)           120.178          estimate D2E/DX2                !
 ! D1    D(2,1,3,4)            161.8789         estimate D2E/DX2                !
 ! D2    D(2,1,3,5)            -18.2924         estimate D2E/DX2                !
 ! D3    D(14,1,3,4)            44.6991         estimate D2E/DX2                !
 ! D4    D(14,1,3,5)          -135.4722         estimate D2E/DX2                !
 ! D5    D(25,1,3,4)           -81.6453         estimate D2E/DX2                !
 ! D6    D(25,1,3,5)            98.1834         estimate D2E/DX2                !
 ! D7    D(2,1,14,15)           -5.8249         estimate D2E/DX2                !
 ! D8    D(2,1,14,16)          173.1543         estimate D2E/DX2                !
 ! D9    D(3,1,14,15)          110.9535         estimate D2E/DX2                !
 ! D10   D(3,1,14,16)          -70.0674         estimate D2E/DX2                !
 ! D11   D(25,1,14,15)        -121.2602         estimate D2E/DX2                !
 ! D12   D(25,1,14,16)          57.719          estimate D2E/DX2                !
 ! D13   D(2,1,25,26)          -30.5549         estimate D2E/DX2                !
 ! D14   D(2,1,25,27)          149.8245         estimate D2E/DX2                !
 ! D15   D(3,1,25,26)         -146.9377         estimate D2E/DX2                !
 ! D16   D(3,1,25,27)           33.4417         estimate D2E/DX2                !
 ! D17   D(14,1,25,26)          85.2104         estimate D2E/DX2                !
 ! D18   D(14,1,25,27)         -94.4102         estimate D2E/DX2                !
 ! D19   D(1,3,4,6)           -179.9677         estimate D2E/DX2                !
 ! D20   D(1,3,4,7)             -0.4552         estimate D2E/DX2                !
 ! D21   D(5,3,4,6)              0.2044         estimate D2E/DX2                !
 ! D22   D(5,3,4,7)            179.717          estimate D2E/DX2                !
 ! D23   D(1,3,5,8)           -179.9059         estimate D2E/DX2                !
 ! D24   D(1,3,5,9)              0.0268         estimate D2E/DX2                !
 ! D25   D(4,3,5,8)             -0.0704         estimate D2E/DX2                !
 ! D26   D(4,3,5,9)            179.8623         estimate D2E/DX2                !
 ! D27   D(3,4,6,10)            -0.194          estimate D2E/DX2                !
 ! D28   D(3,4,6,11)           179.7632         estimate D2E/DX2                !
 ! D29   D(7,4,6,10)          -179.7042         estimate D2E/DX2                !
 ! D30   D(7,4,6,11)             0.253          estimate D2E/DX2                !
 ! D31   D(3,5,8,10)            -0.0749         estimate D2E/DX2                !
 ! D32   D(3,5,8,12)           179.9778         estimate D2E/DX2                !
 ! D33   D(9,5,8,10)           179.9922         estimate D2E/DX2                !
 ! D34   D(9,5,8,12)             0.0448         estimate D2E/DX2                !
 ! D35   D(4,6,10,8)             0.0463         estimate D2E/DX2                !
 ! D36   D(4,6,10,13)          179.9962         estimate D2E/DX2                !
 ! D37   D(11,6,10,8)         -179.9108         estimate D2E/DX2                !
 ! D38   D(11,6,10,13)           0.039          estimate D2E/DX2                !
 ! D39   D(5,8,10,6)             0.0873         estimate D2E/DX2                !
 ! D40   D(5,8,10,13)         -179.8625         estimate D2E/DX2                !
 ! D41   D(12,8,10,6)         -179.9654         estimate D2E/DX2                !
 ! D42   D(12,8,10,13)           0.0848         estimate D2E/DX2                !
 ! D43   D(1,14,15,17)         178.714          estimate D2E/DX2                !
 ! D44   D(1,14,15,18)          -1.2285         estimate D2E/DX2                !
 ! D45   D(16,14,15,17)         -0.2943         estimate D2E/DX2                !
 ! D46   D(16,14,15,18)        179.7632         estimate D2E/DX2                !
 ! D47   D(1,14,16,19)        -178.5006         estimate D2E/DX2                !
 ! D48   D(1,14,16,20)           2.7857         estimate D2E/DX2                !
 ! D49   D(15,14,16,19)          0.4784         estimate D2E/DX2                !
 ! D50   D(15,14,16,20)       -178.2353         estimate D2E/DX2                !
 ! D51   D(14,15,17,21)         -0.1218         estimate D2E/DX2                !
 ! D52   D(14,15,17,22)        179.9631         estimate D2E/DX2                !
 ! D53   D(18,15,17,21)        179.8209         estimate D2E/DX2                !
 ! D54   D(18,15,17,22)         -0.0942         estimate D2E/DX2                !
 ! D55   D(14,16,19,21)         -0.2464         estimate D2E/DX2                !
 ! D56   D(14,16,19,23)        179.7942         estimate D2E/DX2                !
 ! D57   D(20,16,19,21)        178.447          estimate D2E/DX2                !
 ! D58   D(20,16,19,23)         -1.5124         estimate D2E/DX2                !
 ! D59   D(15,17,21,19)          0.3579         estimate D2E/DX2                !
 ! D60   D(15,17,21,24)       -179.7422         estimate D2E/DX2                !
 ! D61   D(22,17,21,19)       -179.7271         estimate D2E/DX2                !
 ! D62   D(22,17,21,24)          0.1728         estimate D2E/DX2                !
 ! D63   D(16,19,21,17)         -0.1747         estimate D2E/DX2                !
 ! D64   D(16,19,21,24)        179.9255         estimate D2E/DX2                !
 ! D65   D(23,19,21,17)        179.7846         estimate D2E/DX2                !
 ! D66   D(23,19,21,24)         -0.1153         estimate D2E/DX2                !
 ! D67   D(1,25,26,28)        -179.5779         estimate D2E/DX2                !
 ! D68   D(1,25,26,29)           0.1772         estimate D2E/DX2                !
 ! D69   D(27,25,26,28)          0.0567         estimate D2E/DX2                !
 ! D70   D(27,25,26,29)        179.8119         estimate D2E/DX2                !
 ! D71   D(1,25,27,30)         179.6695         estimate D2E/DX2                !
 ! D72   D(1,25,27,31)          -0.9002         estimate D2E/DX2                !
 ! D73   D(26,25,27,30)          0.0514         estimate D2E/DX2                !
 ! D74   D(26,25,27,31)        179.4818         estimate D2E/DX2                !
 ! D75   D(25,26,28,32)         -0.1024         estimate D2E/DX2                !
 ! D76   D(25,26,28,33)        179.9055         estimate D2E/DX2                !
 ! D77   D(29,26,28,32)       -179.8583         estimate D2E/DX2                !
 ! D78   D(29,26,28,33)          0.1496         estimate D2E/DX2                !
 ! D79   D(25,27,30,32)         -0.1145         estimate D2E/DX2                !
 ! D80   D(25,27,30,34)        179.8313         estimate D2E/DX2                !
 ! D81   D(31,27,30,32)       -179.5461         estimate D2E/DX2                !
 ! D82   D(31,27,30,34)          0.3997         estimate D2E/DX2                !
 ! D83   D(26,28,32,30)          0.0393         estimate D2E/DX2                !
 ! D84   D(26,28,32,35)       -179.9125         estimate D2E/DX2                !
 ! D85   D(33,28,32,30)       -179.9686         estimate D2E/DX2                !
 ! D86   D(33,28,32,35)          0.0796         estimate D2E/DX2                !
 ! D87   D(27,30,32,28)          0.0687         estimate D2E/DX2                !
 ! D88   D(27,30,32,35)       -179.9795         estimate D2E/DX2                !
 ! D89   D(34,30,32,28)       -179.8769         estimate D2E/DX2                !
 ! D90   D(34,30,32,35)          0.0748         estimate D2E/DX2                !
 --------------------------------------------------------------------------------
 Trust Radius=3.00D-01 FncErr=1.00D-07 GrdErr=1.00D-07
 Number of steps in this run= 197 maximum allowed number of steps= 210.
 GradGradGradGradGradGradGradGradGradGradGradGradGradGradGradGradGradGrad

                          Input orientation:                          
 ---------------------------------------------------------------------
 Center     Atomic      Atomic             Coordinates (Angstroms)
 Number     Number       Type             X           Y           Z
 ---------------------------------------------------------------------
      1          6           0       -0.047824   -0.754261   -0.138471
      2          1           0       -0.126809   -1.843763   -0.403168
      3          6           0       -0.179869   -0.671915    1.361985
      4          6           0        0.226307    0.444009    2.095457
      5          6           0       -0.736305   -1.760528    2.040543
      6          6           0        0.083779    0.470566    3.478169
      7          1           0        0.670404    1.305530    1.571219
      8          6           0       -0.880653   -1.731306    3.422508
      9          1           0       -1.063399   -2.645238    1.481386
     10          6           0       -0.470172   -0.616123    4.144935
     11          1           0        0.410231    1.350874    4.041286
     12          1           0       -1.318098   -2.589627    3.942709
     13          1           0       -0.582095   -0.594700    5.233604
     14          6           0        1.290197   -0.273114   -0.644202
     15          6           0        2.183541   -1.200097   -1.186740
     16          6           0        1.652153    1.074340   -0.604508
     17          6           0        3.412593   -0.782806   -1.685050
     18          1           0        1.916492   -2.262954   -1.222029
     19          6           0        2.879326    1.490676   -1.106357
     20          1           0        0.959314    1.798860   -0.150052
     21          6           0        3.761443    0.562778   -1.649443
     22          1           0        4.106293   -1.516858   -2.107751
     23          1           0        3.150278    2.550846   -1.072542
     24          1           0        4.727722    0.890326   -2.046009
     25          6           0       -1.167594   -0.053532   -0.869959
     26          6           0       -1.592056   -0.580074   -2.094178
     27          6           0       -1.784724    1.095801   -0.377138
     28          6           0       -2.612783    0.034126   -2.808802
     29          1           0       -1.114957   -1.481279   -2.496747
     30          6           0       -2.808104    1.707882   -1.093276
     31          1           0       -1.468694    1.516253    0.586130
     32          6           0       -3.223856    1.179934   -2.309621
     33          1           0       -2.936378   -0.385442   -3.766908
     34          1           0       -3.286654    2.608239   -0.694457
     35          1           0       -4.029048    1.662580   -2.872522
 ---------------------------------------------------------------------
                    Distance matrix (angstroms):
                    1          2          3          4          5
     1  C    0.000000
     2  H    1.123974   0.000000
     3  C    1.508504   2.119389   0.000000
     4  C    2.549791   3.406130   1.395796   0.000000
     5  C    2.496934   2.519948   1.398263   2.406163   0.000000
     6  C    3.820681   4.523853   2.419299   1.390292   2.777965
     7  H    2.771576   3.801553   2.162645   1.101938   3.405850
     8  C    3.785339   3.900862   2.420570   2.778204   1.389791
     9  H    2.689074   2.251912   2.165384   3.403509   1.096521
    10  C    4.306393   4.723371   2.798606   2.410253   2.410177
    11  H    4.702316   5.499754   3.408598   2.154641   3.872769
    12  H    4.651687   4.567508   3.410765   3.873044   2.155023
    13  H    5.400935   5.791429   3.893223   3.402998   3.402731
    14  C    1.509161   2.129071   2.518913   3.025204   3.677902
    15  C    2.505320   2.523096   3.515777   4.160129   4.388045
    16  C    2.539861   3.423532   3.205122   3.117718   4.553845
    17  C    3.790410   3.911038   4.711953   5.094087   5.661213
    18  H    2.703477   2.240833   3.688260   4.603269   4.234871
    19  C    3.813759   4.544206   4.486445   4.287848   5.791900
    20  H    2.744611   3.809519   3.112671   2.723093   4.510330
    21  C    4.304433   4.739530   5.111468   5.151269   6.264462
    22  H    4.660076   4.575109   5.578905   6.047003   6.381103
    23  H    4.692982   5.522676   5.234786   4.798394   6.586712
    24  H    5.399001   5.808670   6.175716   6.132999   7.320009
    25  C    1.509961   2.122747   2.517850   3.314242   3.401597
    26  C    2.497956   2.569703   3.734671   4.680623   4.384255
    27  C    2.548826   3.374966   2.953798   3.253122   3.886255
    28  C    3.785662   3.936192   4.879859   5.681566   5.500736
    29  H    2.688642   2.343268   4.052071   5.156944   4.561618
    30  C    3.820072   4.503307   4.312697   4.579634   5.113027
    31  H    2.774735   3.750877   2.655391   2.510141   3.659100
    32  C    4.306063   4.729588   5.116238   5.643574   5.810176
    33  H    4.652454   4.618996   5.829747   6.712518   6.360634
    34  H    4.701654   5.467156   4.963918   4.980805   5.750708
    35  H    5.400584   5.798243   6.180380   6.653855   6.833596
                    6          7          8          9         10
     6  C    0.000000
     7  H    2.162812   0.000000
     8  C    2.404467   3.880132   0.000000
     9  H    3.874454   4.315404   2.153282   0.000000
    10  C    1.390083   3.408472   1.390693   3.400547   0.000000
    11  H    1.094812   2.484145   3.398396   4.969264   2.157528
    12  H    3.397916   4.974973   1.094844   2.475091   2.157450
    13  H    2.158641   4.311925   2.158953   4.302964   1.094617
    14  C    4.359180   2.790045   4.834981   3.960367   5.113940
    15  C    5.381589   4.021703   5.560274   4.444092   5.984144
    16  C    4.415042   2.398138   5.523007   5.055733   5.469838
    17  C    6.269830   4.741733   6.739344   5.790464   7.006594
    18  H    5.737842   4.699899   5.447788   4.041577   6.100206
    19  C    5.465674   3.476066   6.710383   6.272741   6.575242
    20  H    3.961681   1.813730   5.348900   5.148103   5.130544
    21  C    6.310794   4.525358   7.248211   6.585784   7.271257
    22  H    7.164703   5.771138   7.449791   6.393814   7.800733
    23  H    5.868557   3.832761   7.402074   7.160790   7.096437
    24  H    7.229036   5.451474   8.260236   7.647210   8.222851
    25  C    4.554868   3.344343   4.617632   3.500945   5.094316
    26  C    5.912979   4.702059   5.680251   4.162816   6.339278
    27  C    4.329620   3.141294   4.821533   4.239079   5.010775
    28  C    6.854774   5.619641   6.704196   5.290112   7.305344
    29  H    6.398929   5.244251   5.929165   4.145239   6.728758
    30  C    5.549058   4.400163   5.994613   5.350003   6.189166
    31  H    3.444928   2.364433   4.351721   4.275951   4.267220
    32  C    6.703891   5.499268   6.842749   5.802693   7.243609
    33  H    7.895900   6.660620   7.597701   6.013262   8.290515
    34  H    5.774104   4.742219   6.447472   6.105423   6.461331
    35  H    7.659473   6.477590   7.813978   6.805063   8.191629
                   11         12         13         14         15
    11  H    0.000000
    12  H    4.303996   0.000000
    13  H    2.488291   2.487538   0.000000
    14  C    5.036415   5.762741   6.177176   0.000000
    15  C    6.081475   6.364238   7.016842   1.397035   0.000000
    16  C    4.816870   6.551658   6.470016   1.395787   2.407163
    17  C    6.808648   7.570714   7.991288   2.418204   1.390328
    18  H    6.559806   6.102770   7.120478   2.164622   1.096461
    19  C    5.710885   7.730479   7.518334   2.418652   2.780438
    20  H    4.250823   6.418420   6.090060   2.155632   3.401059
    21  C    6.651023   8.186058   8.220852   2.795761   2.410725
    22  H    7.726281   8.196518   8.759386   3.408705   2.155359
    23  H    5.924443   8.458344   7.974494   3.408537   3.875202
    24  H    7.477165   9.193843   9.131935   3.890403   3.403097
    25  C    5.346233   5.442077   6.155416   2.477886   3.555991
    26  C    6.736588   6.368466   7.397069   3.240994   3.932303
    27  C    4.940177   5.697473   5.982018   3.376446   4.655505
    28  C    7.602377   7.358205   8.318618   4.473605   5.211441
    29  H    7.286506   6.537301   7.799250   3.267469   3.560235
    30  C    6.070326   6.786004   7.091292   4.574067   5.777681
    31  H    3.936472   5.305427   5.180850   3.510988   4.884716
    32  C    7.319140   7.545405   8.187092   5.026096   6.013763
    33  H    8.670783   8.180187   9.305679   5.256220   5.790898
    34  H    6.138012   7.238532   7.260536   5.408539   6.683473
    35  H    8.222232   8.478083   9.093189   6.083313   7.045072
                   16         17         18         19         20
    16  C    0.000000
    17  C    2.777717   0.000000
    18  H    3.404224   2.154889   0.000000
    19  C    1.389656   2.405821   3.876876   0.000000
    20  H    1.100675   3.878118   4.308556   2.167013   0.000000
    21  C    2.408878   1.390525   3.401660   1.390707   3.409986
    22  H    3.872577   1.094865   2.477174   3.399044   4.972932
    23  H    2.154879   3.399589   4.971644   1.094769   2.493350
    24  H    3.401605   2.158524   4.304083   2.158688   4.315205
    25  C    3.048529   4.708962   3.810129   4.337975   2.910903
    26  C    3.934602   5.025435   3.987811   5.025640   3.993550
    27  C    3.444456   5.679075   5.068932   4.737199   2.841760
    28  C    4.912294   6.183474   5.320597   5.931536   4.789897
    29  H    4.215288   4.652464   3.380178   5.169139   4.535294
    30  C    4.531463   6.726870   6.172999   5.691591   3.884763
    31  H    3.369361   5.854135   5.386216   4.665882   2.552852
    32  C    5.166625   6.948732   6.281680   6.228421   4.748233
    33  H    5.760760   6.693389   5.792392   6.664891   5.747107
    34  H    5.172306   7.573663   7.146998   6.279962   4.356571
    35  H    6.145401   7.922627   7.313234   7.132638   5.684555
                   21         22         23         24         25
    21  C    0.000000
    22  H    2.157279   0.000000
    23  H    2.158414   4.304862   0.000000
    24  H    1.094645   2.486870   2.488633   0.000000
    25  C    5.028204   5.611358   5.046567   6.085123   0.000000
    26  C    5.492163   5.774854   5.773745   6.488759   1.398616
    27  C    5.715141   6.672712   5.191819   6.726017   1.394521
    28  C    6.500334   6.931306   6.523906   7.429532   2.419787
    29  H    5.354939   5.235841   6.039753   6.321754   2.165104
    30  C    6.691751   7.696557   6.017751   7.639684   2.417379
    31  H    5.767256   6.894726   5.015624   6.761325   2.162193
    32  C    7.043516   7.813099   6.636215   7.961216   2.796833
    33  H    7.088271   7.323396   7.275217   7.957859   3.410437
    34  H    7.400783   8.583094   6.448282   8.307114   3.406794
    35  H    7.962239   8.767980   7.454641   8.829526   3.891429
                   26         27         28         29         30
    26  C    0.000000
    27  C    2.407053   0.000000
    28  C    1.389177   2.779537   0.000000
    29  H    1.096292   3.403333   2.153442   0.000000
    30  C    2.777646   1.390973   2.404712   3.873916   0.000000
    31  H    3.404975   1.097515   3.877009   4.314448   2.156651
    32  C    2.409733   2.410948   1.391211   3.400665   1.389631
    33  H    2.154788   3.874395   1.094860   2.476236   3.398054
    34  H    3.872496   2.154984   3.398620   4.968771   1.094856
    35  H    3.402094   3.403700   2.159104   4.303137   2.158350
                   31         32         33         34         35
    31  H    0.000000
    32  C    3.402804   0.000000
    33  H    4.971869   2.157946   0.000000
    34  H    2.477360   2.157024   4.304042   0.000000
    35  H    4.305705   1.094596   2.487619   2.487848   0.000000
 Stoichiometry    C19H16
 Framework group  C1[X(C19H16)]
 Deg. of freedom    99
 Full point group                 C1      NOp   1
 Largest Abelian subgroup         C1      NOp   1
 Largest concise Abelian subgroup C1      NOp   1
                         Standard orientation:                         
 ---------------------------------------------------------------------
 Center     Atomic      Atomic             Coordinates (Angstroms)
 Number     Number       Type             X           Y           Z
 ---------------------------------------------------------------------
      1          6           0       -0.022656   -0.012742   -0.753978
      2          1           0        0.000071   -0.006497   -1.877705
      3          6           0       -1.457676   -0.260502   -0.360383
      4          6           0       -1.826607   -0.697155    0.912987
      5          6           0       -2.455826   -0.038419   -1.314068
      6          6           0       -3.164063   -0.911713    1.226177
      7          1           0       -1.047674   -0.879765    1.670736
      8          6           0       -3.792581   -0.250706   -0.998570
      9          1           0       -2.185796    0.306897   -2.319154
     10          6           0       -4.150051   -0.688746    0.272006
     11          1           0       -3.438830   -1.257985    2.227782
     12          1           0       -4.565266   -0.073033   -1.753602
     13          1           0       -5.202911   -0.857896    0.519115
     14          6           0        0.914783   -1.104706   -0.299674
     15          6           0        1.499055   -1.938554   -1.256246
     16          6           0        1.230921   -1.291933    1.046886
     17          6           0        2.387328   -2.936040   -0.870233
     18          1           0        1.258547   -1.807539   -2.317951
     19          6           0        2.121830   -2.286832    1.431074
     20          1           0        0.747091   -0.653168    1.801454
     21          6           0        2.703337   -3.109896    0.472700
     22          1           0        2.839679   -3.584973   -1.627196
     23          1           0        2.364301   -2.421548    2.490120
     24          1           0        3.406117   -3.892956    0.774640
     25          6           0        0.488425    1.336211   -0.307769
     26          6           0        1.425562    1.990484   -1.113889
     27          6           0        0.069273    1.946126    0.874180
     28          6           0        1.931900    3.229293   -0.741348
     29          1           0        1.767555    1.522897   -2.044620
     30          6           0        0.575906    3.187598    1.244145
     31          1           0       -0.671920    1.449298    1.513190
     32          6           0        1.507769    3.831328    0.438963
     33          1           0        2.666303    3.732159   -1.378920
     34          1           0        0.236887    3.657430    2.173141
     35          1           0        1.906064    4.808107    0.731204
 ---------------------------------------------------------------------
 Rotational constants (GHZ):      0.4000238      0.3720092      0.2368976
 Standard basis: 6-311G (5D, 7F)
 There are   295 symmetry adapted basis functions of A   symmetry.
 Integral buffers will be    262144 words long.
 Raffenetti 1 integral format.
 Two-electron integral symmetry is turned on.
   295 basis functions,   574 primitive gaussians,   295 cartesian basis functions
    65 alpha electrons       65 beta electrons
       nuclear repulsion energy      1288.3558006521 Hartrees.
 NAtoms=   35 NActive=   35 NUniq=   35 SFac= 7.50D-01 NAtFMM=   80 NAOKFM=F Big=F
 One-electron integrals computed using PRISM.
 PrsmSu:  requested number of processors reduced to:  10 ShMem   1 Linda.
 NBasis=   295 RedAO= T  NBF=   295
 NBsUse=   295 1.00D-06 NBFU=   295
 Harris functional with IExCor=  205 diagonalized for initial guess.
 ExpMin= 1.03D-01 ExpMax= 4.56D+03 ExpMxC= 6.82D+02 IAcc=1 IRadAn=         1 AccDes= 0.00D+00
 HarFok:  IExCor=  205 AccDes= 0.00D+00 IRadAn=         1 IDoV= 1
 ScaDFX=  1.000000  1.000000  1.000000  1.000000
 FoFCou: FMM=F IPFlag=           0 FMFlag=      100000 FMFlg1=           0
         NFxFlg=           0 DoJE=T BraDBF=F KetDBF=T FulRan=T
         Omega=  0.000000  0.000000  1.000000  0.000000  0.000000 ICntrl=     500 IOpCl=  0
         NMat0=    1 NMatS0=    1 NMatT0=    0 NMatD0=    1 NMtDS0=    0 NMtDT0=    0
         I1Cent=           4 NGrid=           0.
 Petite list used in FoFCou.
 Initial guess orbital symmetries:
       Occupied  (A) (A) (A) (A) (A) (A) (A) (A) (A) (A) (A) (A)
                 (A) (A) (A) (A) (A) (A) (A) (A) (A) (A) (A) (A)
                 (A) (A) (A) (A) (A) (A) (A) (A) (A) (A) (A) (A)
                 (A) (A) (A) (A) (A) (A) (A) (A) (A) (A) (A) (A)
                 (A) (A) (A) (A) (A) (A) (A) (A) (A) (A) (A) (A)
                 (A) (A) (A) (A) (A)
       Virtual   (A) (A) (A) (A) (A) (A) (A) (A) (A) (A) (A) (A)
                 (A) (A) (A) (A) (A) (A) (A) (A) (A) (A) (A) (A)
                 (A) (A) (A) (A) (A) (A) (A) (A) (A) (A) (A) (A)
                 (A) (A) (A) (A) (A) (A) (A) (A) (A) (A) (A) (A)
                 (A) (A) (A) (A) (A) (A) (A) (A) (A) (A) (A) (A)
                 (A) (A) (A) (A) (A) (A) (A) (A) (A) (A) (A) (A)
                 (A) (A) (A) (A) (A) (A) (A) (A) (A) (A) (A) (A)
                 (A) (A) (A) (A) (A) (A) (A) (A) (A) (A) (A) (A)
                 (A) (A) (A) (A) (A) (A) (A) (A) (A) (A) (A) (A)
                 (A) (A) (A) (A) (A) (A) (A) (A) (A) (A) (A) (A)
                 (A) (A) (A) (A) (A) (A) (A) (A) (A) (A) (A) (A)
                 (A) (A) (A) (A) (A) (A) (A) (A) (A) (A) (A) (A)
                 (A) (A) (A) (A) (A) (A) (A) (A) (A) (A) (A) (A)
                 (A) (A) (A) (A) (A) (A) (A) (A) (A) (A) (A) (A)
                 (A) (A) (A) (A) (A) (A) (A) (A) (A) (A) (A) (A)
                 (A) (A) (A) (A) (A) (A) (A) (A) (A) (A) (A) (A)
                 (A) (A) (A) (A) (A) (A) (A) (A) (A) (A) (A) (A)
                 (A) (A) (A) (A) (A) (A) (A) (A) (A) (A) (A) (A)
                 (A) (A) (A) (A) (A) (A) (A) (A) (A) (A) (A) (A)
                 (A) (A)
 The electronic state of the initial guess is 1-A.
 Requested convergence on RMS density matrix=1.00D-08 within 128 cycles.
 Requested convergence on MAX density matrix=1.00D-06.
 Requested convergence on             energy=1.00D-06.
 No special actions if energy rises.
 Integral accuracy reduced to 1.0D-05 until final iterations.
 Initial convergence to 1.0D-05 achieved.  Increase integral accuracy.
 SCF Done:  E(RHF) =  -728.671703474     A.U. after   14 cycles
             Convg  =    0.6175D-08             -V/T =  2.0001

 **********************************************************************

            Population analysis using the SCF density.

 **********************************************************************

 Orbital symmetries:
       Occupied  (A) (A) (A) (A) (A) (A) (A) (A) (A) (A) (A) (A)
                 (A) (A) (A) (A) (A) (A) (A) (A) (A) (A) (A) (A)
                 (A) (A) (A) (A) (A) (A) (A) (A) (A) (A) (A) (A)
                 (A) (A) (A) (A) (A) (A) (A) (A) (A) (A) (A) (A)
                 (A) (A) (A) (A) (A) (A) (A) (A) (A) (A) (A) (A)
                 (A) (A) (A) (A) (A)
       Virtual   (A) (A) (A) (A) (A) (A) (A) (A) (A) (A) (A) (A)
                 (A) (A) (A) (A) (A) (A) (A) (A) (A) (A) (A) (A)
                 (A) (A) (A) (A) (A) (A) (A) (A) (A) (A) (A) (A)
                 (A) (A) (A) (A) (A) (A) (A) (A) (A) (A) (A) (A)
                 (A) (A) (A) (A) (A) (A) (A) (A) (A) (A) (A) (A)
                 (A) (A) (A) (A) (A) (A) (A) (A) (A) (A) (A) (A)
                 (A) (A) (A) (A) (A) (A) (A) (A) (A) (A) (A) (A)
                 (A) (A) (A) (A) (A) (A) (A) (A) (A) (A) (A) (A)
                 (A) (A) (A) (A) (A) (A) (A) (A) (A) (A) (A) (A)
                 (A) (A) (A) (A) (A) (A) (A) (A) (A) (A) (A) (A)
                 (A) (A) (A) (A) (A) (A) (A) (A) (A) (A) (A) (A)
                 (A) (A) (A) (A) (A) (A) (A) (A) (A) (A) (A) (A)
                 (A) (A) (A) (A) (A) (A) (A) (A) (A) (A) (A) (A)
                 (A) (A) (A) (A) (A) (A) (A) (A) (A) (A) (A) (A)
                 (A) (A) (A) (A) (A) (A) (A) (A) (A) (A) (A) (A)
                 (A) (A) (A) (A) (A) (A) (A) (A) (A) (A) (A) (A)
                 (A) (A) (A) (A) (A) (A) (A) (A) (A) (A) (A) (A)
                 (A) (A) (A) (A) (A) (A) (A) (A) (A) (A) (A) (A)
                 (A) (A) (A) (A) (A) (A) (A) (A) (A) (A) (A) (A)
                 (A) (A)
 The electronic state is 1-A.
 Alpha  occ. eigenvalues --  -11.25832 -11.25273 -11.25263 -11.25132 -11.24449
 Alpha  occ. eigenvalues --  -11.24432 -11.24356 -11.24350 -11.24210 -11.24190
 Alpha  occ. eigenvalues --  -11.24128 -11.24117 -11.24111 -11.24053 -11.24026
 Alpha  occ. eigenvalues --  -11.24020 -11.23914 -11.23834 -11.23740  -1.18591
 Alpha  occ. eigenvalues --   -1.15826  -1.15682  -1.09038  -1.02410  -1.02113
 Alpha  occ. eigenvalues --   -1.01889  -1.01497  -1.01391  -0.92963  -0.84539
 Alpha  occ. eigenvalues --   -0.82939  -0.82541  -0.81709  -0.81565  -0.77735
 Alpha  occ. eigenvalues --   -0.70731  -0.70448  -0.69109  -0.66000  -0.63615
 Alpha  occ. eigenvalues --   -0.63500  -0.62371  -0.62036  -0.61903  -0.59569
 Alpha  occ. eigenvalues --   -0.58771  -0.58520  -0.58429  -0.57617  -0.53914
 Alpha  occ. eigenvalues --   -0.51742  -0.51082  -0.50855  -0.49673  -0.49165
 Alpha  occ. eigenvalues --   -0.48682  -0.47794  -0.47471  -0.46764  -0.34692
 Alpha  occ. eigenvalues --   -0.34244  -0.33697  -0.33588  -0.33281  -0.31181
 Alpha virt. eigenvalues --    0.11654   0.12011   0.13588   0.13741   0.14048
 Alpha virt. eigenvalues --    0.14933   0.15135   0.16275   0.16374   0.16879
 Alpha virt. eigenvalues --    0.18806   0.19134   0.19284   0.21286   0.21419
 Alpha virt. eigenvalues --    0.21511   0.23642   0.24242   0.24983   0.27172
 Alpha virt. eigenvalues --    0.28522   0.29491   0.34028   0.34192   0.35877
 Alpha virt. eigenvalues --    0.37450   0.38513   0.39677   0.40949   0.43682
 Alpha virt. eigenvalues --    0.44101   0.44377   0.45034   0.45398   0.45576
 Alpha virt. eigenvalues --    0.45872   0.46407   0.48415   0.49906   0.50382
 Alpha virt. eigenvalues --    0.50795   0.51015   0.51450   0.54982   0.55778
 Alpha virt. eigenvalues --    0.56807   0.57907   0.58955   0.59057   0.59609
 Alpha virt. eigenvalues --    0.59682   0.60665   0.61066   0.61499   0.61697
 Alpha virt. eigenvalues --    0.61852   0.62381   0.62468   0.63285   0.63461
 Alpha virt. eigenvalues --    0.64127   0.64995   0.65160   0.65420   0.66899
 Alpha virt. eigenvalues --    0.67408   0.68217   0.68441   0.70107   0.71387
 Alpha virt. eigenvalues --    0.72344   0.73800   0.74453   0.75072   0.76218
 Alpha virt. eigenvalues --    0.77287   0.78315   0.78629   0.80472   0.81184
 Alpha virt. eigenvalues --    0.81860   0.82193   0.82343   0.82821   0.82907
 Alpha virt. eigenvalues --    0.83519   0.83917   0.84054   0.84781   0.85604
 Alpha virt. eigenvalues --    0.86042   0.86387   0.86907   0.87461   0.88063
 Alpha virt. eigenvalues --    0.89660   0.90557   0.91264   0.92975   0.94422
 Alpha virt. eigenvalues --    0.96095   0.96854   0.97676   0.98126   0.98940
 Alpha virt. eigenvalues --    0.99328   1.00291   1.02792   1.05757   1.06233
 Alpha virt. eigenvalues --    1.06806   1.07137   1.08010   1.08381   1.10498
 Alpha virt. eigenvalues --    1.11086   1.12219   1.12488   1.12979   1.14257
 Alpha virt. eigenvalues --    1.14644   1.15373   1.18585   1.19527   1.21721
 Alpha virt. eigenvalues --    1.25341   1.26737   1.27681   1.28223   1.28856
 Alpha virt. eigenvalues --    1.30336   1.35143   1.39538   1.45216   1.46605
 Alpha virt. eigenvalues --    1.51657   1.52270   1.56495   2.54616   2.55620
 Alpha virt. eigenvalues --    2.56169   2.59190   2.61965   2.62498   2.64464
 Alpha virt. eigenvalues --    2.67001   2.67714   2.68447   2.72314   2.76769
 Alpha virt. eigenvalues --    2.77777   2.83493   2.87936   2.88636   2.94129
 Alpha virt. eigenvalues --    2.94272   2.94420   2.97077   2.97451   2.98029
 Alpha virt. eigenvalues --    3.00367   3.00765   3.04042   3.05735   3.07131
 Alpha virt. eigenvalues --    3.08141   3.08432   3.08983   3.09974   3.14330
 Alpha virt. eigenvalues --    3.14769   3.16346   3.16830   3.17574   3.18816
 Alpha virt. eigenvalues --    3.22648   3.25641   3.25823   3.28294   3.28907
 Alpha virt. eigenvalues --    3.30926   3.33381   3.34269   3.35147   3.42630
 Alpha virt. eigenvalues --    3.43064   3.44423   3.46954   3.49481   3.52237
 Alpha virt. eigenvalues --    3.53443   3.54449   3.59251   3.60651   3.60664
 Alpha virt. eigenvalues --    3.63131   3.63493   3.63783   3.65969   3.66662
 Alpha virt. eigenvalues --    3.68377   3.70287   3.70463   3.71430   3.73485
 Alpha virt. eigenvalues --    3.74188   3.75556   3.80867   3.85854   3.86653
 Alpha virt. eigenvalues --    3.93040  24.24829  24.30687  24.31553  24.50538
 Alpha virt. eigenvalues --   24.50836  24.51121  24.53989  24.54667  24.56098
 Alpha virt. eigenvalues --   24.77292  24.78599  24.79136  24.79611  24.80644
 Alpha virt. eigenvalues --   24.81845  24.83235  25.05543  25.05809  25.06130
          Condensed to atoms (all electrons):
              1          2          3          4          5          6
     1  C    5.829183   0.463686   0.171078  -0.045881  -0.045202   0.003568
     2  H    0.463686   0.512424  -0.073735   0.005107   0.002808  -0.000275
     3  C    0.171078  -0.073735   5.366634   0.450104   0.495110  -0.064389
     4  C   -0.045881   0.005107   0.450104   5.121833  -0.061501   0.473425
     5  C   -0.045202   0.002808   0.495110  -0.061501   5.040935  -0.036137
     6  C    0.003568  -0.000275  -0.064389   0.473425  -0.036137   5.056456
     7  H   -0.000303  -0.000140  -0.053073   0.386588   0.004506  -0.025326
     8  C    0.008265   0.001516  -0.071551  -0.031234   0.471752  -0.075134
     9  H   -0.000720   0.002688  -0.045666   0.004756   0.394456  -0.000400
    10  C    0.001137  -0.000016  -0.017780  -0.094821  -0.086710   0.495848
    11  H   -0.000295   0.000014   0.006029  -0.036761  -0.000393   0.395575
    12  H   -0.000389  -0.000029   0.007150  -0.000600  -0.039669   0.006231
    13  H   -0.000019  -0.000001  -0.001593   0.008120   0.007486  -0.042534
    14  C    0.185426  -0.074270  -0.112452  -0.004594   0.001949   0.001542
    15  C   -0.026178   0.002080  -0.000346   0.001489   0.000195   0.000042
    16  C   -0.054385   0.005547  -0.006279  -0.017223   0.000222  -0.000013
    17  C    0.007680   0.001759  -0.000602   0.000125  -0.000009   0.000000
    18  H   -0.000485   0.002421   0.000558   0.000002   0.000135   0.000003
    19  C    0.001400  -0.000283   0.001779  -0.001735   0.000028  -0.000089
    20  H    0.003107   0.000067  -0.003188   0.000296  -0.000197   0.000863
    21  C    0.001273  -0.000013  -0.000035   0.000045  -0.000001   0.000003
    22  H   -0.000368  -0.000037   0.000020  -0.000001   0.000000   0.000000
    23  H   -0.000319   0.000012   0.000008   0.000016   0.000000   0.000001
    24  H   -0.000013  -0.000001  -0.000001   0.000001   0.000000   0.000000
    25  C    0.158081  -0.059889  -0.104148  -0.005884  -0.001443   0.000880
    26  C   -0.049889  -0.003246   0.006330  -0.000176   0.000453   0.000023
    27  C   -0.040189   0.004917  -0.014341  -0.007358   0.001917  -0.001491
    28  C    0.006268   0.001551  -0.000758   0.000025  -0.000017   0.000000
    29  H    0.001768   0.001071   0.000692  -0.000038   0.000013   0.000000
    30  C    0.004803  -0.000248   0.000528   0.000017  -0.000088  -0.000031
    31  H   -0.001609  -0.000066  -0.003184   0.001120  -0.000881   0.000957
    32  C    0.000991   0.000009   0.000045  -0.000019  -0.000013   0.000000
    33  H   -0.000351  -0.000026   0.000011   0.000000   0.000001   0.000000
    34  H   -0.000325   0.000013   0.000037   0.000028   0.000007  -0.000001
    35  H   -0.000012  -0.000002  -0.000001   0.000001   0.000000   0.000000
              7          8          9         10         11         12
     1  C   -0.000303   0.008265  -0.000720   0.001137  -0.000295  -0.000389
     2  H   -0.000140   0.001516   0.002688  -0.000016   0.000014  -0.000029
     3  C   -0.053073  -0.071551  -0.045666  -0.017780   0.006029   0.007150
     4  C    0.386588  -0.031234   0.004756  -0.094821  -0.036761  -0.000600
     5  C    0.004506   0.471752   0.394456  -0.086710  -0.000393  -0.039669
     6  C   -0.025326  -0.075134  -0.000400   0.495848   0.395575   0.006231
     7  H    0.498467  -0.000212  -0.000243   0.004794  -0.003437   0.000020
     8  C   -0.000212   5.044528  -0.034683   0.494608   0.005899   0.396663
     9  H   -0.000243  -0.034683   0.507707   0.005350   0.000022  -0.004216
    10  C    0.004794   0.494608   0.005350   5.030340  -0.039651  -0.041070
    11  H   -0.003437   0.005899   0.000022  -0.039651   0.515488  -0.000212
    12  H    0.000020   0.396663  -0.004216  -0.041070  -0.000212   0.517949
    13  H   -0.000183  -0.042951  -0.000183   0.399166  -0.004354  -0.004549
    14  C   -0.003011  -0.000680   0.000363   0.000021   0.000011   0.000014
    15  C   -0.000258  -0.000004  -0.000022  -0.000011   0.000002   0.000001
    16  C    0.002872   0.000029  -0.000026  -0.000004   0.000031   0.000000
    17  C   -0.000138   0.000001   0.000001   0.000000   0.000000   0.000000
    18  H   -0.000005   0.000003  -0.000025  -0.000001   0.000000   0.000000
    19  C    0.001159  -0.000001   0.000002   0.000001   0.000000   0.000000
    20  H    0.003447   0.000016  -0.000007  -0.000012  -0.000053   0.000000
    21  C    0.000079   0.000000   0.000000   0.000000  -0.000001   0.000000
    22  H    0.000000   0.000000   0.000000   0.000000   0.000000   0.000000
    23  H   -0.000105   0.000000   0.000000   0.000000   0.000001   0.000000
    24  H    0.000000   0.000000   0.000000   0.000000   0.000000   0.000000
    25  C   -0.000499  -0.000715   0.000478   0.000024  -0.000007   0.000021
    26  C   -0.000029   0.000003   0.000119  -0.000001  -0.000001   0.000000
    27  C    0.000333   0.000224   0.000184   0.000081   0.000013  -0.000001
    28  C    0.000006   0.000001  -0.000008   0.000000   0.000000   0.000000
    29  H    0.000007   0.000001   0.000004   0.000000   0.000000   0.000000
    30  C    0.000053  -0.000003   0.000009   0.000004   0.000001   0.000000
    31  H    0.000151  -0.000135  -0.000037   0.000048  -0.000003   0.000001
    32  C    0.000001   0.000000  -0.000004   0.000000   0.000000   0.000000
    33  H    0.000000   0.000000   0.000000   0.000000   0.000000   0.000000
    34  H   -0.000017   0.000001   0.000000  -0.000001   0.000000   0.000000
    35  H    0.000000   0.000000   0.000000   0.000000   0.000000   0.000000
             13         14         15         16         17         18
     1  C   -0.000019   0.185426  -0.026178  -0.054385   0.007680  -0.000485
     2  H   -0.000001  -0.074270   0.002080   0.005547   0.001759   0.002421
     3  C   -0.001593  -0.112452  -0.000346  -0.006279  -0.000602   0.000558
     4  C    0.008120  -0.004594   0.001489  -0.017223   0.000125   0.000002
     5  C    0.007486   0.001949   0.000195   0.000222  -0.000009   0.000135
     6  C   -0.042534   0.001542   0.000042  -0.000013   0.000000   0.000003
     7  H   -0.000183  -0.003011  -0.000258   0.002872  -0.000138  -0.000005
     8  C   -0.042951  -0.000680  -0.000004   0.000029   0.000001   0.000003
     9  H   -0.000183   0.000363  -0.000022  -0.000026   0.000001  -0.000025
    10  C    0.399166   0.000021  -0.000011  -0.000004   0.000000  -0.000001
    11  H   -0.004354   0.000011   0.000002   0.000031   0.000000   0.000000
    12  H   -0.004549   0.000014   0.000001   0.000000   0.000000   0.000000
    13  H    0.517625  -0.000002   0.000000   0.000001   0.000000   0.000000
    14  C   -0.000002   5.374794   0.503657   0.438873  -0.072781  -0.046642
    15  C    0.000000   0.503657   5.069992  -0.065415   0.459822   0.395718
    16  C    0.000001   0.438873  -0.065415   5.095310  -0.029621   0.004633
    17  C    0.000000  -0.072781   0.459822  -0.029621   5.054901  -0.035033
    18  H    0.000000  -0.046642   0.395718   0.004633  -0.035033   0.510868
    19  C    0.000000  -0.061697  -0.033463   0.479244  -0.076831  -0.000238
    20  H    0.000000  -0.048494   0.004047   0.388556  -0.000169  -0.000260
    21  C    0.000000  -0.017875  -0.086335  -0.092098   0.496963   0.005163
    22  H    0.000000   0.007061  -0.039702  -0.000618   0.396774  -0.004174
    23  H    0.000000   0.006072  -0.000449  -0.039058   0.006000   0.000024
    24  H    0.000000  -0.001593   0.007535   0.008017  -0.042752  -0.000186
    25  C    0.000001  -0.154434  -0.005715  -0.007654  -0.000463   0.000150
    26  C    0.000000   0.000691   0.002046   0.000803  -0.000099   0.000251
    27  C    0.000000  -0.014069  -0.000317  -0.000076   0.000048  -0.000048
    28  C    0.000000  -0.000423  -0.000036   0.000193   0.000006  -0.000006
    29  H    0.000000   0.000552   0.001431  -0.000051   0.000030   0.000255
    30  C    0.000000   0.000639   0.000027  -0.000662  -0.000001   0.000000
    31  H    0.000000  -0.001039  -0.000082   0.000493   0.000002   0.000000
    32  C    0.000000   0.000075  -0.000003   0.000029   0.000000   0.000000
    33  H    0.000000   0.000012  -0.000001   0.000003   0.000000  -0.000001
    34  H    0.000000   0.000005   0.000000   0.000014   0.000000   0.000000
    35  H    0.000000  -0.000001   0.000000  -0.000001   0.000000   0.000000
             19         20         21         22         23         24
     1  C    0.001400   0.003107   0.001273  -0.000368  -0.000319  -0.000013
     2  H   -0.000283   0.000067  -0.000013  -0.000037   0.000012  -0.000001
     3  C    0.001779  -0.003188  -0.000035   0.000020   0.000008  -0.000001
     4  C   -0.001735   0.000296   0.000045  -0.000001   0.000016   0.000001
     5  C    0.000028  -0.000197  -0.000001   0.000000   0.000000   0.000000
     6  C   -0.000089   0.000863   0.000003   0.000000   0.000001   0.000000
     7  H    0.001159   0.003447   0.000079   0.000000  -0.000105   0.000000
     8  C   -0.000001   0.000016   0.000000   0.000000   0.000000   0.000000
     9  H    0.000002  -0.000007   0.000000   0.000000   0.000000   0.000000
    10  C    0.000001  -0.000012   0.000000   0.000000   0.000000   0.000000
    11  H    0.000000  -0.000053  -0.000001   0.000000   0.000001   0.000000
    12  H    0.000000   0.000000   0.000000   0.000000   0.000000   0.000000
    13  H    0.000000   0.000000   0.000000   0.000000   0.000000   0.000000
    14  C   -0.061697  -0.048494  -0.017875   0.007061   0.006072  -0.001593
    15  C   -0.033463   0.004047  -0.086335  -0.039702  -0.000449   0.007535
    16  C    0.479244   0.388556  -0.092098  -0.000618  -0.039058   0.008017
    17  C   -0.076831  -0.000169   0.496963   0.396774   0.006000  -0.042752
    18  H   -0.000238  -0.000260   0.005163  -0.004174   0.000024  -0.000186
    19  C    5.036025  -0.027222   0.494369   0.006223   0.396671  -0.042915
    20  H   -0.027222   0.495317   0.004557   0.000021  -0.003434  -0.000169
    21  C    0.494369   0.004557   5.031014  -0.040778  -0.039549   0.399617
    22  H    0.006223   0.000021  -0.040778   0.518274  -0.000211  -0.004581
    23  H    0.396671  -0.003434  -0.039549  -0.000211   0.515381  -0.004453
    24  H   -0.042915  -0.000169   0.399617  -0.004581  -0.004453   0.517472
    25  C    0.000748  -0.001887   0.000096   0.000011   0.000018  -0.000002
    26  C   -0.000065  -0.000267  -0.000014   0.000003   0.000006   0.000000
    27  C   -0.000032   0.004780  -0.000004   0.000000  -0.000002   0.000000
    28  C    0.000002  -0.000098   0.000000   0.000000   0.000001   0.000000
    29  H   -0.000017  -0.000037  -0.000011  -0.000003   0.000000   0.000000
    30  C   -0.000016   0.000446   0.000000   0.000000  -0.000001   0.000000
    31  H    0.000063   0.001040   0.000002   0.000000  -0.000009   0.000000
    32  C    0.000003  -0.000011   0.000000   0.000000   0.000000   0.000000
    33  H    0.000000   0.000001   0.000000   0.000000   0.000000   0.000000
    34  H    0.000000  -0.000001   0.000000   0.000000   0.000000   0.000000
    35  H    0.000000  -0.000001   0.000000   0.000000   0.000000   0.000000
             25         26         27         28         29         30
     1  C    0.158081  -0.049889  -0.040189   0.006268   0.001768   0.004803
     2  H   -0.059889  -0.003246   0.004917   0.001551   0.001071  -0.000248
     3  C   -0.104148   0.006330  -0.014341  -0.000758   0.000692   0.000528
     4  C   -0.005884  -0.000176  -0.007358   0.000025  -0.000038   0.000017
     5  C   -0.001443   0.000453   0.001917  -0.000017   0.000013  -0.000088
     6  C    0.000880   0.000023  -0.001491   0.000000   0.000000  -0.000031
     7  H   -0.000499  -0.000029   0.000333   0.000006   0.000007   0.000053
     8  C   -0.000715   0.000003   0.000224   0.000001   0.000001  -0.000003
     9  H    0.000478   0.000119   0.000184  -0.000008   0.000004   0.000009
    10  C    0.000024  -0.000001   0.000081   0.000000   0.000000   0.000004
    11  H   -0.000007  -0.000001   0.000013   0.000000   0.000000   0.000001
    12  H    0.000021   0.000000  -0.000001   0.000000   0.000000   0.000000
    13  H    0.000001   0.000000   0.000000   0.000000   0.000000   0.000000
    14  C   -0.154434   0.000691  -0.014069  -0.000423   0.000552   0.000639
    15  C   -0.005715   0.002046  -0.000317  -0.000036   0.001431   0.000027
    16  C   -0.007654   0.000803  -0.000076   0.000193  -0.000051  -0.000662
    17  C   -0.000463  -0.000099   0.000048   0.000006   0.000030  -0.000001
    18  H    0.000150   0.000251  -0.000048  -0.000006   0.000255   0.000000
    19  C    0.000748  -0.000065  -0.000032   0.000002  -0.000017  -0.000016
    20  H   -0.001887  -0.000267   0.004780  -0.000098  -0.000037   0.000446
    21  C    0.000096  -0.000014  -0.000004   0.000000  -0.000011   0.000000
    22  H    0.000011   0.000003   0.000000   0.000000  -0.000003   0.000000
    23  H    0.000018   0.000006  -0.000002   0.000001   0.000000  -0.000001
    24  H   -0.000002   0.000000   0.000000   0.000000   0.000000   0.000000
    25  C    5.366395   0.473272   0.485645  -0.065385  -0.050627  -0.064524
    26  C    0.473272   5.071572  -0.071921   0.466290   0.399562  -0.031585
    27  C    0.485645  -0.071921   5.087525  -0.027896   0.004144   0.471654
    28  C   -0.065385   0.466290  -0.027896   5.050249  -0.035569  -0.076923
    29  H   -0.050627   0.399562   0.004144  -0.035569   0.509977  -0.000334
    30  C   -0.064524  -0.031585   0.471654  -0.076923  -0.000334   5.050308
    31  H   -0.042717   0.004187   0.390166  -0.000181  -0.000249  -0.029908
    32  C   -0.018519  -0.086097  -0.093486   0.489004   0.005341   0.499241
    33  H    0.006708  -0.039647  -0.000523   0.397085  -0.004288   0.006127
    34  H    0.006178  -0.000424  -0.037578   0.005998   0.000024   0.395904
    35  H   -0.001479   0.007372   0.007825  -0.042945  -0.000185  -0.042205
             31         32         33         34         35
     1  C   -0.001609   0.000991  -0.000351  -0.000325  -0.000012
     2  H   -0.000066   0.000009  -0.000026   0.000013  -0.000002
     3  C   -0.003184   0.000045   0.000011   0.000037  -0.000001
     4  C    0.001120  -0.000019   0.000000   0.000028   0.000001
     5  C   -0.000881  -0.000013   0.000001   0.000007   0.000000
     6  C    0.000957   0.000000   0.000000  -0.000001   0.000000
     7  H    0.000151   0.000001   0.000000  -0.000017   0.000000
     8  C   -0.000135   0.000000   0.000000   0.000001   0.000000
     9  H   -0.000037  -0.000004   0.000000   0.000000   0.000000
    10  C    0.000048   0.000000   0.000000  -0.000001   0.000000
    11  H   -0.000003   0.000000   0.000000   0.000000   0.000000
    12  H    0.000001   0.000000   0.000000   0.000000   0.000000
    13  H    0.000000   0.000000   0.000000   0.000000   0.000000
    14  C   -0.001039   0.000075   0.000012   0.000005  -0.000001
    15  C   -0.000082  -0.000003  -0.000001   0.000000   0.000000
    16  C    0.000493   0.000029   0.000003   0.000014  -0.000001
    17  C    0.000002   0.000000   0.000000   0.000000   0.000000
    18  H    0.000000   0.000000  -0.000001   0.000000   0.000000
    19  C    0.000063   0.000003   0.000000   0.000000   0.000000
    20  H    0.001040  -0.000011   0.000001  -0.000001  -0.000001
    21  C    0.000002   0.000000   0.000000   0.000000   0.000000
    22  H    0.000000   0.000000   0.000000   0.000000   0.000000
    23  H   -0.000009   0.000000   0.000000   0.000000   0.000000
    24  H    0.000000   0.000000   0.000000   0.000000   0.000000
    25  C   -0.042717  -0.018519   0.006708   0.006178  -0.001479
    26  C    0.004187  -0.086097  -0.039647  -0.000424   0.007372
    27  C    0.390166  -0.093486  -0.000523  -0.037578   0.007825
    28  C   -0.000181   0.489004   0.397085   0.005998  -0.042945
    29  H   -0.000249   0.005341  -0.004288   0.000024  -0.000185
    30  C   -0.029908   0.499241   0.006127   0.395904  -0.042205
    31  H    0.481632   0.004713   0.000020  -0.003336  -0.000182
    32  C    0.004713   5.033390  -0.040728  -0.040250   0.399187
    33  H    0.000020  -0.040728   0.518594  -0.000213  -0.004487
    34  H   -0.003336  -0.040250  -0.000213   0.516804  -0.004444
    35  H   -0.000182   0.399187  -0.004487  -0.004444   0.518513
 Mulliken atomic charges:
              1
     1  C   -0.580780
     2  H    0.204587
     3  C    0.067006
     4  C   -0.145274
     5  C   -0.149712
     6  C   -0.189597
     7  H    0.184497
     8  C   -0.166208
     9  H    0.170100
    10  C   -0.151343
    11  H    0.162080
    12  H    0.162685
    13  H    0.163971
    14  C    0.092302
    15  C   -0.189745
    16  C   -0.111686
    17  C   -0.165613
    18  H    0.166915
    19  C   -0.173115
    20  H    0.178945
    21  C   -0.156466
    22  H    0.162085
    23  H    0.163379
    24  H    0.164025
    25  C    0.087283
    26  C   -0.149522
    27  C   -0.150122
    28  C   -0.166436
    29  H    0.166538
    30  C   -0.183232
    31  H    0.199024
    32  C   -0.152896
    33  H    0.161703
    34  H    0.161576
    35  H    0.163046
 Sum of Mulliken atomic charges =   0.00000
 Mulliken charges with hydrogens summed into heavy atoms:
              1
     1  C   -0.376192
     3  C    0.067006
     4  C    0.039223
     5  C    0.020388
     6  C   -0.027518
     8  C   -0.003523
    10  C    0.012628
    14  C    0.092302
    15  C   -0.022831
    16  C    0.067260
    17  C   -0.003528
    19  C   -0.009735
    21  C    0.007559
    25  C    0.087283
    26  C    0.017016
    27  C    0.048902
    28  C   -0.004733
    30  C   -0.021656
    32  C    0.010150
 Sum of Mulliken charges with hydrogens summed into heavy atoms =   0.00000
 Electronic spatial extent (au):  <R**2>=           4939.9843
 Charge=              0.0000 electrons
 Dipole moment (field-independent basis, Debye):
    X=              0.0135    Y=             -0.0663    Z=             -0.0427  Tot=              0.0800
 Quadrupole moment (field-independent basis, Debye-Ang):
   XX=           -110.6191   YY=           -114.0666   ZZ=           -102.8393
   XY=             -0.7922   XZ=             -2.2749   YZ=             -0.1615
 Traceless Quadrupole moment (field-independent basis, Debye-Ang):
   XX=             -1.4441   YY=             -4.8916   ZZ=              6.3357
   XY=             -0.7922   XZ=             -2.2749   YZ=             -0.1615
 Octapole moment (field-independent basis, Debye-Ang**2):
  XXX=            -39.9808  YYY=             18.3233  ZZZ=             -0.1742  XYY=             44.6863
  XXY=            -14.3180  XXZ=             -6.5071  XZZ=             -0.7066  YZZ=             -4.7878
  YYZ=             10.3640  XYZ=             -0.1000
 Hexadecapole moment (field-independent basis, Debye-Ang**3):
 XXXX=          -3091.7130 YYYY=          -2907.7851 ZZZZ=           -787.1587 XXXY=              6.1372
 XXXZ=             -0.9596 YYYX=             -2.6825 YYYZ=             58.3984 ZZZX=             -6.3191
 ZZZY=             -4.0203 XXYY=           -972.9491 XXZZ=           -631.3990 YYZZ=           -601.3394
 XXYZ=            -49.8260 YYXZ=            -22.3276 ZZXY=            -15.5633
 N-N= 1.288355800652D+03 E-N=-4.272720209757D+03  KE= 7.285912453174D+02
 PrsmSu:  requested number of processors reduced to:  10 ShMem   1 Linda.
 Calling FoFJK, ICntrl=      2127 FMM=F ISym2X=0 I1Cent= 0 IOpClX= 0 NMat=1 NMatS=1 NMatT=0.
 ***** Axes restored to original set *****
 -------------------------------------------------------------------
 Center     Atomic                   Forces (Hartrees/Bohr)
 Number     Number              X              Y              Z
 -------------------------------------------------------------------
      1        6          -0.000834499   -0.023469379   -0.004673403
      2        1           0.002664827    0.026680101    0.006103462
      3        6          -0.001235569   -0.007123773    0.011291836
      4        6           0.006763659    0.010996946   -0.003939785
      5        6          -0.002401020   -0.005318374   -0.002433545
      6        6           0.003197510    0.010125129    0.005838576
      7        1          -0.009977455   -0.021018897    0.019748656
      8        6          -0.005454569   -0.009615117    0.006947358
      9        1           0.005598438    0.014561752    0.008463382
     10        6          -0.001690583   -0.000388563    0.013343508
     11        1          -0.004982874   -0.013447139   -0.008537448
     12        1           0.006813098    0.013046366   -0.007861487
     13        1           0.001831442   -0.000379384   -0.016689039
     14        6           0.011787207   -0.004974248   -0.006191962
     15        6          -0.001302280   -0.005927678   -0.000258150
     16        6          -0.006159690    0.009290823    0.003718771
     17        6           0.009691300   -0.007374933   -0.005409050
     18        1           0.003842840    0.017296969    0.000837067
     19        6           0.001243522    0.012205922    0.001854489
     20        1           0.016584976   -0.011392491   -0.018266792
     21        6           0.012281069    0.002303774   -0.005277753
     22        1          -0.010504299    0.011288111    0.006325033
     23        1          -0.004026636   -0.016214558   -0.000495240
     24        1          -0.014885919   -0.005026593    0.006046044
     25        6          -0.012616400    0.000719520   -0.007274584
     26        6           0.001698205   -0.004941915   -0.003777793
     27        6           0.002330164    0.004760371    0.009855626
     28        6          -0.003161941   -0.004948953   -0.011381148
     29        1          -0.007324889    0.014163643    0.006947943
     30        6          -0.005172147    0.010518764    0.003136031
     31        1          -0.008791228   -0.007790552   -0.018602703
     32        6          -0.010002814    0.006317218   -0.006650964
     33        1           0.004772741    0.006315506    0.014659625
     34        1           0.007226981   -0.013769212   -0.006098200
     35        1           0.012196833   -0.007469158    0.008701637
 -------------------------------------------------------------------
 Cartesian Forces:  Max     0.026680101 RMS     0.009561709

 GradGradGradGradGradGradGradGradGradGradGradGradGradGradGradGradGradGrad
 Berny optimization.
 Internal  Forces:  Max     0.029849407 RMS     0.007841271
 Search for a local minimum.
 Step number   1 out of a maximum of  197
 All quantities printed in internal units (Hartrees-Bohrs-Radians)
 Mixed Optimization -- RFO/linear search
 Second derivative matrix not updated -- first step.
     Eigenvalues ---    0.00634   0.00645   0.00653   0.01530   0.01533
     Eigenvalues ---    0.01536   0.02138   0.02140   0.02146   0.02167
     Eigenvalues ---    0.02171   0.02171   0.02181   0.02185   0.02186
     Eigenvalues ---    0.02201   0.02203   0.02203   0.02213   0.02213
     Eigenvalues ---    0.02215   0.02215   0.02215   0.02217   0.02217
     Eigenvalues ---    0.02218   0.02219   0.02219   0.02219   0.02222
     Eigenvalues ---    0.04518   0.06373   0.06674   0.15996   0.15999
     Eigenvalues ---    0.15999   0.16000   0.16000   0.16000   0.16000
     Eigenvalues ---    0.16000   0.16000   0.16000   0.16000   0.16000
     Eigenvalues ---    0.16000   0.16000   0.16000   0.18941   0.19365
     Eigenvalues ---    0.22000   0.22000   0.22000   0.22000   0.22000
     Eigenvalues ---    0.22000   0.23476   0.23476   0.23477   0.24996
     Eigenvalues ---    0.24999   0.25000   0.31164   0.31354   0.31435
     Eigenvalues ---    0.31501   0.33469   0.33608   0.33958   0.34070
     Eigenvalues ---    0.34077   0.34095   0.34256   0.34257   0.34257
     Eigenvalues ---    0.34259   0.34262   0.34267   0.34281   0.34284
     Eigenvalues ---    0.34287   0.42420   0.42427   0.42482   0.42571
     Eigenvalues ---    0.42581   0.42614   0.46340   0.46360   0.46428
     Eigenvalues ---    0.46769   0.46773   0.46826   0.47223   0.47227
     Eigenvalues ---    0.47259   0.47320   0.47329   0.473701000.00000
     Eigenvalues --- 1000.000001000.000001000.000001000.000001000.00000
     Eigenvalues --- 1000.000001000.000001000.000001000.000001000.00000
     Eigenvalues --- 1000.000001000.000001000.000001000.000001000.00000
     Eigenvalues --- 1000.000001000.000001000.000001000.000001000.00000
     Eigenvalues --- 1000.000001000.000001000.000001000.000001000.00000
     Eigenvalues --- 1000.000001000.000001000.000001000.000001000.00000
     Eigenvalues --- 1000.000001000.000001000.000001000.000001000.00000
     Eigenvalues --- 1000.000001000.000001000.000001000.000001000.00000
     Eigenvalues --- 1000.000001000.000001000.000001000.000001000.00000
     Eigenvalues --- 1000.000001000.000001000.000001000.000001000.00000
     Eigenvalues --- 1000.000001000.000001000.000001000.000001000.00000
     Eigenvalues --- 1000.000001000.000001000.000001000.000001000.00000
     Eigenvalues --- 1000.000001000.000001000.000001000.000001000.00000
     Eigenvalues --- 1000.000001000.000001000.000001000.000001000.00000
     Eigenvalues --- 1000.000001000.000001000.000001000.000001000.00000
     Eigenvalues --- 1000.000001000.000001000.000001000.000001000.00000
     Eigenvalues --- 1000.000001000.000001000.000001000.000001000.00000
     Eigenvalues --- 1000.000001000.00000
 RFO step:  Lambda=-4.29446079D-02 EMin= 6.34188468D-03
 Linear search not attempted -- first point.
 Maximum step size (   0.300) exceeded in Quadratic search.
    -- Step size scaled by   0.575
 Iteration  1 RMS(Cart)=  0.12605206 RMS(Int)=  0.00284823
 Iteration  2 RMS(Cart)=  0.00585944 RMS(Int)=  0.00028946
 Iteration  3 RMS(Cart)=  0.00000908 RMS(Int)=  0.00028941
 Iteration  4 RMS(Cart)=  0.00000000 RMS(Int)=  0.00028941
 Variable       Old X    -DE/DX   Delta X   Delta X   Delta X     New X
                                 (Linear)    (Quad)   (Total)
    R1        2.12400  -0.02749   0.00000  -0.04456  -0.04456   2.07945
    R2        2.85066   0.02570   0.00000   0.04127   0.04127   2.89193
    R3        2.85190   0.02265   0.00000   0.03645   0.03645   2.88835
    R4        2.85341   0.02085   0.00000   0.03362   0.03362   2.88704
    R5        2.63767   0.00080   0.00000   0.00110   0.00111   2.63878
    R6        2.64233  -0.00355   0.00000  -0.00400  -0.00398   2.63835
    R7        2.62727  -0.00325   0.00000  -0.00350  -0.00351   2.62376
    R8        2.08236  -0.02985   0.00000  -0.04544  -0.04544   2.03693
    R9        2.62632  -0.00366   0.00000  -0.00420  -0.00419   2.62214
   R10        2.07212  -0.01773   0.00000  -0.02657  -0.02657   2.04555
   R11        2.62688  -0.00675   0.00000  -0.00758  -0.00760   2.61927
   R12        2.06890  -0.01669   0.00000  -0.02488  -0.02488   2.04401
   R13        2.62803  -0.00838   0.00000  -0.00954  -0.00955   2.61848
   R14        2.06895  -0.01669   0.00000  -0.02488  -0.02488   2.04408
   R15        2.06853  -0.01679   0.00000  -0.02502  -0.02502   2.04351
   R16        2.64001  -0.00424   0.00000  -0.00476  -0.00475   2.63526
   R17        2.63765   0.00076   0.00000   0.00102   0.00104   2.63869
   R18        2.62734  -0.00282   0.00000  -0.00321  -0.00322   2.62412
   R19        2.07201  -0.01773   0.00000  -0.02656  -0.02656   2.04545
   R20        2.62607  -0.00460   0.00000  -0.00505  -0.00504   2.62103
   R21        2.07997  -0.02548   0.00000  -0.03864  -0.03864   2.04133
   R22        2.62771  -0.00836   0.00000  -0.00947  -0.00949   2.61822
   R23        2.06899  -0.01667   0.00000  -0.02485  -0.02485   2.04415
   R24        2.62806  -0.00554   0.00000  -0.00626  -0.00627   2.62178
   R25        2.06881  -0.01671   0.00000  -0.02491  -0.02491   2.04390
   R26        2.06858  -0.01683   0.00000  -0.02509  -0.02509   2.04349
   R27        2.64300  -0.00424   0.00000  -0.00488  -0.00487   2.63813
   R28        2.63526  -0.00251   0.00000  -0.00278  -0.00278   2.63249
   R29        2.62516  -0.00412   0.00000  -0.00465  -0.00465   2.62051
   R30        2.07169  -0.01738   0.00000  -0.02603  -0.02603   2.04567
   R31        2.62856  -0.00275   0.00000  -0.00300  -0.00300   2.62556
   R32        2.07400  -0.02184   0.00000  -0.03282  -0.03282   2.04118
   R33        2.62901  -0.00606   0.00000  -0.00683  -0.00684   2.62217
   R34        2.06899  -0.01666   0.00000  -0.02484  -0.02484   2.04415
   R35        2.62602  -0.00621   0.00000  -0.00689  -0.00690   2.61912
   R36        2.06898  -0.01670   0.00000  -0.02491  -0.02491   2.04407
   R37        2.06849  -0.01674   0.00000  -0.02494  -0.02494   2.04355
    A1        1.85564  -0.00925   0.00000  -0.04554  -0.04460   1.81104
    A2        1.86756  -0.00592   0.00000  -0.03537  -0.03462   1.83294
    A3        1.85838  -0.00028   0.00000  -0.01904  -0.01887   1.83952
    A4        1.97526   0.01479   0.00000   0.05388   0.05271   2.02797
    A5        1.97318   0.00301   0.00000   0.02541   0.02350   1.99668
    A6        1.92538  -0.00408   0.00000   0.00950   0.00715   1.93253
    A7        2.14225   0.02511   0.00000   0.04924   0.04922   2.19147
    A8        2.06580  -0.01300   0.00000  -0.02553  -0.02555   2.04025
    A9        2.07514  -0.01210   0.00000  -0.02370  -0.02367   2.05147
   A10        2.10373   0.00439   0.00000   0.00976   0.00976   2.11349
   A11        2.08557   0.00423   0.00000   0.01330   0.01330   2.09887
   A12        2.09385  -0.00862   0.00000  -0.02309  -0.02309   2.07076
   A13        2.10310   0.00829   0.00000   0.01756   0.01759   2.12068
   A14        2.09370  -0.00486   0.00000  -0.01082  -0.01083   2.08287
   A15        2.08639  -0.00343   0.00000  -0.00675  -0.00676   2.07963
   A16        2.09782   0.00242   0.00000   0.00496   0.00493   2.10276
   A17        2.09017  -0.00116   0.00000  -0.00232  -0.00231   2.08786
   A18        2.09519  -0.00127   0.00000  -0.00264  -0.00263   2.09257
   A19        2.09758   0.00003   0.00000  -0.00100  -0.00100   2.09657
   A20        2.09148   0.00005   0.00000   0.00067   0.00067   2.09215
   A21        2.09413  -0.00007   0.00000   0.00033   0.00033   2.09446
   A22        2.08901  -0.00303   0.00000  -0.00758  -0.00761   2.08139
   A23        2.09728   0.00152   0.00000   0.00379   0.00380   2.10109
   A24        2.09690   0.00152   0.00000   0.00379   0.00380   2.10070
   A25        2.07777  -0.00632   0.00000  -0.01251  -0.01258   2.06519
   A26        2.12723   0.01651   0.00000   0.03229   0.03221   2.15943
   A27        2.07805  -0.01022   0.00000  -0.02007  -0.02008   2.05797
   A28        2.10055   0.00694   0.00000   0.01483   0.01483   2.11537
   A29        2.09434  -0.00405   0.00000  -0.00904  -0.00905   2.08529
   A30        2.08830  -0.00290   0.00000  -0.00578  -0.00579   2.08250
   A31        2.10360   0.00379   0.00000   0.00844   0.00837   2.11197
   A32        2.07598   0.00413   0.00000   0.01303   0.01291   2.08889
   A33        2.10339  -0.00786   0.00000  -0.02095  -0.02107   2.08232
   A34        2.09790  -0.00009   0.00000  -0.00099  -0.00102   2.09689
   A35        2.09122   0.00019   0.00000   0.00091   0.00092   2.09214
   A36        2.09406  -0.00010   0.00000   0.00008   0.00009   2.09416
   A37        2.09585   0.00212   0.00000   0.00424   0.00424   2.10009
   A38        2.09155  -0.00096   0.00000  -0.00185  -0.00186   2.08969
   A39        2.09579  -0.00115   0.00000  -0.00239  -0.00240   2.09338
   A40        2.09038  -0.00252   0.00000  -0.00633  -0.00636   2.08402
   A41        2.09640   0.00127   0.00000   0.00318   0.00318   2.09958
   A42        2.09640   0.00126   0.00000   0.00316   0.00316   2.09956
   A43        2.06506  -0.00203   0.00000  -0.00390  -0.00391   2.06116
   A44        2.14059   0.00959   0.00000   0.01891   0.01891   2.15950
   A45        2.07751  -0.00756   0.00000  -0.01501  -0.01500   2.06251
   A46        2.10229   0.00531   0.00000   0.01114   0.01115   2.11344
   A47        2.09304  -0.00328   0.00000  -0.00733  -0.00734   2.08570
   A48        2.08785  -0.00203   0.00000  -0.00381  -0.00382   2.08403
   A49        2.10170   0.00313   0.00000   0.00683   0.00683   2.10853
   A50        2.09264   0.00057   0.00000   0.00263   0.00263   2.09527
   A51        2.08880  -0.00371   0.00000  -0.00949  -0.00949   2.07931
   A52        2.09705   0.00008   0.00000  -0.00037  -0.00037   2.09668
   A53        2.09198   0.00001   0.00000   0.00032   0.00032   2.09230
   A54        2.09415  -0.00009   0.00000   0.00005   0.00006   2.09421
   A55        2.09854   0.00132   0.00000   0.00279   0.00278   2.10132
   A56        2.08967  -0.00061   0.00000  -0.00124  -0.00123   2.08844
   A57        2.09497  -0.00072   0.00000  -0.00155  -0.00155   2.09342
[...]
 69498,-0.00010671,0.00030355,-0.00041815,-0.00021370,-0.00030888,0.000
 63296,-0.00022558,-0.00010157,0.00061441,0.00007390,-0.00005523,-0.000
 03350,-0.00005932,-0.00023090,-0.00050110,0.00001872,0.00007792,0.0000
 3748,0.00034674,0.00037434,0.00006916,-0.00000595,-0.00000964,-0.00000
 201,0.00000751,0.00000093,-0.00001047,0.00001008,0.00000621,-0.0000110
 0,-0.00119035,0.00037382,-0.00142986,0.00024573,-0.00027394,-0.0001926
 3,-0.00034391,0.00017212,-0.00032982,-0.00016467,-0.00018934,0.0002343
 8,-0.00000663,0.00002091,-0.00004905,0.00049707,-0.00018318,-0.0000414
 8,0.00011085,-0.00019283,0.00031445,-0.00016351,0.00032350,-0.00005860
 ,-0.00001548,0.00001100,0.00004423,-0.00001586,-0.00002533,-0.00003078
 ,0.00001061,-0.00001044,0.00000517,-0.00162750,0.04782816,0.08574020,-
 0.04857372,0.00913556,-0.07377756,-0.06026117,-0.00824159,-0.19657092,
 0.06491666,-0.07887319,-0.02140874,-0.00053513,0.00064464,-0.00070507,
 0.11147622,0.18228319,0.68441366,-0.00137554,-0.00247535,0.00091417,0.
 00055310,-0.00031546,0.00004667,-0.00097721,0.00129407,-0.00044541,-0.
 00034865,0.00046709,-0.00022673,-0.00013368,0.00028432,-0.00023382,0.0
 0009150,0.00001127,-0.00041621,-0.00028633,0.00001178,-0.00000903,-0.0
 0009276,0.00006901,0.00041837,0.00002866,-0.00017370,-0.00002727,-0.00
 020276,-0.00021665,0.00001080,0.00001680,0.00000534,0.00000574,-0.0000
 0290,-0.00004974,0.00003446,0.00000211,-0.00003685,0.00003906,-0.00037
 795,0.00042367,-0.00019274,-0.00013802,-0.00008502,0.00003420,-0.00008
 900,0.00015412,-0.00011774,0.00002336,0.00005263,0.00000193,0.00000027
 ,-0.00001023,0.00000096,-0.00001526,-0.00008268,0.00000755,0.00008636,
 -0.00004838,0.00022021,0.00001788,-0.00002495,0.00000948,0.00000210,-0
 .00000938,0.00000841,-0.00000135,0.00000938,0.00000311,0.00001927,-0.0
 0000306,-0.00000193,0.01021555,0.00584635,0.01860968,0.00144603,0.0064
 8874,-0.00041167,-0.07896655,-0.01072798,-0.06936122,-0.00094871,0.000
 20889,0.00048256,0.00020203,0.00029410,0.00096604,-0.00091113,-0.00931
 392,-0.02735793,0.07442762,-0.00253291,-0.00158099,0.00072332,0.000189
 81,-0.00000501,0.00016807,0.00093919,-0.00061226,-0.00004786,0.0002372
 3,0.00034529,0.00038020,-0.00044668,-0.00024527,0.00023035,0.00006944,
 0.00002136,0.00024102,-0.00009195,-0.00002329,-0.00002742,-0.00016680,
 -0.00011689,0.00011025,0.00006459,-0.00003484,-0.00005245,0.00013464,0
 .00005815,-0.00004860,-0.00005177,-0.00001826,-0.00005712,0.00003367,0
 .00000499,-0.00001812,-0.00000445,0.00000598,-0.00004658,-0.00023739,0
 .00048143,-0.00013978,-0.00012260,-0.00009529,0.00004704,-0.00012563,0
 .00015522,-0.00004771,0.00000897,0.00000197,0.00001954,0.00000409,-0.0
 0003549,-0.00002165,0.00005729,-0.00004273,0.00002521,0.00003318,-0.00
 005914,0.00006702,-0.00001746,0.00000335,-0.00000195,-0.00000778,-0.00
 000536,0.00000475,-0.00001871,-0.00001291,0.00000844,0.00000431,-0.000
 00918,-0.00000427,-0.00723398,-0.00165647,-0.02534683,0.00654874,0.000
 23890,-0.00391340,-0.01038044,-0.08775155,-0.08772025,0.00039331,-0.00
 104619,0.00058365,-0.00042523,-0.00039085,-0.00119574,0.00533077,0.009
 71448,0.01673567,0.00499310,0.08170990,0.00064237,0.00170968,-0.001176
 89,-0.00012438,0.00012030,-0.00007169,-0.00116001,0.00172620,0.0000720
 7,-0.00077579,0.00080891,-0.00027939,-0.00064667,-0.00002815,0.0003794
 5,-0.00022216,-0.00003994,0.00023808,0.00027098,-0.00005794,0.00002975
 ,0.00003753,-0.00006993,-0.00016005,0.00005799,-0.00003507,0.00000277,
 0.00028981,0.00012777,-0.00011056,0.00000433,-0.00001002,0.00000254,-0
 .00000098,0.00000419,-0.00001674,0.00000620,0.00000450,-0.00000901,0.0
 0018651,-0.00042340,0.00027632,0.00015385,0.00010376,-0.00003254,0.000
 24888,-0.00019490,0.00020751,-0.00001806,-0.00003085,0.00000083,-0.000
 01300,0.00000937,-0.00001013,-0.00001668,0.00010436,0.00000579,-0.0000
 6905,0.00005799,-0.00030777,-0.00001093,0.00001362,-0.00001384,0.00000
 420,0.00000748,-0.00001031,0.00001473,-0.00000058,-0.00001330,-0.00001
 711,0.00000465,-0.00000449,-0.00623146,-0.00238696,-0.00974470,0.00005
 807,-0.00357849,0.00163653,-0.06945287,-0.08975113,-0.33038790,0.00040
 900,0.00053424,0.00069446,-0.00024187,-0.00014433,-0.00056129,-0.00034
 249,-0.00790138,-0.00911654,0.07970572,0.09748307,0.34745452,-0.000845
 30,-0.00022045,0.00101232,-0.00012445,-0.00024445,-0.00022102,-0.00007
 542,0.00018160,0.00010825,0.00004503,0.00009178,-0.00007030,-0.0000363
 0,-0.00008434,-0.00001550,-0.00000377,0.00000570,0.00004338,-0.0000097
 3,0.00000382,0.00000371,0.00000781,-0.00005297,-0.00002297,-0.00003823
 ,-0.00000679,0.00005022,0.00003316,0.00000666,-0.00006322,-0.00001049,
 -0.00000248,-0.00002196,-0.00000061,0.00002779,-0.00003420,-0.00000482
 ,0.00000409,-0.00001568,-0.00000322,0.00034201,-0.00081919,-0.00014516
 ,-0.00021047,0.00001233,-0.00016379,0.00012774,0.00003784,-0.00002894,
 0.00000753,0.00006973,0.00002545,-0.00000400,-0.00001926,0.00008666,-0
 .00008282,0.00000152,-0.00000299,-0.00001692,0.00002108,-0.00007843,0.
 00003961,0.00000460,-0.00003337,-0.00000049,0.00002130,-0.00003399,-0.
 00002857,0.00000225,-0.00000408,-0.00001007,0.00000653,-0.00463237,0.0
 0681603,0.01505344,-0.02817914,0.03301915,-0.00537337,0.00530454,-0.01
 499343,-0.03391526,-0.18411706,0.12603535,0.05585665,0.00025904,0.0054
 8511,-0.00499112,-0.14563232,0.00152090,-0.09832177,-0.00026434,0.0061
 7100,-0.00394887,0.57624785,0.00122096,-0.00096580,-0.00058528,0.00037
 612,0.00064528,0.00043338,-0.00004171,-0.00046040,0.00002861,-0.000037
 54,0.00006049,0.00036025,-0.00013684,0.00017329,-0.00021551,0.00011699
 ,0.00007989,-0.00022207,0.00001020,-0.00000589,0.00000759,-0.00001028,
 0.00011710,0.00029484,0.00003889,-0.00006474,-0.00002808,-0.00015758,-
 0.00019608,0.00000436,0.00000774,-0.00000477,0.00000893,0.00000530,0.0
 0000029,0.00000988,0.00000007,-0.00000590,-0.00000226,0.00014950,-0.00
 001964,0.00105970,-0.00019229,0.00024069,0.00022178,0.00037548,-0.0000
 3195,0.00015361,0.00013864,0.00019181,-0.00019506,-0.00001337,0.000004
 11,0.00000934,-0.00036264,0.00008857,0.00005980,0.00006363,0.00004133,
 -0.00013797,0.00018437,-0.00024560,0.00003148,0.00001593,-0.00001020,-
 0.00003969,0.00004265,0.00004707,0.00001432,0.00000469,0.00000536,-0.0
 0000787,0.00524786,-0.04267127,-0.05140473,0.05945451,-0.01997718,0.04
 768910,-0.04170805,0.05594626,0.01178897,0.09118898,-0.23422627,-0.113
 25239,0.00507111,0.00404490,-0.00044083,0.03619419,-0.14395626,-0.0474
 1594,0.00649004,0.00295732,-0.00011211,-0.27376756,0.50126476,0.002034
 12,-0.00069492,-0.00039135,0.00010445,0.00093090,0.00013950,-0.0003617
 7,-0.00046976,0.00022017,-0.00001174,0.00019993,0.00037318,-0.00015013
 ,0.00018111,-0.00040135,0.00017121,0.00013100,-0.00027641,0.00002919,0
 .00001186,0.00002292,0.00002261,0.00012630,0.00041704,0.00002448,-0.00
 007018,-0.00002090,-0.00020856,-0.00029733,-0.00008851,-0.00000259,-0.
 00001501,-0.00002038,0.00000782,0.00002454,-0.00001112,-0.00000241,0.0
 0000190,-0.00002157,0.00050257,0.00010784,0.00088977,-0.00034998,0.000
 03765,0.00031105,0.00009439,0.00006339,0.00021550,0.00014090,0.0002408
 0,-0.00019359,0.00001295,-0.00000016,0.00000465,-0.00042677,0.00015016
 ,0.00003507,-0.00009702,0.00032316,-0.00029266,0.00010566,-0.00029658,
 0.00007312,-0.00001863,-0.00001819,-0.00003590,-0.00002891,-0.00000942
 ,0.00002785,-0.00001663,0.00000566,0.00000225,0.01414692,-0.05066077,-
 0.07199241,0.04124358,0.00180261,0.08441147,-0.08100014,0.05689412,-0.
 02508609,-0.00448133,-0.05673772,-0.18966767,-0.00543733,0.00005193,0.
 00007060,-0.03739176,-0.10351949,-0.32786248,-0.00382560,-0.00040250,0
 .00152809,0.17803035,0.12277103,0.68130520,0.00002581,-0.00058705,-0.0
 0103641,0.00007872,-0.00000921,0.00003759,-0.00041679,0.00010988,-0.00
 000890,0.00002906,0.00001831,-0.00004768,0.00001314,0.00002836,-0.0000
 7068,0.00003835,-0.00000317,-0.00003109,-0.00001536,0.00000602,0.00000
 243,0.00000875,-0.00001305,0.00005025,-0.00000250,-0.00000363,0.000007
 28,-0.00002715,-0.00003081,-0.00003872,-0.00000266,-0.00000693,-0.0000
 1457,0.00000461,0.00000646,-0.00000575,-0.00000173,0.00000154,-0.00000
 813,0.00005738,0.00009679,-0.00012850,-0.00006681,-0.00003145,0.000024
 56,-0.00004188,-0.00001957,0.00004097,-0.00000268,0.00001223,0.0000167
 2,0.00000860,-0.00001100,-0.00001168,-0.00000726,0.00001444,0.00001851
 ,0.00000841,0.00001286,-0.00004233,-0.00003205,-0.00000914,0.00002285,
 -0.00001333,-0.00000143,-0.00000277,-0.00001590,-0.00002126,-0.0000055
 0,-0.00001052,-0.00000412,-0.00000527,-0.00016894,0.00641085,-0.003632
 35,-0.00068949,-0.00982000,-0.02727641,-0.00099641,0.00034881,0.000479
 90,-0.08139560,-0.01176152,-0.07373362,-0.00126037,-0.00250279,0.00201
 140,0.00166228,0.00642336,-0.00022862,-0.00045187,-0.00061121,0.000230
 42,0.00992584,0.00679125,0.01909997,0.07475857,0.00000500,0.00025678,0
 .00073685,-0.00003025,-0.00004897,-0.00002811,0.00006999,-0.00012723,-
 0.00005063,-0.00001671,0.00002050,0.00005390,0.00000362,0.00004570,0.0
 0000722,0.00000248,0.00002223,-0.00002626,0.00000697,-0.00000497,-0.00
 000037,-0.00000661,0.00001073,0.00003844,0.00000666,-0.00001682,-0.000
 00337,-0.00002484,-0.00002840,0.00000865,0.00000352,-0.00000342,0.0000
 0238,-0.00000098,-0.00000151,0.00000802,0.00000175,-0.00000299,-0.0000
 0018,-0.00009574,0.00001369,-0.00004538,0.00001990,-0.00002850,-0.0000
 3536,-0.00001210,-0.00000344,0.00000505,-0.00000276,-0.00001386,0.0000
 1037,0.00000152,-0.00000310,0.00000462,0.00001513,0.00002303,0.0000075
 2,0.00001404,-0.00000501,-0.00002574,-0.00001601,0.00000883,0.00000336
 ,0.00000169,0.00000054,0.00000395,-0.00000733,-0.00001198,-0.00000530,
 -0.00000416,-0.00000042,-0.00000250,0.00631186,0.00300362,-0.00047815,
 0.00569512,0.00985632,0.01649417,0.00036784,-0.00094027,0.00060617,-0.
 01188584,-0.08912642,-0.08911783,-0.00295945,-0.00167992,0.00126550,0.
 00660720,0.00028022,-0.00377801,-0.00059394,-0.00053743,0.00029085,-0.
 00860207,-0.00140796,-0.02590913,0.00779252,0.08230795,0.00022763,-0.0
 0046744,-0.00058670,-0.00003643,0.00005501,-0.00000294,-0.00021035,0.0
 0013054,0.00010941,0.00002971,0.00004029,-0.00008690,-0.00002877,-0.00
 003526,-0.00006001,0.00001146,-0.00000328,0.00002193,0.00000754,0.0000
 0025,0.00000675,-0.00000968,-0.00002230,0.00000071,-0.00000654,-0.0000
 1048,0.00001551,0.00000910,0.00001135,-0.00002391,-0.00000384,-0.00000
 870,-0.00001479,0.00001249,0.00000827,-0.00001823,0.00000121,0.0000004
 5,-0.00001495,0.00008960,0.00011029,-0.00012046,-0.00006868,-0.0000442
 2,0.00005140,-0.00002750,-0.00004781,0.00003218,-0.00001487,0.00000907
 ,0.00001281,0.00001146,-0.00000213,-0.00001145,0.00000316,0.00002382,-
 0.00000723,0.00002258,0.00004129,-0.00001802,-0.00002640,0.00000592,0.
 00001175,-0.00002221,0.00000391,-0.00000236,-0.00000909,-0.00001749,-0
 .00000029,-0.00001751,-0.00000329,0.00000171,-0.00422080,-0.00025121,0
 .00176073,-0.00043474,-0.00853677,-0.00995213,0.00034847,0.00061765,0.
 00073527,-0.07385699,-0.08894244,-0.32347010,0.00111878,0.00211103,0.0
 0029594,0.00017214,-0.00413207,0.00177688,0.00029429,0.00029140,-0.000
 27321,-0.00756962,-0.00102405,-0.00860682,0.08250650,0.09906785,0.3388
 2430,-0.00026599,0.00068685,0.00077655,-0.00032031,0.00016796,-0.00014
 658,0.00001728,-0.00005801,0.00028538,0.00003789,-0.00001231,-0.000100
 88,0.00003673,-0.00000220,-0.00002039,-0.00000078,-0.00002308,0.000015
 69,-0.00001963,0.00001054,0.00001383,-0.00000892,-0.00001550,-0.000014
 24,-0.00001548,-0.00002268,0.00000500,0.00002488,0.00000679,-0.0000411
 0,-0.00001876,-0.00000197,-0.00002377,0.00000261,0.00000522,-0.0000074
 4,-0.00000359,0.00000474,-0.00001266,0.00008964,0.00020220,-0.00013482
 ,-0.00010971,-0.00007238,0.00005081,-0.00011671,-0.00000940,-0.0000194
 0,-0.00000667,0.00000606,0.00000149,0.00001824,-0.00001734,0.00000689,
 0.00000791,0.00000747,-0.00001164,0.00003271,0.00005667,0.00001580,-0.
 00002545,-0.00000873,0.00000961,-0.00001582,-0.00000096,0.00000337,-0.
 00002300,-0.00001794,0.00001609,-0.00000895,-0.00000211,0.00000623,0.0
 0021848,0.00483781,-0.00526785,-0.00054390,-0.00073519,-0.00062347,-0.
 00774707,0.02097876,0.01526685,0.00362463,0.00260502,-0.00414507,-0.00
 049864,-0.00048242,0.00039007,-0.14071036,0.12162548,0.06353461,-0.001
 24436,-0.00291754,0.00101705,0.00974019,-0.00788226,-0.00716374,0.0001
 8856,-0.00039586,-0.00023045,0.13896214,-0.00017212,-0.00035705,-0.000
 68762,0.00013586,-0.00012466,0.00003853,0.00006826,0.00001556,-0.00012
 629,-0.00002442,-0.00002763,-0.00000389,0.00000458,-0.00000402,0.00008
 254,-0.00002974,-0.00000321,0.00002955,-0.00000251,-0.00001008,-0.0000
 1349,-0.00001793,0.00001396,-0.00003974,0.00002108,0.00000018,-0.00002
 228,0.00000153,0.00003907,0.00005837,0.00001142,0.00000082,0.00001526,
 -0.00000083,-0.00002762,0.00002145,0.00000874,-0.00000671,0.00001821,0
 .00002541,-0.00009826,0.00016418,0.00006113,0.00005107,-0.00000431,0.0
 0001772,0.00005639,-0.00001999,0.00001660,0.00000041,-0.00001835,-0.00
 001163,0.00000114,0.00000381,-0.00000677,-0.00002166,0.00001133,-0.000
 00633,-0.00003415,-0.00000421,0.00002235,-0.00000937,-0.00000082,0.000
 01626,-0.00000641,-0.00000596,0.00000241,0.00000879,-0.00000810,0.0000
 1361,0.00000192,-0.00000331,0.00538334,0.00372715,0.00011667,-0.000680
 60,0.00013861,0.00083178,0.00570544,-0.00562870,-0.01030114,0.00235434
 ,0.00469222,-0.00365989,-0.00048677,-0.00065540,0.00027922,0.12155677,
 -0.22158971,-0.10547353,-0.00250334,-0.00160352,0.00188982,0.00737526,
 -0.00189587,-0.00116645,0.00024572,-0.00037144,-0.00010262,-0.13618125
 ,0.22539991,-0.00020018,0.00054479,0.00047398,-0.00010134,0.00011909,-
 0.00004011,0.00006449,-0.00003398,0.00006642,0.00000608,-0.00003511,0.
 00002207,0.00000746,-0.00000039,-0.00002019,0.00000775,-0.00000665,-0.
 00002363,-0.00000889,0.00000432,0.00000216,0.00001477,0.00000571,0.000
 00391,-0.00000563,0.00001155,-0.00000037,0.00000316,-0.00000961,-0.000
 02298,-0.00000444,0.00000530,-0.00000058,-0.00000341,0.00000405,-0.000
 00320,-0.00000429,0.00000330,0.00000135,-0.00003207,0.00002829,-0.0000
 3311,-0.00001934,0.00000868,-0.00000921,0.00002824,-0.00001573,0.00000
 580,-0.00000499,0.00000306,0.00000733,-0.00000031,-0.00000322,-0.00000
 463,-0.00000441,-0.00001413,0.00001255,-0.00001543,-0.00002749,0.00000
 257,0.00000069,0.00000178,-0.00000081,0.00000021,0.00000043,0.00000138
 ,0.00000647,0.00000401,-0.00000431,0.00000257,-0.00000104,-0.00000269,
 -0.00513458,-0.00015794,0.00004315,-0.00063768,0.00070847,-0.00082141,
 -0.01146957,0.01457777,0.01237424,-0.00446802,-0.00332150,-0.00423742,
 0.00037406,0.00028220,-0.00013254,0.06347396,-0.10570557,-0.13142832,0
 .00196812,0.00121474,0.00041200,0.01975794,-0.02604253,-0.00800927,0.0
 0087851,-0.00118017,-0.00066298,-0.06548236,0.11693135,0.13167957,-0.0
 0046759,-0.00044629,0.00022888,0.00003026,-0.00010645,-0.00004112,-0.0
 0006697,0.00000186,0.00002558,0.00001218,0.00004679,-0.00002150,-0.000
 03378,0.00001891,-0.00001975,0.00000595,0.00000769,0.00001780,0.000009
 30,-0.00000598,0.00000519,-0.00001854,-0.00001407,0.00001475,-0.000000
 15,-0.00002011,0.00000534,0.00000490,-0.00000265,-0.00001537,-0.000006
 42,-0.00000664,-0.00001119,0.00000845,0.00000404,-0.00000520,0.0000013
 7,-0.00000047,-0.00001230,-0.00002857,0.00012615,-0.00010730,-0.000051
 29,-0.00005125,0.00002806,-0.00004516,-0.00002509,0.00001954,-0.000010
 93,-0.00000258,0.00001105,0.00000989,-0.00000604,0.00000075,0.00001828
 ,0.00003688,-0.00001107,0.00003081,0.00004613,-0.00002596,-0.00002368,
 0.00000596,0.00000648,-0.00001385,0.00000246,0.00000168,-0.00001516,-0
 .00001985,0.00000351,-0.00001470,-0.00000173,0.00000183,0.00028028,-0.
 00067346,0.00078612,0.00295232,0.00558171,0.00038670,0.00433828,0.0025
 5216,-0.00312021,-0.00787105,0.00512046,-0.01208271,-0.00062423,0.0002
 7622,-0.00043611,-0.00134829,0.00597428,-0.00020822,-0.00030426,0.0001
 7919,-0.00004526,-0.23720724,0.11112102,-0.11479612,-0.00118878,-0.002
 27217,0.00192833,-0.00129780,-0.00292357,0.00100245,0.24293616,-0.0005
 5717,-0.00042844,0.00031026,0.00002896,-0.00004174,-0.00008570,0.00004
 389,0.00001592,-0.00006106,-0.00001250,0.00001269,0.00005263,-0.000027
 21,0.00001235,0.00002930,-0.00000037,0.00000010,0.00000960,-0.00000263
 ,-0.00000732,-0.00000478,-0.00000213,0.00000666,-0.00000301,0.00001112
 ,0.00000319,-0.00001436,0.00000376,0.00000069,0.00000784,-0.00000033,0
 .00000316,0.00000468,-0.00000204,-0.00000779,0.00000906,0.00000081,-0.
 00000015,0.00000638,-0.00009842,0.00006887,0.00001018,-0.00002357,0.00
 000523,0.00001644,0.00000752,0.00002173,0.00001429,-0.00000182,0.00001
 453,-0.00000152,-0.00000533,-0.00000208,-0.00000483,-0.00000712,-0.000
 00811,0.00000794,0.00000377,-0.00001104,-0.00001794,0.00000536,-0.0000
 0842,-0.00000143,0.00000521,-0.00000518,-0.00000023,-0.00000266,0.0000
 0270,-0.00000209,0.00000723,0.00000133,-0.00000268,-0.00055511,-0.0007
 9128,-0.00056519,0.00533691,0.00065431,-0.00523236,0.00276648,0.003920
 34,-0.00446725,0.02059228,-0.00523912,0.01552924,0.00092961,-0.0005894
 3,0.00068181,-0.00933997,0.00965477,-0.00749018,-0.00043329,0.00018458
 ,-0.00023556,0.11106675,-0.11976275,0.05621173,-0.00287206,-0.00148611
 ,0.00112318,-0.00234242,-0.00167175,0.00209614,-0.12452350,0.11547756,
 0.00036975,0.00026956,-0.00006418,-0.00007208,0.00012744,0.00001756,-0
 .00002657,0.00002162,0.00004192,-0.00000733,0.00005520,-0.00002689,-0.
 00003456,-0.00002793,0.00000059,-0.00000537,0.00001294,0.00003860,0.00
 002394,-0.00000438,0.00000361,-0.00000925,-0.00001633,-0.00000046,0.00
 000067,-0.00000549,0.00000944,0.00001446,0.00000539,-0.00000215,-0.000
 00185,-0.00000709,-0.00000648,0.00000535,0.00001057,-0.00000988,0.0000
 0021,0.00000150,-0.00001241,0.00005963,-0.00001460,0.00000782,-0.00000
 459,-0.00000714,0.00000507,0.00000343,-0.00003866,0.00001981,-0.000004
 29,-0.00000311,0.00000289,0.00000267,0.00000110,-0.00000308,-0.0000028
 1,0.00002151,-0.00000833,0.00000971,0.00002295,-0.00002068,-0.00000763
 ,0.00000162,-0.00000020,-0.00000656,0.00000325,-0.00000065,0.00000016,
 -0.00000355,0.00000352,-0.00000791,-0.00000006,0.00000218,0.00071466,-
 0.00058791,-0.00082974,-0.00004746,-0.00478222,0.00031246,-0.00263047,
 -0.00492939,-0.00401174,0.01468342,-0.00941229,0.01251598,0.00064014,-
 0.00036392,0.00034465,-0.02725214,0.01740056,-0.00877488,-0.00115421,0
 .00075848,-0.00064036,-0.11467012,0.05617940,-0.13706897,0.00090110,0.
 00207162,0.00027618,0.00203054,0.00116990,0.00034928,0.12648536,-0.057
 93056,0.13752952||-0.00001139,-0.00000034,0.00001697,0.00000259,0.0000
 0215,-0.00000680,0.00002671,0.00004091,-0.00001065,-0.00001930,-0.0000
 2549,-0.00005595,-0.00001844,-0.00001881,0.00003785,-0.00002119,-0.000
 02361,0.00004899,0.00000686,0.00000434,-0.00000094,-0.00000678,-0.0000
 1718,-0.00004269,0.00000112,0.00000141,-0.00000537,0.00003008,0.000042
 24,0.00000703,0.00000202,0.00000306,-0.00000323,0.00000037,0.00000127,
 0.00000302,-0.00000223,-0.00000294,0.00000134,0.00000543,0.00000526,0.
 00000404,0.00000120,-0.00000128,-0.00000430,-0.00001387,-0.00001642,0.
 00000457,-0.00000361,-0.00000079,0.00000537,-0.00000076,-0.00000085,0.
 00000122,0.00001551,-0.00000426,-0.00000660,-0.00000079,0.00000425,-0.
 00000068,-0.00000035,0.00001242,0.00000115,-0.00000004,-0.00000126,-0.
 00000178,-0.00000144,0.00000263,0.00000248,0.00000120,-0.00000122,-0.0
 0000116,0.00000030,0.00002711,0.00002200,-0.00002134,-0.00000344,-0.00
 002546,0.00003800,-0.00003321,0.00000041,0.00002393,-0.00003160,0.0000
 0493,0.00000269,-0.00000105,0.00000352,-0.00003188,0.00000056,-0.00003
 380,-0.00000161,-0.00000007,0.00000693,-0.00000097,0.00003369,0.000029
 90,-0.00000351,0.00000369,-0.00000046,0.00000211,0.00000074,0.00000283
 ,-0.00000061,-0.00000192,-0.00000469|||@


 Ideas are like rabbits. You get a couple and learn
 how to handle them, and pretty soon you have a dozen.
                                    -- John Steinbeck
 Job cpu time:  0 days  0 hours  6 minutes 28.0 seconds.
 File lengths (MBytes):  RWF=    350 Int=      0 D2E=      0 Chk=      7 Scr=      1
 Normal termination of Gaussian 09 at Mon Sep 06 15:57:19 2021.
