 Entering Link 1 = b:\programy\g09w\l1.exe PID=     15912.
  
 Copyright (c) 1988,1990,1992,1993,1995,1998,2003,2009, Gaussian, Inc.
                  All Rights Reserved.
  
 This is part of the Gaussian(R) 09 program.  It is based on
 the Gaussian(R) 03 system (copyright 2003, Gaussian, Inc.),
 the Gaussian(R) 98 system (copyright 1998, Gaussian, Inc.),
 the Gaussian(R) 94 system (copyright 1995, Gaussian, Inc.),
 the Gaussian 92(TM) system (copyright 1992, Gaussian, Inc.),
 the Gaussian 90(TM) system (copyright 1990, Gaussian, Inc.),
 the Gaussian 88(TM) system (copyright 1988, Gaussian, Inc.),
 the Gaussian 86(TM) system (copyright 1986, Carnegie Mellon
 University), and the Gaussian 82(TM) system (copyright 1983,
 Carnegie Mellon University). Gaussian is a federally registered
 trademark of Gaussian, Inc.
  
 This software contains proprietary and confidential information,
 including trade secrets, belonging to Gaussian, Inc.
  
 This software is provided under written license and may be
 used, copied, transmitted, or stored only in accord with that
 written license.
  
 The following legend is applicable only to US Government
 contracts under FAR:
  
                    RESTRICTED RIGHTS LEGEND
  
 Use, reproduction and disclosure by the US Government is
 subject to restrictions as set forth in subparagraphs (a)
 and (c) of the Commercial Computer Software - Restricted
 Rights clause in FAR 52.227-19.
  
 Gaussian, Inc.
 340 Quinnipiac St., Bldg. 40, Wallingford CT 06492
  
  
 ---------------------------------------------------------------
 Warning -- This program may not be used in any manner that
 competes with the business of Gaussian, Inc. or will provide
 assistance to any competitor of Gaussian, Inc.  The licensee
 of this program is prohibited from giving any competitor of
 Gaussian, Inc. access to this program.  By using this program,
 the user acknowledges that Gaussian, Inc. is engaged in the
 business of creating and licensing software in the field of
 computational chemistry and represents and warrants to the
 licensee that it is not a competitor of Gaussian, Inc. and that
 it will not use this program in any manner prohibited above.
 ---------------------------------------------------------------
  

 Cite this work as:
 Gaussian 09, Revision A.02,
 M. J. Frisch, G. W. Trucks, H. B. Schlegel, G. E. Scuseria, 
 M. A. Robb, J. R. Cheeseman, G. Scalmani, V. Barone, B. Mennucci, 
 G. A. Petersson, H. Nakatsuji, M. Caricato, X. Li, H. P. Hratchian, 
 A. F. Izmaylov, J. Bloino, G. Zheng, J. L. Sonnenberg, M. Hada, 
 M. Ehara, K. Toyota, R. Fukuda, J. Hasegawa, M. Ishida, T. Nakajima, 
 Y. Honda, O. Kitao, H. Nakai, T. Vreven, J. A. Montgomery, Jr., 
 J. E. Peralta, F. Ogliaro, M. Bearpark, J. J. Heyd, E. Brothers, 
 K. N. Kudin, V. N. Staroverov, R. Kobayashi, J. Normand, 
 K. Raghavachari, A. Rendell, J. C. Burant, S. S. Iyengar, J. Tomasi, 
 M. Cossi, N. Rega, J. M. Millam, M. Klene, J. E. Knox, J. B. Cross, 
 V. Bakken, C. Adamo, J. Jaramillo, R. Gomperts, R. E. Stratmann, 
 O. Yazyev, A. J. Austin, R. Cammi, C. Pomelli, J. W. Ochterski, 
 R. L. Martin, K. Morokuma, V. G. Zakrzewski, G. A. Voth, 
 P. Salvador, J. J. Dannenberg, S. Dapprich, A. D. Daniels, 
 O. Farkas, J. B. Foresman, J. V. Ortiz, J. Cioslowski, 
 and D. J. Fox, Gaussian, Inc., Wallingford CT, 2009.
 
 ******************************************
 Gaussian 09:  IA32W-G09RevA.02 11-Jun-2009
                06-Sep-2021 
 ******************************************
 %nprocshared=12
 Will use up to   12 processors via shared memory.
 ----------------------------------------------
 # opt freq=noraman hf/6-311g geom=connectivity
 ----------------------------------------------
 1/18=20,19=15,38=1,57=2/1,3;
 2/9=110,12=2,17=6,18=5,40=1/2;
 3/5=4,6=6,11=9,16=1,25=1,30=1,71=1/1,2,3;
 4//1;
 5/5=2,38=5/2;
 6/7=2,8=2,9=2,10=2,28=1/1;
 7//1,2,3,16;
 1/18=20,19=15/3(2);
 2/9=110/2;
 99//99;
 2/9=110/2;
 3/5=4,6=6,11=9,16=1,25=1,30=1,71=1/1,2,3;
 4/5=5,16=3/1;
 5/5=2,38=5/2;
 7//1,2,3,16;
 1/18=20,19=15/3(-5);
 2/9=110/2;
 6/7=2,8=2,9=2,10=2,19=2,28=1/1;
 99/9=1/99;
 -----
 M0001
 -----
 Symbolic Z-matrix:
 Charge =  0 Multiplicity = 1
 C                    -0.11994   0.75257   0.09552 
 H                    -0.26624   1.84932   0.29311 
 C                    -0.34203   0.55519  -1.38346 
 C                    -0.61334  -0.69313  -1.94634 
 C                    -0.26763   1.67248  -2.22095 
 C                    -0.81158  -0.8221   -3.31631 
 H                    -0.6775   -1.57967  -1.29497 
 C                    -0.46239   1.5413   -3.59066 
 H                    -0.05271   2.66091  -1.79762 
 C                    -0.73598   0.29391  -4.14166 
 H                    -1.02861  -1.80644  -3.74381 
 H                    -0.40066   2.42336  -4.23645 
 H                    -0.89164   0.19179  -5.22029 
 C                     1.28801   0.42295   0.5303 
 C                     2.04296  -0.58569  -0.06756 
 C                     1.84773   1.15835   1.58023 
 C                     3.33449  -0.85407   0.3738 
 H                     1.62035  -1.16599  -0.89774 
 C                     3.13697   0.88702   2.02093 
 H                     1.26586   1.95232   2.06287 
 C                     3.884    -0.11995   1.41811 
 H                     3.91847  -1.64634  -0.10579 
 H                     3.56524   1.46795   2.84426 
 H                     4.90044  -0.33192   1.76467 
 C                    -1.11909   0.01303   0.95117 
 C                    -2.06194   0.74409   1.67817 
 C                    -1.11461  -1.37901   1.0538 
 C                    -2.97736   0.092     2.4966 
 H                    -2.08179   1.83801   1.60592 
 C                    -2.02742  -2.02913   1.87547 
 H                    -0.39084  -1.95482   0.45719 
 C                    -2.95979  -1.29453   2.59999 
 H                    -3.71252   0.6734    3.06213 
 H                    -2.01065  -3.12104   1.95109 
 H                    -3.67828  -1.80613   3.24831 
 

 GradGradGradGradGradGradGradGradGradGradGradGradGradGradGradGradGradGrad
 Berny optimization.
 Initialization pass.
                           ----------------------------
                           !    Initial Parameters    !
                           ! (Angstroms and Degrees)  !
 --------------------------                            --------------------------
 ! Name  Definition              Value          Derivative Info.                !
 --------------------------------------------------------------------------------
 ! R1    R(1,2)                  1.124          estimate D2E/DX2                !
 ! R2    R(1,3)                  1.5085         estimate D2E/DX2                !
 ! R3    R(1,14)                 1.51           estimate D2E/DX2                !
 ! R4    R(1,25)                 1.5091         estimate D2E/DX2                !
 ! R5    R(3,4)                  1.396          estimate D2E/DX2                !
 ! R6    R(3,5)                  1.3983         estimate D2E/DX2                !
 ! R7    R(4,6)                  1.3902         estimate D2E/DX2                !
 ! R8    R(4,7)                  1.102          estimate D2E/DX2                !
 ! R9    R(5,8)                  1.3897         estimate D2E/DX2                !
 ! R10   R(5,9)                  1.0965         estimate D2E/DX2                !
 ! R11   R(6,10)                 1.3901         estimate D2E/DX2                !
 ! R12   R(6,11)                 1.0949         estimate D2E/DX2                !
 ! R13   R(8,10)                 1.3908         estimate D2E/DX2                !
 ! R14   R(8,12)                 1.0949         estimate D2E/DX2                !
 ! R15   R(10,13)                1.0946         estimate D2E/DX2                !
 ! R16   R(14,15)                1.3945         estimate D2E/DX2                !
 ! R17   R(14,16)                1.3987         estimate D2E/DX2                !
 ! R18   R(15,17)                1.391          estimate D2E/DX2                !
 ! R19   R(15,18)                1.0975         estimate D2E/DX2                !
 ! R20   R(16,19)                1.3892         estimate D2E/DX2                !
 ! R21   R(16,20)                1.0963         estimate D2E/DX2                !
 ! R22   R(17,21)                1.3898         estimate D2E/DX2                !
 ! R23   R(17,22)                1.0949         estimate D2E/DX2                !
 ! R24   R(19,21)                1.3912         estimate D2E/DX2                !
 ! R25   R(19,23)                1.0949         estimate D2E/DX2                !
 ! R26   R(21,24)                1.0946         estimate D2E/DX2                !
 ! R27   R(25,26)                1.3971         estimate D2E/DX2                !
 ! R28   R(25,27)                1.3958         estimate D2E/DX2                !
 ! R29   R(26,28)                1.3903         estimate D2E/DX2                !
 ! R30   R(26,29)                1.0965         estimate D2E/DX2                !
 ! R31   R(27,30)                1.3896         estimate D2E/DX2                !
 ! R32   R(27,31)                1.1006         estimate D2E/DX2                !
 ! R33   R(28,32)                1.3905         estimate D2E/DX2                !
 ! R34   R(28,33)                1.0947         estimate D2E/DX2                !
 ! R35   R(30,32)                1.3906         estimate D2E/DX2                !
 ! R36   R(30,34)                1.0947         estimate D2E/DX2                !
 ! R37   R(32,35)                1.0947         estimate D2E/DX2                !
 ! A1    A(2,1,3)              106.3117         estimate D2E/DX2                !
 ! A2    A(2,1,14)             106.4851         estimate D2E/DX2                !
 ! A3    A(2,1,25)             106.9973         estimate D2E/DX2                !
 ! A4    A(3,1,14)             113.0179         estimate D2E/DX2                !
 ! A5    A(3,1,25)             113.2216         estimate D2E/DX2                !
 ! A6    A(14,1,25)            110.3112         estimate D2E/DX2                !
 ! A7    A(1,3,4)              122.7473         estimate D2E/DX2                !
 ! A8    A(1,3,5)              118.3473         estimate D2E/DX2                !
 ! A9    A(4,3,5)              118.905          estimate D2E/DX2                !
 ! A10   A(3,4,6)              120.5312         estimate D2E/DX2                !
 ! A11   A(3,4,7)              119.4973         estimate D2E/DX2                !
 ! A12   A(6,4,7)              119.9699         estimate D2E/DX2                !
 ! A13   A(3,5,8)              120.4934         estimate D2E/DX2                !
 ! A14   A(3,5,9)              119.9645         estimate D2E/DX2                !
 ! A15   A(8,5,9)              119.542          estimate D2E/DX2                !
 ! A16   A(4,6,10)             120.1887         estimate D2E/DX2                !
 ! A17   A(4,6,11)             119.7636         estimate D2E/DX2                !
 ! A18   A(10,6,11)            120.0477         estimate D2E/DX2                !
 ! A19   A(5,8,10)             120.1784         estimate D2E/DX2                !
 ! A20   A(5,8,12)             119.8263         estimate D2E/DX2                !
 ! A21   A(10,8,12)            119.9953         estimate D2E/DX2                !
 ! A22   A(6,10,8)             119.7026         estimate D2E/DX2                !
 ! A23   A(6,10,13)            120.1622         estimate D2E/DX2                !
 ! A24   A(8,10,13)            120.1352         estimate D2E/DX2                !
 ! A25   A(1,14,15)            122.6311         estimate D2E/DX2                !
 ! A26   A(1,14,16)            118.3267         estimate D2E/DX2                !
 ! A27   A(15,14,16)           119.0413         estimate D2E/DX2                !
 ! A28   A(14,15,17)           120.4093         estimate D2E/DX2                !
 ! A29   A(14,15,18)           119.8845         estimate D2E/DX2                !
 ! A30   A(17,15,18)           119.7037         estimate D2E/DX2                !
 ! A31   A(14,16,19)           120.4508         estimate D2E/DX2                !
 ! A32   A(14,16,20)           119.9226         estimate D2E/DX2                !
 ! A33   A(19,16,20)           119.6262         estimate D2E/DX2                !
 ! A34   A(15,17,21)           120.2398         estimate D2E/DX2                !
 ! A35   A(15,17,22)           119.7273         estimate D2E/DX2                !
 ! A36   A(21,17,22)           120.0329         estimate D2E/DX2                !
 ! A37   A(16,19,21)           120.1473         estimate D2E/DX2                !
 ! A38   A(16,19,23)           119.8627         estimate D2E/DX2                !
 ! A39   A(21,19,23)           119.99           estimate D2E/DX2                !
 ! A40   A(17,21,19)           119.7114         estimate D2E/DX2                !
 ! A41   A(17,21,24)           120.183          estimate D2E/DX2                !
 ! A42   A(19,21,24)           120.1056         estimate D2E/DX2                !
 ! A43   A(1,25,26)            119.0405         estimate D2E/DX2                !
 ! A44   A(1,25,27)            121.8901         estimate D2E/DX2                !
 ! A45   A(26,25,27)           119.0613         estimate D2E/DX2                !
 ! A46   A(25,26,28)           120.3467         estimate D2E/DX2                !
 ! A47   A(25,26,29)           119.9977         estimate D2E/DX2                !
 ! A48   A(28,26,29)           119.6556         estimate D2E/DX2                !
 ! A49   A(25,27,30)           120.5271         estimate D2E/DX2                !
 ! A50   A(25,27,31)           118.9471         estimate D2E/DX2                !
 ! A51   A(30,27,31)           120.5131         estimate D2E/DX2                !
 ! A52   A(26,28,32)           120.207          estimate D2E/DX2                !
 ! A53   A(26,28,33)           119.8142         estimate D2E/DX2                !
 ! A54   A(32,28,33)           119.9787         estimate D2E/DX2                !
 ! A55   A(27,30,32)           120.0888         estimate D2E/DX2                !
 ! A56   A(27,30,34)           119.8318         estimate D2E/DX2                !
 ! A57   A(32,30,34)           120.0794         estimate D2E/DX2                !
 ! A58   A(28,32,30)           119.7669         estimate D2E/DX2                !
 ! A59   A(28,32,35)           120.1172         estimate D2E/DX2                !
 ! A60   A(30,32,35)           120.1159         estimate D2E/DX2                !
 ! D1    D(2,1,3,4)           -161.6645         estimate D2E/DX2                !
 ! D2    D(2,1,3,5)             18.5404         estimate D2E/DX2                !
 ! D3    D(14,1,3,4)            81.8756         estimate D2E/DX2                !
 ! D4    D(14,1,3,5)           -97.9194         estimate D2E/DX2                !
 ! D5    D(25,1,3,4)           -44.4711         estimate D2E/DX2                !
 ! D6    D(25,1,3,5)           135.7338         estimate D2E/DX2                !
 ! D7    D(2,1,14,15)         -149.8914         estimate D2E/DX2                !
 ! D8    D(2,1,14,16)           30.4649         estimate D2E/DX2                !
 ! D9    D(3,1,14,15)          -33.5343         estimate D2E/DX2                !
 ! D10   D(3,1,14,16)          146.822          estimate D2E/DX2                !
 ! D11   D(25,1,14,15)          94.3485         estimate D2E/DX2                !
 ! D12   D(25,1,14,16)         -85.2952         estimate D2E/DX2                !
 ! D13   D(2,1,25,26)            5.7948         estimate D2E/DX2                !
 ! D14   D(2,1,25,27)         -173.1589         estimate D2E/DX2                !
 ! D15   D(3,1,25,26)         -110.9958         estimate D2E/DX2                !
 ! D16   D(3,1,25,27)           70.0504         estimate D2E/DX2                !
 ! D17   D(14,1,25,26)         121.2334         estimate D2E/DX2                !
 ! D18   D(14,1,25,27)         -57.7203         estimate D2E/DX2                !
 ! D19   D(1,3,4,6)            179.9492         estimate D2E/DX2                !
 ! D20   D(1,3,4,7)              0.4088         estimate D2E/DX2                !
 ! D21   D(5,3,4,6)             -0.2568         estimate D2E/DX2                !
 ! D22   D(5,3,4,7)           -179.7972         estimate D2E/DX2                !
 ! D23   D(1,3,5,8)            179.8821         estimate D2E/DX2                !
 ! D24   D(1,3,5,9)             -0.0258         estimate D2E/DX2                !
 ! D25   D(4,3,5,8)              0.079          estimate D2E/DX2                !
 ! D26   D(4,3,5,9)           -179.8289         estimate D2E/DX2                !
 ! D27   D(3,4,6,10)             0.2534         estimate D2E/DX2                !
 ! D28   D(3,4,6,11)          -179.6919         estimate D2E/DX2                !
 ! D29   D(7,4,6,10)           179.7916         estimate D2E/DX2                !
 ! D30   D(7,4,6,11)            -0.1536         estimate D2E/DX2                !
 ! D31   D(3,5,8,10)             0.1031         estimate D2E/DX2                !
 ! D32   D(3,5,8,12)          -179.9385         estimate D2E/DX2                !
 ! D33   D(9,5,8,10)          -179.9885         estimate D2E/DX2                !
 ! D34   D(9,5,8,12)            -0.0301         estimate D2E/DX2                !
 ! D35   D(4,6,10,8)            -0.0682         estimate D2E/DX2                !
 ! D36   D(4,6,10,13)          179.9697         estimate D2E/DX2                !
 ! D37   D(11,6,10,8)          179.8769         estimate D2E/DX2                !
 ! D38   D(11,6,10,13)          -0.0852         estimate D2E/DX2                !
 ! D39   D(5,8,10,6)            -0.1091         estimate D2E/DX2                !
 ! D40   D(5,8,10,13)          179.8531         estimate D2E/DX2                !
 ! D41   D(12,8,10,6)          179.9326         estimate D2E/DX2                !
 ! D42   D(12,8,10,13)          -0.1053         estimate D2E/DX2                !
 ! D43   D(1,14,15,17)        -179.7299         estimate D2E/DX2                !
 ! D44   D(1,14,15,18)           0.8424         estimate D2E/DX2                !
 ! D45   D(16,14,15,17)         -0.0886         estimate D2E/DX2                !
 ! D46   D(16,14,15,18)       -179.5163         estimate D2E/DX2                !
 ! D47   D(1,14,16,19)         179.6329         estimate D2E/DX2                !
 ! D48   D(1,14,16,20)          -0.1389         estimate D2E/DX2                !
 ! D49   D(15,14,16,19)         -0.0239         estimate D2E/DX2                !
 ! D50   D(15,14,16,20)       -179.7957         estimate D2E/DX2                !
 ! D51   D(14,15,17,21)          0.1307         estimate D2E/DX2                !
 ! D52   D(14,15,17,22)       -179.801          estimate D2E/DX2                !
 ! D53   D(18,15,17,21)        179.5595         estimate D2E/DX2                !
 ! D54   D(18,15,17,22)         -0.3722         estimate D2E/DX2                !
 ! D55   D(14,16,19,21)          0.0949         estimate D2E/DX2                !
 ! D56   D(14,16,19,23)       -179.9357         estimate D2E/DX2                !
 ! D57   D(20,16,19,21)        179.8674         estimate D2E/DX2                !
 ! D58   D(20,16,19,23)         -0.1632         estimate D2E/DX2                !
 ! D59   D(15,17,21,19)         -0.0591         estimate D2E/DX2                !
 ! D60   D(15,17,21,24)       -179.9994         estimate D2E/DX2                !
 ! D61   D(22,17,21,19)        179.8724         estimate D2E/DX2                !
 ! D62   D(22,17,21,24)         -0.0679         estimate D2E/DX2                !
 ! D63   D(16,19,21,17)         -0.0532         estimate D2E/DX2                !
 ! D64   D(16,19,21,24)        179.8871         estimate D2E/DX2                !
 ! D65   D(23,19,21,17)        179.9774         estimate D2E/DX2                !
 ! D66   D(23,19,21,24)         -0.0823         estimate D2E/DX2                !
 ! D67   D(1,25,26,28)        -178.671          estimate D2E/DX2                !
 ! D68   D(1,25,26,29)           1.2548         estimate D2E/DX2                !
 ! D69   D(27,25,26,28)          0.3127         estimate D2E/DX2                !
 ! D70   D(27,25,26,29)       -179.7615         estimate D2E/DX2                !
 ! D71   D(1,25,27,30)         178.4356         estimate D2E/DX2                !
 ! D72   D(1,25,27,31)          -2.8581         estimate D2E/DX2                !
 ! D73   D(26,25,27,30)         -0.5179         estimate D2E/DX2                !
 ! D74   D(26,25,27,31)        178.1884         estimate D2E/DX2                !
 ! D75   D(25,26,28,32)          0.1262         estimate D2E/DX2                !
 ! D76   D(25,26,28,33)       -179.9821         estimate D2E/DX2                !
 ! D77   D(29,26,28,32)       -179.7999         estimate D2E/DX2                !
 ! D78   D(29,26,28,33)          0.0918         estimate D2E/DX2                !
 ! D79   D(25,27,30,32)          0.2843         estimate D2E/DX2                !
 ! D80   D(25,27,30,34)       -179.7096         estimate D2E/DX2                !
 ! D81   D(31,27,30,32)       -178.4017         estimate D2E/DX2                !
 ! D82   D(31,27,30,34)          1.6045         estimate D2E/DX2                !
 ! D83   D(26,28,32,30)         -0.3644         estimate D2E/DX2                !
 ! D84   D(26,28,32,35)        179.7235         estimate D2E/DX2                !
 ! D85   D(33,28,32,30)        179.744          estimate D2E/DX2                !
 ! D86   D(33,28,32,35)         -0.1681         estimate D2E/DX2                !
 ! D87   D(27,30,32,28)          0.1601         estimate D2E/DX2                !
 ! D88   D(27,30,32,35)       -179.9278         estimate D2E/DX2                !
 ! D89   D(34,30,32,28)       -179.846          estimate D2E/DX2                !
 ! D90   D(34,30,32,35)          0.0661         estimate D2E/DX2                !
 --------------------------------------------------------------------------------
 Trust Radius=3.00D-01 FncErr=1.00D-07 GrdErr=1.00D-07
 Number of steps in this run= 197 maximum allowed number of steps= 210.
 GradGradGradGradGradGradGradGradGradGradGradGradGradGradGradGradGradGrad

                          Input orientation:                          
 ---------------------------------------------------------------------
 Center     Atomic      Atomic             Coordinates (Angstroms)
 Number     Number       Type             X           Y           Z
 ---------------------------------------------------------------------
      1          6           0       -0.119936    0.752570    0.095519
      2          1           0       -0.266244    1.849321    0.293108
      3          6           0       -0.342032    0.555188   -1.383463
      4          6           0       -0.613342   -0.693125   -1.946340
      5          6           0       -0.267625    1.672476   -2.220952
      6          6           0       -0.811576   -0.822095   -3.316310
      7          1           0       -0.677498   -1.579667   -1.294967
      8          6           0       -0.462389    1.541300   -3.590661
      9          1           0       -0.052712    2.660909   -1.797624
     10          6           0       -0.735975    0.293911   -4.141665
     11          1           0       -1.028611   -1.806444   -3.743809
     12          1           0       -0.400657    2.423359   -4.236446
     13          1           0       -0.891636    0.191790   -5.220294
     14          6           0        1.288007    0.422952    0.530303
     15          6           0        2.042958   -0.585695   -0.067555
     16          6           0        1.847733    1.158348    1.580231
     17          6           0        3.334493   -0.854073    0.373795
     18          1           0        1.620347   -1.165995   -0.897740
     19          6           0        3.136970    0.887024    2.020930
     20          1           0        1.265861    1.952324    2.062866
     21          6           0        3.883997   -0.119948    1.418110
     22          1           0        3.918474   -1.646341   -0.105794
     23          1           0        3.565239    1.467950    2.844256
     24          1           0        4.900444   -0.331922    1.764675
     25          6           0       -1.119095    0.013031    0.951166
     26          6           0       -2.061941    0.744086    1.678166
     27          6           0       -1.114614   -1.379010    1.053803
     28          6           0       -2.977360    0.092003    2.496597
     29          1           0       -2.081787    1.838015    1.605917
     30          6           0       -2.027418   -2.029129    1.875473
     31          1           0       -0.390837   -1.954816    0.457194
     32          6           0       -2.959787   -1.294533    2.599992
     33          1           0       -3.712517    0.673401    3.062125
     34          1           0       -2.010652   -3.121037    1.951088
     35          1           0       -3.678282   -1.806130    3.248305
 ---------------------------------------------------------------------
                    Distance matrix (angstroms):
                    1          2          3          4          5
     1  C    0.000000
     2  H    1.123971   0.000000
     3  C    1.508534   2.119296   0.000000
     4  C    2.550034   3.405824   1.395967   0.000000
     5  C    2.496813   2.520272   1.398305   2.406450   0.000000
     6  C    3.820800   4.523466   2.419354   1.390233   2.778232
     7  H    2.771941   3.801193   2.162862   1.101979   3.406152
     8  C    3.785141   3.900898   2.420459   2.778351   1.389692
     9  H    2.688915   2.252871   2.165478   3.403816   1.096537
    10  C    4.306228   4.723045   2.798416   2.410131   2.410172
    11  H    4.702625   5.499319   3.408801   2.154721   3.873122
    12  H    4.651480   4.567762   3.410720   3.873280   2.154934
    13  H    5.400728   5.791038   3.892992   3.402837   3.402627
    14  C    1.509963   2.122849   2.517343   3.315798   3.398632
    15  C    2.548658   3.375174   2.953203   3.255350   3.882685
    16  C    2.498148   2.569636   3.733946   4.682044   4.380417
    17  C    3.819924   4.503350   4.311706   4.581957   5.107975
    18  H    2.774174   3.750930   2.655057   2.512475   3.656808
    19  C    3.785858   3.936147   4.878879   5.683391   5.495613
    20  H    2.688921   2.343076   4.051481   5.157862   4.558617
    21  C    4.306043   4.729498   5.115070   5.645716   5.804439
    22  H    4.701496   5.467234   4.962971   4.983331   5.745596
    23  H    4.652723   4.618881   5.828680   6.714208   6.355235
    24  H    5.400594   5.798103   6.179101   6.656120   6.827281
    25  C    1.509095   2.128933   2.519575   3.024894   3.679822
    26  C    2.505240   2.522788   3.516723   4.159454   4.391423
    27  C    2.539946   3.423523   3.205974   3.118103   4.555543
    28  C    3.790303   3.910714   4.713211   5.093593   5.665317
    29  H    2.703397   2.240490   3.689010   4.602340   4.238338
    30  C    3.813735   4.544006   4.487748   4.288446   5.794777
    31  H    2.744838   3.809713   3.112960   2.723664   4.510531
    32  C    4.304389   4.739273   5.112927   5.151371   6.268362
    33  H    4.659792   4.574609   5.580090   6.046239   6.385635
    34  H    4.692844   5.522348   5.236235   4.799706   6.589524
    35  H    5.398966   5.808401   6.177351   6.133268   7.324346
                    6          7          8          9         10
     6  C    0.000000
     7  H    2.162803   0.000000
     8  C    2.404753   3.880324   0.000000
     9  H    3.874738   4.315727   2.153216   0.000000
    10  C    1.390106   3.408430   1.390839   3.400596   0.000000
    11  H    1.094898   2.484257   3.398742   4.969633   2.157641
    12  H    3.398305   4.975254   1.094933   2.474944   2.157770
    13  H    2.158595   4.311856   2.158966   4.302907   1.094578
    14  C    4.555745   3.347432   4.614859   3.496458   5.093175
    15  C    4.331126   3.145696   4.818002   4.233840   5.009445
    16  C    5.913559   4.705346   5.676392   4.156836   6.337419
    17  C    5.550476   4.405375   5.989243   5.342594   6.186756
    18  H    3.447026   2.368334   4.349604   4.272482   4.266922
    19  C    6.855525   5.624047   6.698761   5.282243   7.302674
    20  H    6.399116   5.246585   5.926058   4.140545   6.727101
    21  C    6.704934   5.504435   6.836563   5.794116   7.240615
    22  H    5.775826   4.747793   6.441841   6.097951   6.458849
    23  H    7.896416   6.664980   7.591793   6.004979   8.287454
    24  H    7.660538   6.483187   7.806955   6.795642   8.188145
    25  C    4.359284   2.788693   4.836844   3.962862   5.114939
    26  C    5.381554   4.019457   5.563690   4.448857   5.985923
    27  C    4.415866   2.397511   5.524912   5.057590   5.471281
    28  C    6.270253   4.739177   6.743904   5.795962   7.009357
    29  H    5.737416   4.697628   5.451139   4.047023   6.101653
    30  C    5.467157   3.475053   6.713858   6.275951   6.578015
    31  H    3.962248   1.814657   5.349119   5.148150   5.130828
    32  C    6.311943   4.523367   7.252801   6.590571   7.274505
    33  H    7.164943   5.768181   7.454941   6.400119   7.803743
    34  H    5.870980   3.832754   7.405774   7.163608   7.099881
    35  H    7.230525   5.449524   8.265513   7.652490   8.226724
                   11         12         13         14         15
    11  H    0.000000
    12  H    4.304445   0.000000
    13  H    2.488315   2.487753   0.000000
    14  C    5.348360   5.438300   6.154157   0.000000
    15  C    4.943643   5.692566   5.980555   1.394545   0.000000
    16  C    6.738600   6.363116   7.394965   1.398731   2.407280
    17  C    6.074401   6.778439   7.088570   2.417311   1.390999
    18  H    3.940464   5.302346   5.180551   2.162062   1.097523
    19  C    7.605198   7.350502   8.315547   2.419916   2.779843
    20  H    7.287689   6.533031   7.797352   2.165230   3.403545
    21  C    7.322799   7.536622   8.183657   2.796803   2.411129
    22  H    6.142836   7.230466   7.257686   3.406751   2.154993
    23  H    8.673391   8.171749   9.302112   3.410599   3.874718
    24  H    8.226256   8.467980   9.089128   3.891428   3.403923
    25  C    5.036017   5.765168   6.178237   2.477761   3.375625
    26  C    6.080361   6.368867   7.018789   3.555680   4.654681
    27  C    4.817383   6.553967   6.471586   3.048558   3.443408
    28  C    6.807671   7.576839   7.994411   4.708417   5.677829
    29  H    6.558264   6.107540   7.122056   3.809837   5.068373
    30  C    5.711701   7.734763   7.521462   4.337536   4.735697
    31  H    4.251728   6.418627   6.090368   2.911639   2.841340
    32  C    6.650962   8.191993   8.224553   5.027635   5.713643
    33  H    7.724877   8.203653   8.762864   5.610534   6.671261
    34  H    5.926585   8.462742   7.978456   5.045755   5.189860
    35  H    7.477327   9.200702   9.136425   6.084436   6.724357
                   16         17         18         19         20
    16  C    0.000000
    17  C    2.777729   0.000000
    18  H    3.405087   2.156941   0.000000
    19  C    1.389232   2.404888   3.877327   0.000000
    20  H    1.096317   3.874024   4.314484   2.153525   0.000000
    21  C    2.409708   1.389779   3.403158   1.391198   3.400685
    22  H    3.872587   1.094865   2.477762   3.398770   4.968887
    23  H    2.154865   3.398266   4.972204   1.094877   2.476353
    24  H    3.402053   2.158562   4.306178   2.159013   4.303125
    25  C    3.241842   4.573803   3.509002   4.474633   3.268753
    26  C    3.932779   5.777282   4.882924   5.212158   3.561193
    27  C    3.935836   4.531283   3.366587   4.913879   4.216949
    28  C    5.025768   6.726131   5.851751   6.184121   4.653369
    29  H    3.987949   6.172646   5.384995   5.320906   3.380624
    30  C    5.026327   5.690860   4.662821   5.932622   5.170374
    31  H    3.995522   3.885444   2.550087   4.792363   4.537464
    32  C    5.492611   6.690883   5.764397   6.501149   5.355995
    33  H    5.774735   7.695496   6.892268   6.931464   5.236260
    34  H    5.773890   6.016441   5.012202   6.524373   6.040450
    35  H    6.489025   7.638602   6.758323   7.430154   6.322642
                   21         22         23         24         25
    21  C    0.000000
    22  H    2.157162   0.000000
    23  H    2.157990   4.304228   0.000000
    24  H    1.094626   2.488094   2.487531   0.000000
    25  C    5.026593   5.408122   5.257714   6.084047   0.000000
    26  C    6.014013   6.682965   5.792141   7.045571   1.397114
    27  C    5.167598   5.171858   5.762979   6.146760   1.395827
    28  C    6.948833   7.572768   6.694752   7.923081   2.418210
    29  H    6.281677   7.146596   5.793042   7.313370   2.164726
    30  C    6.228882   6.278979   6.666777   7.133586   2.418638
    31  H    4.750190   4.356865   5.750124   5.686910   2.155642
    32  C    7.043711   7.399697   7.089918   7.962889   2.795800
    33  H    7.812760   8.581897   7.324241   8.767962   3.408530
    34  H    6.636075   6.446707   7.276477   7.455009   3.408388
    35  H    7.961211   8.305794   7.959362   8.830005   3.890454
                   26         27         28         29         30
    26  C    0.000000
    27  C    2.407237   0.000000
    28  C    1.390336   2.777652   0.000000
    29  H    1.096491   3.404335   2.154975   0.000000
    30  C    2.780439   1.389607   2.405698   3.876908   0.000000
    31  H    3.401093   1.100613   3.877981   4.308648   2.166895
    32  C    2.410780   2.408837   1.390497   3.401753   1.390636
    33  H    2.155167   3.872318   1.094670   2.477125   3.398731
    34  H    3.875087   2.154685   3.399372   4.971559   1.094652
    35  H    3.403160   3.401568   2.158533   4.304187   2.158645
                   31         32         33         34         35
    31  H    0.000000
    32  C    3.409847   0.000000
    33  H    4.972600   2.157067   0.000000
    34  H    2.493110   2.158251   4.304476   0.000000
    35  H    4.315056   1.094659   2.486747   2.488522   0.000000
 Stoichiometry    C19H16
 Framework group  C1[X(C19H16)]
 Deg. of freedom    99
 Full point group                 C1      NOp   1
 Largest Abelian subgroup         C1      NOp   1
 Largest concise Abelian subgroup C1      NOp   1
                         Standard orientation:                         
 ---------------------------------------------------------------------
 Center     Atomic      Atomic             Coordinates (Angstroms)
 Number     Number       Type             X           Y           Z
 ---------------------------------------------------------------------
      1          6           0        0.022359   -0.013842   -0.753676
      2          1           0       -0.000303   -0.006893   -1.877397
      3          6           0        1.455089   -0.275176   -0.360402
      4          6           0        1.819895   -0.720067    0.911492
      5          6           0        2.455395   -0.056828   -1.312751
      6          6           0        3.155320   -0.947353    1.224106
      7          1           0        1.039230   -0.898517    1.668509
      8          6           0        3.790178   -0.280976   -0.997544
      9          1           0        2.188627    0.295312   -2.316357
     10          6           0        4.143428   -0.727880    0.271284
     11          1           0        3.426870   -1.301077    2.224078
     12          1           0        4.564655   -0.105486   -1.751379
     13          1           0        5.194764   -0.906497    0.518039
     14          6           0       -0.475058    1.339959   -0.306702
     15          6           0       -0.050512    1.944073    0.876330
     16          6           0       -1.404214    2.005138   -1.113333
     17          6           0       -0.543503    3.191002    1.246473
     18          1           0        0.684127    1.438053    1.515709
     19          6           0       -1.896994    3.249382   -0.740520
     20          1           0       -1.750423    1.542001   -2.044759
     21          6           0       -1.467193    3.845826    0.440563
     22          1           0       -0.200063    3.656492    2.176041
     23          1           0       -2.624827    3.761025   -1.378670
     24          1           0       -1.854527    4.827057    0.732732
     25          6           0       -0.926133   -1.096387   -0.299994
     26          6           0       -1.519238   -1.923324   -1.257246
     27          6           0       -1.244316   -1.281288    1.046447
     28          6           0       -2.418343   -2.911323   -0.871885
     29          1           0       -1.277308   -1.794110   -2.318880
     30          6           0       -2.146344   -2.266396    1.429738
     31          1           0       -0.753238   -0.648860    1.801581
     32          6           0       -2.736572   -3.082494    0.470841
     33          1           0       -2.877715   -3.554560   -1.629200
     34          1           0       -2.391249   -2.398352    2.488451
     35          1           0       -3.448099   -3.857870    0.772171
 ---------------------------------------------------------------------
 Rotational constants (GHZ):      0.4000928      0.3719611      0.2368773
 Standard basis: 6-311G (5D, 7F)
 There are   295 symmetry adapted basis functions of A   symmetry.
 Integral buffers will be    262144 words long.
 Raffenetti 1 integral format.
 Two-electron integral symmetry is turned on.
   295 basis functions,   574 primitive gaussians,   295 cartesian basis functions
    65 alpha electrons       65 beta electrons
       nuclear repulsion energy      1288.3378858412 Hartrees.
 NAtoms=   35 NActive=   35 NUniq=   35 SFac= 7.50D-01 NAtFMM=   80 NAOKFM=F Big=F
 One-electron integrals computed using PRISM.
 PrsmSu:  requested number of processors reduced to:  10 ShMem   1 Linda.
 NBasis=   295 RedAO= T  NBF=   295
 NBsUse=   295 1.00D-06 NBFU=   295
 Harris functional with IExCor=  205 diagonalized for initial guess.
 ExpMin= 1.03D-01 ExpMax= 4.56D+03 ExpMxC= 6.82D+02 IAcc=1 IRadAn=         1 AccDes= 0.00D+00
 HarFok:  IExCor=  205 AccDes= 0.00D+00 IRadAn=         1 IDoV= 1
 ScaDFX=  1.000000  1.000000  1.000000  1.000000
 FoFCou: FMM=F IPFlag=           0 FMFlag=      100000 FMFlg1=           0
         NFxFlg=           0 DoJE=T BraDBF=F KetDBF=T FulRan=T
         Omega=  0.000000  0.000000  1.000000  0.000000  0.000000 ICntrl=     500 IOpCl=  0
         NMat0=    1 NMatS0=    1 NMatT0=    0 NMatD0=    1 NMtDS0=    0 NMtDT0=    0
         I1Cent=           4 NGrid=           0.
 Petite list used in FoFCou.
 Initial guess orbital symmetries:
       Occupied  (A) (A) (A) (A) (A) (A) (A) (A) (A) (A) (A) (A)
                 (A) (A) (A) (A) (A) (A) (A) (A) (A) (A) (A) (A)
                 (A) (A) (A) (A) (A) (A) (A) (A) (A) (A) (A) (A)
                 (A) (A) (A) (A) (A) (A) (A) (A) (A) (A) (A) (A)
                 (A) (A) (A) (A) (A) (A) (A) (A) (A) (A) (A) (A)
                 (A) (A) (A) (A) (A)
       Virtual   (A) (A) (A) (A) (A) (A) (A) (A) (A) (A) (A) (A)
                 (A) (A) (A) (A) (A) (A) (A) (A) (A) (A) (A) (A)
                 (A) (A) (A) (A) (A) (A) (A) (A) (A) (A) (A) (A)
                 (A) (A) (A) (A) (A) (A) (A) (A) (A) (A) (A) (A)
                 (A) (A) (A) (A) (A) (A) (A) (A) (A) (A) (A) (A)
                 (A) (A) (A) (A) (A) (A) (A) (A) (A) (A) (A) (A)
                 (A) (A) (A) (A) (A) (A) (A) (A) (A) (A) (A) (A)
                 (A) (A) (A) (A) (A) (A) (A) (A) (A) (A) (A) (A)
                 (A) (A) (A) (A) (A) (A) (A) (A) (A) (A) (A) (A)
                 (A) (A) (A) (A) (A) (A) (A) (A) (A) (A) (A) (A)
                 (A) (A) (A) (A) (A) (A) (A) (A) (A) (A) (A) (A)
                 (A) (A) (A) (A) (A) (A) (A) (A) (A) (A) (A) (A)
                 (A) (A) (A) (A) (A) (A) (A) (A) (A) (A) (A) (A)
                 (A) (A) (A) (A) (A) (A) (A) (A) (A) (A) (A) (A)
                 (A) (A) (A) (A) (A) (A) (A) (A) (A) (A) (A) (A)
                 (A) (A) (A) (A) (A) (A) (A) (A) (A) (A) (A) (A)
                 (A) (A) (A) (A) (A) (A) (A) (A) (A) (A) (A) (A)
                 (A) (A) (A) (A) (A) (A) (A) (A) (A) (A) (A) (A)
                 (A) (A) (A) (A) (A) (A) (A) (A) (A) (A) (A) (A)
                 (A) (A)
 The electronic state of the initial guess is 1-A.
 Requested convergence on RMS density matrix=1.00D-08 within 128 cycles.
 Requested convergence on MAX density matrix=1.00D-06.
 Requested convergence on             energy=1.00D-06.
 No special actions if energy rises.
 Integral accuracy reduced to 1.0D-05 until final iterations.
 Initial convergence to 1.0D-05 achieved.  Increase integral accuracy.
 SCF Done:  E(RHF) =  -728.671712166     A.U. after   14 cycles
             Convg  =    0.6209D-08             -V/T =  2.0001

 **********************************************************************

            Population analysis using the SCF density.

 **********************************************************************

 Orbital symmetries:
       Occupied  (A) (A) (A) (A) (A) (A) (A) (A) (A) (A) (A) (A)
                 (A) (A) (A) (A) (A) (A) (A) (A) (A) (A) (A) (A)
                 (A) (A) (A) (A) (A) (A) (A) (A) (A) (A) (A) (A)
                 (A) (A) (A) (A) (A) (A) (A) (A) (A) (A) (A) (A)
                 (A) (A) (A) (A) (A) (A) (A) (A) (A) (A) (A) (A)
                 (A) (A) (A) (A) (A)
       Virtual   (A) (A) (A) (A) (A) (A) (A) (A) (A) (A) (A) (A)
                 (A) (A) (A) (A) (A) (A) (A) (A) (A) (A) (A) (A)
                 (A) (A) (A) (A) (A) (A) (A) (A) (A) (A) (A) (A)
                 (A) (A) (A) (A) (A) (A) (A) (A) (A) (A) (A) (A)
                 (A) (A) (A) (A) (A) (A) (A) (A) (A) (A) (A) (A)
                 (A) (A) (A) (A) (A) (A) (A) (A) (A) (A) (A) (A)
                 (A) (A) (A) (A) (A) (A) (A) (A) (A) (A) (A) (A)
                 (A) (A) (A) (A) (A) (A) (A) (A) (A) (A) (A) (A)
                 (A) (A) (A) (A) (A) (A) (A) (A) (A) (A) (A) (A)
                 (A) (A) (A) (A) (A) (A) (A) (A) (A) (A) (A) (A)
                 (A) (A) (A) (A) (A) (A) (A) (A) (A) (A) (A) (A)
                 (A) (A) (A) (A) (A) (A) (A) (A) (A) (A) (A) (A)
                 (A) (A) (A) (A) (A) (A) (A) (A) (A) (A) (A) (A)
                 (A) (A) (A) (A) (A) (A) (A) (A) (A) (A) (A) (A)
                 (A) (A) (A) (A) (A) (A) (A) (A) (A) (A) (A) (A)
                 (A) (A) (A) (A) (A) (A) (A) (A) (A) (A) (A) (A)
                 (A) (A) (A) (A) (A) (A) (A) (A) (A) (A) (A) (A)
                 (A) (A) (A) (A) (A) (A) (A) (A) (A) (A) (A) (A)
                 (A) (A) (A) (A) (A) (A) (A) (A) (A) (A) (A) (A)
                 (A) (A)
 The electronic state is 1-A.
 Alpha  occ. eigenvalues --  -11.25831 -11.25275 -11.25264 -11.25133 -11.24447
 Alpha  occ. eigenvalues --  -11.24432 -11.24357 -11.24348 -11.24212 -11.24193
 Alpha  occ. eigenvalues --  -11.24128 -11.24116 -11.24113 -11.24053 -11.24026
 Alpha  occ. eigenvalues --  -11.24019 -11.23916 -11.23836 -11.23742  -1.18589
 Alpha  occ. eigenvalues --   -1.15825  -1.15679  -1.09036  -1.02411  -1.02115
 Alpha  occ. eigenvalues --   -1.01887  -1.01495  -1.01389  -0.92961  -0.84536
 Alpha  occ. eigenvalues --   -0.82940  -0.82542  -0.81707  -0.81565  -0.77733
 Alpha  occ. eigenvalues --   -0.70729  -0.70449  -0.69108  -0.65998  -0.63616
 Alpha  occ. eigenvalues --   -0.63500  -0.62369  -0.62036  -0.61900  -0.59569
 Alpha  occ. eigenvalues --   -0.58772  -0.58516  -0.58432  -0.57618  -0.53913
 Alpha  occ. eigenvalues --   -0.51742  -0.51078  -0.50856  -0.49675  -0.49164
 Alpha  occ. eigenvalues --   -0.48682  -0.47793  -0.47467  -0.46767  -0.34693
 Alpha  occ. eigenvalues --   -0.34243  -0.33699  -0.33589  -0.33277  -0.31178
 Alpha virt. eigenvalues --    0.11655   0.12009   0.13582   0.13743   0.14049
 Alpha virt. eigenvalues --    0.14934   0.15134   0.16274   0.16374   0.16881
 Alpha virt. eigenvalues --    0.18806   0.19132   0.19284   0.21284   0.21419
 Alpha virt. eigenvalues --    0.21511   0.23641   0.24238   0.24979   0.27177
 Alpha virt. eigenvalues --    0.28522   0.29479   0.34031   0.34186   0.35874
 Alpha virt. eigenvalues --    0.37460   0.38512   0.39683   0.40942   0.43681
 Alpha virt. eigenvalues --    0.44096   0.44377   0.45028   0.45400   0.45573
 Alpha virt. eigenvalues --    0.45870   0.46399   0.48415   0.49915   0.50385
 Alpha virt. eigenvalues --    0.50793   0.51007   0.51448   0.54977   0.55785
 Alpha virt. eigenvalues --    0.56803   0.57906   0.58956   0.59054   0.59610
 Alpha virt. eigenvalues --    0.59685   0.60670   0.61061   0.61496   0.61697
 Alpha virt. eigenvalues --    0.61850   0.62380   0.62472   0.63280   0.63460
 Alpha virt. eigenvalues --    0.64121   0.64997   0.65159   0.65429   0.66896
 Alpha virt. eigenvalues --    0.67413   0.68210   0.68432   0.70119   0.71372
 Alpha virt. eigenvalues --    0.72348   0.73797   0.74454   0.75074   0.76198
 Alpha virt. eigenvalues --    0.77281   0.78313   0.78639   0.80469   0.81197
 Alpha virt. eigenvalues --    0.81862   0.82192   0.82346   0.82823   0.82911
 Alpha virt. eigenvalues --    0.83526   0.83912   0.84055   0.84785   0.85603
 Alpha virt. eigenvalues --    0.86043   0.86384   0.86902   0.87461   0.88057
 Alpha virt. eigenvalues --    0.89649   0.90563   0.91255   0.92978   0.94418
 Alpha virt. eigenvalues --    0.96086   0.96858   0.97678   0.98121   0.98930
 Alpha virt. eigenvalues --    0.99334   1.00287   1.02781   1.05754   1.06220
 Alpha virt. eigenvalues --    1.06811   1.07133   1.08013   1.08378   1.10499
 Alpha virt. eigenvalues --    1.11076   1.12219   1.12491   1.12965   1.14261
 Alpha virt. eigenvalues --    1.14639   1.15367   1.18587   1.19512   1.21736
 Alpha virt. eigenvalues --    1.25367   1.26730   1.27684   1.28210   1.28850
 Alpha virt. eigenvalues --    1.30334   1.35136   1.39599   1.45225   1.46582
 Alpha virt. eigenvalues --    1.51653   1.52249   1.56490   2.54626   2.55623
 Alpha virt. eigenvalues --    2.56170   2.59214   2.61958   2.62493   2.64474
 Alpha virt. eigenvalues --    2.67011   2.67708   2.68447   2.72292   2.76753
 Alpha virt. eigenvalues --    2.77759   2.83502   2.87908   2.88628   2.94128
 Alpha virt. eigenvalues --    2.94271   2.94422   2.97073   2.97454   2.98028
 Alpha virt. eigenvalues --    3.00373   3.00766   3.04049   3.05735   3.07113
 Alpha virt. eigenvalues --    3.08136   3.08445   3.08999   3.09964   3.14341
 Alpha virt. eigenvalues --    3.14761   3.16346   3.16822   3.17573   3.18827
 Alpha virt. eigenvalues --    3.22647   3.25646   3.25831   3.28287   3.28912
 Alpha virt. eigenvalues --    3.30911   3.33381   3.34270   3.35141   3.42625
 Alpha virt. eigenvalues --    3.43063   3.44423   3.46967   3.49478   3.52245
 Alpha virt. eigenvalues --    3.53439   3.54457   3.59256   3.60654   3.60661
 Alpha virt. eigenvalues --    3.63137   3.63477   3.63770   3.65970   3.66656
 Alpha virt. eigenvalues --    3.68384   3.70277   3.70449   3.71422   3.73492
 Alpha virt. eigenvalues --    3.74202   3.75558   3.80866   3.85866   3.86653
 Alpha virt. eigenvalues --    3.93017  24.24830  24.30690  24.31557  24.50539
 Alpha virt. eigenvalues --   24.50833  24.51113  24.53989  24.54678  24.56098
 Alpha virt. eigenvalues --   24.77286  24.78602  24.79139  24.79610  24.80632
 Alpha virt. eigenvalues --   24.81836  24.83238  25.05541  25.05799  25.06119
          Condensed to atoms (all electrons):
              1          2          3          4          5          6
     1  C    5.829450   0.463800   0.170776  -0.045706  -0.045526   0.003602
     2  H    0.463800   0.512413  -0.073677   0.005104   0.002768  -0.000276
     3  C    0.170776  -0.073677   5.366355   0.450598   0.494942  -0.064426
     4  C   -0.045706   0.005104   0.450598   5.121507  -0.061552   0.473309
     5  C   -0.045526   0.002768   0.494942  -0.061552   5.041174  -0.036082
     6  C    0.003602  -0.000276  -0.064426   0.473309  -0.036082   5.056504
     7  H   -0.000352  -0.000141  -0.053015   0.386596   0.004508  -0.025368
     8  C    0.008259   0.001515  -0.071526  -0.031203   0.471659  -0.075093
     9  H   -0.000692   0.002676  -0.045676   0.004743   0.394494  -0.000400
    10  C    0.001134  -0.000016  -0.017765  -0.094869  -0.086727   0.495897
    11  H   -0.000294   0.000014   0.006027  -0.036750  -0.000393   0.395564
    12  H   -0.000389  -0.000029   0.007146  -0.000598  -0.039667   0.006221
    13  H   -0.000019  -0.000001  -0.001592   0.008123   0.007488  -0.042538
    14  C    0.158169  -0.059901  -0.104270  -0.005932  -0.001439   0.000872
    15  C   -0.040274   0.004928  -0.014513  -0.007284   0.001897  -0.001480
    16  C   -0.049747  -0.003269   0.006327  -0.000181   0.000467   0.000023
    17  C    0.004782  -0.000248   0.000517   0.000019  -0.000091  -0.000030
    18  H   -0.001582  -0.000065  -0.003149   0.001128  -0.000882   0.000947
    19  C    0.006265   0.001552  -0.000758   0.000025  -0.000017   0.000000
    20  H    0.001764   0.001070   0.000691  -0.000038   0.000014   0.000000
    21  C    0.000993   0.000009   0.000046  -0.000019  -0.000014   0.000000
    22  H   -0.000325   0.000013   0.000037   0.000028   0.000007  -0.000001
    23  H   -0.000351  -0.000027   0.000011   0.000000   0.000001   0.000000
    24  H   -0.000012  -0.000002  -0.000001   0.000001   0.000000   0.000000
    25  C    0.185262  -0.074379  -0.111890  -0.004614   0.002039   0.001535
    26  C   -0.026264   0.002103  -0.000336   0.001503   0.000189   0.000042
    27  C   -0.054383   0.005546  -0.006250  -0.017203   0.000216  -0.000010
    28  C    0.007697   0.001758  -0.000604   0.000124  -0.000009   0.000000
    29  H   -0.000492   0.002424   0.000559   0.000003   0.000133   0.000003
    30  C    0.001398  -0.000283   0.001769  -0.001740   0.000027  -0.000088
    31  H    0.003111   0.000066  -0.003166   0.000328  -0.000194   0.000858
    32  C    0.001273  -0.000013  -0.000034   0.000045  -0.000001   0.000003
    33  H   -0.000369  -0.000037   0.000020  -0.000001   0.000000   0.000000
    34  H   -0.000319   0.000012   0.000008   0.000015   0.000000   0.000001
    35  H   -0.000013  -0.000001  -0.000001   0.000001   0.000000   0.000000
              7          8          9         10         11         12
     1  C   -0.000352   0.008259  -0.000692   0.001134  -0.000294  -0.000389
     2  H   -0.000141   0.001515   0.002676  -0.000016   0.000014  -0.000029
     3  C   -0.053015  -0.071526  -0.045676  -0.017765   0.006027   0.007146
     4  C    0.386596  -0.031203   0.004743  -0.094869  -0.036750  -0.000598
     5  C    0.004508   0.471659   0.394494  -0.086727  -0.000393  -0.039667
     6  C   -0.025368  -0.075093  -0.000400   0.495897   0.395564   0.006221
     7  H    0.498439  -0.000213  -0.000243   0.004799  -0.003438   0.000020
     8  C   -0.000213   5.044594  -0.034686   0.494573   0.005893   0.396651
     9  H   -0.000243  -0.034686   0.507648   0.005348   0.000022  -0.004217
    10  C    0.004799   0.494573   0.005348   5.030371  -0.039648  -0.041048
    11  H   -0.003438   0.005893   0.000022  -0.039648   0.515445  -0.000212
    12  H    0.000020   0.396651  -0.004217  -0.041048  -0.000212   0.517929
    13  H   -0.000183  -0.042964  -0.000183   0.399169  -0.004354  -0.004545
    14  C   -0.000491  -0.000716   0.000481   0.000023  -0.000007   0.000022
    15  C    0.000325   0.000226   0.000187   0.000082   0.000013  -0.000001
    16  C   -0.000029   0.000003   0.000123  -0.000001  -0.000001   0.000000
    17  C    0.000051  -0.000003   0.000009   0.000004   0.000001   0.000000
    18  H    0.000139  -0.000135  -0.000037   0.000046  -0.000002   0.000001
    19  C    0.000006   0.000001  -0.000008   0.000000   0.000000   0.000000
    20  H    0.000007   0.000001   0.000004   0.000000   0.000000   0.000000
    21  C    0.000001   0.000000  -0.000004   0.000000   0.000000   0.000000
    22  H   -0.000017   0.000001   0.000000  -0.000001   0.000000   0.000000
    23  H    0.000000   0.000000   0.000000   0.000000   0.000000   0.000000
    24  H    0.000000   0.000000   0.000000   0.000000   0.000000   0.000000
    25  C   -0.003000  -0.000680   0.000367   0.000021   0.000011   0.000014
    26  C   -0.000258  -0.000004  -0.000023  -0.000011   0.000002   0.000001
    27  C    0.002825   0.000029  -0.000026  -0.000005   0.000032   0.000000
    28  C   -0.000139   0.000001   0.000001   0.000000   0.000000   0.000000
    29  H   -0.000004   0.000003  -0.000025  -0.000001   0.000000   0.000000
    30  C    0.001156  -0.000001   0.000002   0.000001   0.000000   0.000000
    31  H    0.003446   0.000016  -0.000007  -0.000011  -0.000053   0.000000
    32  C    0.000079   0.000000   0.000000   0.000000  -0.000001   0.000000
    33  H    0.000000   0.000000   0.000000   0.000000   0.000000   0.000000
    34  H   -0.000105   0.000000   0.000000   0.000000   0.000001   0.000000
    35  H    0.000000   0.000000   0.000000   0.000000   0.000000   0.000000
             13         14         15         16         17         18
     1  C   -0.000019   0.158169  -0.040274  -0.049747   0.004782  -0.001582
     2  H   -0.000001  -0.059901   0.004928  -0.003269  -0.000248  -0.000065
     3  C   -0.001592  -0.104270  -0.014513   0.006327   0.000517  -0.003149
     4  C    0.008123  -0.005932  -0.007284  -0.000181   0.000019   0.001128
     5  C    0.007488  -0.001439   0.001897   0.000467  -0.000091  -0.000882
     6  C   -0.042538   0.000872  -0.001480   0.000023  -0.000030   0.000947
     7  H   -0.000183  -0.000491   0.000325  -0.000029   0.000051   0.000139
     8  C   -0.042964  -0.000716   0.000226   0.000003  -0.000003  -0.000135
     9  H   -0.000183   0.000481   0.000187   0.000123   0.000009  -0.000037
    10  C    0.399169   0.000023   0.000082  -0.000001   0.000004   0.000046
    11  H   -0.004354  -0.000007   0.000013  -0.000001   0.000001  -0.000002
    12  H   -0.004545   0.000022  -0.000001   0.000000   0.000000   0.000001
    13  H    0.517672   0.000001   0.000000   0.000000   0.000000   0.000000
    14  C    0.000001   5.366868   0.485530   0.473236  -0.064525  -0.042733
    15  C    0.000000   0.485530   5.087377  -0.071919   0.471704   0.390170
    16  C    0.000000   0.473236  -0.071919   5.071655  -0.031557   0.004182
    17  C    0.000000  -0.064525   0.471704  -0.031557   5.050125  -0.029888
    18  H    0.000000  -0.042733   0.390170   0.004182  -0.029888   0.481650
    19  C    0.000000  -0.065374  -0.027879   0.466192  -0.076911  -0.000180
    20  H    0.000000  -0.050639   0.004139   0.399567  -0.000333  -0.000249
    21  C    0.000000  -0.018510  -0.093454  -0.086130   0.499236   0.004707
    22  H    0.000000   0.006182  -0.037601  -0.000424   0.395912  -0.003333
    23  H    0.000000   0.006704  -0.000523  -0.039640   0.006121   0.000020
    24  H    0.000000  -0.001479   0.007821   0.007376  -0.042203  -0.000182
    25  C   -0.000002  -0.154430  -0.014089   0.000733   0.000642  -0.001054
    26  C    0.000000  -0.005752  -0.000315   0.002044   0.000028  -0.000083
    27  C    0.000001  -0.007658  -0.000076   0.000808  -0.000662   0.000503
    28  C    0.000000  -0.000464   0.000048  -0.000098  -0.000001   0.000002
    29  H    0.000000   0.000149  -0.000048   0.000251   0.000000   0.000000
    30  C    0.000000   0.000758  -0.000033  -0.000064  -0.000017   0.000065
    31  H    0.000000  -0.001898   0.004798  -0.000264   0.000448   0.001055
    32  C    0.000000   0.000096  -0.000004  -0.000014   0.000000   0.000002
    33  H    0.000000   0.000011   0.000000   0.000003   0.000000   0.000000
    34  H    0.000000   0.000018  -0.000002   0.000006  -0.000001  -0.000009
    35  H    0.000000  -0.000002   0.000000   0.000000   0.000000   0.000000
             19         20         21         22         23         24
     1  C    0.006265   0.001764   0.000993  -0.000325  -0.000351  -0.000012
     2  H    0.001552   0.001070   0.000009   0.000013  -0.000027  -0.000002
     3  C   -0.000758   0.000691   0.000046   0.000037   0.000011  -0.000001
     4  C    0.000025  -0.000038  -0.000019   0.000028   0.000000   0.000001
     5  C   -0.000017   0.000014  -0.000014   0.000007   0.000001   0.000000
     6  C    0.000000   0.000000   0.000000  -0.000001   0.000000   0.000000
     7  H    0.000006   0.000007   0.000001  -0.000017   0.000000   0.000000
     8  C    0.000001   0.000001   0.000000   0.000001   0.000000   0.000000
     9  H   -0.000008   0.000004  -0.000004   0.000000   0.000000   0.000000
    10  C    0.000000   0.000000   0.000000  -0.000001   0.000000   0.000000
    11  H    0.000000   0.000000   0.000000   0.000000   0.000000   0.000000
    12  H    0.000000   0.000000   0.000000   0.000000   0.000000   0.000000
    13  H    0.000000   0.000000   0.000000   0.000000   0.000000   0.000000
    14  C   -0.065374  -0.050639  -0.018510   0.006182   0.006704  -0.001479
    15  C   -0.027879   0.004139  -0.093454  -0.037601  -0.000523   0.007821
    16  C    0.466192   0.399567  -0.086130  -0.000424  -0.039640   0.007376
    17  C   -0.076911  -0.000333   0.499236   0.395912   0.006121  -0.042203
    18  H   -0.000180  -0.000249   0.004707  -0.003333   0.000020  -0.000182
    19  C    5.050361  -0.035566   0.489002   0.005998   0.397074  -0.042952
    20  H   -0.035566   0.509994   0.005341   0.000024  -0.004285  -0.000185
    21  C    0.489002   0.005341   5.033424  -0.040253  -0.040711   0.399188
    22  H    0.005998   0.000024  -0.040253   0.516814  -0.000213  -0.004442
    23  H    0.397074  -0.004285  -0.040711  -0.000213   0.518570  -0.004487
    24  H   -0.042952  -0.000185   0.399188  -0.004442  -0.004487   0.518521
    25  C   -0.000422   0.000558   0.000074   0.000005   0.000012  -0.000001
    26  C   -0.000036   0.001429  -0.000003   0.000000  -0.000001   0.000000
    27  C    0.000192  -0.000051   0.000028   0.000014   0.000003  -0.000001
    28  C    0.000006   0.000030   0.000000   0.000000   0.000000   0.000000
    29  H   -0.000006   0.000255   0.000000   0.000000  -0.000001   0.000000
    30  C    0.000002  -0.000018   0.000003   0.000000   0.000000   0.000000
    31  H   -0.000098  -0.000037  -0.000011  -0.000001   0.000001  -0.000001
    32  C    0.000000  -0.000011   0.000000   0.000000   0.000000   0.000000
    33  H    0.000000  -0.000003   0.000000   0.000000   0.000000   0.000000
    34  H    0.000001   0.000000   0.000000   0.000000   0.000000   0.000000
    35  H    0.000000   0.000000   0.000000   0.000000   0.000000   0.000000
             25         26         27         28         29         30
     1  C    0.185262  -0.026264  -0.054383   0.007697  -0.000492   0.001398
     2  H   -0.074379   0.002103   0.005546   0.001758   0.002424  -0.000283
     3  C   -0.111890  -0.000336  -0.006250  -0.000604   0.000559   0.001769
     4  C   -0.004614   0.001503  -0.017203   0.000124   0.000003  -0.001740
     5  C    0.002039   0.000189   0.000216  -0.000009   0.000133   0.000027
     6  C    0.001535   0.000042  -0.000010   0.000000   0.000003  -0.000088
     7  H   -0.003000  -0.000258   0.002825  -0.000139  -0.000004   0.001156
     8  C   -0.000680  -0.000004   0.000029   0.000001   0.000003  -0.000001
     9  H    0.000367  -0.000023  -0.000026   0.000001  -0.000025   0.000002
    10  C    0.000021  -0.000011  -0.000005   0.000000  -0.000001   0.000001
    11  H    0.000011   0.000002   0.000032   0.000000   0.000000   0.000000
    12  H    0.000014   0.000001   0.000000   0.000000   0.000000   0.000000
    13  H   -0.000002   0.000000   0.000001   0.000000   0.000000   0.000000
    14  C   -0.154430  -0.005752  -0.007658  -0.000464   0.000149   0.000758
    15  C   -0.014089  -0.000315  -0.000076   0.000048  -0.000048  -0.000033
    16  C    0.000733   0.002044   0.000808  -0.000098   0.000251  -0.000064
    17  C    0.000642   0.000028  -0.000662  -0.000001   0.000000  -0.000017
    18  H   -0.001054  -0.000083   0.000503   0.000002   0.000000   0.000065
    19  C   -0.000422  -0.000036   0.000192   0.000006  -0.000006   0.000002
    20  H    0.000558   0.001429  -0.000051   0.000030   0.000255  -0.000018
    21  C    0.000074  -0.000003   0.000028   0.000000   0.000000   0.000003
    22  H    0.000005   0.000000   0.000014   0.000000   0.000000   0.000000
    23  H    0.000012  -0.000001   0.000003   0.000000  -0.000001   0.000000
    24  H   -0.000001   0.000000  -0.000001   0.000000   0.000000   0.000000
    25  C    5.374485   0.503697   0.438913  -0.072805  -0.046610  -0.061704
    26  C    0.503697   5.069863  -0.065383   0.459883   0.395688  -0.033498
    27  C    0.438913  -0.065383   5.095331  -0.029631   0.004632   0.479239
    28  C   -0.072805   0.459883  -0.029631   5.054809  -0.035027  -0.076817
    29  H   -0.046610   0.395688   0.004632  -0.035027   0.510821  -0.000238
    30  C   -0.061704  -0.033498   0.479239  -0.076817  -0.000238   5.036118
    31  H   -0.048569   0.004049   0.388609  -0.000171  -0.000260  -0.027228
    32  C   -0.017866  -0.086339  -0.092128   0.496994   0.005161   0.494364
    33  H    0.007063  -0.039702  -0.000617   0.396783  -0.004174   0.006227
    34  H    0.006074  -0.000447  -0.039059   0.006001   0.000024   0.396676
    35  H   -0.001593   0.007533   0.008017  -0.042751  -0.000186  -0.042916
             31         32         33         34         35
     1  C    0.003111   0.001273  -0.000369  -0.000319  -0.000013
     2  H    0.000066  -0.000013  -0.000037   0.000012  -0.000001
     3  C   -0.003166  -0.000034   0.000020   0.000008  -0.000001
     4  C    0.000328   0.000045  -0.000001   0.000015   0.000001
     5  C   -0.000194  -0.000001   0.000000   0.000000   0.000000
     6  C    0.000858   0.000003   0.000000   0.000001   0.000000
     7  H    0.003446   0.000079   0.000000  -0.000105   0.000000
     8  C    0.000016   0.000000   0.000000   0.000000   0.000000
     9  H   -0.000007   0.000000   0.000000   0.000000   0.000000
    10  C   -0.000011   0.000000   0.000000   0.000000   0.000000
    11  H   -0.000053  -0.000001   0.000000   0.000001   0.000000
    12  H    0.000000   0.000000   0.000000   0.000000   0.000000
    13  H    0.000000   0.000000   0.000000   0.000000   0.000000
    14  C   -0.001898   0.000096   0.000011   0.000018  -0.000002
    15  C    0.004798  -0.000004   0.000000  -0.000002   0.000000
    16  C   -0.000264  -0.000014   0.000003   0.000006   0.000000
    17  C    0.000448   0.000000   0.000000  -0.000001   0.000000
    18  H    0.001055   0.000002   0.000000  -0.000009   0.000000
    19  C   -0.000098   0.000000   0.000000   0.000001   0.000000
    20  H   -0.000037  -0.000011  -0.000003   0.000000   0.000000
    21  C   -0.000011   0.000000   0.000000   0.000000   0.000000
    22  H   -0.000001   0.000000   0.000000   0.000000   0.000000
    23  H    0.000001   0.000000   0.000000   0.000000   0.000000
    24  H   -0.000001   0.000000   0.000000   0.000000   0.000000
    25  C   -0.048569  -0.017866   0.007063   0.006074  -0.001593
    26  C    0.004049  -0.086339  -0.039702  -0.000447   0.007533
    27  C    0.388609  -0.092128  -0.000617  -0.039059   0.008017
    28  C   -0.000171   0.496994   0.396783   0.006001  -0.042751
    29  H   -0.000260   0.005161  -0.004174   0.000024  -0.000186
    30  C   -0.027228   0.494364   0.006227   0.396676  -0.042916
    31  H    0.495411   0.004562   0.000021  -0.003443  -0.000169
    32  C    0.004562   5.030941  -0.040788  -0.039552   0.399623
    33  H    0.000021  -0.040788   0.518294  -0.000211  -0.004583
    34  H   -0.003443  -0.039552  -0.000211   0.515391  -0.004454
    35  H   -0.000169   0.399623  -0.004583  -0.004454   0.517461
 Mulliken atomic charges:
              1
     1  C   -0.580628
     2  H    0.204593
     3  C    0.066819
     4  C   -0.145511
     5  C   -0.149429
     6  C   -0.189586
     7  H    0.184597
     8  C   -0.166200
     9  H    0.170123
    10  C   -0.151366
    11  H    0.162127
    12  H    0.162702
    13  H    0.163929
    14  C    0.087101
    15  C   -0.149752
    16  C   -0.149657
    17  C   -0.183130
    18  H    0.198947
    19  C   -0.166473
    20  H    0.166528
    21  C   -0.152943
    22  H    0.161578
    23  H    0.161719
    24  H    0.163040
    25  C    0.092202
    26  C   -0.189599
    27  C   -0.111796
    28  C   -0.165622
    29  H    0.166965
    30  C   -0.173161
    31  H    0.178802
    32  C   -0.156391
    33  H    0.162061
    34  H    0.163374
    35  H    0.164037
 Sum of Mulliken atomic charges =   0.00000
 Mulliken charges with hydrogens summed into heavy atoms:
              1
     1  C   -0.376035
     3  C    0.066819
     4  C    0.039087
     5  C    0.020694
     6  C   -0.027460
     8  C   -0.003498
    10  C    0.012562
    14  C    0.087101
    15  C    0.049195
    16  C    0.016871
    17  C   -0.021551
    19  C   -0.004754
    21  C    0.010097
    25  C    0.092202
    26  C   -0.022634
    27  C    0.067006
    28  C   -0.003561
    30  C   -0.009787
    32  C    0.007645
 Sum of Mulliken charges with hydrogens summed into heavy atoms =   0.00000
 Electronic spatial extent (au):  <R**2>=           4940.1205
 Charge=              0.0000 electrons
 Dipole moment (field-independent basis, Debye):
    X=             -0.0150    Y=             -0.0633    Z=             -0.0433  Tot=              0.0782
 Quadrupole moment (field-independent basis, Debye-Ang):
   XX=           -110.6058   YY=           -114.0702   ZZ=           -102.8502
   XY=              0.7814   XZ=              2.2750   YZ=             -0.2265
 Traceless Quadrupole moment (field-independent basis, Debye-Ang):
   XX=             -1.4304   YY=             -4.8948   ZZ=              6.3252
   XY=              0.7814   XZ=              2.2750   YZ=             -0.2265
 Octapole moment (field-independent basis, Debye-Ang**2):
  XXX=             39.5118  YYY=             19.7282  ZZZ=             -0.1839  XYY=            -44.1480
  XXY=            -15.5815  XXZ=             -6.4896  XZZ=              0.5877  YZZ=             -4.7491
  YYZ=             10.3400  XYZ=              0.1555
 Hexadecapole moment (field-independent basis, Debye-Ang**3):
 XXXX=          -3092.6021 YYYY=          -2907.5914 ZZZZ=           -786.9827 XXXY=             -4.7215
 XXXZ=             -0.5896 YYYX=              1.1713 YYYZ=             57.4442 ZZZX=              6.3384
 ZZZY=             -4.2028 XXYY=           -972.8543 XXZZ=           -631.3873 YYZZ=           -601.3685
 XXYZ=            -49.7511 YYXZ=             24.0490 ZZXY=             15.5025
 N-N= 1.288337885841D+03 E-N=-4.272683422354D+03  KE= 7.285898176558D+02
 PrsmSu:  requested number of processors reduced to:  10 ShMem   1 Linda.
 Calling FoFJK, ICntrl=      2127 FMM=F ISym2X=0 I1Cent= 0 IOpClX= 0 NMat=1 NMatS=1 NMatT=0.
 ***** Axes restored to original set *****
 -------------------------------------------------------------------
 Center     Atomic                   Forces (Hartrees/Bohr)
 Number     Number              X              Y              Z
 -------------------------------------------------------------------
      1        6          -0.004190605    0.023297330    0.003485102
      2        1           0.003008171   -0.026995831   -0.004274466
      3        6          -0.003487936    0.005888377   -0.011480248
      4        6          -0.002474235   -0.011715401    0.006109750
      5        6           0.001476289    0.005908588    0.001592756
      6        6          -0.001822939   -0.011086549   -0.004538786
      7        1          -0.001013283    0.020766002   -0.022354932
      8        6           0.000928662    0.009824559   -0.008557190
      9        1          -0.003571312   -0.016258080   -0.006187588
     10        6          -0.001772433   -0.000468243   -0.013316795
     11        1           0.003355618    0.015073916    0.006484051
     12        1          -0.001132350   -0.013513867    0.009825806
     13        1           0.002246953    0.001585032    0.016536901
     14        6           0.013790649    0.003193605    0.003828401
     15        6          -0.003332635   -0.006096410   -0.008634668
     16        6          -0.001961024    0.004691046    0.003829844
     17        6           0.006815566   -0.009174209   -0.003980724
     18        1           0.010789098    0.011530538    0.015308236
     19        6           0.004412644    0.006699970    0.009915574
     20        1           0.008837879   -0.012591351   -0.008152910
     21        6           0.012607903   -0.003016031    0.003919347
     22        1          -0.008846174    0.012133726    0.007327353
     23        1          -0.006421562   -0.008764318   -0.012646893
     24        1          -0.015500501    0.003323600   -0.005440414
     25        6          -0.010870266    0.002553944    0.008879848
     26        6          -0.000212626    0.005998753   -0.000300292
     27        6           0.007255553   -0.007750158   -0.004917298
     28        6          -0.009579871    0.005294352    0.007474376
     29        1           0.000724037   -0.017730030    0.000793409
     30        6           0.001616848   -0.012269935   -0.001017703
     31        1          -0.013891375    0.008768733    0.021597844
     32        6          -0.009567484   -0.004670392    0.008440624
     33        1           0.011099985   -0.008896774   -0.008432020
     34        1          -0.000414324    0.016588326   -0.001189082
     35        1           0.011097080    0.007877185   -0.009927211
 -------------------------------------------------------------------
 Cartesian Forces:  Max     0.026995831 RMS     0.009555702

 GradGradGradGradGradGradGradGradGradGradGradGradGradGradGradGradGradGrad
 Berny optimization.
 Internal  Forces:  Max     0.029861094 RMS     0.007836140
 Search for a local minimum.
 Step number   1 out of a maximum of  197
 All quantities printed in internal units (Hartrees-Bohrs-Radians)
 Mixed Optimization -- RFO/linear search
 Second derivative matrix not updated -- first step.
     Eigenvalues ---    0.00634   0.00646   0.00653   0.01530   0.01532
     Eigenvalues ---    0.01536   0.02137   0.02139   0.02145   0.02167
     Eigenvalues ---    0.02170   0.02171   0.02180   0.02184   0.02186
     Eigenvalues ---    0.02201   0.02202   0.02203   0.02212   0.02214
     Eigenvalues ---    0.02214   0.02216   0.02216   0.02216   0.02217
     Eigenvalues ---    0.02217   0.02219   0.02219   0.02220   0.02221
     Eigenvalues ---    0.04517   0.06372   0.06675   0.15996   0.15999
     Eigenvalues ---    0.16000   0.16000   0.16000   0.16000   0.16000
     Eigenvalues ---    0.16000   0.16000   0.16000   0.16000   0.16000
     Eigenvalues ---    0.16000   0.16000   0.16000   0.18941   0.19367
     Eigenvalues ---    0.22000   0.22000   0.22000   0.22000   0.22000
     Eigenvalues ---    0.22000   0.23476   0.23476   0.23477   0.24996
     Eigenvalues ---    0.25000   0.25000   0.31165   0.31354   0.31442
     Eigenvalues ---    0.31498   0.33464   0.33614   0.33958   0.34068
     Eigenvalues ---    0.34073   0.34093   0.34249   0.34253   0.34255
     Eigenvalues ---    0.34256   0.34278   0.34280   0.34280   0.34284
     Eigenvalues ---    0.34289   0.42406   0.42420   0.42480   0.42565
     Eigenvalues ---    0.42582   0.42612   0.46332   0.46345   0.46421
     Eigenvalues ---    0.46748   0.46775   0.46822   0.47212   0.47233
     Eigenvalues ---    0.47253   0.47332   0.47334   0.473591000.00000
     Eigenvalues --- 1000.000001000.000001000.000001000.000001000.00000
     Eigenvalues --- 1000.000001000.000001000.000001000.000001000.00000
     Eigenvalues --- 1000.000001000.000001000.000001000.000001000.00000
     Eigenvalues --- 1000.000001000.000001000.000001000.000001000.00000
     Eigenvalues --- 1000.000001000.000001000.000001000.000001000.00000
     Eigenvalues --- 1000.000001000.000001000.000001000.000001000.00000
     Eigenvalues --- 1000.000001000.000001000.000001000.000001000.00000
     Eigenvalues --- 1000.000001000.000001000.000001000.000001000.00000
     Eigenvalues --- 1000.000001000.000001000.000001000.000001000.00000
     Eigenvalues --- 1000.000001000.000001000.000001000.000001000.00000
     Eigenvalues --- 1000.000001000.000001000.000001000.000001000.00000
     Eigenvalues --- 1000.000001000.000001000.000001000.000001000.00000
     Eigenvalues --- 1000.000001000.000001000.000001000.000001000.00000
     Eigenvalues --- 1000.000001000.000001000.000001000.000001000.00000
     Eigenvalues --- 1000.000001000.000001000.000001000.000001000.00000
     Eigenvalues --- 1000.000001000.000001000.000001000.000001000.00000
     Eigenvalues --- 1000.000001000.000001000.000001000.000001000.00000
     Eigenvalues --- 1000.000001000.00000
 RFO step:  Lambda=-4.28759755D-02 EMin= 6.34161871D-03
 Linear search not attempted -- first point.
 Maximum step size (   0.300) exceeded in Quadratic search.
    -- Step size scaled by   0.575
 Iteration  1 RMS(Cart)=  0.12575355 RMS(Int)=  0.00283586
 Iteration  2 RMS(Cart)=  0.00583633 RMS(Int)=  0.00028835
 Iteration  3 RMS(Cart)=  0.00000904 RMS(Int)=  0.00028830
 Iteration  4 RMS(Cart)=  0.00000000 RMS(Int)=  0.00028830
 Variable       Old X    -DE/DX   Delta X   Delta X   Delta X     New X
                                 (Linear)    (Quad)   (Total)
    R1        2.12400  -0.02749   0.00000  -0.04459  -0.04459   2.07941
    R2        2.85072   0.02566   0.00000   0.04124   0.04124   2.89196
    R3        2.85342   0.02086   0.00000   0.03365   0.03365   2.88707
    R4        2.85178   0.02265   0.00000   0.03645   0.03645   2.88823
    R5        2.63800   0.00060   0.00000   0.00087   0.00088   2.63887
    R6        2.64241  -0.00359   0.00000  -0.00405  -0.00403   2.63839
    R7        2.62716  -0.00316   0.00000  -0.00340  -0.00341   2.62375
    R8        2.08244  -0.02986   0.00000  -0.04549  -0.04549   2.03695
    R9        2.62614  -0.00357   0.00000  -0.00410  -0.00409   2.62205
   R10        2.07215  -0.01774   0.00000  -0.02660  -0.02660   2.04555
   R11        2.62692  -0.00679   0.00000  -0.00764  -0.00766   2.61926
   R12        2.06906  -0.01675   0.00000  -0.02499  -0.02499   2.04407
   R13        2.62831  -0.00851   0.00000  -0.00970  -0.00971   2.61860
   R14        2.06912  -0.01675   0.00000  -0.02499  -0.02499   2.04413
   R15        2.06845  -0.01676   0.00000  -0.02499  -0.02499   2.04346
   R16        2.63531  -0.00252   0.00000  -0.00279  -0.00279   2.63252
   R17        2.64322  -0.00439   0.00000  -0.00505  -0.00504   2.63818
   R18        2.62861  -0.00281   0.00000  -0.00307  -0.00307   2.62554
   R19        2.07402  -0.02183   0.00000  -0.03283  -0.03283   2.04119
   R20        2.62527  -0.00415   0.00000  -0.00469  -0.00469   2.62058
   R21        2.07174  -0.01740   0.00000  -0.02607  -0.02607   2.04567
   R22        2.62630  -0.00635   0.00000  -0.00705  -0.00706   2.61924
   R23        2.06899  -0.01671   0.00000  -0.02493  -0.02493   2.04407
   R24        2.62898  -0.00606   0.00000  -0.00684  -0.00684   2.62214
   R25        2.06902  -0.01667   0.00000  -0.02488  -0.02488   2.04414
   R26        2.06854  -0.01676   0.00000  -0.02499  -0.02499   2.04355
   R27        2.64016  -0.00430   0.00000  -0.00483  -0.00482   2.63534
   R28        2.63773   0.00073   0.00000   0.00098   0.00100   2.63873
   R29        2.62735  -0.00283   0.00000  -0.00323  -0.00323   2.62412
   R30        2.07207  -0.01775   0.00000  -0.02662  -0.02662   2.04545
   R31        2.62598  -0.00455   0.00000  -0.00499  -0.00499   2.62099
   R32        2.07986  -0.02543   0.00000  -0.03859  -0.03859   2.04127
   R33        2.62766  -0.00833   0.00000  -0.00944  -0.00946   2.61820
   R34        2.06863  -0.01654   0.00000  -0.02466  -0.02466   2.04397
   R35        2.62792  -0.00548   0.00000  -0.00619  -0.00620   2.62172
   R36        2.06859  -0.01664   0.00000  -0.02480  -0.02480   2.04379
   R37        2.06861  -0.01684   0.00000  -0.02512  -0.02512   2.04349
    A1        1.85549  -0.00921   0.00000  -0.04544  -0.04450   1.81099
    A2        1.85852  -0.00030   0.00000  -0.01907  -0.01890   1.83962
    A3        1.86746  -0.00588   0.00000  -0.03526  -0.03451   1.83294
    A4        1.97254   0.00302   0.00000   0.02541   0.02350   1.99604
    A5        1.97609   0.01471   0.00000   0.05369   0.05252   2.02861
    A6        1.92529  -0.00405   0.00000   0.00952   0.00719   1.93249
    A7        2.14235   0.02505   0.00000   0.04916   0.04915   2.19149
    A8        2.06555  -0.01292   0.00000  -0.02539  -0.02541   2.04014
    A9        2.07528  -0.01212   0.00000  -0.02376  -0.02373   2.05155
   A10        2.10367   0.00440   0.00000   0.00977   0.00977   2.11344
   A11        2.08562   0.00420   0.00000   0.01324   0.01324   2.09886
   A12        2.09387  -0.00860   0.00000  -0.02304  -0.02304   2.07083
   A13        2.10301   0.00831   0.00000   0.01761   0.01763   2.12064
   A14        2.09378  -0.00488   0.00000  -0.01088  -0.01089   2.08288
   A15        2.08640  -0.00342   0.00000  -0.00673  -0.00674   2.07966
   A16        2.09769   0.00247   0.00000   0.00506   0.00503   2.10272
   A17        2.09027  -0.00118   0.00000  -0.00237  -0.00236   2.08791
   A18        2.09523  -0.00129   0.00000  -0.00269  -0.00268   2.09255
   A19        2.09751   0.00004   0.00000  -0.00096  -0.00096   2.09655
   A20        2.09136   0.00007   0.00000   0.00074   0.00075   2.09211
   A21        2.09431  -0.00012   0.00000   0.00021   0.00021   2.09453
   A22        2.08920  -0.00309   0.00000  -0.00771  -0.00774   2.08146
   A23        2.09723   0.00154   0.00000   0.00385   0.00386   2.10109
   A24        2.09675   0.00155   0.00000   0.00386   0.00387   2.10063
   A25        2.14032   0.00958   0.00000   0.01889   0.01889   2.15921
   A26        2.06519  -0.00199   0.00000  -0.00383  -0.00383   2.06136
   A27        2.07766  -0.00758   0.00000  -0.01507  -0.01506   2.06260
   A28        2.10154   0.00318   0.00000   0.00693   0.00693   2.10846
   A29        2.09238   0.00059   0.00000   0.00269   0.00269   2.09507
   A30        2.08922  -0.00377   0.00000  -0.00965  -0.00965   2.07957
   A31        2.10226   0.00530   0.00000   0.01112   0.01112   2.11339
   A32        2.09304  -0.00327   0.00000  -0.00734  -0.00734   2.08570
   A33        2.08787  -0.00202   0.00000  -0.00379  -0.00379   2.08408
   A34        2.09858   0.00130   0.00000   0.00274   0.00273   2.10131
   A35        2.08964  -0.00058   0.00000  -0.00118  -0.00118   2.08846
   A36        2.09497  -0.00072   0.00000  -0.00156  -0.00156   2.09341
   A37        2.09697   0.00011   0.00000  -0.00031  -0.00031   2.09665
   A38        2.09200   0.00000   0.00000   0.00030   0.00030   2.09230
   A39        2.09422  -0.00010   0.00000   0.00001   0.00001   2.09424
   A40        2.08936  -0.00230   0.00000  -0.00540  -0.00541   2.08395
   A41        2.09759   0.00111   0.00000   0.00258   0.00258   2.10017
   A42        2.09624   0.00119   0.00000   0.00282   0.00282   2.09906
   A43        2.07765  -0.00626   0.00000  -0.01241  -0.01247   2.06518
   A44        2.12738   0.01643   0.00000   0.03217   0.03208   2.15947
   A45        2.07801  -0.01020   0.00000  -0.02006  -0.02007   2.05795
   A46        2.10045   0.00698   0.00000   0.01490   0.01490   2.11534
   A47        2.09436  -0.00406   0.00000  -0.00906  -0.00907   2.08528
   A48        2.08838  -0.00292   0.00000  -0.00583  -0.00584   2.08255
   A49        2.10359   0.00379   0.00000   0.00844   0.00838   2.11197
   A50        2.07602   0.00412   0.00000   0.01301   0.01289   2.08891
   A51        2.10335  -0.00785   0.00000  -0.02093  -0.02105   2.08230
   A52        2.09801  -0.00012   0.00000  -0.00106  -0.00108   2.09693
   A53        2.09115   0.00021   0.00000   0.00094   0.00095   2.09211
   A54        2.09402  -0.00009   0.00000   0.00011   0.00012   2.09415
   A55        2.09594   0.00208   0.00000   0.00420   0.00419   2.10014
   A56        2.09146  -0.00094   0.00000  -0.00182  -0.00182   2.08963
   A57        2.09578  -0.00114   0.00000  -0.00238  -0.00239   2.09339
[...]
 .00519897,0.00098400,0.00029220,-0.00118813,-0.00019584,-0.00100234,0.
 00042968,0.00007746,-0.00005074,-0.00005849,0.00020309,0.00004383,0.00
 042791,-0.00011447,-0.00016124,0.00019687,-0.00011010,-0.00014444,-0.0
 0020149,-0.00009663,-0.00018655,-0.00006711,-0.00004741,-0.00002701,0.
 00001214,0.00006108,0.00013461,-0.00001413,0.00001820,0.00000124,0.000
 00879,-0.00001444,0.00000879,0.00002931,0.00000111,-0.00001319,0.00001
 389,-0.00029504,0.00010179,0.00019016,0.00029033,-0.00031615,0.0000467
 4,-0.00029491,-0.00023698,0.00023450,-0.00009182,-0.00001357,-0.000145
 74,0.00001194,0.00001440,0.00000212,0.00025676,-0.00015667,0.00007914,
 -0.00000570,0.00017996,-0.00004424,-0.00002185,0.00015431,0.00013561,-
 0.00001279,0.00001105,0.00001635,0.00001522,0.00000623,-0.00001345,-0.
 00002015,0.00000459,-0.00000367,-0.01652731,0.05205436,-0.01383054,0.0
 3795844,0.00020172,-0.02150964,0.11781815,0.06477881,-0.16835875,-0.02
 521847,-0.02488737,0.03437432,0.00029494,-0.00075413,-0.00068533,-0.14
 419344,-0.24761476,0.37667639,-0.00107152,-0.00098474,-0.00116485,-0.0
 0009609,-0.00003743,0.00000448,0.00032677,0.00035492,-0.00000206,0.000
 25410,0.00018034,-0.00015964,-0.00001565,-0.00006208,-0.00015863,-0.00
 001630,-0.00009186,0.00000806,-0.00027065,-0.00001202,-0.00000651,-0.0
 0000168,0.00001610,0.00001700,-0.00001069,-0.00001291,0.00000882,-0.00
 001264,-0.00000571,0.00000036,-0.00000996,0.00000235,-0.00001920,-0.00
 000829,-0.00000307,-0.00000834,-0.00000753,-0.00000660,0.00001066,-0.0
 0063965,-0.00222605,0.00097108,-0.00067428,-0.00088224,0.00058236,0.00
 013832,-0.00022664,0.00059616,0.00006391,-0.00001941,0.00022531,0.0000
 8305,0.00008091,-0.00019041,-0.00006629,0.00005766,-0.00004733,0.00002
 573,0.00007162,-0.00003521,-0.00005804,-0.00000885,-0.00024021,0.00001
 620,0.00000601,-0.00001159,-0.00000617,0.00000698,0.00000694,0.0000086
 6,0.00000425,-0.00000472,-0.00199424,0.00058949,0.00252218,0.00220066,
 0.00152011,0.00143333,-0.31516319,0.11947334,0.03836382,0.00057934,-0.
 00080102,-0.00016119,-0.00017303,0.00002338,0.00009704,-0.01516725,0.0
 1374615,0.00062283,0.33274094,0.00003108,-0.00028825,-0.00220398,-0.00
 013613,0.00008873,0.00004845,0.00011844,0.00030907,-0.00004535,0.00001
 062,0.00009494,-0.00003949,-0.00002693,-0.00003650,-0.00007941,-0.0000
 3576,-0.00001134,0.00004681,0.00002661,-0.00004318,0.00000112,-0.00002
 021,-0.00000958,-0.00000516,0.00001721,-0.00003421,-0.00000119,0.00001
 223,0.00001267,-0.00001791,-0.00000383,-0.00001007,-0.00001834,0.00000
 016,-0.00000048,-0.00000741,0.00000388,-0.00000757,-0.00000328,-0.0003
 0432,-0.00062270,0.00071073,-0.00031014,0.00043180,0.00016169,-0.00025
 823,-0.00012214,-0.00063297,-0.00034168,0.00007715,-0.00005334,0.00000
 973,-0.00004080,0.00001033,0.00000863,-0.00010950,-0.00016124,0.000027
 65,-0.00002944,0.00007159,0.00003871,0.00006238,0.00025206,0.00006170,
 -0.00002107,-0.00004464,0.00002125,0.00000299,0.00003942,0.00005463,0.
 00000314,0.00000904,0.03031097,-0.00688644,-0.00502097,0.00172967,-0.0
 0332133,0.00607434,0.11748649,-0.12075447,-0.00616222,-0.00086533,-0.0
 0090827,0.00029283,0.00142136,-0.00062787,-0.00031694,-0.01833776,0.01
 196652,0.00365250,-0.12791637,0.12007632,-0.00123702,-0.00231720,-0.00
 277392,-0.00026641,-0.00040365,0.00048404,0.00043919,0.00059475,-0.000
 25588,0.00022084,0.00020553,-0.00007533,-0.00002602,-0.00007304,-0.000
 21347,-0.00002761,-0.00010095,-0.00002473,-0.00030268,-0.00003146,0.00
 003408,-0.00000283,0.00005064,0.00003760,-0.00000176,-0.00001939,-0.00
 000048,-0.00001797,-0.00002543,0.00000722,-0.00000426,0.00000891,-0.00
 000753,-0.00001220,-0.00000889,-0.00000481,-0.00000375,-0.00000996,0.0
 0002066,0.00067019,0.00078572,-0.00025641,0.00017360,0.00037649,-0.000
 04338,0.00029106,0.00019010,-0.00001437,0.00034952,-0.00007900,0.00021
 032,0.00009464,0.00007426,-0.00032281,-0.00040163,0.00016231,-0.000195
 48,0.00000434,-0.00017485,0.00000046,-0.00000597,-0.00016741,-0.000258
 66,0.00000655,0.00000071,0.00000601,-0.00003924,-0.00004040,-0.0000114
 4,-0.00003343,-0.00002806,-0.00001271,-0.01477126,0.00649800,0.0076966
 3,0.00193418,0.00587483,0.00444068,0.03784459,-0.00605237,-0.06120181,
 -0.00027621,0.00013640,-0.00097176,-0.00073977,0.00033719,0.00005096,0
 .01940915,-0.00935026,0.00288761,-0.04621946,0.00121539,0.05079015,0.0
 0035700,0.00085412,-0.00142294,-0.00008906,-0.00072304,-0.00017400,0.0
 0057500,-0.00019009,-0.00039017,0.00017219,-0.00012759,0.00001415,0.00
 019474,-0.00007022,0.00038351,-0.00006475,-0.00017594,0.00030484,-0.00
 031640,-0.00025989,-0.00001112,-0.00014563,-0.00015046,-0.00017418,0.0
 0000351,0.00000543,-0.00001899,0.00011341,0.00022971,0.00000870,0.0000
 1894,0.00000909,0.00004925,-0.00002668,0.00001522,0.00002562,0.0000004
 1,-0.00000647,0.00001721,0.00020023,0.00022274,0.00045895,0.00024983,-
 0.00025069,0.00000416,-0.00039254,-0.00008068,0.00003506,-0.00020205,-
 0.00004196,-0.00020502,0.00002424,-0.00001254,-0.00002266,0.00033119,-
 0.00015249,0.00001851,0.00000619,0.00005978,0.00000260,-0.00009305,0.0
 0023476,0.00020043,-0.00002389,0.00001764,0.00000423,-0.00002191,-0.00
 002352,-0.00001616,-0.00002426,0.00000048,-0.00000176,-0.04767889,0.05
 287449,-0.01295822,0.07401135,-0.02092474,-0.01333943,-0.05368339,-0.0
 4810786,0.05267528,-0.16197567,0.01177071,0.02606021,-0.00225587,-0.00
 148291,0.00543159,-0.32223836,0.12513391,0.02776037,-0.00045040,-0.001
 44044,0.00456063,0.72711721,0.00027160,-0.00146073,0.00157580,-0.00042
 636,0.00083512,0.00048614,-0.00135382,0.00015661,-0.00001824,-0.000270
 39,-0.00007872,0.00035324,-0.00017160,0.00036108,-0.00020569,0.0000523
 9,0.00021780,-0.00041290,0.00019295,0.00005502,0.00009886,0.00022938,0
 .00014577,0.00025136,-0.00000898,0.00000974,-0.00001576,-0.00013312,-0
 .00032044,0.00013129,-0.00001956,0.00004312,0.00004731,0.00004155,-0.0
 0002548,0.00002294,0.00000890,0.00000573,0.00000524,-0.00011543,-0.000
 51942,-0.00022250,-0.00039451,0.00016815,-0.00010428,0.00033735,0.0001
 8287,-0.00005134,0.00024949,0.00001828,0.00021092,-0.00001498,-0.00000
 483,0.00001374,-0.00033142,0.00021337,-0.00004050,0.00001679,-0.000088
 48,0.00003827,0.00000551,-0.00020288,-0.00024274,-0.00001134,-0.000006
 69,0.00000546,-0.00001455,0.00000135,0.00000405,0.00000234,-0.00000659
 ,-0.00000023,0.05406527,-0.06451380,0.00878752,-0.07973089,-0.02463379
 ,0.05096859,0.01009880,0.07790728,-0.04216046,0.08523328,-0.30217199,0
 .08738804,-0.00083999,0.00222131,0.00419184,0.05196728,-0.18058114,0.0
 3381883,-0.00180190,0.00076333,0.00554930,-0.05359850,0.63908147,-0.00
 073502,0.00005595,-0.00110005,0.00011125,-0.00026926,-0.00008586,0.000
 75043,0.00016716,0.00013505,0.00000557,0.00012344,-0.00007235,-0.00000
 284,-0.00012895,-0.00014860,-0.00003825,-0.00009699,0.00005727,-0.0000
 5678,-0.00005911,0.00000533,-0.00005141,0.00002120,-0.00003124,0.00001
 212,-0.00000964,0.00002092,0.00001901,0.00004587,-0.00004370,0.0000012
 3,-0.00001169,-0.00002099,-0.00001219,0.00000865,-0.00002740,-0.000005
 50,-0.00000837,-0.00000275,-0.00004056,0.00016956,0.00000500,0.0000564
 1,0.00004581,0.00005985,-0.00001323,-0.00006442,-0.00005428,-0.0000396
 8,0.00000923,-0.00001629,0.00000158,0.00000269,-0.00001202,0.00002392,
 -0.00005287,-0.00000328,-0.00003850,0.00000705,-0.00004114,0.00003763,
 0.00000165,0.00004502,0.00001658,-0.00000227,-0.00000504,0.00003129,0.
 00001619,0.00000909,0.00001254,0.00000075,-0.00000145,-0.01340103,0.01
 028307,-0.00710222,0.01824742,0.02812685,-0.01312151,0.02054646,-0.018
 81488,0.01194104,-0.01522322,0.11817078,-0.14393528,0.00516992,0.00455
 442,0.00440734,0.06972285,0.00302784,-0.11456822,0.00456662,0.00528471
 ,0.00390984,-0.19896027,-0.23953366,0.39262682,-0.00072633,0.00080654,
 -0.00024257,-0.00000281,-0.00006084,0.00000235,-0.00012688,-0.00007367
 ,-0.00016004,0.00003817,0.00003446,0.00004994,0.00004724,0.00001668,0.
 00010058,-0.00000764,-0.00002111,-0.00000485,-0.00002381,-0.00003359,-
 0.00003395,0.00000870,-0.00001837,0.00001358,-0.00001044,0.00000883,-0
 .00001384,0.00000843,-0.00001079,0.00003095,0.00000002,0.00001702,0.00
 001472,-0.00000908,-0.00000704,0.00002221,-0.00000245,0.00000031,0.000
 01879,0.00001751,-0.00023910,0.00027359,-0.00009669,-0.00001185,-0.000
 06251,-0.00007164,0.00004341,0.00001893,0.00002301,0.00000676,-0.00001
 327,0.00000713,-0.00000301,-0.00000209,0.00000793,0.00002281,0.0000127
 2,0.00001604,0.00000328,0.00001234,-0.00003139,-0.00000091,-0.00001417
 ,-0.00001670,0.00001156,0.00000349,-0.00001801,-0.00000302,-0.00001827
 ,-0.00001564,0.00000202,-0.00000363,-0.00021573,-0.00175125,0.00490215
 ,-0.01580313,0.01458857,0.00074097,0.00058568,-0.00091020,-0.00011316,
 -0.31048981,0.11676106,0.04358882,0.00050408,-0.00156967,-0.00149816,0
 .00246510,0.00205205,0.00143836,-0.00022614,-0.00012462,-0.00036333,-0
 .00122015,-0.00129246,0.00353278,0.32522950,-0.00072750,0.00039781,-0.
 00004048,0.00003863,-0.00003127,-0.00004983,0.00006284,0.00002339,-0.0
 0007082,-0.00000284,-0.00000617,-0.00001166,0.00001921,-0.00003807,0.0
 0001594,-0.00000222,0.00002081,0.00002065,0.00001658,-0.00000620,0.000
 01956,-0.00001015,-0.00001062,-0.00000949,-0.00000488,-0.00000090,0.00
 000095,0.00000355,0.00001383,-0.00001193,0.00000360,-0.00001040,-0.000
 00736,-0.00000345,0.00000226,-0.00000056,0.00000221,0.00000050,-0.0000
 0511,-0.00001451,-0.00013714,0.00007773,-0.00003533,0.00003461,-0.0000
 1764,-0.00000216,0.00003342,0.00000122,0.00001871,0.00001806,0.0000050
 6,-0.00000369,-0.00000750,0.00000920,-0.00002374,0.00001532,-0.0000126
 1,-0.00000234,-0.00001827,0.00000191,-0.00000974,-0.00001374,-0.000022
 73,-0.00000326,-0.00000374,0.00000185,-0.00000538,-0.00000009,-0.00000
 056,0.00000057,-0.00000367,0.00000177,-0.00138829,0.00076953,0.0053664
 1,-0.01799042,0.01193607,0.00402847,-0.00087380,-0.00080752,0.00028068
 ,0.11698093,-0.12121323,-0.00828100,-0.00048444,-0.00012330,-0.0026420
 9,0.00159277,-0.00335576,0.00607906,-0.00014101,-0.00022490,-0.0005263
 0,0.03108480,-0.00637015,-0.00633726,-0.12791682,0.11973505,0.00064523
 ,-0.00054802,0.00002448,-0.00005001,-0.00003597,0.00006087,0.00011540,
 0.00004863,0.00005410,-0.00002716,0.00000300,-0.00004509,-0.00000079,-
 0.00001755,-0.00005306,-0.00001681,0.00001883,-0.00000458,0.00004064,-
 0.00000580,0.00001534,-0.00001425,0.00001004,-0.00000182,0.00000483,-0
 .00001324,0.00000540,-0.00001478,0.00000170,-0.00003374,0.00000635,-0.
 00001766,-0.00001782,0.00000283,-0.00000061,-0.00000831,0.00000685,-0.
 00000304,-0.00000727,0.00011963,0.00010850,-0.00031521,0.00001624,0.00
 000725,0.00002476,0.00005643,0.00002772,0.00003697,0.00003089,-0.00001
 170,0.00004142,0.00000281,0.00000734,-0.00001320,-0.00005728,0.0000032
 4,-0.00000297,-0.00000423,-0.00000441,-0.00000156,0.00003123,-0.000036
 41,-0.00003434,0.00000981,-0.00000752,-0.00000040,0.00000079,0.0000037
 9,0.00000296,0.00000544,0.,-0.00000036,0.00439510,0.00550218,0.0040402
 5,0.01912172,-0.00970254,0.00307853,-0.00024087,0.00028069,-0.00097947
 ,0.04352751,-0.00817871,-0.06228754,-0.00211806,-0.00224585,-0.0030240
 8,0.00172519,0.00591635,0.00461157,-0.00030506,-0.00055271,-0.00081145
 ,-0.01473473,0.00728043,0.00750388,-0.05029858,0.00444553,0.05092505,0
 .00054397,-0.00088036,0.00018734,-0.00013849,-0.00018279,0.00012907,-0
 .00009912,-0.00006878,-0.00001834,0.00000829,0.00002389,0.00000663,-0.
 00000618,0.00000452,0.00005295,0.00000866,0.00000664,0.00000476,0.0000
 0613,0.00000647,0.00000985,0.00000731,-0.00000759,0.00000933,-0.000001
 25,0.00000838,-0.00000427,-0.00000060,-0.00000300,0.00000779,0.0000008
 7,0.00000133,-0.00000058,0.00000148,-0.00000274,0.00000568,-0.00000079
 ,0.00000156,0.00000167,0.00015804,0.00002819,-0.00001754,0.00000915,0.
 00003428,-0.00000994,-0.00003206,0.00000980,-0.00002017,-0.00001898,0.
 00001722,-0.00001329,0.00000300,-0.00001126,0.00001145,0.00000976,0.00
 000131,-0.00001329,0.00000045,-0.00000900,0.00001083,-0.00003459,0.000
 02240,-0.00001189,-0.00001050,-0.00000469,0.00000724,-0.00000961,-0.00
 000783,-0.00000088,-0.00000613,-0.00000535,0.00000413,-0.00232471,-0.0
 0112506,0.00523826,-0.00122550,-0.00040020,0.00030643,0.01033462,-0.02
 437998,0.01184468,-0.00458007,0.00338734,0.00368493,-0.00005530,-0.000
 18357,-0.00038943,-0.08471650,0.06193239,-0.02046308,0.00062297,-0.000
 46548,-0.00204902,-0.00046828,0.03095169,-0.01511930,-0.00029147,0.001
 40857,-0.00068516,0.08176351,0.00066589,-0.00045965,-0.00010195,-0.000
 10946,-0.00014320,0.00012535,-0.00019001,-0.00008804,-0.00005632,0.000
 01302,0.00004046,0.00005592,0.00000840,0.00004527,0.00008864,-0.000016
 86,-0.00001950,-0.00001658,0.00000197,-0.00004526,-0.00002375,0.000012
 49,-0.00000626,0.00001855,0.00000217,0.00000642,-0.00001349,-0.0000041
 0,-0.00001215,0.00002418,0.00001142,0.00000842,0.00001215,0.00000102,-
 0.00001026,0.00001766,0.00000174,-0.00000174,0.00001593,0.00014213,-0.
 00002623,0.00010466,-0.00001663,-0.00002113,-0.00003809,-0.00007703,0.
 00001205,-0.00001560,-0.00001463,0.00000876,-0.00002974,0.00001306,-0.
 00001323,-0.00000019,0.00003913,0.00001235,-0.00000243,0.00001797,-0.0
 0000204,0.00002653,-0.00005144,0.00004520,-0.00000543,-0.00002080,0.00
 000328,0.00001015,-0.00002435,-0.00002137,-0.00001141,-0.00002219,-0.0
 0000409,0.00000293,-0.00151526,0.00204625,0.00439031,-0.00052457,0.000
 65711,-0.00070147,0.00798673,-0.00903602,0.00496717,0.00382619,0.00246
 841,0.00210194,-0.00017636,-0.00038441,-0.00043176,0.06173543,-0.30158
 827,0.11814582,-0.00139232,-0.00009994,-0.00221444,-0.00144973,-0.0071
 2445,0.00785644,0.00002101,-0.00059752,0.00027897,-0.06848467,0.314516
 97,-0.00036688,0.00061340,-0.00023326,0.00019354,0.00013227,-0.0002031
 0,0.00009008,0.00012752,0.00014527,0.00004816,0.00002143,-0.00010311,-
 0.00003811,-0.00003227,-0.00010696,0.00000988,0.00000151,0.00000964,-0
 .00001242,0.00004680,0.00004019,0.00000495,0.00000481,-0.00000003,-0.0
 0001360,-0.00001638,0.00000958,-0.00000633,-0.00000500,-0.00002289,-0.
 00001159,-0.00000857,-0.00002782,0.00000049,0.00000016,-0.00001208,-0.
 00000446,0.00000084,-0.00000721,-0.00023802,-0.00000319,-0.00003253,0.
 00008997,-0.00003602,0.00004444,-0.00000947,-0.00000877,0.00003252,-0.
 00002623,-0.00001442,-0.00001739,-0.00000478,0.00001208,-0.00001734,0.
 00002333,-0.00001413,-0.00001315,-0.00000172,-0.00002124,-0.00001408,0
 .00001955,0.00000739,0.00003032,0.00002151,-0.00000364,-0.00001131,0.0
 0000102,-0.00000251,0.00000281,0.00000873,0.00000095,0.00000128,0.0052
 1187,0.00390349,0.00426829,0.00026111,-0.00072526,-0.00065835,-0.00651
 071,0.01848001,-0.00230040,0.00348226,0.00232045,0.00618937,-0.0004034
 8,-0.00042588,-0.00084684,-0.02054771,0.11826973,-0.10742077,-0.001333
 86,-0.00261517,-0.00295973,0.00341577,-0.00566975,0.00742674,0.0000665
 7,-0.00027977,0.00004330,0.01866215,-0.13196712,0.09975978,-0.00002060
 ,-0.00014867,-0.00038877,-0.00001011,-0.00011924,0.00004562,-0.0000025
 3,0.00001309,-0.00006726,0.00002579,0.00003889,0.00002082,0.00000841,0
 .00001419,0.00001678,-0.00001526,-0.00002611,-0.00001069,-0.00002381,-
 0.00002525,-0.00002603,0.00000476,0.00000340,0.00000815,-0.00000085,0.
 00000132,-0.00000566,-0.00000209,-0.00000665,0.00001205,0.00000497,0.0
 0000643,0.00000509,-0.00000305,-0.00000607,0.00000867,0.00000037,-0.00
 000210,0.00001203,0.00004051,-0.00003723,0.00005040,-0.00004714,-0.000
 05222,-0.00001747,-0.00001173,0.00001896,0.00003887,0.00003528,-0.0000
 2195,0.00000772,0.00001121,0.00000781,-0.00002264,0.00000336,0.0000162
 1,0.00001682,0.00001330,0.00000709,0.00000538,-0.00000392,-0.00000054,
 -0.00001601,-0.00000834,0.00000966,0.00000320,-0.00001192,-0.00000819,
 -0.00001174,-0.00001515,0.00000174,-0.00000341,-0.00026135,0.00082547,
 -0.00077074,0.00162614,0.00313504,0.00119031,-0.00342430,0.00501211,0.
 00230722,0.00998762,0.00726762,-0.00617177,0.00023543,0.00023176,-0.00
 026209,-0.01499839,-0.01915174,0.01927993,-0.00092096,-0.00080379,0.00
 080333,-0.21200420,-0.09319477,0.12087213,0.00044743,-0.00158699,-0.00
 129717,0.00054191,-0.00040936,-0.00208154,0.21879922,-0.00019846,-0.00
 015456,-0.00047070,0.00006802,-0.00001211,0.00002185,-0.00000686,0.000
 05950,-0.00007181,-0.00001423,0.00001727,0.00001688,-0.00000632,0.0000
 1739,-0.00001309,-0.00000711,-0.00000651,-0.00001402,0.00001380,-0.000
 01730,-0.00000030,0.00000508,0.00001295,0.00000298,0.00000645,-0.00000
 056,-0.00000536,-0.00000057,-0.00001056,0.00000623,0.00000270,0.000004
 91,0.00000175,-0.00000145,-0.00000591,0.00000510,0.00000093,-0.0000004
 3,0.00000859,0.00004601,-0.00000123,0.00006130,-0.00004219,0.00002620,
 -0.00002072,-0.00002475,0.00001400,-0.00003070,-0.00001230,0.00000417,
 -0.00000453,0.00000357,-0.00000758,-0.00000025,0.00000649,0.00000461,0
 .00000178,0.00001109,0.00000100,0.00001395,-0.00001042,0.00000305,0.00
 000404,-0.00000477,0.00000372,0.00000016,-0.00000794,-0.00000406,-0.00
 000509,-0.00000588,0.00000127,-0.00000046,0.00079804,-0.00080875,-0.00
 044329,0.00370403,-0.00305384,0.00504096,0.00442457,0.00117369,0.00263
 713,-0.02519957,-0.00811798,0.01798870,-0.00112045,-0.00071501,0.00079
 629,0.01329862,0.01199118,-0.00936641,0.00049860,0.00032097,-0.0004374
 8,-0.09324309,-0.13427785,0.08741007,-0.00034807,-0.00002046,-0.002562
 47,-0.00162363,-0.00016619,-0.00209375,0.09899006,0.13372502,-0.000239
 14,-0.00037662,-0.00078487,0.00002828,-0.00014958,0.00002821,0.0001322
 4,0.00012478,-0.00000883,-0.00001056,-0.00000089,-0.00004661,-0.000024
 36,-0.00002976,-0.00006675,0.00000826,0.00002437,0.00002360,0.00002394
 ,0.00002650,0.00004017,-0.00000706,0.00000490,-0.00001118,-0.00000289,
 -0.00000759,0.00000613,-0.00000090,0.00000828,-0.00001968,-0.00000173,
 -0.00001401,-0.00001882,0.00000082,0.00000296,-0.00001072,0.00000139,0
 .00000087,-0.00001115,0.00000708,0.00001105,-0.00004862,0.00000804,0.0
 0003378,0.00001886,0.00002302,0.00002817,-0.00002314,-0.00001254,0.000
 00610,0.00000520,-0.00000508,-0.00000642,0.00000197,-0.00001095,-0.000
 00327,-0.00002033,-0.00000350,-0.00001732,-0.00000181,0.00001110,-0.00
 000617,0.00000440,0.00000886,-0.00000486,-0.00000510,-0.00000013,-0.00
 000115,0.00000675,0.00000752,-0.00000257,0.00000269,-0.00086617,-0.000
 54196,-0.00027071,0.00089917,0.00524689,0.00534839,0.00265471,0.002454
 07,0.00649630,0.01216370,0.00429381,-0.00246140,0.00046141,0.00022459,
 -0.00038950,0.00063760,0.00423109,0.00253764,0.00003123,0.00011071,-0.
 00016010,0.12099858,0.08744887,-0.14775950,-0.00200141,-0.00202875,-0.
 00282661,-0.00136901,-0.00261353,-0.00299518,-0.13355154,-0.09847732,0
 .14342032||0.00000611,0.00000139,-0.00001954,-0.00000011,-0.00000201,0
 .00000738,-0.00001203,-0.00004435,0.00001893,0.00002536,0.00003452,0.0
 0004761,0.00000336,0.00001850,-0.00004184,0.00000162,0.00002297,-0.000
 05341,-0.00000507,-0.00000569,0.00000276,0.00001235,0.00002225,0.00003
 858,0.00000064,-0.00000104,0.00000553,-0.00001892,-0.00004835,0.000002
 60,-0.00000027,-0.00000313,0.00000370,-0.00000081,-0.00000157,-0.00000
 278,0.00000104,0.00000316,-0.00000205,0.00000151,-0.00002839,-0.000020
 03,-0.00004426,0.00002262,0.00000865,0.00002512,0.00001115,0.00001855,
 0.00003801,0.00001067,0.00002402,-0.00000024,-0.00000024,-0.00000732,-
 0.00003170,0.00002396,0.00000054,-0.00000364,0.00000009,-0.00000268,0.
 00000240,-0.00003510,-0.00002778,-0.00000247,-0.00000154,-0.00000218,0
 .00000434,-0.00000261,-0.00000035,0.00000125,0.00000245,0.00000429,-0.
 00000403,-0.00000728,-0.00000217,-0.00000081,0.00000137,0.00000474,0.0
 0000753,0.00001913,-0.00000874,0.00000201,0.00000146,-0.00000629,0.000
 00019,0.00000088,-0.00000148,-0.00001429,0.00000106,0.00001058,0.00000
 198,-0.00000388,0.00000068,0.00000346,-0.00001240,-0.00000093,0.000000
 12,0.00000139,0.00000168,0.00000145,-0.00000247,-0.00000272,-0.0000011
 8,0.00000103,0.00000146|||@


 E PUR SI MUOVE    -- GALILEO GALILEI
 Job cpu time:  0 days  0 hours  6 minutes 28.0 seconds.
 File lengths (MBytes):  RWF=    350 Int=      0 D2E=      0 Chk=      7 Scr=      1
 Normal termination of Gaussian 09 at Mon Sep 06 20:46:58 2021.
