 Entering Link 1 = b:\programy\g09w\l1.exe PID=     21940.
  
 Copyright (c) 1988,1990,1992,1993,1995,1998,2003,2009, Gaussian, Inc.
                  All Rights Reserved.
  
 This is part of the Gaussian(R) 09 program.  It is based on
 the Gaussian(R) 03 system (copyright 2003, Gaussian, Inc.),
 the Gaussian(R) 98 system (copyright 1998, Gaussian, Inc.),
 the Gaussian(R) 94 system (copyright 1995, Gaussian, Inc.),
 the Gaussian 92(TM) system (copyright 1992, Gaussian, Inc.),
 the Gaussian 90(TM) system (copyright 1990, Gaussian, Inc.),
 the Gaussian 88(TM) system (copyright 1988, Gaussian, Inc.),
 the Gaussian 86(TM) system (copyright 1986, Carnegie Mellon
 University), and the Gaussian 82(TM) system (copyright 1983,
 Carnegie Mellon University). Gaussian is a federally registered
 trademark of Gaussian, Inc.
  
 This software contains proprietary and confidential information,
 including trade secrets, belonging to Gaussian, Inc.
  
 This software is provided under written license and may be
 used, copied, transmitted, or stored only in accord with that
 written license.
  
 The following legend is applicable only to US Government
 contracts under FAR:
  
                    RESTRICTED RIGHTS LEGEND
  
 Use, reproduction and disclosure by the US Government is
 subject to restrictions as set forth in subparagraphs (a)
 and (c) of the Commercial Computer Software - Restricted
 Rights clause in FAR 52.227-19.
  
 Gaussian, Inc.
 340 Quinnipiac St., Bldg. 40, Wallingford CT 06492
  
  
 ---------------------------------------------------------------
 Warning -- This program may not be used in any manner that
 competes with the business of Gaussian, Inc. or will provide
 assistance to any competitor of Gaussian, Inc.  The licensee
 of this program is prohibited from giving any competitor of
 Gaussian, Inc. access to this program.  By using this program,
 the user acknowledges that Gaussian, Inc. is engaged in the
 business of creating and licensing software in the field of
 computational chemistry and represents and warrants to the
 licensee that it is not a competitor of Gaussian, Inc. and that
 it will not use this program in any manner prohibited above.
 ---------------------------------------------------------------
  

 Cite this work as:
 Gaussian 09, Revision A.02,
 M. J. Frisch, G. W. Trucks, H. B. Schlegel, G. E. Scuseria, 
 M. A. Robb, J. R. Cheeseman, G. Scalmani, V. Barone, B. Mennucci, 
 G. A. Petersson, H. Nakatsuji, M. Caricato, X. Li, H. P. Hratchian, 
 A. F. Izmaylov, J. Bloino, G. Zheng, J. L. Sonnenberg, M. Hada, 
 M. Ehara, K. Toyota, R. Fukuda, J. Hasegawa, M. Ishida, T. Nakajima, 
 Y. Honda, O. Kitao, H. Nakai, T. Vreven, J. A. Montgomery, Jr., 
 J. E. Peralta, F. Ogliaro, M. Bearpark, J. J. Heyd, E. Brothers, 
 K. N. Kudin, V. N. Staroverov, R. Kobayashi, J. Normand, 
 K. Raghavachari, A. Rendell, J. C. Burant, S. S. Iyengar, J. Tomasi, 
 M. Cossi, N. Rega, J. M. Millam, M. Klene, J. E. Knox, J. B. Cross, 
 V. Bakken, C. Adamo, J. Jaramillo, R. Gomperts, R. E. Stratmann, 
 O. Yazyev, A. J. Austin, R. Cammi, C. Pomelli, J. W. Ochterski, 
 R. L. Martin, K. Morokuma, V. G. Zakrzewski, G. A. Voth, 
 P. Salvador, J. J. Dannenberg, S. Dapprich, A. D. Daniels, 
 O. Farkas, J. B. Foresman, J. V. Ortiz, J. Cioslowski, 
 and D. J. Fox, Gaussian, Inc., Wallingford CT, 2009.
 
 ******************************************
 Gaussian 09:  IA32W-G09RevA.02 11-Jun-2009
                07-Sep-2021 
 ******************************************
 %nprocshared=12
 Will use up to   12 processors via shared memory.
 ----------------------------------------------
 # opt freq=noraman hf/6-311g geom=connectivity
 ----------------------------------------------
 1/18=20,19=15,38=1,57=2/1,3;
 2/9=110,12=2,17=6,18=5,40=1/2;
 3/5=4,6=6,11=9,16=1,25=1,30=1,71=1/1,2,3;
 4//1;
 5/5=2,38=5/2;
 6/7=2,8=2,9=2,10=2,28=1/1;
 7//1,2,3,16;
 1/18=20,19=15/3(2);
 2/9=110/2;
 99//99;
 2/9=110/2;
 3/5=4,6=6,11=9,16=1,25=1,30=1,71=1/1,2,3;
 4/5=5,16=3/1;
 5/5=2,38=5/2;
 7//1,2,3,16;
 1/18=20,19=15/3(-5);
 2/9=110/2;
 6/7=2,8=2,9=2,10=2,19=2,28=1/1;
 99/9=1/99;
 -----
 M0001
 -----
 Symbolic Z-matrix:
 Charge =  0 Multiplicity = 1
 C                    -0.19579  -0.72367   0.19435 
 H                    -0.45289  -1.79201   0.42705 
 C                    -0.25846   0.04594   1.4898 
 C                    -0.6598   -0.61565   2.65259 
 C                     0.08149   1.3989    1.56106 
 C                    -0.71928   0.06552   3.86328 
 H                    -0.92968  -1.67775   2.61355 
 C                     0.02214   2.07734   2.77204 
 H                     0.40989   1.91761   0.64628 
 C                    -0.37896   1.41216   3.92556 
 H                    -1.03469  -0.46178   4.76941 
 H                     0.29379   3.13699   2.81647 
 H                    -0.42535   1.94689   4.87962 
 C                     1.20152  -0.69798  -0.37747 
 C                     1.96479  -1.86748  -0.37582 
 C                     1.74526   0.47033  -0.91516 
 C                     3.24932  -1.86664  -0.9084 
 H                     1.55265  -2.79119   0.04705 
 C                     3.02774   0.46793  -1.44959 
 H                     1.15085   1.39633  -0.89235 
 C                     3.78161  -0.70115  -1.44846 
 H                     3.84176  -2.78734  -0.90216 
 H                     3.44428   1.38859  -1.87076 
 H                     4.79185  -0.70307  -1.87001 
 C                    -1.21265  -0.29429  -0.83459 
 C                    -2.15882   0.69998  -0.59096 
 C                    -1.23003  -0.96049  -2.06525 
 C                    -3.10247   1.02629  -1.56017 
 H                    -2.16229   1.22926   0.37055 
 C                    -2.17109  -0.63201  -3.03151 
 H                    -0.48858  -1.74343  -2.2646 
 C                    -3.11089   0.36349  -2.78097 
 H                    -3.84069   1.80867  -1.35614 
 H                    -2.17325  -1.15816  -3.99164 
 H                    -3.85329   0.62189  -3.54263 
 

 GradGradGradGradGradGradGradGradGradGradGradGradGradGradGradGradGradGrad
 Berny optimization.
 Initialization pass.
                           ----------------------------
                           !    Initial Parameters    !
                           ! (Angstroms and Degrees)  !
 --------------------------                            --------------------------
 ! Name  Definition              Value          Derivative Info.                !
 --------------------------------------------------------------------------------
 ! R1    R(1,2)                  1.1232         estimate D2E/DX2                !
 ! R2    R(1,3)                  1.5081         estimate D2E/DX2                !
 ! R3    R(1,14)                 1.51           estimate D2E/DX2                !
 ! R4    R(1,25)                 1.509          estimate D2E/DX2                !
 ! R5    R(3,4)                  1.3967         estimate D2E/DX2                !
 ! R6    R(3,5)                  1.3968         estimate D2E/DX2                !
 ! R7    R(4,6)                  1.3904         estimate D2E/DX2                !
 ! R8    R(4,7)                  1.0966         estimate D2E/DX2                !
 ! R9    R(5,8)                  1.3893         estimate D2E/DX2                !
 ! R10   R(5,9)                  1.1017         estimate D2E/DX2                !
 ! R11   R(6,10)                 1.3904         estimate D2E/DX2                !
 ! R12   R(6,11)                 1.0948         estimate D2E/DX2                !
 ! R13   R(8,10)                 1.3907         estimate D2E/DX2                !
 ! R14   R(8,12)                 1.0948         estimate D2E/DX2                !
 ! R15   R(10,13)                1.0947         estimate D2E/DX2                !
 ! R16   R(14,15)                1.3965         estimate D2E/DX2                !
 ! R17   R(14,16)                1.3963         estimate D2E/DX2                !
 ! R18   R(15,17)                1.3906         estimate D2E/DX2                !
 ! R19   R(15,18)                1.0963         estimate D2E/DX2                !
 ! R20   R(16,19)                1.3894         estimate D2E/DX2                !
 ! R21   R(16,20)                1.1006         estimate D2E/DX2                !
 ! R22   R(17,21)                1.3905         estimate D2E/DX2                !
 ! R23   R(17,22)                1.0949         estimate D2E/DX2                !
 ! R24   R(19,21)                1.3911         estimate D2E/DX2                !
 ! R25   R(19,23)                1.0948         estimate D2E/DX2                !
 ! R26   R(21,24)                1.0947         estimate D2E/DX2                !
 ! R27   R(25,26)                1.394          estimate D2E/DX2                !
 ! R28   R(25,27)                1.3995         estimate D2E/DX2                !
 ! R29   R(26,28)                1.3915         estimate D2E/DX2                !
 ! R30   R(26,29)                1.0976         estimate D2E/DX2                !
 ! R31   R(27,30)                1.3882         estimate D2E/DX2                !
 ! R32   R(27,31)                1.0966         estimate D2E/DX2                !
 ! R33   R(28,32)                1.3891         estimate D2E/DX2                !
 ! R34   R(28,33)                1.0949         estimate D2E/DX2                !
 ! R35   R(30,32)                1.3918         estimate D2E/DX2                !
 ! R36   R(30,34)                1.0948         estimate D2E/DX2                !
 ! R37   R(32,35)                1.0946         estimate D2E/DX2                !
 ! A1    A(2,1,3)              107.3325         estimate D2E/DX2                !
 ! A2    A(2,1,14)             107.8453         estimate D2E/DX2                !
 ! A3    A(2,1,25)             104.9317         estimate D2E/DX2                !
 ! A4    A(3,1,14)             110.7968         estimate D2E/DX2                !
 ! A5    A(3,1,25)             114.3624         estimate D2E/DX2                !
 ! A6    A(14,1,25)            111.1315         estimate D2E/DX2                !
 ! A7    A(1,3,4)              119.0344         estimate D2E/DX2                !
 ! A8    A(1,3,5)              121.8702         estimate D2E/DX2                !
 ! A9    A(4,3,5)              119.0941         estimate D2E/DX2                !
 ! A10   A(3,4,6)              120.3406         estimate D2E/DX2                !
 ! A11   A(3,4,7)              119.9912         estimate D2E/DX2                !
 ! A12   A(6,4,7)              119.6683         estimate D2E/DX2                !
 ! A13   A(3,5,8)              120.4677         estimate D2E/DX2                !
 ! A14   A(3,5,9)              119.0928         estimate D2E/DX2                !
 ! A15   A(8,5,9)              120.4349         estimate D2E/DX2                !
 ! A16   A(4,6,10)             120.1998         estimate D2E/DX2                !
 ! A17   A(4,6,11)             119.8047         estimate D2E/DX2                !
 ! A18   A(10,6,11)            119.9955         estimate D2E/DX2                !
 ! A19   A(5,8,10)             120.1152         estimate D2E/DX2                !
 ! A20   A(5,8,12)             119.8284         estimate D2E/DX2                !
 ! A21   A(10,8,12)            120.0562         estimate D2E/DX2                !
 ! A22   A(6,10,8)             119.7825         estimate D2E/DX2                !
 ! A23   A(6,10,13)            120.1179         estimate D2E/DX2                !
 ! A24   A(8,10,13)            120.0996         estimate D2E/DX2                !
 ! A25   A(1,14,15)            119.4104         estimate D2E/DX2                !
 ! A26   A(1,14,16)            121.3594         estimate D2E/DX2                !
 ! A27   A(15,14,16)           119.2293         estimate D2E/DX2                !
 ! A28   A(14,15,17)           120.2591         estimate D2E/DX2                !
 ! A29   A(14,15,18)           120.0377         estimate D2E/DX2                !
 ! A30   A(17,15,18)           119.7032         estimate D2E/DX2                !
 ! A31   A(14,16,19)           120.4056         estimate D2E/DX2                !
 ! A32   A(14,16,20)           119.057          estimate D2E/DX2                !
 ! A33   A(19,16,20)           120.5276         estimate D2E/DX2                !
 ! A34   A(15,17,21)           120.1916         estimate D2E/DX2                !
 ! A35   A(15,17,22)           119.8121         estimate D2E/DX2                !
 ! A36   A(21,17,22)           119.9963         estimate D2E/DX2                !
 ! A37   A(16,19,21)           120.0916         estimate D2E/DX2                !
 ! A38   A(16,19,23)           119.8501         estimate D2E/DX2                !
 ! A39   A(21,19,23)           120.0583         estimate D2E/DX2                !
 ! A40   A(17,21,19)           119.8214         estimate D2E/DX2                !
 ! A41   A(17,21,24)           120.092          estimate D2E/DX2                !
 ! A42   A(19,21,24)           120.0865         estimate D2E/DX2                !
 ! A43   A(1,25,26)            122.7634         estimate D2E/DX2                !
 ! A44   A(1,25,27)            118.1983         estimate D2E/DX2                !
 ! A45   A(26,25,27)           118.9979         estimate D2E/DX2                !
 ! A46   A(25,26,28)           120.386          estimate D2E/DX2                !
 ! A47   A(25,26,29)           119.9473         estimate D2E/DX2                !
 ! A48   A(28,26,29)           119.6667         estimate D2E/DX2                !
 ! A49   A(25,27,30)           120.5208         estimate D2E/DX2                !
 ! A50   A(25,27,31)           119.4277         estimate D2E/DX2                !
 ! A51   A(30,27,31)           120.0506         estimate D2E/DX2                !
 ! A52   A(26,28,32)           120.287          estimate D2E/DX2                !
 ! A53   A(26,28,33)           119.6712         estimate D2E/DX2                !
 ! A54   A(32,28,33)           120.0418         estimate D2E/DX2                !
 ! A55   A(27,30,32)           120.1122         estimate D2E/DX2                !
 ! A56   A(27,30,34)           119.869          estimate D2E/DX2                !
 ! A57   A(32,30,34)           120.0188         estimate D2E/DX2                !
 ! A58   A(28,32,30)           119.6955         estimate D2E/DX2                !
 ! A59   A(28,32,35)           120.199          estimate D2E/DX2                !
 ! A60   A(30,32,35)           120.1055         estimate D2E/DX2                !
 ! D1    D(2,1,3,4)             -3.1554         estimate D2E/DX2                !
 ! D2    D(2,1,3,5)            176.4327         estimate D2E/DX2                !
 ! D3    D(14,1,3,4)          -120.6672         estimate D2E/DX2                !
 ! D4    D(14,1,3,5)            58.9209         estimate D2E/DX2                !
 ! D5    D(25,1,3,4)           112.7975         estimate D2E/DX2                !
 ! D6    D(25,1,3,5)           -67.6144         estimate D2E/DX2                !
 ! D7    D(2,1,14,15)           -7.4843         estimate D2E/DX2                !
 ! D8    D(2,1,14,16)          172.1753         estimate D2E/DX2                !
 ! D9    D(3,1,14,15)          109.7133         estimate D2E/DX2                !
 ! D10   D(3,1,14,16)          -70.6272         estimate D2E/DX2                !
 ! D11   D(25,1,14,15)        -121.9807         estimate D2E/DX2                !
 ! D12   D(25,1,14,16)          57.6789         estimate D2E/DX2                !
 ! D13   D(2,1,25,26)          115.3131         estimate D2E/DX2                !
 ! D14   D(2,1,25,27)          -62.3497         estimate D2E/DX2                !
 ! D15   D(3,1,25,26)           -2.0239         estimate D2E/DX2                !
 ! D16   D(3,1,25,27)         -179.6867         estimate D2E/DX2                !
 ! D17   D(14,1,25,26)        -128.3855         estimate D2E/DX2                !
 ! D18   D(14,1,25,27)          53.9516         estimate D2E/DX2                !
 ! D19   D(1,3,4,6)            179.6002         estimate D2E/DX2                !
 ! D20   D(1,3,4,7)             -0.383          estimate D2E/DX2                !
 ! D21   D(5,3,4,6)              0.0005         estimate D2E/DX2                !
 ! D22   D(5,3,4,7)           -179.9827         estimate D2E/DX2                !
 ! D23   D(1,3,5,8)           -179.5472         estimate D2E/DX2                !
 ! D24   D(1,3,5,9)             -0.3303         estimate D2E/DX2                !
 ! D25   D(4,3,5,8)              0.0406         estimate D2E/DX2                !
 ! D26   D(4,3,5,9)            179.2576         estimate D2E/DX2                !
 ! D27   D(3,4,6,10)            -0.0125         estimate D2E/DX2                !
 ! D28   D(3,4,6,11)          -179.976          estimate D2E/DX2                !
 ! D29   D(7,4,6,10)           179.9707         estimate D2E/DX2                !
 ! D30   D(7,4,6,11)             0.0072         estimate D2E/DX2                !
 ! D31   D(3,5,8,10)            -0.0699         estimate D2E/DX2                !
 ! D32   D(3,5,8,12)           179.8178         estimate D2E/DX2                !
 ! D33   D(9,5,8,10)          -179.2763         estimate D2E/DX2                !
 ! D34   D(9,5,8,12)             0.6113         estimate D2E/DX2                !
 ! D35   D(4,6,10,8)            -0.0164         estimate D2E/DX2                !
 ! D36   D(4,6,10,13)         -179.9411         estimate D2E/DX2                !
 ! D37   D(11,6,10,8)          179.9471         estimate D2E/DX2                !
 ! D38   D(11,6,10,13)           0.0224         estimate D2E/DX2                !
 ! D39   D(5,8,10,6)             0.0574         estimate D2E/DX2                !
 ! D40   D(5,8,10,13)          179.9821         estimate D2E/DX2                !
 ! D41   D(12,8,10,6)         -179.83           estimate D2E/DX2                !
 ! D42   D(12,8,10,13)           0.0947         estimate D2E/DX2                !
 ! D43   D(1,14,15,17)         179.4437         estimate D2E/DX2                !
 ! D44   D(1,14,15,18)          -0.6062         estimate D2E/DX2                !
 ! D45   D(16,14,15,17)         -0.2232         estimate D2E/DX2                !
 ! D46   D(16,14,15,18)        179.7269         estimate D2E/DX2                !
 ! D47   D(1,14,16,19)        -179.2833         estimate D2E/DX2                !
 ! D48   D(1,14,16,20)           1.8469         estimate D2E/DX2                !
 ! D49   D(15,14,16,19)          0.3769         estimate D2E/DX2                !
 ! D50   D(15,14,16,20)       -178.4929         estimate D2E/DX2                !
 ! D51   D(14,15,17,21)         -0.1103         estimate D2E/DX2                !
 ! D52   D(14,15,17,22)        179.9222         estimate D2E/DX2                !
 ! D53   D(18,15,17,21)        179.9395         estimate D2E/DX2                !
 ! D54   D(18,15,17,22)         -0.028          estimate D2E/DX2                !
 ! D55   D(14,16,19,21)         -0.1972         estimate D2E/DX2                !
 ! D56   D(14,16,19,23)        179.8682         estimate D2E/DX2                !
 ! D57   D(20,16,19,21)        178.6558         estimate D2E/DX2                !
 ! D58   D(20,16,19,23)         -1.2787         estimate D2E/DX2                !
 ! D59   D(15,17,21,19)          0.2928         estimate D2E/DX2                !
 ! D60   D(15,17,21,24)       -179.8154         estimate D2E/DX2                !
 ! D61   D(22,17,21,19)       -179.7398         estimate D2E/DX2                !
 ! D62   D(22,17,21,24)          0.152          estimate D2E/DX2                !
 ! D63   D(16,19,21,17)         -0.1394         estimate D2E/DX2                !
 ! D64   D(16,19,21,24)        179.9687         estimate D2E/DX2                !
 ! D65   D(23,19,21,17)        179.795          estimate D2E/DX2                !
 ! D66   D(23,19,21,24)         -0.0969         estimate D2E/DX2                !
 ! D67   D(1,25,26,28)        -177.8555         estimate D2E/DX2                !
 ! D68   D(1,25,26,29)           2.0783         estimate D2E/DX2                !
 ! D69   D(27,25,26,28)         -0.2105         estimate D2E/DX2                !
 ! D70   D(27,25,26,29)        179.7232         estimate D2E/DX2                !
 ! D71   D(1,25,27,30)         178.0589         estimate D2E/DX2                !
 ! D72   D(1,25,27,31)          -2.2831         estimate D2E/DX2                !
 ! D73   D(26,25,27,30)          0.3059         estimate D2E/DX2                !
 ! D74   D(26,25,27,31)        179.964          estimate D2E/DX2                !
 ! D75   D(25,26,28,32)          0.0137         estimate D2E/DX2                !
 ! D76   D(25,26,28,33)        179.958          estimate D2E/DX2                !
 ! D77   D(29,26,28,32)       -179.9202         estimate D2E/DX2                !
 ! D78   D(29,26,28,33)          0.0241         estimate D2E/DX2                !
 ! D79   D(25,27,30,32)         -0.204          estimate D2E/DX2                !
 ! D80   D(25,27,30,34)        179.8321         estimate D2E/DX2                !
 ! D81   D(31,27,30,32)       -179.8599         estimate D2E/DX2                !
 ! D82   D(31,27,30,34)          0.1761         estimate D2E/DX2                !
 ! D83   D(26,28,32,30)          0.0917         estimate D2E/DX2                !
 ! D84   D(26,28,32,35)       -179.9503         estimate D2E/DX2                !
 ! D85   D(33,28,32,30)       -179.8524         estimate D2E/DX2                !
 ! D86   D(33,28,32,35)          0.1057         estimate D2E/DX2                !
 ! D87   D(27,30,32,28)          0.0033         estimate D2E/DX2                !
 ! D88   D(27,30,32,35)       -179.9548         estimate D2E/DX2                !
 ! D89   D(34,30,32,28)        179.9672         estimate D2E/DX2                !
 ! D90   D(34,30,32,35)          0.009          estimate D2E/DX2                !
 --------------------------------------------------------------------------------
 Trust Radius=3.00D-01 FncErr=1.00D-07 GrdErr=1.00D-07
 Number of steps in this run= 197 maximum allowed number of steps= 210.
 GradGradGradGradGradGradGradGradGradGradGradGradGradGradGradGradGradGrad

                          Input orientation:                          
 ---------------------------------------------------------------------
 Center     Atomic      Atomic             Coordinates (Angstroms)
 Number     Number       Type             X           Y           Z
 ---------------------------------------------------------------------
      1          6           0       -0.195792   -0.723672    0.194353
      2          1           0       -0.452889   -1.792014    0.427051
      3          6           0       -0.258459    0.045939    1.489796
      4          6           0       -0.659797   -0.615646    2.652590
      5          6           0        0.081489    1.398897    1.561060
      6          6           0       -0.719282    0.065520    3.863281
      7          1           0       -0.929680   -1.677754    2.613548
      8          6           0        0.022139    2.077336    2.772037
      9          1           0        0.409890    1.917612    0.646275
     10          6           0       -0.378958    1.412164    3.925561
     11          1           0       -1.034687   -0.461781    4.769411
     12          1           0        0.293792    3.136985    2.816468
     13          1           0       -0.425346    1.946886    4.879615
     14          6           0        1.201519   -0.697980   -0.377467
     15          6           0        1.964792   -1.867483   -0.375822
     16          6           0        1.745259    0.470335   -0.915158
     17          6           0        3.249318   -1.866638   -0.908399
     18          1           0        1.552651   -2.791190    0.047046
     19          6           0        3.027737    0.467928   -1.449588
     20          1           0        1.150849    1.396331   -0.892352
     21          6           0        3.781608   -0.701147   -1.448456
     22          1           0        3.841760   -2.787344   -0.902160
     23          1           0        3.444277    1.388592   -1.870757
     24          1           0        4.791849   -0.703074   -1.870009
     25          6           0       -1.212646   -0.294292   -0.834591
     26          6           0       -2.158823    0.699982   -0.590963
     27          6           0       -1.230033   -0.960488   -2.065255
     28          6           0       -3.102466    1.026289   -1.560169
     29          1           0       -2.162289    1.229256    0.370552
     30          6           0       -2.171095   -0.632010   -3.031514
     31          1           0       -0.488576   -1.743431   -2.264602
     32          6           0       -3.110885    0.363493   -2.780970
     33          1           0       -3.840687    1.808671   -1.356143
     34          1           0       -2.173245   -1.158158   -3.991643
     35          1           0       -3.853294    0.621886   -3.542628
 ---------------------------------------------------------------------
                    Distance matrix (angstroms):
                    1          2          3          4          5
     1  C    0.000000
     2  H    1.123210   0.000000
     3  C    1.508112   2.131971   0.000000
     4  C    2.503976   2.525802   1.396731   0.000000
     5  C    2.539699   3.428330   1.396831   2.408179   0.000000
     6  C    3.789182   3.915236   2.417886   1.390431   2.778372
     7  H    2.702105   2.240793   2.164365   1.096556   3.405286
     8  C    3.812820   4.549338   2.418564   2.780549   1.389341
     9  H    2.747265   3.814941   2.159022   3.403957   1.101700
    10  C    4.303168   4.744659   2.795361   2.410672   2.408952
    11  H    4.658700   4.578657   3.408252   2.155261   3.873175
    12  H    4.692532   5.528280   3.408754   3.875362   2.154547
    13  H    5.397801   5.814246   3.890029   3.403113   3.401468
    14  C    1.510005   2.140379   2.484275   3.557038   3.067450
    15  C    2.510284   2.548623   3.476285   4.198433   4.238818
    16  C    2.534630   3.428061   3.158924   4.437620   3.124423
    17  C    3.793576   3.936411   4.659805   5.433857   5.176590
    18  H    2.711712   2.272652   3.662096   4.051762   4.691843
    19  C    3.809671   4.554544   4.429124   5.621379   4.314057
    20  H    2.736564   3.805042   3.079665   4.460169   2.676335
    21  C    4.303375   4.757991   5.051099   6.045822   5.211358
    22  H    4.665073   4.604508   5.528177   6.133232   6.142614
    23  H    4.687904   5.530288   5.177479   6.428146   4.804771
    24  H    5.398016   5.828341   6.111867   7.083925   6.194999
    25  C    1.509002   2.100511   2.535549   3.545327   3.206372
    26  C    2.548922   3.186943   2.892873   3.807702   3.184130
    27  C    2.496310   2.739887   3.820372   4.764677   4.520724
    28  C    3.819616   4.348809   4.283895   5.139059   4.474202
    29  H    2.777064   3.471788   2.505497   3.296793   2.545707
    30  C    3.783708   4.032309   4.955809   5.881609   5.503677
    31  H    2.678076   2.692329   4.165370   5.047772   4.983462
    32  C    4.304909   4.690688   5.145544   6.040705   5.487854
    33  H    4.701283   5.255653   4.902954   5.662625   4.905248
    34  H    4.649910   4.783959   5.929792   6.835984   6.515740
    35  H    5.399340   5.757432   6.211268   7.078886   6.491063
                    6          7          8          9         10
     6  C    0.000000
     7  H    2.155250   0.000000
     8  C    2.405810   3.877084   0.000000
     9  H    3.880000   4.311759   2.166732   0.000000
    10  C    1.390378   3.401804   1.390665   3.410494   0.000000
    11  H    1.094805   2.477370   3.399043   4.974792   2.157251
    12  H    3.399417   4.971899   1.094818   2.492005   2.158167
    13  H    2.158443   4.304350   2.158505   4.315048   1.094669
    14  C    4.717663   3.801070   4.360355   2.918227   5.046451
    15  C    5.376871   4.165369   5.407820   4.217742   5.895010
    16  C    5.391782   4.921520   4.375729   2.513145   5.369535
    17  C    6.500150   5.468438   6.286114   4.979951   6.876198
    18  H    5.280731   3.740139   5.785377   4.882397   6.036736
    19  C    6.513729   6.064172   5.426411   3.653403   6.433458
    20  H    5.280577   5.105873   3.894291   1.785533   5.054982
    21  C    7.004308   6.296815   6.298106   4.755448   7.117334
    22  H    7.186888   6.029763   7.194050   6.025944   7.665326
    23  H    7.208671   6.974452   5.808695   3.977791   6.943701
    24  H    7.989613   7.334043   7.213142   5.692210   8.049852
    25  C    4.737391   3.726084   4.489664   3.117388   5.125044
    26  C    4.723887   4.175322   4.238333   3.100269   4.906537
    27  C    6.038303   4.742982   5.847709   4.280795   6.499514
    28  C    6.001371   5.427040   5.443884   4.242582   6.136745
    29  H    3.954201   3.873121   3.355309   2.676931   3.981434
    30  C    7.080431   5.873791   6.769936   5.166061   7.469357
    31  H    6.393472   4.898494   6.342463   4.762740   6.948951
    32  C    7.067859   6.166455   6.602196   5.153363   7.317151
    33  H    6.326463   6.032211   5.659989   4.699888   6.327495
    34  H    8.081537   6.741290   7.812522   6.135408   8.515172
    35  H    8.060959   7.192660   7.550650   6.115599   8.274624
                   11         12         13         14         15
    11  H    0.000000
    12  H    4.304644   0.000000
    13  H    2.486990   2.487985   0.000000
    14  C    5.616650   5.072687   6.105647   0.000000
    15  C    6.119338   6.166657   6.919667   1.396540   0.000000
    16  C    6.396192   4.810698   6.361692   1.396326   2.409246
    17  C    7.250093   6.902609   7.845204   2.416843   1.390556
    18  H    5.866958   6.663159   7.050927   2.164493   1.096318
    19  C    7.486227   5.726915   7.360022   2.417408   2.781541
    20  H    6.347024   4.185663   6.008586   2.157270   3.403202
    21  C    7.868663   6.714588   8.047051   2.793544   2.410747
    22  H    7.832924   7.843083   8.605235   3.407583   2.155502
    23  H    8.220513   5.912065   7.800846   3.407883   3.876304
    24  H    8.836778   7.545969   8.933020   3.888211   3.403042
    25  C    5.609328   5.231945   6.188285   2.490004   3.575124
    26  C    5.598837   4.854368   5.872558   3.645789   4.862341
    27  C    6.855620   6.553057   7.571761   2.971529   3.726088
    28  C    6.823023   5.928285   7.034579   4.784995   5.954301
    29  H    4.845725   3.956548   4.885040   3.948287   5.213411
    30  C    7.885102   7.381050   8.502018   4.292184   5.068002
    31  H    7.170649   7.088571   8.041286   2.740560   3.098692
    32  C    7.874003   7.114450   8.270660   5.049790   6.043549
    33  H    7.109923   6.022377   7.111142   5.715325   6.941089
    34  H    8.862129   8.419318   9.560109   4.966192   5.540817
    35  H    8.843578   7.997634   9.189158   6.108308   7.076421
                   16         17         18         19         20
    16  C    0.000000
    17  C    2.779151   0.000000
    18  H    3.405948   2.155540   0.000000
    19  C    1.389378   2.406695   3.877840   0.000000
    20  H    1.100596   3.879535   4.310365   2.166830   0.000000
    21  C    2.409044   1.390454   3.401919   1.391064   3.410214
    22  H    3.874011   1.094864   2.478109   3.399869   4.974358
    23  H    2.154769   3.400098   4.972605   1.094766   2.493421
    24  H    3.401520   2.158234   4.304385   2.158724   4.315113
    25  C    3.056199   4.731474   3.828662   4.352017   2.906485
    26  C    3.924245   5.994689   5.135210   5.262271   3.395537
    27  C    3.496047   4.714235   3.944188   4.532993   3.549493
    28  C    4.921948   7.009921   6.231084   6.156573   4.321297
    29  H    4.183055   6.364414   5.483559   5.552378   3.549609
    30  C    4.586061   5.950865   5.292057   5.544385   4.441339
    31  H    3.422248   3.978231   3.257012   4.233062   3.798538
    32  C    5.203346   6.995155   6.300656   6.282211   4.774517
    33  H    5.760938   7.998534   7.226047   6.998684   5.029966
    34  H    5.241319   6.277940   5.732374   6.013021   5.213504
    35  H    6.186305   7.973645   7.332059   7.193964   5.715346
                   21         22         23         24         25
    21  C    0.000000
    22  H    2.157377   0.000000
    23  H    2.158505   4.305185   0.000000
    24  H    1.094668   2.486681   2.488176   0.000000
    25  C    5.048260   5.636213   5.058920   6.106812   0.000000
    26  C    6.163374   6.947322   5.788505   7.205301   1.393982
    27  C    5.056110   5.514824   5.234996   6.030543   1.399519
    28  C    7.098379   7.949783   6.564113   8.087454   2.416985
    29  H    6.508852   7.334949   6.040069   7.557384   2.162265
    30  C    6.159993   6.733055   6.079687   7.059513   2.420568
    31  H    4.470673   4.658091   5.043017   5.396381   2.160837
    32  C    7.100388   7.861105   6.696975   8.026246   2.797210
    33  H    8.025402   8.963785   7.315190   9.005198   3.406034
    34  H    6.491297   6.955533   6.522320   7.295270   3.411157
    35  H    8.026686   8.820928   7.525792   8.904587   3.891769
                   26         27         28         29         30
    26  C    0.000000
    27  C    2.406938   0.000000
    28  C    1.391510   2.776400   0.000000
    29  H    1.097567   3.405471   2.157038   0.000000
    30  C    2.780404   1.388219   2.404634   3.877943   0.000000
    31  H    3.400157   1.096585   3.872983   4.310710   2.157378
    32  C    2.411593   2.408895   1.389145   3.403156   1.391763
    33  H    2.154845   3.871252   1.094859   2.476735   3.398725
    34  H    3.875245   2.153995   3.398136   4.972787   1.094844
    35  H    3.404359   3.401181   2.158107   4.305969   2.159465
                   31         32         33         34         35
    31  H    0.000000
    32  C    3.403274   0.000000
    33  H    4.967834   2.156683   0.000000
    34  H    2.482605   2.158777   4.304451   0.000000
    35  H    4.306902   1.094560   2.487837   2.488521   0.000000
 Stoichiometry    C19H16
 Framework group  C1[X(C19H16)]
 Deg. of freedom    99
 Full point group                 C1      NOp   1
 Largest Abelian subgroup         C1      NOp   1
 Largest concise Abelian subgroup C1      NOp   1
                         Standard orientation:                         
 ---------------------------------------------------------------------
 Center     Atomic      Atomic             Coordinates (Angstroms)
 Number     Number       Type             X           Y           Z
 ---------------------------------------------------------------------
      1          6           0       -0.015076    0.012355   -0.759942
      2          1           0        0.016390    0.012368   -1.882711
      3          6           0       -1.465934   -0.035526   -0.351136
      4          6           0       -2.450626   -0.001930   -1.341140
      5          6           0       -1.852279   -0.120994    0.988480
      6          6           0       -3.796380   -0.052991   -0.995253
      7          1           0       -2.163856    0.064759   -2.397431
      8          6           0       -3.197548   -0.172756    1.331758
      9          1           0       -1.075351   -0.159942    1.768615
     10          6           0       -4.172407   -0.138257    0.340593
     11          1           0       -4.560914   -0.026476   -1.778440
     12          1           0       -3.488536   -0.242668    2.384879
     13          1           0       -5.232270   -0.179351    0.611336
     14          6           0        0.718965   -1.215467   -0.276464
     15          6           0        1.141299   -2.171222   -1.203011
     16          6           0        0.991186   -1.412724    1.078790
     17          6           0        1.828840   -3.302890   -0.778437
     18          1           0        0.930710   -2.031913   -2.269856
     19          6           0        1.681084   -2.542672    1.500251
     20          1           0        0.635226   -0.670254    1.809093
     21          6           0        2.102469   -3.489198    0.572036
     22          1           0        2.155432   -4.048152   -1.511000
     23          1           0        1.891498   -2.687122    2.564850
     24          1           0        2.646470   -4.379182    0.904136
     25          6           0        0.705642    1.273392   -0.350753
     26          6           0        0.071449    2.324036    0.310408
     27          6           0        2.055558    1.405164   -0.695742
     28          6           0        0.773472    3.483457    0.625377
     29          1           0       -0.988009    2.239148    0.584260
     30          6           0        2.754549    2.561934   -0.378812
     31          1           0        2.561591    0.582777   -1.215461
     32          6           0        2.114335    3.605310    0.283379
     33          1           0        0.263591    4.301708    1.144226
     34          1           0        3.811053    2.652546   -0.651345
     35          1           0        2.665376    4.517629    0.532557
 ---------------------------------------------------------------------
 Rotational constants (GHZ):      0.4049877      0.3793314      0.2331887
 Standard basis: 6-311G (5D, 7F)
 There are   295 symmetry adapted basis functions of A   symmetry.
 Integral buffers will be    262144 words long.
 Raffenetti 1 integral format.
 Two-electron integral symmetry is turned on.
   295 basis functions,   574 primitive gaussians,   295 cartesian basis functions
    65 alpha electrons       65 beta electrons
       nuclear repulsion energy      1290.3838454678 Hartrees.
 NAtoms=   35 NActive=   35 NUniq=   35 SFac= 7.50D-01 NAtFMM=   80 NAOKFM=F Big=F
 One-electron integrals computed using PRISM.
 PrsmSu:  requested number of processors reduced to:  10 ShMem   1 Linda.
 NBasis=   295 RedAO= T  NBF=   295
 NBsUse=   295 1.00D-06 NBFU=   295
 Harris functional with IExCor=  205 diagonalized for initial guess.
 ExpMin= 1.03D-01 ExpMax= 4.56D+03 ExpMxC= 6.82D+02 IAcc=1 IRadAn=         1 AccDes= 0.00D+00
 HarFok:  IExCor=  205 AccDes= 0.00D+00 IRadAn=         1 IDoV= 1
 ScaDFX=  1.000000  1.000000  1.000000  1.000000
 FoFCou: FMM=F IPFlag=           0 FMFlag=      100000 FMFlg1=           0
         NFxFlg=           0 DoJE=T BraDBF=F KetDBF=T FulRan=T
         Omega=  0.000000  0.000000  1.000000  0.000000  0.000000 ICntrl=     500 IOpCl=  0
         NMat0=    1 NMatS0=    1 NMatT0=    0 NMatD0=    1 NMtDS0=    0 NMtDT0=    0
         I1Cent=           4 NGrid=           0.
 Petite list used in FoFCou.
 Initial guess orbital symmetries:
       Occupied  (A) (A) (A) (A) (A) (A) (A) (A) (A) (A) (A) (A)
                 (A) (A) (A) (A) (A) (A) (A) (A) (A) (A) (A) (A)
                 (A) (A) (A) (A) (A) (A) (A) (A) (A) (A) (A) (A)
                 (A) (A) (A) (A) (A) (A) (A) (A) (A) (A) (A) (A)
                 (A) (A) (A) (A) (A) (A) (A) (A) (A) (A) (A) (A)
                 (A) (A) (A) (A) (A)
       Virtual   (A) (A) (A) (A) (A) (A) (A) (A) (A) (A) (A) (A)
                 (A) (A) (A) (A) (A) (A) (A) (A) (A) (A) (A) (A)
                 (A) (A) (A) (A) (A) (A) (A) (A) (A) (A) (A) (A)
                 (A) (A) (A) (A) (A) (A) (A) (A) (A) (A) (A) (A)
                 (A) (A) (A) (A) (A) (A) (A) (A) (A) (A) (A) (A)
                 (A) (A) (A) (A) (A) (A) (A) (A) (A) (A) (A) (A)
                 (A) (A) (A) (A) (A) (A) (A) (A) (A) (A) (A) (A)
                 (A) (A) (A) (A) (A) (A) (A) (A) (A) (A) (A) (A)
                 (A) (A) (A) (A) (A) (A) (A) (A) (A) (A) (A) (A)
                 (A) (A) (A) (A) (A) (A) (A) (A) (A) (A) (A) (A)
                 (A) (A) (A) (A) (A) (A) (A) (A) (A) (A) (A) (A)
                 (A) (A) (A) (A) (A) (A) (A) (A) (A) (A) (A) (A)
                 (A) (A) (A) (A) (A) (A) (A) (A) (A) (A) (A) (A)
                 (A) (A) (A) (A) (A) (A) (A) (A) (A) (A) (A) (A)
                 (A) (A) (A) (A) (A) (A) (A) (A) (A) (A) (A) (A)
                 (A) (A) (A) (A) (A) (A) (A) (A) (A) (A) (A) (A)
                 (A) (A) (A) (A) (A) (A) (A) (A) (A) (A) (A) (A)
                 (A) (A) (A) (A) (A) (A) (A) (A) (A) (A) (A) (A)
                 (A) (A) (A) (A) (A) (A) (A) (A) (A) (A) (A) (A)
                 (A) (A)
 The electronic state of the initial guess is 1-A.
 Requested convergence on RMS density matrix=1.00D-08 within 128 cycles.
 Requested convergence on MAX density matrix=1.00D-06.
 Requested convergence on             energy=1.00D-06.
 No special actions if energy rises.
 Integral accuracy reduced to 1.0D-05 until final iterations.
 Initial convergence to 1.0D-05 achieved.  Increase integral accuracy.
 SCF Done:  E(RHF) =  -728.672343973     A.U. after   14 cycles
             Convg  =    0.8296D-08             -V/T =  2.0001

 **********************************************************************

            Population analysis using the SCF density.

 **********************************************************************

 Orbital symmetries:
       Occupied  (A) (A) (A) (A) (A) (A) (A) (A) (A) (A) (A) (A)
                 (A) (A) (A) (A) (A) (A) (A) (A) (A) (A) (A) (A)
                 (A) (A) (A) (A) (A) (A) (A) (A) (A) (A) (A) (A)
                 (A) (A) (A) (A) (A) (A) (A) (A) (A) (A) (A) (A)
                 (A) (A) (A) (A) (A) (A) (A) (A) (A) (A) (A) (A)
                 (A) (A) (A) (A) (A)
       Virtual   (A) (A) (A) (A) (A) (A) (A) (A) (A) (A) (A) (A)
                 (A) (A) (A) (A) (A) (A) (A) (A) (A) (A) (A) (A)
                 (A) (A) (A) (A) (A) (A) (A) (A) (A) (A) (A) (A)
                 (A) (A) (A) (A) (A) (A) (A) (A) (A) (A) (A) (A)
                 (A) (A) (A) (A) (A) (A) (A) (A) (A) (A) (A) (A)
                 (A) (A) (A) (A) (A) (A) (A) (A) (A) (A) (A) (A)
                 (A) (A) (A) (A) (A) (A) (A) (A) (A) (A) (A) (A)
                 (A) (A) (A) (A) (A) (A) (A) (A) (A) (A) (A) (A)
                 (A) (A) (A) (A) (A) (A) (A) (A) (A) (A) (A) (A)
                 (A) (A) (A) (A) (A) (A) (A) (A) (A) (A) (A) (A)
                 (A) (A) (A) (A) (A) (A) (A) (A) (A) (A) (A) (A)
                 (A) (A) (A) (A) (A) (A) (A) (A) (A) (A) (A) (A)
                 (A) (A) (A) (A) (A) (A) (A) (A) (A) (A) (A) (A)
                 (A) (A) (A) (A) (A) (A) (A) (A) (A) (A) (A) (A)
                 (A) (A) (A) (A) (A) (A) (A) (A) (A) (A) (A) (A)
                 (A) (A) (A) (A) (A) (A) (A) (A) (A) (A) (A) (A)
                 (A) (A) (A) (A) (A) (A) (A) (A) (A) (A) (A) (A)
                 (A) (A) (A) (A) (A) (A) (A) (A) (A) (A) (A) (A)
                 (A) (A) (A) (A) (A) (A) (A) (A) (A) (A) (A) (A)
                 (A) (A)
 The electronic state is 1-A.
 Alpha  occ. eigenvalues --  -11.25770 -11.25240 -11.25194 -11.24942 -11.24520
 Alpha  occ. eigenvalues --  -11.24431 -11.24415 -11.24365 -11.24220 -11.24165
 Alpha  occ. eigenvalues --  -11.24139 -11.24113 -11.24074 -11.24056 -11.24023
 Alpha  occ. eigenvalues --  -11.23986 -11.23739 -11.23669 -11.23506  -1.18612
 Alpha  occ. eigenvalues --   -1.15873  -1.15582  -1.09027  -1.02385  -1.02231
 Alpha  occ. eigenvalues --   -1.01878  -1.01487  -1.01121  -0.92922  -0.84314
 Alpha  occ. eigenvalues --   -0.83316  -0.82374  -0.81869  -0.81183  -0.77601
 Alpha  occ. eigenvalues --   -0.70855  -0.70376  -0.68987  -0.65726  -0.63875
 Alpha  occ. eigenvalues --   -0.63598  -0.62494  -0.61726  -0.61624  -0.59700
 Alpha  occ. eigenvalues --   -0.58849  -0.58481  -0.58331  -0.56912  -0.54904
 Alpha  occ. eigenvalues --   -0.51724  -0.50952  -0.50278  -0.49832  -0.49379
 Alpha  occ. eigenvalues --   -0.48473  -0.47895  -0.47525  -0.46350  -0.34982
 Alpha  occ. eigenvalues --   -0.34316  -0.33904  -0.33349  -0.32704  -0.31377
 Alpha virt. eigenvalues --    0.11499   0.12274   0.12854   0.13630   0.14918
 Alpha virt. eigenvalues --    0.15011   0.15542   0.16240   0.16469   0.16943
 Alpha virt. eigenvalues --    0.18910   0.19170   0.19231   0.21256   0.21313
 Alpha virt. eigenvalues --    0.21564   0.23585   0.23968   0.25042   0.25445
 Alpha virt. eigenvalues --    0.27105   0.31081   0.33328   0.34274   0.35773
 Alpha virt. eigenvalues --    0.37480   0.39853   0.40344   0.41578   0.43190
 Alpha virt. eigenvalues --    0.44098   0.44421   0.44843   0.45447   0.45649
 Alpha virt. eigenvalues --    0.45869   0.46780   0.47141   0.48174   0.50521
 Alpha virt. eigenvalues --    0.51158   0.51471   0.51929   0.54878   0.55968
 Alpha virt. eigenvalues --    0.57356   0.57829   0.58453   0.59047   0.59450
 Alpha virt. eigenvalues --    0.60025   0.60414   0.60668   0.61199   0.61448
 Alpha virt. eigenvalues --    0.62096   0.62301   0.62917   0.63669   0.63788
 Alpha virt. eigenvalues --    0.64346   0.64527   0.65194   0.65901   0.66373
 Alpha virt. eigenvalues --    0.67158   0.67805   0.68618   0.69974   0.72339
 Alpha virt. eigenvalues --    0.73177   0.73907   0.74045   0.75129   0.75768
 Alpha virt. eigenvalues --    0.76639   0.78845   0.79267   0.79732   0.81433
 Alpha virt. eigenvalues --    0.81549   0.82166   0.82502   0.82972   0.83158
 Alpha virt. eigenvalues --    0.83807   0.84323   0.84698   0.84735   0.85456
 Alpha virt. eigenvalues --    0.86023   0.86306   0.86447   0.87612   0.88212
 Alpha virt. eigenvalues --    0.90299   0.90713   0.92317   0.93238   0.94752
 Alpha virt. eigenvalues --    0.96046   0.96514   0.97088   0.98168   0.99515
 Alpha virt. eigenvalues --    0.99769   1.02346   1.03005   1.04480   1.06183
 Alpha virt. eigenvalues --    1.07016   1.08362   1.09003   1.10196   1.10477
 Alpha virt. eigenvalues --    1.11130   1.11797   1.12536   1.12627   1.13895
 Alpha virt. eigenvalues --    1.14851   1.16699   1.19027   1.20664   1.20952
 Alpha virt. eigenvalues --    1.24055   1.25767   1.27217   1.28753   1.28805
 Alpha virt. eigenvalues --    1.29323   1.32467   1.33508   1.46444   1.47496
 Alpha virt. eigenvalues --    1.52286   1.54026   1.57433   2.53659   2.55676
 Alpha virt. eigenvalues --    2.56233   2.57798   2.62075   2.62213   2.63983
 Alpha virt. eigenvalues --    2.66178   2.67391   2.68531   2.71765   2.74381
 Alpha virt. eigenvalues --    2.78301   2.83586   2.86401   2.91249   2.94348
 Alpha virt. eigenvalues --    2.94561   2.94746   2.96070   2.97956   2.98491
 Alpha virt. eigenvalues --    3.00128   3.02139   3.03828   3.04656   3.06376
 Alpha virt. eigenvalues --    3.08541   3.09007   3.09575   3.10151   3.13192
 Alpha virt. eigenvalues --    3.15261   3.16303   3.17693   3.18346   3.19349
 Alpha virt. eigenvalues --    3.21636   3.24190   3.25287   3.27593   3.28738
 Alpha virt. eigenvalues --    3.31191   3.33850   3.34158   3.35631   3.41273
 Alpha virt. eigenvalues --    3.41664   3.44248   3.45146   3.49947   3.52125
 Alpha virt. eigenvalues --    3.53367   3.55773   3.57368   3.58264   3.59864
 Alpha virt. eigenvalues --    3.62191   3.64321   3.64922   3.66137   3.66400
 Alpha virt. eigenvalues --    3.67642   3.69253   3.71292   3.72685   3.73733
 Alpha virt. eigenvalues --    3.75779   3.77121   3.78832   3.85327   3.87739
 Alpha virt. eigenvalues --    3.91327  24.25895  24.30097  24.31865  24.50469
 Alpha virt. eigenvalues --   24.50807  24.51026  24.53266  24.54566  24.56546
 Alpha virt. eigenvalues --   24.76433  24.77131  24.79114  24.80200  24.80596
 Alpha virt. eigenvalues --   24.82590  24.86943  25.04731  25.05819  25.07101
          Condensed to atoms (all electrons):
              1          2          3          4          5          6
     1  C    6.072887   0.474331   0.122565  -0.026241  -0.068095   0.008349
     2  H    0.474331   0.505006  -0.077079   0.006571   0.004457   0.001481
     3  C    0.122565  -0.077079   5.388626   0.500964   0.450603  -0.076929
     4  C   -0.026241   0.006571   0.500964   5.043563  -0.062232   0.469562
     5  C   -0.068095   0.004457   0.450603  -0.062232   5.102631  -0.029821
     6  C    0.008349   0.001481  -0.076929   0.469562  -0.029821   5.046101
     7  H   -0.002097   0.002797  -0.045147   0.394023   0.004769  -0.033790
     8  C    0.002135  -0.000226  -0.065322  -0.034493   0.479675  -0.077003
     9  H    0.001175  -0.000059  -0.048741   0.004628   0.386262  -0.000155
    10  C    0.001745   0.000002  -0.015940  -0.088835  -0.093759   0.499387
    11  H   -0.000418  -0.000033   0.007075  -0.039553  -0.000630   0.396421
    12  H   -0.000368   0.000012   0.005972  -0.000368  -0.038452   0.005895
    13  H   -0.000025  -0.000002  -0.001670   0.007554   0.007996  -0.042577
    14  C    0.155371  -0.070947  -0.135864  -0.003933  -0.003508  -0.000615
    15  C   -0.024766   0.001125  -0.001556   0.000605   0.000563  -0.000010
    16  C   -0.053759   0.005725  -0.004171   0.000688  -0.012581   0.000047
    17  C    0.006867   0.001596  -0.000511  -0.000017   0.000139   0.000002
    18  H    0.000023   0.002270   0.000403   0.000259  -0.000005   0.000008
    19  C    0.002944  -0.000270   0.001906   0.000030  -0.000580  -0.000001
    20  H    0.000488   0.000124  -0.002727  -0.000196  -0.001242   0.000005
    21  C    0.001258  -0.000002  -0.000085  -0.000007  -0.000020   0.000000
    22  H   -0.000340  -0.000039   0.000025   0.000001   0.000000   0.000000
    23  H   -0.000343   0.000011   0.000025   0.000000   0.000056   0.000000
    24  H   -0.000011  -0.000001  -0.000003   0.000000   0.000000   0.000000
    25  C    0.044386  -0.062798  -0.068266  -0.000910   0.006196  -0.000785
    26  C   -0.026838   0.001600  -0.012220   0.000882  -0.016989   0.000380
    27  C   -0.085217  -0.005035   0.011262  -0.000223   0.000639   0.000005
    28  C    0.011681  -0.000153  -0.001293  -0.000121  -0.000812   0.000003
    29  H   -0.010691  -0.000275   0.000275  -0.001248  -0.001342  -0.000121
    30  C    0.007596   0.000804  -0.000877   0.000008  -0.000018   0.000000
    31  H   -0.001320  -0.000142   0.000860  -0.000005  -0.000042   0.000000
    32  C    0.000497   0.000025   0.000113  -0.000004  -0.000022   0.000000
    33  H   -0.000358   0.000015   0.000058   0.000004   0.000032   0.000000
    34  H   -0.000354   0.000002   0.000012   0.000000   0.000000   0.000000
    35  H   -0.000014  -0.000002   0.000000   0.000000   0.000001   0.000000
              7          8          9         10         11         12
     1  C   -0.002097   0.002135   0.001175   0.001745  -0.000418  -0.000368
     2  H    0.002797  -0.000226  -0.000059   0.000002  -0.000033   0.000012
     3  C   -0.045147  -0.065322  -0.048741  -0.015940   0.007075   0.005972
     4  C    0.394023  -0.034493   0.004628  -0.088835  -0.039553  -0.000368
     5  C    0.004769   0.479675   0.386262  -0.093759  -0.000630  -0.038452
     6  C   -0.033790  -0.077003  -0.000155   0.499387   0.396421   0.005895
     7  H    0.506299  -0.000299  -0.000267   0.005074  -0.004085   0.000025
     8  C   -0.000299   5.047844  -0.026746   0.490200   0.006284   0.396935
     9  H   -0.000267  -0.026746   0.497365   0.004671   0.000017  -0.003410
    10  C    0.005074   0.490200   0.004671   5.033884  -0.041121  -0.039813
    11  H   -0.004085   0.006284   0.000017  -0.041121   0.518029  -0.000207
    12  H    0.000025   0.396935  -0.003410  -0.039813  -0.000207   0.514494
    13  H   -0.000179  -0.042934  -0.000173   0.399450  -0.004557  -0.004364
    14  C    0.000174   0.001994  -0.003548  -0.000042   0.000019   0.000024
    15  C    0.000157   0.000048  -0.000218  -0.000014   0.000001   0.000002
    16  C   -0.000025  -0.000100   0.002490   0.000000  -0.000001   0.000034
    17  C   -0.000002   0.000001  -0.000073   0.000000   0.000000   0.000000
    18  H    0.000050  -0.000001   0.000000  -0.000002   0.000000   0.000000
    19  C    0.000002  -0.000102   0.001174   0.000002   0.000000  -0.000001
    20  H   -0.000003   0.000836   0.001965  -0.000013   0.000000  -0.000035
    21  C   -0.000001   0.000001   0.000013   0.000000   0.000000   0.000000
    22  H    0.000000   0.000000   0.000001   0.000000   0.000000   0.000000
    23  H    0.000000   0.000002  -0.000067   0.000000   0.000000   0.000001
    24  H    0.000000   0.000000   0.000000   0.000000   0.000000   0.000000
    25  C    0.000515   0.000941   0.001041  -0.000069   0.000025   0.000015
    26  C    0.000156  -0.001461   0.001323   0.000106  -0.000007   0.000010
    27  C    0.000011   0.000018   0.000048   0.000000   0.000000   0.000000
    28  C    0.000007  -0.000040   0.000059   0.000004   0.000000  -0.000002
    29  H    0.000065   0.000597  -0.000056   0.000070   0.000010   0.000043
    30  C   -0.000001   0.000000  -0.000029   0.000000   0.000000   0.000000
    31  H   -0.000002   0.000000   0.000019   0.000000   0.000000   0.000000
    32  C    0.000000   0.000000   0.000002   0.000000   0.000000   0.000000
    33  H    0.000000  -0.000001  -0.000002  -0.000001   0.000000   0.000000
    34  H    0.000000   0.000000   0.000000   0.000000   0.000000   0.000000
    35  H    0.000000   0.000000   0.000000   0.000000   0.000000   0.000000
             13         14         15         16         17         18
     1  C   -0.000025   0.155371  -0.024766  -0.053759   0.006867   0.000023
     2  H   -0.000002  -0.070947   0.001125   0.005725   0.001596   0.002270
     3  C   -0.001670  -0.135864  -0.001556  -0.004171  -0.000511   0.000403
     4  C    0.007554  -0.003933   0.000605   0.000688  -0.000017   0.000259
     5  C    0.007996  -0.003508   0.000563  -0.012581   0.000139  -0.000005
     6  C   -0.042577  -0.000615  -0.000010   0.000047   0.000002   0.000008
     7  H   -0.000179   0.000174   0.000157  -0.000025  -0.000002   0.000050
     8  C   -0.042934   0.001994   0.000048  -0.000100   0.000001  -0.000001
     9  H   -0.000173  -0.003548  -0.000218   0.002490  -0.000073   0.000000
    10  C    0.399450  -0.000042  -0.000014   0.000000   0.000000  -0.000002
    11  H   -0.004557   0.000019   0.000001  -0.000001   0.000000   0.000000
    12  H   -0.004364   0.000024   0.000002   0.000034   0.000000   0.000000
    13  H    0.516933  -0.000003   0.000000   0.000001   0.000000   0.000000
    14  C   -0.000003   5.384400   0.493290   0.444420  -0.072835  -0.050778
    15  C    0.000000   0.493290   5.092212  -0.071877   0.453453   0.400525
    16  C    0.000001   0.444420  -0.071877   5.073843  -0.026851   0.004322
    17  C    0.000000  -0.072835   0.453453  -0.026851   5.060324  -0.035034
    18  H    0.000000  -0.050778   0.400525   0.004322  -0.035034   0.510145
    19  C    0.000000  -0.058634  -0.030568   0.479140  -0.078282  -0.000284
    20  H    0.000000  -0.044963   0.004039   0.389389  -0.000009  -0.000270
    21  C    0.000000  -0.018815  -0.086095  -0.090947   0.497036   0.005257
    22  H    0.000000   0.006940  -0.039723  -0.000678   0.396999  -0.004214
    23  H    0.000000   0.006035  -0.000483  -0.039006   0.005987   0.000024
    24  H    0.000000  -0.001543   0.007485   0.007883  -0.042571  -0.000185
    25  C    0.000002  -0.103012  -0.001822  -0.009085  -0.000422   0.000128
    26  C   -0.000003  -0.001413  -0.000437   0.001666   0.000023  -0.000038
    27  C    0.000000  -0.005299   0.000812  -0.006922  -0.000127   0.000309
    28  C    0.000000  -0.000741   0.000008   0.000046   0.000000   0.000000
    29  H    0.000008   0.000360  -0.000019   0.000101   0.000000   0.000001
    30  C    0.000000  -0.001400  -0.000046  -0.000128   0.000013  -0.000008
    31  H    0.000000   0.003618   0.001964  -0.000465   0.000109   0.000216
    32  C    0.000000   0.000121  -0.000002   0.000040   0.000000   0.000001
    33  H    0.000000   0.000011   0.000000   0.000000   0.000000   0.000000
    34  H    0.000000   0.000012  -0.000005   0.000014   0.000000   0.000000
    35  H    0.000000   0.000002   0.000000   0.000000   0.000000   0.000000
             19         20         21         22         23         24
     1  C    0.002944   0.000488   0.001258  -0.000340  -0.000343  -0.000011
     2  H   -0.000270   0.000124  -0.000002  -0.000039   0.000011  -0.000001
     3  C    0.001906  -0.002727  -0.000085   0.000025   0.000025  -0.000003
     4  C    0.000030  -0.000196  -0.000007   0.000001   0.000000   0.000000
     5  C   -0.000580  -0.001242  -0.000020   0.000000   0.000056   0.000000
     6  C   -0.000001   0.000005   0.000000   0.000000   0.000000   0.000000
     7  H    0.000002  -0.000003  -0.000001   0.000000   0.000000   0.000000
     8  C   -0.000102   0.000836   0.000001   0.000000   0.000002   0.000000
     9  H    0.001174   0.001965   0.000013   0.000001  -0.000067   0.000000
    10  C    0.000002  -0.000013   0.000000   0.000000   0.000000   0.000000
    11  H    0.000000   0.000000   0.000000   0.000000   0.000000   0.000000
    12  H   -0.000001  -0.000035   0.000000   0.000000   0.000001   0.000000
    13  H    0.000000   0.000000   0.000000   0.000000   0.000000   0.000000
    14  C   -0.058634  -0.044963  -0.018815   0.006940   0.006035  -0.001543
    15  C   -0.030568   0.004039  -0.086095  -0.039723  -0.000483   0.007485
    16  C    0.479140   0.389389  -0.090947  -0.000678  -0.039006   0.007883
    17  C   -0.078282  -0.000009   0.497036   0.396999   0.005987  -0.042571
    18  H   -0.000284  -0.000270   0.005257  -0.004214   0.000024  -0.000185
    19  C    5.039173  -0.028237   0.491368   0.006229   0.397211  -0.042921
    20  H   -0.028237   0.496014   0.004549   0.000015  -0.003349  -0.000171
    21  C    0.491368   0.004549   5.034146  -0.040665  -0.039826   0.399706
    22  H    0.006229   0.000015  -0.040665   0.518121  -0.000206  -0.004586
    23  H    0.397211  -0.003349  -0.039826  -0.000206   0.514945  -0.004481
    24  H   -0.042921  -0.000171   0.399706  -0.004586  -0.004481   0.517453
    25  C   -0.000612   0.000982   0.000066   0.000011   0.000021   0.000000
    26  C    0.000026   0.000174  -0.000002   0.000000  -0.000001   0.000000
    27  C   -0.000323  -0.000008   0.000088  -0.000001   0.000018   0.000000
    28  C    0.000006  -0.000039   0.000000   0.000000   0.000000   0.000000
    29  H   -0.000001   0.000006   0.000000   0.000000   0.000000   0.000000
    30  C   -0.000003  -0.000005   0.000002   0.000000   0.000002   0.000000
    31  H   -0.000198  -0.000082  -0.000091   0.000003   0.000004   0.000000
    32  C    0.000003  -0.000048   0.000000   0.000000   0.000000   0.000000
    33  H    0.000000   0.000002   0.000000   0.000000   0.000000   0.000000
    34  H    0.000002   0.000005   0.000000   0.000000   0.000000   0.000000
    35  H    0.000000   0.000001   0.000000   0.000000   0.000000   0.000000
             25         26         27         28         29         30
     1  C    0.044386  -0.026838  -0.085217   0.011681  -0.010691   0.007596
     2  H   -0.062798   0.001600  -0.005035  -0.000153  -0.000275   0.000804
     3  C   -0.068266  -0.012220   0.011262  -0.001293   0.000275  -0.000877
     4  C   -0.000910   0.000882  -0.000223  -0.000121  -0.001248   0.000008
     5  C    0.006196  -0.016989   0.000639  -0.000812  -0.001342  -0.000018
     6  C   -0.000785   0.000380   0.000005   0.000003  -0.000121   0.000000
     7  H    0.000515   0.000156   0.000011   0.000007   0.000065  -0.000001
     8  C    0.000941  -0.001461   0.000018  -0.000040   0.000597   0.000000
     9  H    0.001041   0.001323   0.000048   0.000059  -0.000056  -0.000029
    10  C   -0.000069   0.000106   0.000000   0.000004   0.000070   0.000000
    11  H    0.000025  -0.000007   0.000000   0.000000   0.000010   0.000000
    12  H    0.000015   0.000010   0.000000  -0.000002   0.000043   0.000000
    13  H    0.000002  -0.000003   0.000000   0.000000   0.000008   0.000000
    14  C   -0.103012  -0.001413  -0.005299  -0.000741   0.000360  -0.001400
    15  C   -0.001822  -0.000437   0.000812   0.000008  -0.000019  -0.000046
    16  C   -0.009085   0.001666  -0.006922   0.000046   0.000101  -0.000128
    17  C   -0.000422   0.000023  -0.000127   0.000000   0.000000   0.000013
    18  H    0.000128  -0.000038   0.000309   0.000000   0.000001  -0.000008
    19  C   -0.000612   0.000026  -0.000323   0.000006  -0.000001  -0.000003
    20  H    0.000982   0.000174  -0.000008  -0.000039   0.000006  -0.000005
    21  C    0.000066  -0.000002   0.000088   0.000000   0.000000   0.000002
    22  H    0.000011   0.000000  -0.000001   0.000000   0.000000   0.000000
    23  H    0.000021  -0.000001   0.000018   0.000000   0.000000   0.000002
    24  H    0.000000   0.000000   0.000000   0.000000   0.000000   0.000000
    25  C    5.355315   0.504063   0.469759  -0.070195  -0.034657  -0.056916
    26  C    0.504063   5.090812  -0.081561   0.454839   0.393291  -0.029641
    27  C    0.469759  -0.081561   5.117769  -0.033326   0.004890   0.465115
    28  C   -0.070195   0.454839  -0.033326   5.077524  -0.035982  -0.074283
    29  H   -0.034657   0.393291   0.004890  -0.035982   0.476447  -0.000399
    30  C   -0.056916  -0.029641   0.465115  -0.074283  -0.000399   5.059008
    31  H   -0.046716   0.004365   0.397972  -0.000452  -0.000203  -0.035211
    32  C   -0.020210  -0.090857  -0.084977   0.497656   0.004970   0.480100
    33  H    0.006482  -0.036796  -0.000410   0.395520  -0.003458   0.006016
    34  H    0.006181  -0.000455  -0.038655   0.006018   0.000018   0.397246
    35  H   -0.001464   0.007709   0.007432  -0.042092  -0.000170  -0.043308
             31         32         33         34         35
     1  C   -0.001320   0.000497  -0.000358  -0.000354  -0.000014
     2  H   -0.000142   0.000025   0.000015   0.000002  -0.000002
     3  C    0.000860   0.000113   0.000058   0.000012   0.000000
     4  C   -0.000005  -0.000004   0.000004   0.000000   0.000000
     5  C   -0.000042  -0.000022   0.000032   0.000000   0.000001
     6  C    0.000000   0.000000   0.000000   0.000000   0.000000
     7  H   -0.000002   0.000000   0.000000   0.000000   0.000000
     8  C    0.000000   0.000000  -0.000001   0.000000   0.000000
     9  H    0.000019   0.000002  -0.000002   0.000000   0.000000
    10  C    0.000000   0.000000  -0.000001   0.000000   0.000000
    11  H    0.000000   0.000000   0.000000   0.000000   0.000000
    12  H    0.000000   0.000000   0.000000   0.000000   0.000000
    13  H    0.000000   0.000000   0.000000   0.000000   0.000000
    14  C    0.003618   0.000121   0.000011   0.000012   0.000002
    15  C    0.001964  -0.000002   0.000000  -0.000005   0.000000
    16  C   -0.000465   0.000040   0.000000   0.000014   0.000000
    17  C    0.000109   0.000000   0.000000   0.000000   0.000000
    18  H    0.000216   0.000001   0.000000   0.000000   0.000000
    19  C   -0.000198   0.000003   0.000000   0.000002   0.000000
    20  H   -0.000082  -0.000048   0.000002   0.000005   0.000001
    21  C   -0.000091   0.000000   0.000000   0.000000   0.000000
    22  H    0.000003   0.000000   0.000000   0.000000   0.000000
    23  H    0.000004   0.000000   0.000000   0.000000   0.000000
    24  H    0.000000   0.000000   0.000000   0.000000   0.000000
    25  C   -0.046716  -0.020210   0.006482   0.006181  -0.001464
    26  C    0.004365  -0.090857  -0.036796  -0.000455   0.007709
    27  C    0.397972  -0.084977  -0.000410  -0.038655   0.007432
    28  C   -0.000452   0.497656   0.395520   0.006018  -0.042092
    29  H   -0.000203   0.004970  -0.003458   0.000018  -0.000170
    30  C   -0.035211   0.480100   0.006016   0.397246  -0.043308
    31  H    0.492992   0.005246   0.000018  -0.003954  -0.000174
    32  C    0.005246   5.041948  -0.041191  -0.040824   0.399504
    33  H    0.000018  -0.041191   0.517752  -0.000212  -0.004475
    34  H   -0.003954  -0.040824  -0.000212   0.517712  -0.004412
    35  H   -0.000174   0.399504  -0.004475  -0.004412   0.519323
 Mulliken atomic charges:
              1
     1  C   -0.613042
     2  H    0.209108
     3  C    0.067657
     4  C   -0.170956
     5  C   -0.113870
     6  C   -0.165839
     7  H    0.171775
     8  C   -0.178784
     9  H    0.181291
    10  C   -0.154986
    11  H    0.162731
    12  H    0.163559
    13  H    0.164543
    14  C    0.081101
    15  C   -0.198646
    16  C   -0.093252
    17  C   -0.165813
    18  H    0.166876
    19  C   -0.178198
    20  H    0.182803
    21  C   -0.156932
    22  H    0.162109
    23  H    0.163419
    24  H    0.163945
    25  C    0.081810
    26  C   -0.162704
    27  C   -0.134062
    28  C   -0.183840
    29  H    0.207470
    30  C   -0.173637
    31  H    0.181671
    32  C   -0.152089
    33  H    0.160995
    34  H    0.161651
    35  H    0.162139
 Sum of Mulliken atomic charges =   0.00000
 Mulliken charges with hydrogens summed into heavy atoms:
              1
     1  C   -0.403934
     3  C    0.067657
     4  C    0.000819
     5  C    0.067421
     6  C   -0.003109
     8  C   -0.015225
    10  C    0.009557
    14  C    0.081101
    15  C   -0.031770
    16  C    0.089552
    17  C   -0.003705
    19  C   -0.014779
    21  C    0.007013
    25  C    0.081810
    26  C    0.044766
    27  C    0.047609
    28  C   -0.022845
    30  C   -0.011987
    32  C    0.010050
 Sum of Mulliken charges with hydrogens summed into heavy atoms =   0.00000
 Electronic spatial extent (au):  <R**2>=           4932.5101
 Charge=              0.0000 electrons
 Dipole moment (field-independent basis, Debye):
    X=             -0.0921    Y=             -0.1585    Z=             -0.0200  Tot=              0.1844
 Quadrupole moment (field-independent basis, Debye-Ang):
   XX=           -108.0565   YY=           -113.3347   ZZ=           -106.3499
   XY=             -2.6663   XZ=             -1.2463   YZ=              2.6090
 Traceless Quadrupole moment (field-independent basis, Debye-Ang):
   XX=              1.1905   YY=             -4.0876   ZZ=              2.8971
   XY=             -2.6663   XZ=             -1.2463   YZ=              2.6090
 Octapole moment (field-independent basis, Debye-Ang**2):
  XXX=            -28.9689  YYY=              4.6341  ZZZ=              0.5154  XYY=             38.1937
  XXY=              4.6412  XXZ=             -4.2993  XZZ=             -9.6461  YZZ=            -16.6919
  YYZ=             12.8715  XYZ=             -1.2403
 Hexadecapole moment (field-independent basis, Debye-Ang**3):
 XXXX=          -3060.4695 YYYY=          -2897.8823 ZZZZ=           -683.0248 XXXY=             57.0901
 XXXZ=            -20.0552 YYYX=            -59.4434 YYYZ=             79.2743 ZZZX=              6.5760
 ZZZY=             -3.4134 XXYY=          -1020.2281 XXZZ=           -630.4065 YYZZ=           -627.7326
 XXYZ=            -15.7264 YYXZ=             10.7151 ZZXY=            -33.4323
 N-N= 1.290383845468D+03 E-N=-4.276837274974D+03  KE= 7.286012396091D+02
 PrsmSu:  requested number of processors reduced to:  10 ShMem   1 Linda.
 Calling FoFJK, ICntrl=      2127 FMM=F ISym2X=0 I1Cent= 0 IOpClX= 0 NMat=1 NMatS=1 NMatT=0.
 ***** Axes restored to original set *****
 -------------------------------------------------------------------
 Center     Atomic                   Forces (Hartrees/Bohr)
 Number     Number              X              Y              Z
 -------------------------------------------------------------------
      1        6          -0.004691100   -0.021909437    0.006143282
      2        1           0.009177857    0.023731825   -0.002979598
      3        6          -0.002996821   -0.003139153    0.012807341
      4        6          -0.001821239   -0.005777864   -0.000772487
      5        6           0.005568587    0.007433218   -0.008623619
      6        6          -0.003607678   -0.004385592    0.012475882
      7        1           0.004426958    0.017331141    0.000066113
      8        6           0.003434313    0.012055357   -0.001842590
      9        1          -0.010344307   -0.007602926    0.026977631
     10        6          -0.001390720    0.004653932    0.012945904
     11        1           0.004889443    0.008147672   -0.013673177
     12        1          -0.004186471   -0.016175141   -0.000613165
     13        1           0.000748052   -0.008266961   -0.014624446
     14        6           0.010425113   -0.009480946   -0.002952800
     15        6          -0.002355286   -0.004611985    0.002622747
     16        6          -0.004546087    0.010205220   -0.001187663
     17        6           0.009195179   -0.009997189   -0.000914764
     18        1           0.006028978    0.015070483   -0.006658564
     19        6           0.002611589    0.011530193   -0.003684820
     20        1           0.015546006   -0.020823952   -0.009106351
     21        6           0.012745312   -0.002125191   -0.004675732
     22        1          -0.008879944    0.014062254   -0.000273304
     23        1          -0.006268236   -0.014094971    0.006432448
     24        1          -0.015541927   -0.000003020    0.006429600
     25        6          -0.011794158    0.004142121   -0.008286259
     26        6          -0.000352260    0.005447056    0.011079822
     27        6           0.004010077   -0.006005697   -0.003834580
     28        6          -0.009568211    0.008516956   -0.001128649
     29        1          -0.001908681   -0.010603014   -0.019535572
     30        6           0.001727997   -0.007595741   -0.010196765
     31        1          -0.012621075    0.013084965    0.002497538
     32        6          -0.010119415    0.005037957   -0.007969638
     33        1           0.011204584   -0.011929703   -0.003175367
     34        1          -0.000031815    0.007953243    0.014642596
     35        1           0.011285389   -0.003875107    0.011589007
 -------------------------------------------------------------------
 Cartesian Forces:  Max     0.026977631 RMS     0.009562153

 GradGradGradGradGradGradGradGradGradGradGradGradGradGradGradGradGradGrad
 Berny optimization.
 Internal  Forces:  Max     0.029063762 RMS     0.007793034
 Search for a local minimum.
 Step number   1 out of a maximum of  197
 All quantities printed in internal units (Hartrees-Bohrs-Radians)
 Mixed Optimization -- RFO/linear search
 Second derivative matrix not updated -- first step.
     Eigenvalues ---    0.00634   0.00647   0.00659   0.01532   0.01537
     Eigenvalues ---    0.01538   0.02136   0.02142   0.02146   0.02171
     Eigenvalues ---    0.02172   0.02172   0.02182   0.02185   0.02185
     Eigenvalues ---    0.02202   0.02202   0.02202   0.02210   0.02211
     Eigenvalues ---    0.02214   0.02214   0.02214   0.02216   0.02217
     Eigenvalues ---    0.02217   0.02219   0.02220   0.02222   0.02227
     Eigenvalues ---    0.04550   0.06377   0.06653   0.15997   0.15999
     Eigenvalues ---    0.16000   0.16000   0.16000   0.16000   0.16000
     Eigenvalues ---    0.16000   0.16000   0.16000   0.16000   0.16000
     Eigenvalues ---    0.16000   0.16000   0.16000   0.18860   0.19358
     Eigenvalues ---    0.22000   0.22000   0.22000   0.22000   0.22000
     Eigenvalues ---    0.22000   0.23469   0.23477   0.23478   0.24979
     Eigenvalues ---    0.24999   0.25000   0.31240   0.31350   0.31451
     Eigenvalues ---    0.31541   0.33495   0.33616   0.33953   0.34063
     Eigenvalues ---    0.34066   0.34093   0.34257   0.34257   0.34259
     Eigenvalues ---    0.34262   0.34263   0.34268   0.34279   0.34279
     Eigenvalues ---    0.34291   0.42373   0.42468   0.42477   0.42569
     Eigenvalues ---    0.42577   0.42630   0.46306   0.46394   0.46431
     Eigenvalues ---    0.46745   0.46746   0.46825   0.47201   0.47208
     Eigenvalues ---    0.47234   0.47346   0.47359   0.474751000.00000
     Eigenvalues --- 1000.000001000.000001000.000001000.000001000.00000
     Eigenvalues --- 1000.000001000.000001000.000001000.000001000.00000
     Eigenvalues --- 1000.000001000.000001000.000001000.000001000.00000
     Eigenvalues --- 1000.000001000.000001000.000001000.000001000.00000
     Eigenvalues --- 1000.000001000.000001000.000001000.000001000.00000
     Eigenvalues --- 1000.000001000.000001000.000001000.000001000.00000
     Eigenvalues --- 1000.000001000.000001000.000001000.000001000.00000
     Eigenvalues --- 1000.000001000.000001000.000001000.000001000.00000
     Eigenvalues --- 1000.000001000.000001000.000001000.000001000.00000
     Eigenvalues --- 1000.000001000.000001000.000001000.000001000.00000
     Eigenvalues --- 1000.000001000.000001000.000001000.000001000.00000
     Eigenvalues --- 1000.000001000.000001000.000001000.000001000.00000
     Eigenvalues --- 1000.000001000.000001000.000001000.000001000.00000
     Eigenvalues --- 1000.000001000.000001000.000001000.000001000.00000
     Eigenvalues --- 1000.000001000.000001000.000001000.000001000.00000
     Eigenvalues --- 1000.000001000.000001000.000001000.000001000.00000
     Eigenvalues --- 1000.000001000.000001000.000001000.000001000.00000
     Eigenvalues --- 1000.000001000.00000
 RFO step:  Lambda=-4.19972682D-02 EMin= 6.33601159D-03
 Linear search not attempted -- first point.
 Maximum step size (   0.300) exceeded in Quadratic search.
    -- Step size scaled by   0.589
 Iteration  1 RMS(Cart)=  0.12538667 RMS(Int)=  0.00300407
 Iteration  2 RMS(Cart)=  0.00607025 RMS(Int)=  0.00028161
 Iteration  3 RMS(Cart)=  0.00001052 RMS(Int)=  0.00028154
 Iteration  4 RMS(Cart)=  0.00000000 RMS(Int)=  0.00028154
 Variable       Old X    -DE/DX   Delta X   Delta X   Delta X     New X
                                 (Linear)    (Quad)   (Total)
    R1        2.12256  -0.02529   0.00000  -0.04201  -0.04201   2.08055
    R2        2.84992   0.02398   0.00000   0.03950   0.03950   2.88942
    R3        2.85350   0.02266   0.00000   0.03753   0.03753   2.89102
    R4        2.85160   0.02319   0.00000   0.03830   0.03830   2.88990
    R5        2.63944  -0.00398   0.00000  -0.00460  -0.00458   2.63486
    R6        2.63963   0.00077   0.00000   0.00105   0.00106   2.64069
    R7        2.62753  -0.00245   0.00000  -0.00290  -0.00289   2.62464
    R8        2.07219  -0.01788   0.00000  -0.02751  -0.02751   2.04468
    R9        2.62547  -0.00414   0.00000  -0.00463  -0.00463   2.62084
   R10        2.08191  -0.02906   0.00000  -0.04539  -0.04539   2.03652
   R11        2.62743  -0.00921   0.00000  -0.01069  -0.01070   2.61673
   R12        2.06888  -0.01665   0.00000  -0.02548  -0.02548   2.04340
   R13        2.62798  -0.00549   0.00000  -0.00635  -0.00637   2.62161
   R14        2.06891  -0.01672   0.00000  -0.02559  -0.02559   2.04331
   R15        2.06862  -0.01682   0.00000  -0.02573  -0.02573   2.04290
   R16        2.63908  -0.00437   0.00000  -0.00505  -0.00504   2.63404
   R17        2.63867  -0.00011   0.00000  -0.00003  -0.00001   2.63867
   R18        2.62777  -0.00232   0.00000  -0.00270  -0.00271   2.62506
   R19        2.07174  -0.01753   0.00000  -0.02696  -0.02696   2.04478
   R20        2.62554  -0.00463   0.00000  -0.00523  -0.00522   2.62032
   R21        2.07983  -0.02611   0.00000  -0.04064  -0.04064   2.03918
   R22        2.62758  -0.00871   0.00000  -0.01007  -0.01009   2.61748
   R23        2.06899  -0.01663   0.00000  -0.02546  -0.02546   2.04353
   R24        2.62873  -0.00537   0.00000  -0.00621  -0.00623   2.62250
   R25        2.06881  -0.01671   0.00000  -0.02558  -0.02558   2.04323
   R26        2.06862  -0.01682   0.00000  -0.02573  -0.02573   2.04289
   R27        2.63424  -0.00247   0.00000  -0.00274  -0.00273   2.63151
   R28        2.64471  -0.00233   0.00000  -0.00271  -0.00271   2.64200
   R29        2.62957  -0.00106   0.00000  -0.00113  -0.00113   2.62844
   R30        2.07410  -0.02222   0.00000  -0.03429  -0.03429   2.03981
   R31        2.62335  -0.00506   0.00000  -0.00584  -0.00583   2.61752
   R32        2.07225  -0.01833   0.00000  -0.02820  -0.02820   2.04404
   R33        2.62510  -0.00762   0.00000  -0.00872  -0.00873   2.61638
   R34        2.06898  -0.01667   0.00000  -0.02552  -0.02552   2.04346
   R35        2.63005  -0.00479   0.00000  -0.00563  -0.00563   2.62442
   R36        2.06896  -0.01666   0.00000  -0.02551  -0.02551   2.04345
   R37        2.06842  -0.01663   0.00000  -0.02544  -0.02544   2.04298
    A1        1.87331  -0.01010   0.00000  -0.05117  -0.05024   1.82307
    A2        1.88226  -0.00813   0.00000  -0.04607  -0.04528   1.83698
    A3        1.83140   0.00332   0.00000  -0.00216  -0.00191   1.82949
    A4        1.93377   0.01527   0.00000   0.05417   0.05301   1.98678
    A5        1.99600   0.00161   0.00000   0.02322   0.02136   2.01736
    A6        1.93961  -0.00385   0.00000   0.01053   0.00832   1.94793
    A7        2.07754  -0.01135   0.00000  -0.02286  -0.02288   2.05466
    A8        2.12704   0.02338   0.00000   0.04718   0.04715   2.17419
    A9        2.07859  -0.01203   0.00000  -0.02429  -0.02425   2.05433
   A10        2.10034   0.00831   0.00000   0.01814   0.01816   2.11850
   A11        2.09424  -0.00474   0.00000  -0.01077  -0.01079   2.08345
   A12        2.08861  -0.00357   0.00000  -0.00736  -0.00738   2.08123
   A13        2.10256   0.00453   0.00000   0.01021   0.01020   2.11276
   A14        2.07856   0.00443   0.00000   0.01445   0.01442   2.09298
   A15        2.10198  -0.00894   0.00000  -0.02453  -0.02455   2.07744
   A16        2.09788  -0.00021   0.00000  -0.00142  -0.00143   2.09645
   A17        2.09099   0.00029   0.00000   0.00124   0.00124   2.09223
   A18        2.09432  -0.00007   0.00000   0.00018   0.00019   2.09450
   A19        2.09641   0.00243   0.00000   0.00506   0.00504   2.10144
   A20        2.09140  -0.00114   0.00000  -0.00232  -0.00230   2.08910
   A21        2.09538  -0.00129   0.00000  -0.00274  -0.00273   2.09265
   A22        2.09060  -0.00303   0.00000  -0.00769  -0.00773   2.08287
   A23        2.09645   0.00147   0.00000   0.00371   0.00372   2.10017
   A24        2.09613   0.00157   0.00000   0.00399   0.00401   2.10014
   A25        2.08410  -0.00725   0.00000  -0.01461  -0.01467   2.06944
   A26        2.11812   0.01782   0.00000   0.03594   0.03587   2.15399
   A27        2.08094  -0.01057   0.00000  -0.02142  -0.02141   2.05953
   A28        2.09892   0.00725   0.00000   0.01590   0.01591   2.11483
   A29        2.09505  -0.00429   0.00000  -0.00990  -0.00991   2.08514
   A30        2.08921  -0.00296   0.00000  -0.00601  -0.00602   2.08319
   A31        2.10147   0.00414   0.00000   0.00928   0.00922   2.11070
   A32        2.07794   0.00362   0.00000   0.01209   0.01198   2.08991
   A33        2.10360  -0.00771   0.00000  -0.02093  -0.02104   2.08256
   A34        2.09774  -0.00025   0.00000  -0.00127  -0.00129   2.09645
   A35        2.09112   0.00034   0.00000   0.00126   0.00127   2.09238
   A36        2.09433  -0.00009   0.00000   0.00001   0.00002   2.09435
   A37        2.09599   0.00220   0.00000   0.00453   0.00452   2.10051
   A38        2.09178  -0.00100   0.00000  -0.00198  -0.00198   2.08980
   A39        2.09541  -0.00120   0.00000  -0.00254  -0.00255   2.09286
   A40        2.09128  -0.00277   0.00000  -0.00694  -0.00698   2.08430
   A41        2.09600   0.00137   0.00000   0.00342   0.00343   2.09943
   A42        2.09590   0.00140   0.00000   0.00353   0.00354   2.09944
   A43        2.14263   0.00813   0.00000   0.01635   0.01634   2.15896
   A44        2.06295  -0.00025   0.00000  -0.00055  -0.00056   2.06239
   A45        2.07691  -0.00789   0.00000  -0.01596  -0.01595   2.06096
   A46        2.10113   0.00339   0.00000   0.00775   0.00776   2.10889
   A47        2.09347  -0.00001   0.00000   0.00105   0.00104   2.09452
   A48        2.08858  -0.00339   0.00000  -0.00880  -0.00881   2.07977
   A49        2.10348   0.00488   0.00000   0.01054   0.01055   2.11404
   A50        2.08441  -0.00156   0.00000  -0.00271  -0.00272   2.08169
   A51        2.09528  -0.00332   0.00000  -0.00784  -0.00784   2.08744
   A52        2.09940   0.00115   0.00000   0.00240   0.00239   2.10179
   A53        2.08866  -0.00049   0.00000  -0.00096  -0.00096   2.08770
   A54        2.09512  -0.00066   0.00000  -0.00144  -0.00143   2.09369
   A55        2.09635   0.00074   0.00000   0.00095   0.00094   2.09730
   A56        2.09211  -0.00036   0.00000  -0.00044  -0.00044   2.09167
   A57        2.09472  -0.00038   0.00000  -0.00051  -0.00051   2.09422
[...]
 0061765,0.00015005,0.00018006,-0.00052947,-0.00000109,0.00007904,-0.00
 017630,0.00002899,-0.00008935,-0.00000425,0.00008583,0.00001168,0.0000
 1181,0.00006209,0.00008168,0.00001289,0.00002202,-0.00005868,0.0000417
 4,0.00000794,0.00000309,0.00002425,-0.00001504,0.00001119,-0.00002369,
 -0.00003350,0.00001958,0.00000919,-0.00000177,0.00000098,-0.00000086,-
 0.00000638,-0.00000542,-0.00000017,0.00000269,-0.00000518,-0.00014309,
 0.00062302,0.00021918,-0.00039948,0.00029306,0.00018863,0.00022100,0.0
 0019755,0.00027839,0.00016055,0.00012297,-0.00022864,-0.00000418,-0.00
 002894,-0.00000071,-0.00033593,0.00013836,0.00007494,-0.00000536,-0.00
 022583,-0.00032481,0.00009185,-0.00023020,0.00015979,0.00000563,-0.000
 03356,-0.00001176,-0.00000515,0.00001028,-0.00000444,0.00001667,-0.000
 00815,-0.00001491,-0.02402161,-0.03425227,-0.04012526,-0.02267235,0.02
 444365,-0.01651546,-0.14920481,0.04516073,-0.22199972,0.03102093,-0.02
 242546,0.03010297,0.00037507,0.00105315,-0.00002438,0.25404711,0.18299
 143,0.58748160,-0.00184893,-0.00136175,0.00116223,0.00040502,-0.000781
 16,-0.00005188,0.00021170,-0.00014037,0.00014347,0.00007709,0.00015278
 ,0.00006647,0.00001632,-0.00002892,0.00003365,-0.00002816,-0.00001885,
 -0.00001786,-0.00001275,-0.00002833,0.00001394,-0.00004553,-0.00000405
 ,0.00000340,-0.00000261,-0.00001829,0.,0.00001012,0.00001442,0.0000262
 8,-0.00000771,0.00000266,0.00001884,-0.00000369,0.00000825,0.00000246,
 -0.00000193,-0.00000194,0.00000476,-0.00017485,-0.00003736,-0.00014989
 ,-0.00014451,0.00011754,0.00005992,0.00001752,0.00003823,0.00004053,-0
 .00003486,0.00003963,-0.00004487,-0.00000091,-0.00001002,-0.00000602,-
 0.00004844,-0.00002023,0.00006786,0.00006395,-0.00003558,-0.00002301,0
 .00002002,-0.00003436,-0.00000214,0.00000961,-0.00001188,0.00000299,-0
 .00000111,0.00000668,-0.00000845,0.00001596,0.00000005,-0.00000431,0.0
 0875134,-0.00928935,-0.00244081,0.00365124,0.00044095,-0.00475590,-0.1
 2235210,0.12634550,0.00030247,-0.00065131,-0.00077710,-0.00016421,0.00
 017801,-0.00051296,-0.00002534,-0.00570013,0.02477403,0.00400145,0.119
 21319,-0.00075300,-0.00019181,0.00222772,-0.00034521,0.00060993,-0.000
 69901,0.00026617,0.00035665,-0.00010204,-0.00005084,0.00004290,0.00000
 882,-0.00006201,0.00011235,0.00015744,-0.00002820,-0.00001155,0.000017
 39,0.00002704,-0.00003067,-0.00000824,0.00002757,0.00005643,0.00002736
 ,0.00001556,-0.00003617,0.00000430,0.00000235,0.00000532,0.00000563,0.
 00000278,-0.00000274,0.00001229,0.00000444,0.00000179,0.00001689,0.000
 00369,-0.00000216,0.00000510,-0.00029921,0.00034949,-0.00029380,-0.000
 32752,0.00013579,0.00009560,0.00013489,-0.00008110,0.00024930,-0.00000
 710,0.00011571,-0.00008434,-0.00000493,-0.00003092,-0.00002996,-0.0001
 6570,0.00004810,0.00009134,0.00008389,-0.00007468,-0.00011956,0.000027
 68,-0.00007201,0.00003869,0.00000052,-0.00001603,0.00000317,0.00000496
 ,-0.00000424,-0.00002432,0.00001111,-0.00000351,-0.00001269,0.01385602
 ,-0.01536241,0.00188966,-0.00002456,0.00013363,-0.00534670,0.12540942,
 -0.30119336,-0.02582733,-0.00088213,0.00059857,0.00005412,0.00059877,-
 0.00094725,0.00006607,0.00099726,-0.00260365,-0.00452320,-0.13997126,0
 .31574599,0.00273735,-0.00045214,-0.00011595,-0.00026288,0.00098241,-0
 .00063400,0.00004283,0.00027699,-0.00014591,-0.00007154,-0.00007855,0.
 00001245,-0.00006217,0.00009319,0.00010023,0.00002036,0.00002744,-0.00
 000061,0.00004327,0.00000447,-0.00002850,0.00004300,0.00001786,0.00002
 420,0.00001440,0.00000693,-0.00000657,-0.00000640,0.00000685,0.0000187
 8,-0.00000299,-0.00000388,0.00000448,0.00001029,0.00000923,0.00001665,
 0.00000278,0.00000700,0.00000881,-0.00009073,-0.00007310,0.00034334,0.
 00011370,-0.00007794,-0.00007956,0.00005750,-0.00014256,-0.00002107,-0
 .00006082,-0.00000258,0.00005123,-0.00003582,0.00002634,-0.00004015,0.
 00006802,-0.00001702,-0.00008046,-0.00002830,0.00010414,0.00000725,0.0
 0002364,0.00004170,-0.00007177,0.00001682,0.00000201,0.00000261,0.0000
 2281,0.00002247,-0.00001035,0.00001131,0.00001392,0.00000002,0.0118310
 3,-0.02422897,0.00288541,-0.00484894,-0.00512867,-0.00081354,0.0005073
 9,-0.02543753,-0.06562877,-0.00019307,0.00013283,-0.00110226,0.0006870
 6,-0.00109103,0.00001924,-0.01247038,0.02317716,0.00710890,0.00577289,
 0.03059096,0.05937443,-0.00080894,0.00020588,0.00095901,-0.00010892,-0
 .00025885,-0.00008691,-0.00006228,0.00018625,0.00002918,-0.00005039,-0
 .00007407,0.00000436,0.00005012,0.00006153,-0.00007964,0.00000304,-0.0
 0004343,0.00001474,-0.00003672,0.00001304,0.00004637,0.00000349,0.0000
 2146,0.00002243,-0.00000912,0.00000515,0.00000182,0.00002385,-0.000032
 01,-0.00005228,0.00000239,0.00001054,-0.00004153,-0.00000968,-0.000010
 62,-0.00001822,-0.00000424,-0.00000306,-0.00001574,0.00003996,-0.00001
 312,-0.00081545,-0.00017037,-0.00015063,0.00009654,-0.00012432,0.00014
 066,-0.00001633,-0.00001883,0.00004299,0.00004194,0.00002398,-0.000012
 81,-0.00001401,0.00005662,-0.00007172,0.00004120,0.00000180,-0.0000106
 0,0.00002069,-0.00006270,0.00002856,-0.00000779,-0.00003192,0.00000911
 ,0.00001569,-0.00003192,-0.00001880,0.00001166,-0.00000431,-0.00000601
 ,0.00000922,-0.00423379,0.00905809,0.00882596,0.00267890,-0.02419987,-
 0.02443946,-0.02121114,0.02862572,-0.01688575,-0.14038979,-0.03954688,
 -0.09076051,0.00090369,0.00405790,-0.00628553,-0.16748538,0.12988615,-
 0.00940630,0.00129255,0.00303993,-0.00695037,0.52588810,0.00193542,-0.
 00150221,-0.00010253,0.00046555,0.00107027,0.00001821,-0.00023814,-0.0
 0050517,0.00035926,-0.00015960,0.00007276,-0.00043927,-0.00003829,0.00
 033143,0.00038347,0.00000641,0.00033674,0.00033332,0.00004145,-0.00009
 840,0.00000567,0.00019318,-0.00003385,-0.00033568,0.00002199,0.0000051
 5,0.00001606,-0.00025640,-0.00027110,0.00009110,0.00000876,0.00001019,
 0.00000251,0.00000568,-0.00000956,0.00000555,-0.00000088,-0.00000861,-
 0.00000721,0.00032828,0.00057378,0.00127127,-0.00029678,0.00038593,0.0
 0018022,0.00038531,0.00006203,0.00022929,0.00021296,0.00012338,-0.0003
 4586,-0.00000807,0.00000905,0.00000849,-0.00050207,0.00019898,-0.00002
 567,0.00003456,0.00005035,-0.00030037,0.00018655,-0.00030586,0.0002128
 2,0.00000803,-0.00003827,-0.00003992,0.00003130,0.00004505,0.00000654,
 -0.00000181,0.00000449,-0.00000945,0.00728865,-0.08864941,-0.04442077,
 -0.06614525,0.07412771,-0.03359341,0.07008653,0.01136732,0.08356501,0.
 01493411,-0.23371462,-0.08390413,0.00438520,0.00194229,0.00005814,0.07
 551878,-0.30613804,-0.06109656,0.00249954,0.00281352,-0.00131920,-0.17
 260227,0.65185417,0.00125919,-0.00031744,0.00010782,-0.00002441,0.0004
 7785,-0.00030098,-0.00033236,-0.00009602,0.00025270,-0.00006816,-0.000
 03300,-0.00028636,0.00001755,0.00022047,0.00009664,0.00002639,0.000161
 17,0.00020179,0.00000095,-0.00003489,0.00001151,0.00011371,0.00000399,
 -0.00016987,0.00002242,0.00001828,0.00001133,-0.00013336,-0.00019532,-
 0.00000388,0.00000691,0.00001400,-0.00002405,-0.00000673,-0.00002004,-
 0.00001639,-0.00000181,-0.00000409,-0.00001946,0.00039508,0.00021821,0
 .00025264,-0.00025037,0.00002623,0.00019149,-0.00007663,0.00013126,0.0
 0008249,0.00007967,0.00008091,-0.00013544,0.00001838,-0.00000342,0.000
 00115,-0.00021987,0.00010327,-0.00004502,-0.00008893,0.00016706,-0.000
 30722,-0.00000036,-0.00012477,0.00011750,-0.00002590,-0.00001549,-0.00
 000928,-0.00004841,-0.00001559,0.00002786,-0.00001705,0.00000571,0.000
 00330,0.00872355,-0.04357862,-0.02641663,-0.05250227,0.01558885,-0.040
 63994,0.01081484,0.03364548,0.04610051,-0.05434208,-0.14529301,-0.2430
 4754,-0.00632969,-0.00024550,0.00138308,-0.04518507,0.00065687,-0.1346
 8524,-0.00714329,-0.00078645,0.00026080,0.28578701,0.12016956,0.581076
 50,-0.00023302,0.00090552,0.00035520,-0.00029072,0.00010010,-0.0002094
 3,0.00001315,0.00006443,0.00027183,0.00003670,-0.00001046,-0.00000929,
 0.00003597,-0.00005812,-0.00008391,-0.00001142,-0.00001974,-0.00001018
 ,-0.00001548,-0.00001825,0.00001188,-0.00000545,-0.00001282,0.00002630
 ,-0.00001897,0.00001541,0.00000644,0.00002613,-0.00000788,-0.00003555,
 0.00000289,0.00000004,-0.00000620,-0.00001748,-0.00001019,-0.00002032,
 -0.00000230,-0.00000085,-0.00001198,0.00010911,0.00011661,-0.00018651,
 -0.00011004,-0.00003289,0.00006949,-0.00011486,-0.00000538,-0.00002264
 ,-0.00000471,0.00000574,-0.00000292,0.00001568,-0.00001352,0.00001466,
 0.00000800,0.00000019,-0.00001198,0.00003637,0.00005316,-0.00000748,-0
 .00002437,-0.00000290,0.00001151,-0.00001457,0.00000086,0.00000251,-0.
 00002436,-0.00000740,0.00002017,-0.00000808,0.00000134,0.00000585,0.00
 122837,0.00234313,-0.00687815,-0.00562667,0.02477454,0.00391862,-0.000
 63824,-0.00085133,-0.00020855,-0.12321454,0.12754074,0.00054369,-0.001
 73605,-0.00216412,0.00227634,0.00416639,0.00060793,-0.00504243,-0.0005
 9017,-0.00027290,0.00057584,0.00946087,-0.01057656,-0.00272082,0.11917
 072,-0.00022602,-0.00030809,-0.00037860,0.00009417,-0.00006088,0.00006
 061,0.00008939,-0.00004756,-0.00009194,0.00000357,0.00002512,0.0000625
 6,-0.00002525,-0.00002835,0.00002695,-0.00000748,0.00000094,-0.0000373
 0,0.00001841,-0.00000402,-0.00002055,-0.00002393,0.00000441,0.00001467
 ,-0.00000518,-0.00001206,-0.00000787,0.00000284,0.00004706,0.00002827,
 -0.00000454,-0.00001317,0.00002657,0.00000967,0.00000863,0.00001280,0.
 00000562,0.00000272,0.00001855,-0.00000616,-0.00002051,0.00016777,0.00
 005870,0.00004082,-0.00003070,0.00003956,0.00003189,-0.00003016,0.0000
 1355,-0.00000553,-0.00001213,-0.00001175,0.00000197,0.,-0.00001084,-0.
 00001595,0.00002543,-0.00001816,-0.00004241,0.00001555,0.00002152,-0.0
 0000864,0.00000252,0.00001539,-0.00000820,-0.00000142,0.00000748,0.000
 00497,-0.00001353,0.00001410,-0.00000159,-0.00000405,0.00287863,0.0027
 0681,-0.00070006,0.00083015,-0.00244505,-0.00440782,-0.00081506,0.0006
 7549,0.00015616,0.12743943,-0.30439453,-0.02623303,-0.00141925,0.00020
 059,0.00188638,0.00026165,0.00032291,-0.00548865,-0.00028354,-0.000306
 95,0.00032690,0.01343542,-0.01374963,0.00229737,-0.14073575,0.31813749
 ,-0.00007669,0.00094185,0.00039249,-0.00014940,0.00013774,-0.00013327,
 0.00002497,0.00001613,0.00013361,0.00000747,-0.00002247,-0.00004928,0.
 00001574,-0.00001264,0.00002484,0.00002004,0.00000571,0.00001945,-0.00
 001410,0.00001334,0.00000380,0.00001954,-0.00002068,-0.00002661,-0.000
 00733,0.00001192,0.00000348,0.00000209,-0.00004298,-0.00003222,-0.0000
 0116,0.00000899,-0.00001790,-0.00000927,0.00000110,-0.00000967,-0.0000
 0714,0.00000294,-0.00000936,-0.00002763,0.00002665,-0.00013036,-0.0000
 4989,-0.00001405,0.00000133,0.00000902,-0.00003014,0.00002854,-0.00001
 181,0.00000958,0.00001131,0.00000524,-0.00000653,-0.00000289,-0.000001
 07,-0.00000031,0.00000675,-0.00001037,-0.00000419,0.00000716,-0.000009
 62,0.00000538,-0.00000261,-0.00000725,0.00000495,0.00000191,0.00000362
 ,-0.00000099,0.00000086,-0.00000400,-0.00000172,-0.00000006,-0.0070102
 1,-0.00099419,0.00006012,-0.01202210,0.02279070,0.00707395,-0.00025152
 ,0.00003476,-0.00126402,0.00050725,-0.02646168,-0.06611647,0.00291253,
 0.00112985,-0.00090475,-0.00520434,-0.00512108,-0.00041755,0.00056347,
 0.00033145,-0.00038937,0.01338884,-0.02490968,0.00411781,0.00448670,0.
 03122550,0.05873319,-0.00000831,-0.00091525,-0.00063488,0.00007465,-0.
 00000276,0.00004145,-0.00039695,0.00010890,-0.00007392,0.00001743,-0.0
 0000109,-0.00007552,0.00002924,-0.00000226,-0.00004464,0.00000660,0.00
 001149,0.00005353,-0.00000234,-0.00000133,0.00000805,0.00003851,-0.000
 01800,-0.00002788,-0.00001439,0.00000701,-0.00000102,-0.00003124,-0.00
 004399,-0.00002125,0.00000488,0.00000325,-0.00000677,-0.00000266,-0.00
 001222,-0.00000987,-0.00000138,-0.00000211,-0.00000775,0.00005767,0.00
 002780,-0.00015574,-0.00006668,-0.00001654,0.00002974,-0.00004436,0.00
 000307,0.00004290,-0.00000203,0.00001741,0.00001091,0.00000774,-0.0000
 1539,-0.00000487,-0.00000500,0.00002293,0.00001030,0.00001079,-0.00000
 876,-0.00004437,-0.00003378,0.00000435,0.00002270,-0.00001284,-0.00000
 146,-0.00000217,-0.00001797,-0.00002118,0.00000317,-0.00001077,-0.0000
 0532,-0.00000373,0.00099897,0.00438584,-0.00612599,-0.00095252,0.00052
 242,0.00030891,-0.00055014,-0.01892862,-0.01949251,0.00272189,0.005466
 25,-0.00315281,-0.00055868,-0.00044925,0.00048719,-0.08097029,-0.04278
 529,-0.06501388,-0.00175431,-0.00140303,0.00295536,0.00956301,0.012662
 97,0.01305102,0.00016462,0.00052117,0.00063014,0.07339586,0.00009810,0
 .00026432,0.00041217,-0.00004914,-0.00002732,-0.00002013,-0.00000403,-
 0.00005944,0.00002980,-0.00000770,0.00001644,-0.00002371,-0.00000179,0
 .00003764,-0.00000151,-0.00001102,0.00001513,0.00002761,0.00000177,-0.
 00001639,0.00001118,0.00000622,0.00001149,-0.00001884,0.00001010,-0.00
 000400,0.00000468,-0.00001814,-0.00001566,0.00000734,0.00000426,0.0000
 0122,-0.00000068,0.00000125,-0.00000718,-0.00000011,0.00000208,-0.0000
 0506,-0.00000420,-0.00004631,0.00001554,-0.00010056,-0.00001010,-0.000
 04281,0.00000717,-0.00002184,-0.00001203,0.00002248,-0.00000959,-0.000
 00211,0.00001598,0.00000542,-0.00000304,0.00000160,0.00001785,0.000027
 03,-0.00000975,0.00002308,-0.00000241,-0.00002955,-0.00002267,0.000014
 39,0.00000004,-0.00000688,0.00000368,0.00000119,-0.00001071,-0.0000164
 9,0.00000259,-0.00001058,-0.00000115,-0.00000093,0.00405923,0.00193570
 ,-0.00022256,0.00048265,-0.00023228,0.00103232,0.00527377,0.01030917,0
 .00901194,0.00578544,-0.00326762,-0.00127643,-0.00040674,-0.00020712,0
 .00023511,-0.04294383,-0.19453664,-0.14492930,-0.00215299,0.00022157,0
 .00111205,-0.01136147,-0.01324133,-0.02526105,-0.00047750,-0.00092472,
 -0.00112660,0.04303005,0.19945747,0.00017207,-0.00089951,-0.00056046,-
 0.00001080,0.00006900,-0.00002053,-0.00022648,0.00022741,0.00002161,-0
 .00002997,-0.00006918,-0.00003512,0.00003906,-0.00002078,-0.00010418,-
 0.00000732,-0.00002815,-0.00000144,-0.00000926,0.00000510,0.00001492,0
 .00000968,0.00000054,0.00003247,0.00000325,0.00000487,0.00000482,0.000
 01946,0.00000601,-0.00003256,0.00001286,-0.00000179,-0.00002124,-0.000
 00540,-0.00001219,-0.00001102,0.00000061,-0.00000435,-0.00001324,0.000
 13348,0.00003955,-0.00012260,-0.00007685,0.00000520,0.00006558,-0.0000
 2557,-0.00002474,0.00004327,-0.00001128,0.00001748,0.00000043,0.000010
 20,-0.00000722,-0.00001068,-0.00000275,0.00000775,-0.00001346,0.000018
 18,0.00003199,-0.00002300,-0.00001864,0.00000671,0.00000794,-0.0000210
 5,0.00000268,-0.00000597,-0.00000684,-0.00000948,0.00000626,-0.0000148
 1,-0.00000071,0.00000270,-0.00659854,0.00005478,0.00165429,0.00018420,
 0.00105466,-0.00001668,-0.00357609,-0.01835001,-0.01055150,-0.00289428
 ,-0.00166494,0.00427296,0.00053741,0.00023018,-0.00049684,-0.06505826,
 -0.14474133,-0.21848604,0.00240194,0.00203360,-0.00110710,-0.00277520,
 0.00193789,0.00359693,-0.00002442,0.00004674,-0.00008559,0.07507795,0.
 15911907,0.22303698,-0.00055806,-0.00029307,0.00040989,0.00002512,-0.0
 0012332,0.00000526,-0.00006264,0.00001519,0.00001379,-0.00003339,0.000
 01323,-0.00002588,0.00001523,0.00003430,-0.00003454,-0.00001972,-0.000
 00458,0.00001778,-0.00000091,-0.00001608,0.00001202,0.00000626,0.00001
 401,0.00001339,0.00000810,-0.00000442,0.00000746,0.00000499,-0.0000089
 5,-0.00001189,0.00000847,0.00000053,-0.00000487,-0.00000672,-0.0000097
 7,-0.00000730,0.00000155,-0.00000548,-0.00001017,-0.00002488,0.0000758
 7,-0.00015353,-0.00005733,-0.00002952,0.00004532,-0.00004642,-0.000008
 78,0.00002584,-0.00001119,0.00000416,0.00000983,0.00000884,-0.00000605
 ,0.00000345,0.00002066,0.00002669,-0.00002361,0.00003480,0.00002674,-0
 .00004192,-0.00002262,0.00000897,0.00000242,-0.00001309,0.00000339,0.0
 0000003,-0.00001691,-0.00001515,0.00001050,-0.00001405,0.00000016,0.00
 000144,0.00015249,-0.00035060,0.00099723,0.00485926,0.00088336,-0.0041
 0789,0.00383060,0.00488585,-0.00228939,-0.00115482,0.00566495,-0.00344
 713,-0.00030447,0.00016263,-0.00014217,-0.00581063,0.00010040,-0.01227
 033,-0.00052958,0.00008355,-0.00047325,-0.21513763,0.05958491,-0.15079
 907,-0.00177345,-0.00216752,0.00227824,-0.00165520,-0.00122825,0.00277
 347,0.21827735,-0.00033563,-0.00009567,0.00030169,-0.00000361,-0.00000
 675,-0.00007104,0.00003516,0.00000221,-0.00004361,-0.00003748,0.000012
 63,0.00002452,-0.00001317,0.00004568,0.00001958,-0.00000457,-0.0000014
 1,-0.00000379,0.00001058,-0.00000294,-0.00000870,-0.00000300,0.0000150
 2,0.00001939,0.00000659,-0.00000910,0.00000094,0.00000938,0.00000529,0
 .00000562,-0.00000042,-0.00000067,0.00000508,-0.00000066,0.00000124,0.
 00000185,0.00000075,0.00000098,0.00000098,-0.00005761,0.00005534,-0.00
 000511,-0.00001950,0.00001244,0.00001052,0.00001138,0.00001212,0.00001
 661,-0.00000172,0.00001059,-0.00000602,-0.00000432,-0.00000306,-0.0000
 0495,-0.00000896,0.00000189,0.00000381,0.00000551,-0.00001328,-0.00001
 936,0.00000261,-0.00000760,0.00000162,0.00000256,-0.00000356,0.0000010
 6,-0.00000111,0.00000187,-0.00000159,0.00000426,0.00000019,-0.00000181
 ,-0.00027477,-0.00120541,-0.00044896,0.00126357,-0.00129259,-0.0054847
 7,0.00450259,-0.00391721,-0.00317924,-0.01845002,0.01105523,-0.0171089
 1,-0.00081335,0.00028329,-0.00068052,0.02423668,-0.00130150,0.02330095
 ,0.00108005,-0.00037656,0.00107031,0.05958783,-0.08711853,0.04203818,-
 0.00125117,0.00018605,0.00207138,-0.00216106,0.00029397,0.00093315,-0.
 06731737,0.08335977,0.00058161,0.00025126,-0.00030617,-0.00006607,0.00
 014187,-0.00001241,-0.00004556,0.00004251,0.00005109,-0.00002348,-0.00
 003076,-0.00000009,0.00000369,0.00002195,-0.00006299,-0.00000980,-0.00
 001525,0.00000877,-0.00000489,0.00000007,0.00001633,-0.00000391,0.0000
 2469,0.00002337,0.00002299,-0.00000022,0.00000660,0.00001213,0.0000006
 8,-0.00000675,0.00000733,0.00000581,-0.00001702,-0.00000237,-0.0000107
 3,-0.00000424,0.00000024,-0.00000493,-0.00001373,0.00009097,-0.0000401
 8,0.00001770,0.00000247,-0.00001073,0.00000394,-0.00000615,-0.00003531
 ,0.00003069,-0.00000442,-0.00000634,0.00000713,0.00000527,0.00000078,-
 0.00000106,0.00000355,0.00001726,-0.00002073,0.00001107,0.00001908,-0.
 00002245,-0.00000986,0.00000582,-0.00000209,-0.00000834,0.00000516,-0.
 00000302,0.00000005,-0.00000302,0.00000611,-0.00001099,0.00000147,0.00
 000266,0.00088078,-0.00046855,-0.00028795,-0.00378989,-0.00598823,0.00
 067298,-0.00254725,-0.00269196,0.00401311,-0.01964136,0.01012508,-0.01
 037559,-0.00081446,0.00040956,-0.00073901,0.00360567,-0.00396220,0.006
 52530,0.00014902,-0.00006925,0.00003712,-0.15066562,0.04199534,-0.1917
 8655,0.00289572,0.00105654,-0.00102861,0.00216626,0.00197160,-0.001041
 90,0.16721558,-0.04275888,0.19430947||0.00001947,-0.00000580,-0.000022
 53,-0.00000835,0.00000255,-0.00000102,-0.00003967,-0.00000593,0.000015
 60,0.00001137,0.00000013,-0.00002481,0.00001041,0.00002089,0.00001256,
 0.00001574,0.00000556,0.00002232,-0.00000167,0.00000010,0.00000278,0.0
 0001866,-0.00000591,-0.00002380,0.00000360,-0.00000111,-0.00000503,-0.
 00002863,-0.00001064,-0.00000135,-0.00000201,-0.00000053,-0.00000058,-
 0.00000027,0.00000002,0.00000137,0.00000026,0.00000064,-0.00000002,0.0
 0000055,-0.00000165,0.00001122,0.00000020,-0.00000121,-0.00000105,0.00
 000165,0.00000007,0.00000096,0.00000039,0.00000018,0.00000046,-0.00000
 062,0.00000008,-0.00000023,0.00000055,0.00000552,0.00000519,-0.0000048
 7,-0.00000035,0.00000004,-0.00000075,-0.00000049,-0.00000097,0.0000012
 5,-0.00000024,-0.00000042,0.00000071,-0.00000194,-0.00000324,0.0000000
 2,-0.00000053,-0.00000128,0.00000751,-0.00005130,-0.00002002,-0.000054
 55,0.00004490,-0.00002491,0.00003623,0.00001359,0.00006213,0.00005203,
 0.00001925,0.00005319,0.00000272,-0.00000155,0.00000472,-0.00004714,0.
 00004832,-0.00002794,-0.00000123,-0.00000398,-0.00000623,0.00000703,-0
 .00006759,-0.00003161,-0.00000469,-0.00000103,-0.00000230,0.00000660,-
 0.00000582,0.00000207,-0.00000250,0.00000579,0.00000473|||@


    WHAT WE HAVE LEARNED
 IS LIKE A HANDFUL OF EARTH;
  WHAT WE HAVE YET TO LEARN
   IS LIKE THE WHOLE WORLD.

         -- AVVAYIAR
 Job cpu time:  0 days  0 hours  6 minutes 25.0 seconds.
 File lengths (MBytes):  RWF=    350 Int=      0 D2E=      0 Chk=      7 Scr=      1
 Normal termination of Gaussian 09 at Tue Sep 07 07:08:06 2021.
