 Entering Link 1 = b:\programy\g09w\l1.exe PID=     18296.
  
 Copyright (c) 1988,1990,1992,1993,1995,1998,2003,2009, Gaussian, Inc.
                  All Rights Reserved.
  
 This is part of the Gaussian(R) 09 program.  It is based on
 the Gaussian(R) 03 system (copyright 2003, Gaussian, Inc.),
 the Gaussian(R) 98 system (copyright 1998, Gaussian, Inc.),
 the Gaussian(R) 94 system (copyright 1995, Gaussian, Inc.),
 the Gaussian 92(TM) system (copyright 1992, Gaussian, Inc.),
 the Gaussian 90(TM) system (copyright 1990, Gaussian, Inc.),
 the Gaussian 88(TM) system (copyright 1988, Gaussian, Inc.),
 the Gaussian 86(TM) system (copyright 1986, Carnegie Mellon
 University), and the Gaussian 82(TM) system (copyright 1983,
 Carnegie Mellon University). Gaussian is a federally registered
 trademark of Gaussian, Inc.
  
 This software contains proprietary and confidential information,
 including trade secrets, belonging to Gaussian, Inc.
  
 This software is provided under written license and may be
 used, copied, transmitted, or stored only in accord with that
 written license.
  
 The following legend is applicable only to US Government
 contracts under FAR:
  
                    RESTRICTED RIGHTS LEGEND
  
 Use, reproduction and disclosure by the US Government is
 subject to restrictions as set forth in subparagraphs (a)
 and (c) of the Commercial Computer Software - Restricted
 Rights clause in FAR 52.227-19.
  
 Gaussian, Inc.
 340 Quinnipiac St., Bldg. 40, Wallingford CT 06492
  
  
 ---------------------------------------------------------------
 Warning -- This program may not be used in any manner that
 competes with the business of Gaussian, Inc. or will provide
 assistance to any competitor of Gaussian, Inc.  The licensee
 of this program is prohibited from giving any competitor of
 Gaussian, Inc. access to this program.  By using this program,
 the user acknowledges that Gaussian, Inc. is engaged in the
 business of creating and licensing software in the field of
 computational chemistry and represents and warrants to the
 licensee that it is not a competitor of Gaussian, Inc. and that
 it will not use this program in any manner prohibited above.
 ---------------------------------------------------------------
  

 Cite this work as:
 Gaussian 09, Revision A.02,
 M. J. Frisch, G. W. Trucks, H. B. Schlegel, G. E. Scuseria, 
 M. A. Robb, J. R. Cheeseman, G. Scalmani, V. Barone, B. Mennucci, 
 G. A. Petersson, H. Nakatsuji, M. Caricato, X. Li, H. P. Hratchian, 
 A. F. Izmaylov, J. Bloino, G. Zheng, J. L. Sonnenberg, M. Hada, 
 M. Ehara, K. Toyota, R. Fukuda, J. Hasegawa, M. Ishida, T. Nakajima, 
 Y. Honda, O. Kitao, H. Nakai, T. Vreven, J. A. Montgomery, Jr., 
 J. E. Peralta, F. Ogliaro, M. Bearpark, J. J. Heyd, E. Brothers, 
 K. N. Kudin, V. N. Staroverov, R. Kobayashi, J. Normand, 
 K. Raghavachari, A. Rendell, J. C. Burant, S. S. Iyengar, J. Tomasi, 
 M. Cossi, N. Rega, J. M. Millam, M. Klene, J. E. Knox, J. B. Cross, 
 V. Bakken, C. Adamo, J. Jaramillo, R. Gomperts, R. E. Stratmann, 
 O. Yazyev, A. J. Austin, R. Cammi, C. Pomelli, J. W. Ochterski, 
 R. L. Martin, K. Morokuma, V. G. Zakrzewski, G. A. Voth, 
 P. Salvador, J. J. Dannenberg, S. Dapprich, A. D. Daniels, 
 O. Farkas, J. B. Foresman, J. V. Ortiz, J. Cioslowski, 
 and D. J. Fox, Gaussian, Inc., Wallingford CT, 2009.
 
 ******************************************
 Gaussian 09:  IA32W-G09RevA.02 11-Jun-2009
                06-Sep-2021 
 ******************************************
 %nprocshared=12
 Will use up to   12 processors via shared memory.
 ----------------------------------------------
 # opt freq=noraman hf/6-311g geom=connectivity
 ----------------------------------------------
 1/18=20,19=15,38=1,57=2/1,3;
 2/9=110,12=2,17=6,18=5,40=1/2;
 3/5=4,6=6,11=9,16=1,25=1,30=1,71=1/1,2,3;
 4//1;
 5/5=2,38=5/2;
 6/7=2,8=2,9=2,10=2,28=1/1;
 7//1,2,3,16;
 1/18=20,19=15/3(2);
 2/9=110/2;
 99//99;
 2/9=110/2;
 3/5=4,6=6,11=9,16=1,25=1,30=1,71=1/1,2,3;
 4/5=5,16=3/1;
 5/5=2,38=5/2;
 7//1,2,3,16;
 1/18=20,19=15/3(-5);
 2/9=110/2;
 6/7=2,8=2,9=2,10=2,19=2,28=1/1;
 99/9=1/99;
 -----
 M0001
 -----
 Symbolic Z-matrix:
 Charge =  0 Multiplicity = 1
 C                    -0.14212   0.7678    0.1523 
 H                    -0.34248   1.85141   0.36695 
 C                    -0.34483   0.56775  -1.32937 
 C                    -0.73051  -0.66288  -1.86282 
 C                    -0.13645   1.64844  -2.19054 
 C                    -0.90677  -0.81028  -3.23418 
 H                    -0.90397  -1.51364  -1.19068 
 C                    -0.31088   1.4974   -3.56105 
 H                     0.16889   2.62041  -1.78597 
 C                    -0.69685   0.26834  -4.0856 
 H                    -1.21292  -1.77911  -3.64196 
 H                    -0.1442    2.34909  -4.22852 
 H                    -0.83582   0.15147  -5.16509 
 C                     1.28259   0.49302   0.56612 
 C                     2.04282  -0.5156   -0.02767 
 C                     1.8538    1.27178   1.57628 
 C                     3.35282  -0.74097   0.38045 
 H                     1.60265  -1.1252   -0.82785 
 C                     3.16264   1.04261   1.98374 
 H                     1.26797   2.06613   2.05321 
 C                     3.91487   0.03644   1.38664 
 H                     3.94159  -1.53257  -0.09426 
 H                     3.60176   1.65678   2.77662 
 H                     4.94624  -0.14164   1.70726 
 C                    -1.12822  -0.03202   0.96739 
 C                    -0.85128  -1.33104   1.39557 
 C                    -2.35577   0.54758   1.29939 
 C                    -1.78519  -2.03838   2.14453 
 H                     0.11476  -1.78903   1.14541 
 C                    -3.28828  -0.16274   2.04602 
 H                    -2.58798   1.56638   0.96818 
 C                    -3.00496  -1.45661   2.47049 
 H                    -1.55642  -3.05565   2.4784 
 H                    -4.24789   0.29877   2.30055 
 H                    -3.7396   -2.01423   3.06007 
 

 GradGradGradGradGradGradGradGradGradGradGradGradGradGradGradGradGradGrad
 Berny optimization.
 Initialization pass.
                           ----------------------------
                           !    Initial Parameters    !
                           ! (Angstroms and Degrees)  !
 --------------------------                            --------------------------
 ! Name  Definition              Value          Derivative Info.                !
 --------------------------------------------------------------------------------
 ! R1    R(1,2)                  1.1227         estimate D2E/DX2                !
 ! R2    R(1,3)                  1.5088         estimate D2E/DX2                !
 ! R3    R(1,14)                 1.5088         estimate D2E/DX2                !
 ! R4    R(1,25)                 1.5088         estimate D2E/DX2                !
 ! R5    R(3,4)                  1.3956         estimate D2E/DX2                !
 ! R6    R(3,5)                  1.3975         estimate D2E/DX2                !
 ! R7    R(4,6)                  1.3905         estimate D2E/DX2                !
 ! R8    R(4,7)                  1.098          estimate D2E/DX2                !
 ! R9    R(5,8)                  1.3898         estimate D2E/DX2                !
 ! R10   R(5,9)                  1.0962         estimate D2E/DX2                !
 ! R11   R(6,10)                 1.3901         estimate D2E/DX2                !
 ! R12   R(6,11)                 1.0948         estimate D2E/DX2                !
 ! R13   R(8,10)                 1.3909         estimate D2E/DX2                !
 ! R14   R(8,12)                 1.0948         estimate D2E/DX2                !
 ! R15   R(10,13)                1.0947         estimate D2E/DX2                !
 ! R16   R(14,15)                1.3957         estimate D2E/DX2                !
 ! R17   R(14,16)                1.3976         estimate D2E/DX2                !
 ! R18   R(15,17)                1.3905         estimate D2E/DX2                !
 ! R19   R(15,18)                1.098          estimate D2E/DX2                !
 ! R20   R(16,19)                1.3898         estimate D2E/DX2                !
 ! R21   R(16,20)                1.0962         estimate D2E/DX2                !
 ! R22   R(17,21)                1.3902         estimate D2E/DX2                !
 ! R23   R(17,22)                1.0948         estimate D2E/DX2                !
 ! R24   R(19,21)                1.391          estimate D2E/DX2                !
 ! R25   R(19,23)                1.0948         estimate D2E/DX2                !
 ! R26   R(21,24)                1.0946         estimate D2E/DX2                !
 ! R27   R(25,26)                1.3955         estimate D2E/DX2                !
 ! R28   R(25,27)                1.3975         estimate D2E/DX2                !
 ! R29   R(26,28)                1.3905         estimate D2E/DX2                !
 ! R30   R(26,29)                1.098          estimate D2E/DX2                !
 ! R31   R(27,30)                1.3898         estimate D2E/DX2                !
 ! R32   R(27,31)                1.0962         estimate D2E/DX2                !
 ! R33   R(28,32)                1.3902         estimate D2E/DX2                !
 ! R34   R(28,33)                1.0948         estimate D2E/DX2                !
 ! R35   R(30,32)                1.3909         estimate D2E/DX2                !
 ! R36   R(30,34)                1.0948         estimate D2E/DX2                !
 ! R37   R(32,35)                1.0946         estimate D2E/DX2                !
 ! A1    A(2,1,3)              106.9629         estimate D2E/DX2                !
 ! A2    A(2,1,14)             106.9689         estimate D2E/DX2                !
 ! A3    A(2,1,25)             106.9613         estimate D2E/DX2                !
 ! A4    A(3,1,14)             111.8424         estimate D2E/DX2                !
 ! A5    A(3,1,25)             111.8647         estimate D2E/DX2                !
 ! A6    A(14,1,25)            111.8654         estimate D2E/DX2                !
 ! A7    A(1,3,4)              121.9652         estimate D2E/DX2                !
 ! A8    A(1,3,5)              118.8543         estimate D2E/DX2                !
 ! A9    A(4,3,5)              119.1804         estimate D2E/DX2                !
 ! A10   A(3,4,6)              120.3634         estimate D2E/DX2                !
 ! A11   A(3,4,7)              119.5303         estimate D2E/DX2                !
 ! A12   A(6,4,7)              120.1036         estimate D2E/DX2                !
 ! A13   A(3,5,8)              120.3262         estimate D2E/DX2                !
 ! A14   A(3,5,9)              119.9863         estimate D2E/DX2                !
 ! A15   A(8,5,9)              119.6873         estimate D2E/DX2                !
 ! A16   A(4,6,10)             120.1766         estimate D2E/DX2                !
 ! A17   A(4,6,11)             119.7753         estimate D2E/DX2                !
 ! A18   A(10,6,11)            120.048          estimate D2E/DX2                !
 ! A19   A(5,8,10)             120.1817         estimate D2E/DX2                !
 ! A20   A(5,8,12)             119.8377         estimate D2E/DX2                !
 ! A21   A(10,8,12)            119.9806         estimate D2E/DX2                !
 ! A22   A(6,10,8)             119.7716         estimate D2E/DX2                !
 ! A23   A(6,10,13)            120.1317         estimate D2E/DX2                !
 ! A24   A(8,10,13)            120.0967         estimate D2E/DX2                !
 ! A25   A(1,14,15)            121.9563         estimate D2E/DX2                !
 ! A26   A(1,14,16)            118.8616         estimate D2E/DX2                !
 ! A27   A(15,14,16)           119.182          estimate D2E/DX2                !
 ! A28   A(14,15,17)           120.3607         estimate D2E/DX2                !
 ! A29   A(14,15,18)           119.5319         estimate D2E/DX2                !
 ! A30   A(17,15,18)           120.1046         estimate D2E/DX2                !
 ! A31   A(14,16,19)           120.3266         estimate D2E/DX2                !
 ! A32   A(14,16,20)           119.9892         estimate D2E/DX2                !
 ! A33   A(19,16,20)           119.684          estimate D2E/DX2                !
 ! A34   A(15,17,21)           120.1781         estimate D2E/DX2                !
 ! A35   A(15,17,22)           119.7733         estimate D2E/DX2                !
 ! A36   A(21,17,22)           120.0485         estimate D2E/DX2                !
 ! A37   A(16,19,21)           120.18           estimate D2E/DX2                !
 ! A38   A(16,19,23)           119.8364         estimate D2E/DX2                !
 ! A39   A(21,19,23)           119.9836         estimate D2E/DX2                !
 ! A40   A(17,21,19)           119.7724         estimate D2E/DX2                !
 ! A41   A(17,21,24)           120.1292         estimate D2E/DX2                !
 ! A42   A(19,21,24)           120.0983         estimate D2E/DX2                !
 ! A43   A(1,25,26)            121.9715         estimate D2E/DX2                !
 ! A44   A(1,25,27)            118.8531         estimate D2E/DX2                !
 ! A45   A(26,25,27)           119.1753         estimate D2E/DX2                !
 ! A46   A(25,26,28)           120.3645         estimate D2E/DX2                !
 ! A47   A(25,26,29)           119.5357         estimate D2E/DX2                !
 ! A48   A(28,26,29)           120.0971         estimate D2E/DX2                !
 ! A49   A(25,27,30)           120.3322         estimate D2E/DX2                !
 ! A50   A(25,27,31)           119.9842         estimate D2E/DX2                !
 ! A51   A(30,27,31)           119.6834         estimate D2E/DX2                !
 ! A52   A(26,28,32)           120.1804         estimate D2E/DX2                !
 ! A53   A(26,28,33)           119.7735         estimate D2E/DX2                !
 ! A54   A(32,28,33)           120.046          estimate D2E/DX2                !
 ! A55   A(27,30,32)           120.1797         estimate D2E/DX2                !
 ! A56   A(27,30,34)           119.8377         estimate D2E/DX2                !
 ! A57   A(32,30,34)           119.9826         estimate D2E/DX2                !
 ! A58   A(28,32,30)           119.7677         estimate D2E/DX2                !
 ! A59   A(28,32,35)           120.1305         estimate D2E/DX2                !
 ! A60   A(30,32,35)           120.1017         estimate D2E/DX2                !
 ! D1    D(2,1,3,4)           -152.5944         estimate D2E/DX2                !
 ! D2    D(2,1,3,5)             27.5473         estimate D2E/DX2                !
 ! D3    D(14,1,3,4)            90.5984         estimate D2E/DX2                !
 ! D4    D(14,1,3,5)           -89.2599         estimate D2E/DX2                !
 ! D5    D(25,1,3,4)           -35.7844         estimate D2E/DX2                !
 ! D6    D(25,1,3,5)           144.3574         estimate D2E/DX2                !
 ! D7    D(2,1,14,15)         -152.776          estimate D2E/DX2                !
 ! D8    D(2,1,14,16)           27.3591         estimate D2E/DX2                !
 ! D9    D(3,1,14,15)          -35.9724         estimate D2E/DX2                !
 ! D10   D(3,1,14,16)          144.1627         estimate D2E/DX2                !
 ! D11   D(25,1,14,15)          90.4099         estimate D2E/DX2                !
 ! D12   D(25,1,14,16)         -89.455          estimate D2E/DX2                !
 ! D13   D(2,1,25,26)         -152.6538         estimate D2E/DX2                !
 ! D14   D(2,1,25,27)           27.4772         estimate D2E/DX2                !
 ! D15   D(3,1,25,26)           90.5352         estimate D2E/DX2                !
 ! D16   D(3,1,25,27)          -89.3338         estimate D2E/DX2                !
 ! D17   D(14,1,25,26)         -35.8351         estimate D2E/DX2                !
 ! D18   D(14,1,25,27)         144.2959         estimate D2E/DX2                !
 ! D19   D(1,3,4,6)           -179.9463         estimate D2E/DX2                !
 ! D20   D(1,3,4,7)              0.6521         estimate D2E/DX2                !
 ! D21   D(5,3,4,6)             -0.0886         estimate D2E/DX2                !
 ! D22   D(5,3,4,7)           -179.4902         estimate D2E/DX2                !
 ! D23   D(1,3,5,8)            179.8252         estimate D2E/DX2                !
 ! D24   D(1,3,5,9)             -0.0004         estimate D2E/DX2                !
 ! D25   D(4,3,5,8)             -0.037          estimate D2E/DX2                !
 ! D26   D(4,3,5,9)           -179.8626         estimate D2E/DX2                !
 ! D27   D(3,4,6,10)             0.1417         estimate D2E/DX2                !
 ! D28   D(3,4,6,11)          -179.7838         estimate D2E/DX2                !
 ! D29   D(7,4,6,10)           179.5399         estimate D2E/DX2                !
 ! D30   D(7,4,6,11)            -0.3857         estimate D2E/DX2                !
 ! D31   D(3,5,8,10)             0.1101         estimate D2E/DX2                !
 ! D32   D(3,5,8,12)          -179.9206         estimate D2E/DX2                !
 ! D33   D(9,5,8,10)           179.9362         estimate D2E/DX2                !
 ! D34   D(9,5,8,12)            -0.0945         estimate D2E/DX2                !
 ! D35   D(4,6,10,8)            -0.0683         estimate D2E/DX2                !
 ! D36   D(4,6,10,13)          179.9993         estimate D2E/DX2                !
 ! D37   D(11,6,10,8)          179.8571         estimate D2E/DX2                !
 ! D38   D(11,6,10,13)          -0.0753         estimate D2E/DX2                !
 ! D39   D(5,8,10,6)            -0.0573         estimate D2E/DX2                !
 ! D40   D(5,8,10,13)          179.8752         estimate D2E/DX2                !
 ! D41   D(12,8,10,6)          179.9735         estimate D2E/DX2                !
 ! D42   D(12,8,10,13)          -0.0941         estimate D2E/DX2                !
 ! D43   D(1,14,15,17)        -179.9399         estimate D2E/DX2                !
 ! D44   D(1,14,15,18)           0.6605         estimate D2E/DX2                !
 ! D45   D(16,14,15,17)         -0.0754         estimate D2E/DX2                !
 ! D46   D(16,14,15,18)       -179.4751         estimate D2E/DX2                !
 ! D47   D(1,14,16,19)         179.8295         estimate D2E/DX2                !
 ! D48   D(1,14,16,20)          -0.001          estimate D2E/DX2                !
 ! D49   D(15,14,16,19)         -0.0392         estimate D2E/DX2                !
 ! D50   D(15,14,16,20)       -179.8697         estimate D2E/DX2                !
 ! D51   D(14,15,17,21)          0.1306         estimate D2E/DX2                !
 ! D52   D(14,15,17,22)       -179.7951         estimate D2E/DX2                !
 ! D53   D(18,15,17,21)        179.5268         estimate D2E/DX2                !
 ! D54   D(18,15,17,22)         -0.3989         estimate D2E/DX2                !
 ! D55   D(14,16,19,21)          0.0993         estimate D2E/DX2                !
 ! D56   D(14,16,19,23)       -179.9326         estimate D2E/DX2                !
 ! D57   D(20,16,19,21)        179.9303         estimate D2E/DX2                !
 ! D58   D(20,16,19,23)         -0.1015         estimate D2E/DX2                !
 ! D59   D(15,17,21,19)         -0.0702         estimate D2E/DX2                !
 ! D60   D(15,17,21,24)       -179.9966         estimate D2E/DX2                !
 ! D61   D(22,17,21,19)        179.8553         estimate D2E/DX2                !
 ! D62   D(22,17,21,24)         -0.0712         estimate D2E/DX2                !
 ! D63   D(16,19,21,17)         -0.0444         estimate D2E/DX2                !
 ! D64   D(16,19,21,24)        179.8821         estimate D2E/DX2                !
 ! D65   D(23,19,21,17)        179.9875         estimate D2E/DX2                !
 ! D66   D(23,19,21,24)         -0.086          estimate D2E/DX2                !
 ! D67   D(1,25,26,28)        -179.9453         estimate D2E/DX2                !
 ! D68   D(1,25,26,29)           0.6521         estimate D2E/DX2                !
 ! D69   D(27,25,26,28)         -0.0767         estimate D2E/DX2                !
 ! D70   D(27,25,26,29)       -179.4793         estimate D2E/DX2                !
 ! D71   D(1,25,27,30)         179.831          estimate D2E/DX2                !
 ! D72   D(1,25,27,31)           0.0001         estimate D2E/DX2                !
 ! D73   D(26,25,27,30)         -0.0417         estimate D2E/DX2                !
 ! D74   D(26,25,27,31)       -179.8726         estimate D2E/DX2                !
 ! D75   D(25,26,28,32)          0.1342         estimate D2E/DX2                !
 ! D76   D(25,26,28,33)       -179.7858         estimate D2E/DX2                !
 ! D77   D(29,26,28,32)        179.5334         estimate D2E/DX2                !
 ! D78   D(29,26,28,33)         -0.3866         estimate D2E/DX2                !
 ! D79   D(25,27,30,32)          0.1033         estimate D2E/DX2                !
 ! D80   D(25,27,30,34)       -179.9298         estimate D2E/DX2                !
 ! D81   D(31,27,30,32)        179.9347         estimate D2E/DX2                !
 ! D82   D(31,27,30,34)         -0.0984         estimate D2E/DX2                !
 ! D83   D(26,28,32,30)         -0.0723         estimate D2E/DX2                !
 ! D84   D(26,28,32,35)        179.9953         estimate D2E/DX2                !
 ! D85   D(33,28,32,30)        179.8475         estimate D2E/DX2                !
 ! D86   D(33,28,32,35)         -0.085          estimate D2E/DX2                !
 ! D87   D(27,30,32,28)         -0.0461         estimate D2E/DX2                !
 ! D88   D(27,30,32,35)        179.8864         estimate D2E/DX2                !
 ! D89   D(34,30,32,28)        179.9871         estimate D2E/DX2                !
 ! D90   D(34,30,32,35)         -0.0805         estimate D2E/DX2                !
 --------------------------------------------------------------------------------
 Trust Radius=3.00D-01 FncErr=1.00D-07 GrdErr=1.00D-07
 Number of steps in this run= 197 maximum allowed number of steps= 210.
 GradGradGradGradGradGradGradGradGradGradGradGradGradGradGradGradGradGrad

                          Input orientation:                          
 ---------------------------------------------------------------------
 Center     Atomic      Atomic             Coordinates (Angstroms)
 Number     Number       Type             X           Y           Z
 ---------------------------------------------------------------------
      1          6           0       -0.142117    0.767799    0.152300
      2          1           0       -0.342478    1.851412    0.366950
      3          6           0       -0.344832    0.567748   -1.329370
      4          6           0       -0.730509   -0.662883   -1.862822
      5          6           0       -0.136453    1.648444   -2.190537
      6          6           0       -0.906772   -0.810284   -3.234181
      7          1           0       -0.903965   -1.513638   -1.190677
      8          6           0       -0.310882    1.497404   -3.561050
      9          1           0        0.168886    2.620408   -1.785973
     10          6           0       -0.696853    0.268339   -4.085604
     11          1           0       -1.212919   -1.779108   -3.641964
     12          1           0       -0.144199    2.349088   -4.228522
     13          1           0       -0.835818    0.151471   -5.165091
     14          6           0        1.282587    0.493022    0.566119
     15          6           0        2.042820   -0.515601   -0.027665
     16          6           0        1.853795    1.271781    1.576278
     17          6           0        3.352819   -0.740969    0.380453
     18          1           0        1.602652   -1.125203   -0.827846
     19          6           0        3.162640    1.042606    1.983740
     20          1           0        1.267966    2.066127    2.053206
     21          6           0        3.914873    0.036437    1.386640
     22          1           0        3.941587   -1.532574   -0.094263
     23          1           0        3.601764    1.656781    2.776617
     24          1           0        4.946244   -0.141637    1.707265
     25          6           0       -1.128223   -0.032021    0.967394
     26          6           0       -0.851283   -1.331041    1.395570
     27          6           0       -2.355772    0.547578    1.299387
     28          6           0       -1.785194   -2.038384    2.144534
     29          1           0        0.114762   -1.789025    1.145409
     30          6           0       -3.288281   -0.162742    2.046024
     31          1           0       -2.587981    1.566385    0.968176
     32          6           0       -3.004958   -1.456613    2.470486
     33          1           0       -1.556419   -3.055648    2.478399
     34          1           0       -4.247888    0.298769    2.300551
     35          1           0       -3.739596   -2.014226    3.060067
 ---------------------------------------------------------------------
                    Distance matrix (angstroms):
                    1          2          3          4          5
     1  C    0.000000
     2  H    1.122691   0.000000
     3  C    1.508795   2.127276   0.000000
     4  C    2.540428   3.382917   1.395625   0.000000
     5  C    2.502889   2.573787   1.397474   2.408844   0.000000
     6  C    3.813568   4.513447   2.417241   1.390476   2.779915
     7  H    2.754806   3.750338   2.159637   1.098020   3.404049
     8  C    3.788109   3.944046   2.417810   2.779731   1.389800
     9  H    2.699219   2.342631   2.164672   3.405116   1.096183
    10  C    4.303142   4.738876   2.794707   2.410201   2.410398
    11  H    4.693591   5.478114   3.407256   2.155000   3.874730
    12  H    4.657476   4.626592   3.408593   3.874566   2.155074
    13  H    5.397752   5.808326   3.889358   3.402829   3.402647
    14  C    1.508817   2.127376   2.499391   3.359825   3.308750
    15  C    2.540365   3.383507   2.927279   3.328791   3.756372
    16  C    2.503073   2.573337   3.711120   4.716880   4.276898
    17  C    3.813530   4.513961   4.278885   4.659608   4.949172
    18  H    2.754698   3.751174   2.628745   2.593946   3.546058
    19  C    3.788286   3.943860   4.848149   5.732481   5.354964
    20  H    2.699524   2.341600   4.035849   5.174618   4.489566
    21  C    4.303215   4.739087   5.079773   5.712060   5.639859
    22  H    4.693522   5.478804   4.930540   5.070764   5.580649
    23  H    4.657679   4.626167   5.798340   6.758241   6.216667
    24  H    5.397815   5.808551   6.141649   6.726272   6.650643
    25  C    1.508806   2.127264   2.499710   2.926821   3.712155
    26  C    2.540427   3.383039   3.359642   3.328384   4.716829
    27  C    2.502913   2.573476   3.309781   3.755830   4.279819
    28  C    3.813576   4.513508   4.575432   4.366150   5.924853
    29  H    2.754924   3.750714   3.448208   3.321465   4.796648
    30  C    3.788198   3.943839   4.537709   4.698022   5.582371
    31  H    2.699193   2.342007   3.362695   4.053934   3.999274
    32  C    4.303238   4.738850   5.060950   4.957891   6.292443
    33  H    4.693584   5.478240   5.394075   5.025301   6.778182
    34  H    4.657502   4.626202   5.336903   5.534474   6.236617
    35  H    5.397835   5.808309   6.120308   5.925839   7.346198
                    6          7          8          9         10
     6  C    0.000000
     7  H    2.161162   0.000000
     8  C    2.405692   3.877729   0.000000
     9  H    3.876080   4.312275   2.154580   0.000000
    10  C    1.390113   3.405721   1.390946   3.401476   0.000000
    11  H    1.094820   2.484901   3.399375   4.970898   2.157587
    12  H    3.398803   4.972564   1.094837   2.477435   2.157630
    13  H    2.158337   4.309663   2.158713   4.303896   1.094651
    14  C    4.575389   3.448772   4.536678   3.361315   5.060356
    15  C    4.366770   3.321478   4.698607   4.054359   4.958552
    16  C    5.924208   4.797899   5.579325   3.995303   6.290438
    17  C    5.586994   4.602790   5.828247   5.111721   6.112628
    18  H    3.490965   2.562354   4.243828   4.123505   4.224059
    19  C    6.871683   5.757481   6.558726   5.065842   7.234094
    20  H    6.399976   5.296676   5.859699   4.031687   6.691603
    21  C    6.731805   5.680361   6.668663   5.547504   7.160116
    22  H    5.821287   4.968084   6.267604   5.860240   6.378810
    23  H    7.908414   6.789151   7.449847   5.790549   8.215593
    24  H    7.689134   6.671237   7.620955   6.531060   8.097528
    25  C    4.278781   2.627308   4.849122   4.037189   5.080264
    26  C    4.659277   2.593220   5.732383   5.174641   5.711842
    27  C    4.949407   3.543553   5.357946   4.493324   5.641641
    28  C    5.586630   3.489349   6.872341   6.400910   6.732019
    29  H    4.602421   2.563385   5.756087   5.295189   5.679345
    30  C    5.828505   4.241004   6.562032   5.863627   6.670697
    31  H    5.112224   4.121055   5.069894   4.036907   5.549954
    32  C    6.112557   4.221556   7.236275   6.694238   7.161363
    33  H    6.172299   4.033065   7.665284   7.306104   7.407691
    34  H    6.559445   5.162879   7.162060   6.449618   7.307103
    35  H    7.006563   5.134220   8.241772   7.761454   8.094998
                   11         12         13         14         15
    11  H    0.000000
    12  H    4.304442   0.000000
    13  H    2.487822   2.486970   0.000000
    14  C    5.394264   5.335661   6.119727   0.000000
    15  C    5.025877   5.535042   5.926608   1.395656   0.000000
    16  C    6.778105   6.232838   7.344056   1.397556   2.408962
    17  C    6.172806   6.558982   7.006725   2.417244   1.390485
    18  H    4.034141   5.165925   5.136899   2.159683   1.098021
    19  C    7.665255   7.157812   8.239391   2.417910   2.779884
    20  H    7.305859   6.444717   7.758584   2.164786   3.405253
    21  C    7.407923   7.304414   8.093669   2.794755   2.410309
    22  H    6.262259   6.989495   7.167489   3.407261   2.154990
    23  H    8.728384   7.973926   9.221107   3.408697   3.874732
    24  H    8.320507   8.206698   8.985957   3.889394   3.402896
    25  C    4.930077   5.799614   6.142193   2.499739   3.358498
    26  C    5.070334   6.758234   6.726095   2.927217   3.326617
    27  C    5.580011   6.220471   6.652565   3.711915   4.715828
    28  C    5.820505   7.909401   7.689434   4.279099   4.657362
    29  H    4.968075   6.787501   6.670197   2.628142   2.591355
    30  C    6.266815   7.454158   7.623220   4.849018   5.731086
    31  H    5.859736   5.795719   6.533683   4.036713   5.174040
    32  C    6.377887   8.218516   8.098959   5.080426   5.710195
    33  H    6.261500   8.728592   8.320325   4.930500   5.068207
    34  H    6.988712   7.979528   8.209734   5.799323   6.756982
    35  H    7.166351   9.224365   8.987513   6.142344   6.724307
                   16         17         18         19         20
    16  C    0.000000
    17  C    2.779969   0.000000
    18  H    3.404176   2.161182   0.000000
    19  C    1.389828   2.405792   3.877882   0.000000
    20  H    1.096195   3.876146   4.312431   2.154580   0.000000
    21  C    2.410411   1.390208   3.405836   1.390956   3.401481
    22  H    3.874789   1.094825   2.484897   3.399471   4.970968
    23  H    2.155095   3.398938   4.972729   1.094849   2.477398
    24  H    3.402667   2.158386   4.309732   2.158729   4.303909
    25  C    3.311053   4.574586   3.446101   4.538644   3.364957
    26  C    3.758296   4.364988   3.317792   4.700184   4.057642
    27  C    4.280373   5.923918   4.795043   5.582675   4.000714
    28  C    4.952005   5.585199   4.598527   5.830902   5.116360
    29  H    3.546606   3.488351   2.558947   4.243878   4.125067
    30  C    5.359054   6.871149   5.753841   6.562860   5.072208
    31  H    4.492878   6.400188   5.294501   5.863050   4.036751
    32  C    5.643688   6.730654   5.676169   6.672502   5.553530
    33  H    5.583012   5.818911   4.963628   6.269760   5.864343
    34  H    6.221082   7.908134   6.785528   7.454502   5.797360
    35  H    6.654735   7.687904   6.666772   7.625193   6.537486
                   21         22         23         24         25
    21  C    0.000000
    22  H    2.157680   0.000000
    23  H    2.157681   4.304581   0.000000
    24  H    1.094639   2.487879   2.487056   0.000000
    25  C    5.060956   5.392749   5.338363   6.120340   0.000000
    26  C    4.958460   5.023129   5.537508   5.926479   1.395522
    27  C    6.292048   6.776874   6.237369   7.345803   1.397509
    28  C    6.113105   6.169609   6.563009   7.007218   2.417181
    29  H    4.222719   4.030774   5.166585   5.135444   2.159575
    30  C    7.236014   7.663437   7.163599   8.241517   2.417930
    31  H    6.693502   7.305312   6.449153   7.760678   2.164670
    32  C    7.161563   7.405281   7.309973   8.095262   2.794796
    33  H    6.378712   6.258308   6.993051   7.167337   3.407170
    34  H    8.217951   8.726767   7.980468   9.223774   3.408672
    35  H    8.099165   8.317593   8.212929   8.987796   3.889433
                   26         27         28         29         30
    26  C    0.000000
    27  C    2.408723   0.000000
    28  C    1.390493   2.779754   0.000000
    29  H    1.097986   3.403963   2.161080   0.000000
    30  C    2.779743   1.389818   2.405620   3.877707   0.000000
    31  H    3.404976   1.096170   3.875905   4.312193   2.154543
    32  C    2.410296   2.410332   1.390153   3.405727   1.390879
    33  H    2.154995   3.874567   1.094820   2.484762   3.399294
    34  H    3.874558   2.155073   3.398748   4.972520   1.094816
    35  H    3.402887   3.402617   2.158349   4.309606   2.158695
                   31         32         33         34         35
    31  H    0.000000
    32  C    3.401371   0.000000
    33  H    4.970722   2.157600   0.000000
    34  H    2.477371   2.157573   4.304387   0.000000
    35  H    4.303835   1.094638   2.487802   2.487001   0.000000
 Stoichiometry    C19H16
 Framework group  C1[X(C19H16)]
 Deg. of freedom    99
 Full point group                 C1      NOp   1
 Largest Abelian subgroup         C1      NOp   1
 Largest concise Abelian subgroup C1      NOp   1
                         Standard orientation:                         
 ---------------------------------------------------------------------
 Center     Atomic      Atomic             Coordinates (Angstroms)
 Number     Number       Type             X           Y           Z
 ---------------------------------------------------------------------
      1          6           0        0.000152   -0.000089   -0.779985
      2          1           0        0.000084   -0.000047   -1.902676
      3          6           0       -0.361370    1.397025   -0.339717
      4          6           0        0.066085    1.920790    0.881234
      5          6           0       -1.150360    2.186245   -1.180882
      6          6           0       -0.287728    3.212709    1.254311
      7          1           0        0.693228    1.308741    1.542851
      8          6           0       -1.504577    3.476257   -0.804129
      9          1           0       -1.495279    1.787297   -2.141866
     10          6           0       -1.073702    3.992319    0.413557
     11          1           0        0.055865    3.615201    2.212735
     12          1           0       -2.124092    4.087120   -1.468745
     13          1           0       -1.351815    5.009283    0.708000
     14          6           0       -1.029262   -1.011476   -0.339608
     15          6           0       -1.693602   -0.904868    0.883153
     16          6           0       -1.321688   -2.087220   -1.182476
     17          6           0       -2.635766   -1.856928    1.256457
     18          1           0       -1.474615   -0.057315    1.545988
     19          6           0       -2.262171   -3.038567   -0.805578
     20          1           0       -0.806200   -2.185065   -2.144942
     21          6           0       -2.921344   -2.925301    0.414020
     22          1           0       -3.153640   -1.762063    2.216379
     23          1           0       -2.484247   -3.878668   -1.471616
     24          1           0       -3.663236   -3.674308    0.708675
     25          6           0        1.390885   -0.385712   -0.339927
     26          6           0        1.631135   -1.016685    0.881399
     27          6           0        2.468617   -0.098455   -1.181954
     28          6           0        2.926954   -1.356345    1.254164
     29          1           0        0.787860   -1.252896    1.543718
     30          6           0        3.762992   -0.436924   -0.805621
     31          1           0        2.295303    0.398737   -2.143386
     32          6           0        3.994866   -1.066805    0.412586
     33          1           0        3.103988   -1.854291    2.212986
     34          1           0        4.601451   -0.207054   -1.471029
     35          1           0        5.014652   -1.334491    0.706888
 ---------------------------------------------------------------------
 Rotational constants (GHZ):      0.3904670      0.3902875      0.2359266
 Standard basis: 6-311G (5D, 7F)
 There are   295 symmetry adapted basis functions of A   symmetry.
 Integral buffers will be    262144 words long.
 Raffenetti 1 integral format.
 Two-electron integral symmetry is turned on.
   295 basis functions,   574 primitive gaussians,   295 cartesian basis functions
    65 alpha electrons       65 beta electrons
       nuclear repulsion energy      1290.4424792508 Hartrees.
 NAtoms=   35 NActive=   35 NUniq=   35 SFac= 7.50D-01 NAtFMM=   80 NAOKFM=F Big=F
 One-electron integrals computed using PRISM.
 PrsmSu:  requested number of processors reduced to:  10 ShMem   1 Linda.
 NBasis=   295 RedAO= T  NBF=   295
 NBsUse=   295 1.00D-06 NBFU=   295
 Harris functional with IExCor=  205 diagonalized for initial guess.
 ExpMin= 1.03D-01 ExpMax= 4.56D+03 ExpMxC= 6.82D+02 IAcc=1 IRadAn=         1 AccDes= 0.00D+00
 HarFok:  IExCor=  205 AccDes= 0.00D+00 IRadAn=         1 IDoV= 1
 ScaDFX=  1.000000  1.000000  1.000000  1.000000
 FoFCou: FMM=F IPFlag=           0 FMFlag=      100000 FMFlg1=           0
         NFxFlg=           0 DoJE=T BraDBF=F KetDBF=T FulRan=T
         Omega=  0.000000  0.000000  1.000000  0.000000  0.000000 ICntrl=     500 IOpCl=  0
         NMat0=    1 NMatS0=    1 NMatT0=    0 NMatD0=    1 NMtDS0=    0 NMtDT0=    0
         I1Cent=           4 NGrid=           0.
 Petite list used in FoFCou.
 Initial guess orbital symmetries:
       Occupied  (A) (A) (A) (A) (A) (A) (A) (A) (A) (A) (A) (A)
                 (A) (A) (A) (A) (A) (A) (A) (A) (A) (A) (A) (A)
                 (A) (A) (A) (A) (A) (A) (A) (A) (A) (A) (A) (A)
                 (A) (A) (A) (A) (A) (A) (A) (A) (A) (A) (A) (A)
                 (A) (A) (A) (A) (A) (A) (A) (A) (A) (A) (A) (A)
                 (A) (A) (A) (A) (A)
       Virtual   (A) (A) (A) (A) (A) (A) (A) (A) (A) (A) (A) (A)
                 (A) (A) (A) (A) (A) (A) (A) (A) (A) (A) (A) (A)
                 (A) (A) (A) (A) (A) (A) (A) (A) (A) (A) (A) (A)
                 (A) (A) (A) (A) (A) (A) (A) (A) (A) (A) (A) (A)
                 (A) (A) (A) (A) (A) (A) (A) (A) (A) (A) (A) (A)
                 (A) (A) (A) (A) (A) (A) (A) (A) (A) (A) (A) (A)
                 (A) (A) (A) (A) (A) (A) (A) (A) (A) (A) (A) (A)
                 (A) (A) (A) (A) (A) (A) (A) (A) (A) (A) (A) (A)
                 (A) (A) (A) (A) (A) (A) (A) (A) (A) (A) (A) (A)
                 (A) (A) (A) (A) (A) (A) (A) (A) (A) (A) (A) (A)
                 (A) (A) (A) (A) (A) (A) (A) (A) (A) (A) (A) (A)
                 (A) (A) (A) (A) (A) (A) (A) (A) (A) (A) (A) (A)
                 (A) (A) (A) (A) (A) (A) (A) (A) (A) (A) (A) (A)
                 (A) (A) (A) (A) (A) (A) (A) (A) (A) (A) (A) (A)
                 (A) (A) (A) (A) (A) (A) (A) (A) (A) (A) (A) (A)
                 (A) (A) (A) (A) (A) (A) (A) (A) (A) (A) (A) (A)
                 (A) (A) (A) (A) (A) (A) (A) (A) (A) (A) (A) (A)
                 (A) (A) (A) (A) (A) (A) (A) (A) (A) (A) (A) (A)
                 (A) (A) (A) (A) (A) (A) (A) (A) (A) (A) (A) (A)
                 (A) (A)
 The electronic state of the initial guess is 1-A.
 Requested convergence on RMS density matrix=1.00D-08 within 128 cycles.
 Requested convergence on MAX density matrix=1.00D-06.
 Requested convergence on             energy=1.00D-06.
 No special actions if energy rises.
 Integral accuracy reduced to 1.0D-05 until final iterations.
 Initial convergence to 1.0D-05 achieved.  Increase integral accuracy.
 SCF Done:  E(RHF) =  -728.678068072     A.U. after   14 cycles
             Convg  =    0.6868D-08             -V/T =  2.0001

 **********************************************************************

            Population analysis using the SCF density.

 **********************************************************************

 Orbital symmetries:
       Occupied  (A) (A) (A) (A) (A) (A) (A) (A) (A) (A) (A) (A)
                 (A) (A) (A) (A) (A) (A) (A) (A) (A) (A) (A) (A)
                 (A) (A) (A) (A) (A) (A) (A) (A) (A) (A) (A) (A)
                 (A) (A) (A) (A) (A) (A) (A) (A) (A) (A) (A) (A)
                 (A) (A) (A) (A) (A) (A) (A) (A) (A) (A) (A) (A)
                 (A) (A) (A) (A) (A)
       Virtual   (A) (A) (A) (A) (A) (A) (A) (A) (A) (A) (A) (A)
                 (A) (A) (A) (A) (A) (A) (A) (A) (A) (A) (A) (A)
                 (A) (A) (A) (A) (A) (A) (A) (A) (A) (A) (A) (A)
                 (A) (A) (A) (A) (A) (A) (A) (A) (A) (A) (A) (A)
                 (A) (A) (A) (A) (A) (A) (A) (A) (A) (A) (A) (A)
                 (A) (A) (A) (A) (A) (A) (A) (A) (A) (A) (A) (A)
                 (A) (A) (A) (A) (A) (A) (A) (A) (A) (A) (A) (A)
                 (A) (A) (A) (A) (A) (A) (A) (A) (A) (A) (A) (A)
                 (A) (A) (A) (A) (A) (A) (A) (A) (A) (A) (A) (A)
                 (A) (A) (A) (A) (A) (A) (A) (A) (A) (A) (A) (A)
                 (A) (A) (A) (A) (A) (A) (A) (A) (A) (A) (A) (A)
                 (A) (A) (A) (A) (A) (A) (A) (A) (A) (A) (A) (A)
                 (A) (A) (A) (A) (A) (A) (A) (A) (A) (A) (A) (A)
                 (A) (A) (A) (A) (A) (A) (A) (A) (A) (A) (A) (A)
                 (A) (A) (A) (A) (A) (A) (A) (A) (A) (A) (A) (A)
                 (A) (A) (A) (A) (A) (A) (A) (A) (A) (A) (A) (A)
                 (A) (A) (A) (A) (A) (A) (A) (A) (A) (A) (A) (A)
                 (A) (A) (A) (A) (A) (A) (A) (A) (A) (A) (A) (A)
                 (A) (A) (A) (A) (A) (A) (A) (A) (A) (A) (A) (A)
                 (A) (A)
 The electronic state is 1-A.
 Alpha  occ. eigenvalues --  -11.25726 -11.25095 -11.25093 -11.25087 -11.24308
 Alpha  occ. eigenvalues --  -11.24306 -11.24305 -11.24285 -11.24283 -11.24283
 Alpha  occ. eigenvalues --  -11.24022 -11.24020 -11.24019 -11.23963 -11.23961
 Alpha  occ. eigenvalues --  -11.23960 -11.23819 -11.23816 -11.23815  -1.18577
 Alpha  occ. eigenvalues --   -1.15715  -1.15713  -1.09018  -1.02188  -1.02044
 Alpha  occ. eigenvalues --   -1.02043  -1.01367  -1.01366  -0.92881  -0.84081
 Alpha  occ. eigenvalues --   -0.82993  -0.82989  -0.81453  -0.81453  -0.77512
 Alpha  occ. eigenvalues --   -0.70624  -0.70622  -0.68788  -0.65636  -0.63790
 Alpha  occ. eigenvalues --   -0.63787  -0.61931  -0.61931  -0.61741  -0.59099
 Alpha  occ. eigenvalues --   -0.58735  -0.58734  -0.58060  -0.58055  -0.54341
 Alpha  occ. eigenvalues --   -0.51183  -0.50837  -0.50835  -0.49662  -0.49106
 Alpha  occ. eigenvalues --   -0.49104  -0.47444  -0.47178  -0.47174  -0.34455
 Alpha  occ. eigenvalues --   -0.34451  -0.34003  -0.33233  -0.33230  -0.31222
 Alpha virt. eigenvalues --    0.12201   0.12203   0.12405   0.14449   0.14458
 Alpha virt. eigenvalues --    0.14463   0.15131   0.16316   0.16317   0.17111
 Alpha virt. eigenvalues --    0.19070   0.19125   0.19126   0.21251   0.21253
 Alpha virt. eigenvalues --    0.21553   0.23840   0.23847   0.24468   0.26744
 Alpha virt. eigenvalues --    0.26752   0.28539   0.34014   0.34016   0.35103
 Alpha virt. eigenvalues --    0.39169   0.39180   0.39339   0.41079   0.43771
 Alpha virt. eigenvalues --    0.43879   0.43879   0.44969   0.44972   0.45561
 Alpha virt. eigenvalues --    0.45563   0.45804   0.48350   0.49761   0.49766
 Alpha virt. eigenvalues --    0.50695   0.50881   0.50885   0.55382   0.55387
 Alpha virt. eigenvalues --    0.57220   0.58701   0.58705   0.58769   0.59462
 Alpha virt. eigenvalues --    0.60067   0.60070   0.61459   0.61553   0.61557
 Alpha virt. eigenvalues --    0.61701   0.62244   0.62245   0.63516   0.63789
 Alpha virt. eigenvalues --    0.63795   0.65419   0.65424   0.66729   0.67119
 Alpha virt. eigenvalues --    0.67857   0.67865   0.69139   0.70644   0.70653
 Alpha virt. eigenvalues --    0.73049   0.74588   0.74594   0.74988   0.75563
 Alpha virt. eigenvalues --    0.75576   0.78141   0.80256   0.80263   0.80277
 Alpha virt. eigenvalues --    0.81938   0.82008   0.82009   0.82966   0.82968
 Alpha virt. eigenvalues --    0.83742   0.84369   0.84371   0.85140   0.86015
 Alpha virt. eigenvalues --    0.86019   0.86222   0.87294   0.87736   0.87742
 Alpha virt. eigenvalues --    0.88555   0.90857   0.90870   0.92776   0.94573
 Alpha virt. eigenvalues --    0.94598   0.97224   0.97234   0.97797   1.00014
 Alpha virt. eigenvalues --    1.00032   1.00724   1.04026   1.04038   1.06244
 Alpha virt. eigenvalues --    1.07004   1.07011   1.08765   1.08771   1.09871
 Alpha virt. eigenvalues --    1.11107   1.12257   1.12929   1.12940   1.14199
 Alpha virt. eigenvalues --    1.14656   1.14662   1.17906   1.20738   1.20751
 Alpha virt. eigenvalues --    1.26740   1.27471   1.27483   1.28638   1.30048
 Alpha virt. eigenvalues --    1.30059   1.39631   1.40628   1.40640   1.49094
 Alpha virt. eigenvalues --    1.52298   1.52303   1.54951   2.55826   2.55828
 Alpha virt. eigenvalues --    2.56439   2.61664   2.61666   2.61690   2.66492
 Alpha virt. eigenvalues --    2.66498   2.67962   2.70412   2.70427   2.70900
 Alpha virt. eigenvalues --    2.78489   2.84837   2.84850   2.88578   2.94547
 Alpha virt. eigenvalues --    2.94637   2.94640   2.97626   2.97631   2.97660
 Alpha virt. eigenvalues --    3.01455   3.01460   3.04375   3.06190   3.07547
 Alpha virt. eigenvalues --    3.07551   3.08637   3.08650   3.09327   3.15401
 Alpha virt. eigenvalues --    3.15406   3.15657   3.17435   3.18977   3.18991
 Alpha virt. eigenvalues --    3.23294   3.25371   3.25383   3.28845   3.28851
 Alpha virt. eigenvalues --    3.29672   3.33106   3.34946   3.34955   3.42268
 Alpha virt. eigenvalues --    3.42279   3.43265   3.48619   3.48636   3.53945
 Alpha virt. eigenvalues --    3.54078   3.54088   3.59961   3.60356   3.60380
 Alpha virt. eigenvalues --    3.63119   3.63596   3.63602   3.65836   3.65842
 Alpha virt. eigenvalues --    3.69784   3.69795   3.70509   3.70704   3.75199
 Alpha virt. eigenvalues --    3.75890   3.75901   3.84515   3.87410   3.87417
 Alpha virt. eigenvalues --    3.91511  24.25946  24.31574  24.31582  24.50733
 Alpha virt. eigenvalues --   24.50736  24.51248  24.54556  24.55832  24.55839
 Alpha virt. eigenvalues --   24.77632  24.79310  24.79320  24.79928  24.80807
 Alpha virt. eigenvalues --   24.80813  24.83350  25.05345  25.06154  25.06162
          Condensed to atoms (all electrons):
              1          2          3          4          5          6
     1  C    5.859606   0.483521   0.145227  -0.040910  -0.054906   0.004243
     2  H    0.483521   0.515297  -0.071970   0.005308  -0.001132  -0.000241
     3  C    0.145227  -0.071970   5.357861   0.479975   0.483775  -0.067543
     4  C   -0.040910   0.005308   0.479975   5.114123  -0.068672   0.468982
     5  C   -0.054906  -0.001132   0.483775  -0.068672   5.059031  -0.031790
     6  C    0.004243  -0.000241  -0.067543   0.468982  -0.031790   5.051943
     7  H   -0.000862  -0.000119  -0.042509   0.392274   0.004185  -0.029869
     8  C    0.007222   0.001483  -0.065709  -0.029428   0.463558  -0.075874
     9  H    0.000505   0.001461  -0.048783   0.004432   0.399259  -0.000423
    10  C    0.001166  -0.000011  -0.016444  -0.093816  -0.087550   0.496628
    11  H   -0.000337   0.000014   0.006122  -0.037809  -0.000381   0.396189
    12  H   -0.000371  -0.000026   0.006682  -0.000534  -0.039652   0.006122
    13  H   -0.000017  -0.000001  -0.001541   0.007823   0.007433  -0.042470
    14  C    0.145557  -0.072083  -0.097296  -0.008205  -0.001094   0.000676
    15  C   -0.041057   0.005315  -0.018614  -0.005031   0.000221  -0.001063
    16  C   -0.054677  -0.001087   0.005686  -0.000168   0.000849   0.000022
    17  C    0.004208  -0.000240   0.000096  -0.000018  -0.000168  -0.000021
    18  H   -0.000806  -0.000119  -0.001938   0.001476  -0.000869   0.000915
    19  C    0.007230   0.001484  -0.000775   0.000027  -0.000034   0.000000
    20  H    0.000485   0.001472   0.000483  -0.000031   0.000044   0.000000
    21  C    0.001169  -0.000011   0.000097  -0.000017  -0.000008   0.000000
    22  H   -0.000337   0.000014   0.000028   0.000018   0.000007   0.000000
    23  H   -0.000371  -0.000026   0.000011   0.000000   0.000001   0.000000
    24  H   -0.000017  -0.000001  -0.000001   0.000000   0.000000   0.000000
    25  C    0.145052  -0.072087  -0.096987  -0.018663   0.005756   0.000088
    26  C   -0.040980   0.005299  -0.008127  -0.005065  -0.000167  -0.000019
    27  C   -0.054851  -0.001076  -0.001129   0.000219   0.000841  -0.000168
    28  C    0.004235  -0.000240   0.000677  -0.001062   0.000022  -0.000021
    29  H   -0.000852  -0.000121  -0.000784   0.000732  -0.000017   0.000042
    30  C    0.007227   0.001484  -0.000632   0.000382   0.000003  -0.000009
    31  H    0.000493   0.001469   0.000950   0.000224   0.000231   0.000007
    32  C    0.001168  -0.000011   0.000038   0.000069  -0.000001   0.000005
    33  H   -0.000337   0.000014  -0.000003   0.000016   0.000000   0.000001
    34  H   -0.000372  -0.000026   0.000024   0.000003   0.000000   0.000000
    35  H   -0.000017  -0.000001   0.000000  -0.000001   0.000000   0.000000
              7          8          9         10         11         12
     1  C   -0.000862   0.007222   0.000505   0.001166  -0.000337  -0.000371
     2  H   -0.000119   0.001483   0.001461  -0.000011   0.000014  -0.000026
     3  C   -0.042509  -0.065709  -0.048783  -0.016444   0.006122   0.006682
     4  C    0.392274  -0.029428   0.004432  -0.093816  -0.037809  -0.000534
     5  C    0.004185   0.463558   0.399259  -0.087550  -0.000381  -0.039652
     6  C   -0.029869  -0.075874  -0.000423   0.496628   0.396189   0.006122
     7  H    0.474274  -0.000227  -0.000239   0.004630  -0.003311   0.000018
     8  C   -0.000227   5.055082  -0.036069   0.490321   0.005934   0.397090
     9  H   -0.000239  -0.036069   0.507626   0.005353   0.000022  -0.004229
    10  C    0.004630   0.490321   0.005353   5.033112  -0.040236  -0.040650
    11  H   -0.003311   0.005934   0.000022  -0.040236   0.515662  -0.000211
    12  H    0.000018   0.397090  -0.004229  -0.040650  -0.000211   0.517997
    13  H   -0.000174  -0.042931  -0.000179   0.399536  -0.004406  -0.004495
    14  C   -0.000791  -0.000632   0.000956   0.000038  -0.000003   0.000023
    15  C    0.000737   0.000382   0.000222   0.000069   0.000016   0.000003
    16  C   -0.000018   0.000003   0.000236  -0.000001   0.000000   0.000000
    17  C    0.000043  -0.000009   0.000007   0.000005   0.000001   0.000000
    18  H    0.000220  -0.000191  -0.000038   0.000000   0.000007   0.000003
    19  C    0.000003   0.000002  -0.000005   0.000000   0.000000   0.000000
    20  H    0.000000   0.000001  -0.000001   0.000000   0.000000   0.000000
    21  C    0.000000   0.000000  -0.000009   0.000000   0.000000   0.000000
    22  H   -0.000007   0.000001   0.000000  -0.000001   0.000000   0.000000
    23  H    0.000000   0.000000   0.000000   0.000000   0.000000   0.000000
    24  H    0.000000   0.000000   0.000000   0.000000   0.000000   0.000000
    25  C   -0.001938  -0.000776   0.000487   0.000097   0.000029   0.000011
    26  C    0.001443   0.000027  -0.000031  -0.000017   0.000018   0.000000
    27  C   -0.000879  -0.000034   0.000044  -0.000008   0.000007   0.000001
    28  C    0.000918   0.000000   0.000000   0.000000   0.000000   0.000000
    29  H    0.000212   0.000003   0.000000   0.000000  -0.000007   0.000000
    30  C   -0.000190   0.000002   0.000001   0.000000   0.000001   0.000000
    31  H   -0.000038  -0.000005  -0.000001  -0.000009   0.000000   0.000000
    32  C    0.000000   0.000000   0.000000   0.000000  -0.000001   0.000000
    33  H    0.000008   0.000000   0.000000   0.000000   0.000000   0.000000
    34  H    0.000003   0.000000   0.000000   0.000000   0.000000   0.000000
    35  H    0.000000   0.000000   0.000000   0.000000   0.000000   0.000000
             13         14         15         16         17         18
     1  C   -0.000017   0.145557  -0.041057  -0.054677   0.004208  -0.000806
     2  H   -0.000001  -0.072083   0.005315  -0.001087  -0.000240  -0.000119
     3  C   -0.001541  -0.097296  -0.018614   0.005686   0.000096  -0.001938
     4  C    0.007823  -0.008205  -0.005031  -0.000168  -0.000018   0.001476
     5  C    0.007433  -0.001094   0.000221   0.000849  -0.000168  -0.000869
     6  C   -0.042470   0.000676  -0.001063   0.000022  -0.000021   0.000915
     7  H   -0.000174  -0.000791   0.000737  -0.000018   0.000043   0.000220
     8  C   -0.042931  -0.000632   0.000382   0.000003  -0.000009  -0.000191
     9  H   -0.000179   0.000956   0.000222   0.000236   0.000007  -0.000038
    10  C    0.399536   0.000038   0.000069  -0.000001   0.000005   0.000000
    11  H   -0.004406  -0.000003   0.000016   0.000000   0.000001   0.000007
    12  H   -0.004495   0.000023   0.000003   0.000000   0.000000   0.000003
    13  H    0.517933   0.000000  -0.000001   0.000000   0.000000   0.000000
    14  C    0.000000   5.357819   0.479607   0.484024  -0.067555  -0.042556
    15  C   -0.000001   0.479607   5.114387  -0.068601   0.469085   0.392264
    16  C    0.000000   0.484024  -0.068601   5.058863  -0.031777   0.004180
    17  C    0.000000  -0.067555   0.469085  -0.031777   5.051765  -0.029828
    18  H    0.000000  -0.042556   0.392264   0.004180  -0.029828   0.474261
    19  C    0.000000  -0.065771  -0.029428   0.463528  -0.075873  -0.000227
    20  H    0.000000  -0.048752   0.004434   0.399221  -0.000423  -0.000239
    21  C    0.000000  -0.016417  -0.093808  -0.087583   0.496611   0.004626
    22  H    0.000000   0.006122  -0.037823  -0.000380   0.396192  -0.003312
    23  H    0.000000   0.006682  -0.000534  -0.039647   0.006119   0.000018
    24  H    0.000000  -0.001541   0.007821   0.007433  -0.042470  -0.000174
    25  C   -0.000001  -0.097087  -0.008177  -0.001093   0.000684  -0.000796
    26  C    0.000000  -0.018561  -0.005103   0.000253  -0.001071   0.000742
    27  C    0.000000   0.005717  -0.000165   0.000835   0.000022  -0.000017
    28  C    0.000000   0.000103  -0.000020  -0.000165  -0.000022   0.000044
    29  H    0.000000  -0.001963   0.001448  -0.000870   0.000921   0.000220
    30  C    0.000000  -0.000775   0.000027  -0.000033   0.000000   0.000003
    31  H    0.000000   0.000485  -0.000031   0.000043   0.000000   0.000000
    32  C    0.000000   0.000096  -0.000018  -0.000009   0.000000   0.000000
    33  H    0.000000   0.000029   0.000019   0.000007   0.000000  -0.000007
    34  H    0.000000   0.000011   0.000000   0.000001   0.000000   0.000000
    35  H    0.000000  -0.000001   0.000000   0.000000   0.000000   0.000000
             19         20         21         22         23         24
     1  C    0.007230   0.000485   0.001169  -0.000337  -0.000371  -0.000017
     2  H    0.001484   0.001472  -0.000011   0.000014  -0.000026  -0.000001
     3  C   -0.000775   0.000483   0.000097   0.000028   0.000011  -0.000001
     4  C    0.000027  -0.000031  -0.000017   0.000018   0.000000   0.000000
     5  C   -0.000034   0.000044  -0.000008   0.000007   0.000001   0.000000
     6  C    0.000000   0.000000   0.000000   0.000000   0.000000   0.000000
     7  H    0.000003   0.000000   0.000000  -0.000007   0.000000   0.000000
     8  C    0.000002   0.000001   0.000000   0.000001   0.000000   0.000000
     9  H   -0.000005  -0.000001  -0.000009   0.000000   0.000000   0.000000
    10  C    0.000000   0.000000   0.000000  -0.000001   0.000000   0.000000
    11  H    0.000000   0.000000   0.000000   0.000000   0.000000   0.000000
    12  H    0.000000   0.000000   0.000000   0.000000   0.000000   0.000000
    13  H    0.000000   0.000000   0.000000   0.000000   0.000000   0.000000
    14  C   -0.065771  -0.048752  -0.016417   0.006122   0.006682  -0.001541
    15  C   -0.029428   0.004434  -0.093808  -0.037823  -0.000534   0.007821
    16  C    0.463528   0.399221  -0.087583  -0.000380  -0.039647   0.007433
    17  C   -0.075873  -0.000423   0.496611   0.396192   0.006119  -0.042470
    18  H   -0.000227  -0.000239   0.004626  -0.003312   0.000018  -0.000174
    19  C    5.055104  -0.036065   0.490375   0.005932   0.397079  -0.042926
    20  H   -0.036065   0.507640   0.005353   0.000022  -0.004228  -0.000179
    21  C    0.490375   0.005353   5.033056  -0.040228  -0.040642   0.399531
    22  H    0.005932   0.000022  -0.040228   0.515662  -0.000211  -0.004403
    23  H    0.397079  -0.004228  -0.040642  -0.000211   0.517980  -0.004494
    24  H   -0.042926  -0.000179   0.399531  -0.004403  -0.004494   0.517921
    25  C   -0.000632   0.000948   0.000038  -0.000003   0.000024   0.000000
    26  C    0.000382   0.000222   0.000068   0.000016   0.000003  -0.000001
    27  C    0.000003   0.000230  -0.000001   0.000000   0.000000   0.000000
    28  C   -0.000009   0.000007   0.000005   0.000001   0.000000   0.000000
    29  H   -0.000191  -0.000038   0.000002   0.000007   0.000003   0.000000
    30  C    0.000002  -0.000005   0.000000   0.000000   0.000000   0.000000
    31  H    0.000001  -0.000001   0.000000   0.000000   0.000000   0.000000
    32  C    0.000000  -0.000009   0.000000   0.000000   0.000000   0.000000
    33  H    0.000001   0.000000  -0.000001   0.000000   0.000000   0.000000
    34  H    0.000000   0.000000   0.000000   0.000000   0.000000   0.000000
    35  H    0.000000   0.000000   0.000000   0.000000   0.000000   0.000000
             25         26         27         28         29         30
     1  C    0.145052  -0.040980  -0.054851   0.004235  -0.000852   0.007227
     2  H   -0.072087   0.005299  -0.001076  -0.000240  -0.000121   0.001484
     3  C   -0.096987  -0.008127  -0.001129   0.000677  -0.000784  -0.000632
     4  C   -0.018663  -0.005065   0.000219  -0.001062   0.000732   0.000382
     5  C    0.005756  -0.000167   0.000841   0.000022  -0.000017   0.000003
     6  C    0.000088  -0.000019  -0.000168  -0.000021   0.000042  -0.000009
     7  H   -0.001938   0.001443  -0.000879   0.000918   0.000212  -0.000190
     8  C   -0.000776   0.000027  -0.000034   0.000000   0.000003   0.000002
     9  H    0.000487  -0.000031   0.000044   0.000000   0.000000   0.000001
    10  C    0.000097  -0.000017  -0.000008   0.000000   0.000000   0.000000
    11  H    0.000029   0.000018   0.000007   0.000000  -0.000007   0.000001
    12  H    0.000011   0.000000   0.000001   0.000000   0.000000   0.000000
    13  H   -0.000001   0.000000   0.000000   0.000000   0.000000   0.000000
    14  C   -0.097087  -0.018561   0.005717   0.000103  -0.001963  -0.000775
    15  C   -0.008177  -0.005103  -0.000165  -0.000020   0.001448   0.000027
    16  C   -0.001093   0.000253   0.000835  -0.000165  -0.000870  -0.000033
    17  C    0.000684  -0.001071   0.000022  -0.000022   0.000921   0.000000
    18  H   -0.000796   0.000742  -0.000017   0.000044   0.000220   0.000003
    19  C   -0.000632   0.000382   0.000003  -0.000009  -0.000191   0.000002
    20  H    0.000948   0.000222   0.000230   0.000007  -0.000038  -0.000005
    21  C    0.000038   0.000068  -0.000001   0.000005   0.000002   0.000000
    22  H   -0.000003   0.000016   0.000000   0.000001   0.000007   0.000000
    23  H    0.000024   0.000003   0.000000   0.000000   0.000003   0.000000
    24  H    0.000000  -0.000001   0.000000   0.000000   0.000000   0.000000
    25  C    5.357959   0.479853   0.484032  -0.067583  -0.042510  -0.065768
    26  C    0.479853   5.114136  -0.068592   0.469009   0.392262  -0.029450
    27  C    0.484032  -0.068592   5.058729  -0.031814   0.004190   0.463663
    28  C   -0.067583   0.469009  -0.031814   5.051946  -0.029855  -0.075881
    29  H   -0.042510   0.392262   0.004190  -0.029855   0.474282  -0.000228
    30  C   -0.065768  -0.029450   0.463663  -0.075881  -0.000228   5.055025
    31  H   -0.048748   0.004438   0.399225  -0.000423  -0.000239  -0.036069
    32  C   -0.016427  -0.093806  -0.087569   0.496644   0.004629   0.490311
    33  H    0.006124  -0.037813  -0.000380   0.396190  -0.003313   0.005936
    34  H    0.006681  -0.000534  -0.039646   0.006122   0.000018   0.397086
    35  H   -0.001542   0.007823   0.007433  -0.042464  -0.000174  -0.042929
             31         32         33         34         35
     1  C    0.000493   0.001168  -0.000337  -0.000372  -0.000017
     2  H    0.001469  -0.000011   0.000014  -0.000026  -0.000001
     3  C    0.000950   0.000038  -0.000003   0.000024   0.000000
     4  C    0.000224   0.000069   0.000016   0.000003  -0.000001
     5  C    0.000231  -0.000001   0.000000   0.000000   0.000000
     6  C    0.000007   0.000005   0.000001   0.000000   0.000000
     7  H   -0.000038   0.000000   0.000008   0.000003   0.000000
     8  C   -0.000005   0.000000   0.000000   0.000000   0.000000
     9  H   -0.000001   0.000000   0.000000   0.000000   0.000000
    10  C   -0.000009   0.000000   0.000000   0.000000   0.000000
    11  H    0.000000  -0.000001   0.000000   0.000000   0.000000
    12  H    0.000000   0.000000   0.000000   0.000000   0.000000
    13  H    0.000000   0.000000   0.000000   0.000000   0.000000
    14  C    0.000485   0.000096   0.000029   0.000011  -0.000001
    15  C   -0.000031  -0.000018   0.000019   0.000000   0.000000
    16  C    0.000043  -0.000009   0.000007   0.000001   0.000000
    17  C    0.000000   0.000000   0.000000   0.000000   0.000000
    18  H    0.000000   0.000000  -0.000007   0.000000   0.000000
    19  C    0.000001   0.000000   0.000001   0.000000   0.000000
    20  H   -0.000001  -0.000009   0.000000   0.000000   0.000000
    21  C    0.000000   0.000000  -0.000001   0.000000   0.000000
    22  H    0.000000   0.000000   0.000000   0.000000   0.000000
    23  H    0.000000   0.000000   0.000000   0.000000   0.000000
    24  H    0.000000   0.000000   0.000000   0.000000   0.000000
    25  C   -0.048748  -0.016427   0.006124   0.006681  -0.001542
    26  C    0.004438  -0.093806  -0.037813  -0.000534   0.007823
    27  C    0.399225  -0.087569  -0.000380  -0.039646   0.007433
    28  C   -0.000423   0.496644   0.396190   0.006122  -0.042464
    29  H   -0.000239   0.004629  -0.003313   0.000018  -0.000174
    30  C   -0.036069   0.490311   0.005936   0.397086  -0.042929
    31  H    0.507631   0.005355   0.000022  -0.004229  -0.000179
    32  C    0.005355   5.033091  -0.040241  -0.040652   0.399533
    33  H    0.000022  -0.040241   0.515679  -0.000211  -0.004404
    34  H   -0.004229  -0.040652  -0.000211   0.517983  -0.004496
    35  H   -0.000179   0.399533  -0.004404  -0.004496   0.517916
 Mulliken atomic charges:
              1
     1  C   -0.526239
     2  H    0.196996
     3  C    0.053054
     4  C   -0.166654
     5  C   -0.138774
     6  C   -0.176352
     7  H    0.202202
     8  C   -0.169226
     9  H    0.169397
    10  C   -0.152211
    11  H    0.162679
    12  H    0.162220
    13  H    0.163491
    14  C    0.053138
    15  C   -0.166586
    16  C   -0.139074
    17  C   -0.176284
    18  H    0.202135
    19  C   -0.169219
    20  H    0.169408
    21  C   -0.152206
    22  H    0.162680
    23  H    0.162234
    24  H    0.163499
    25  C    0.052957
    26  C   -0.166658
    27  C   -0.138860
    28  C   -0.176364
    29  H    0.202188
    30  C   -0.169182
    31  H    0.169400
    32  C   -0.152196
    33  H    0.162666
    34  H    0.162234
    35  H    0.163504
 Sum of Mulliken atomic charges =   0.00000
 Mulliken charges with hydrogens summed into heavy atoms:
              1
     1  C   -0.329242
     3  C    0.053054
     4  C    0.035548
     5  C    0.030623
     6  C   -0.013673
     8  C   -0.007005
    10  C    0.011280
    14  C    0.053138
    15  C    0.035549
    16  C    0.030334
    17  C   -0.013604
    19  C   -0.006985
    21  C    0.011294
    25  C    0.052957
    26  C    0.035529
    27  C    0.030540
    28  C   -0.013698
    30  C   -0.006948
    32  C    0.011308
 Sum of Mulliken charges with hydrogens summed into heavy atoms =   0.00000
 Electronic spatial extent (au):  <R**2>=           4916.9955
 Charge=              0.0000 electrons
 Dipole moment (field-independent basis, Debye):
    X=             -0.0005    Y=             -0.0005    Z=             -0.0242  Tot=              0.0242
 Quadrupole moment (field-independent basis, Debye-Ang):
   XX=           -111.4614   YY=           -111.4819   ZZ=           -104.7088
   XY=              0.0088   XZ=              0.0143   YZ=              0.0003
 Traceless Quadrupole moment (field-independent basis, Debye-Ang):
   XX=             -2.2440   YY=             -2.2645   ZZ=              4.5085
   XY=              0.0088   XZ=              0.0143   YZ=              0.0003
 Octapole moment (field-independent basis, Debye-Ang**2):
  XXX=             37.1624  YYY=             19.1992  ZZZ=             -0.7745  XYY=            -37.1625
  XXY=            -19.1624  XXZ=              3.5660  XZZ=             -0.0242  YZZ=             -0.0484
  YYZ=              3.6641  XYZ=             -0.0038
 Hexadecapole moment (field-independent basis, Debye-Ang**3):
 XXXX=          -2986.1501 YYYY=          -2984.9782 ZZZZ=           -746.2275 XXXY=             -0.0204
 XXXZ=            -42.9304 YYYX=              0.0009 YYYZ=             65.1757 ZZZX=             -0.0043
 ZZZY=              0.0153 XXYY=           -994.8962 XXZZ=           -612.7635 YYZZ=           -612.5800
 XXYZ=            -65.1119 YYXZ=             43.1706 ZZXY=              0.1566
 N-N= 1.290442479251D+03 E-N=-4.276986392419D+03  KE= 7.285962535093D+02
 PrsmSu:  requested number of processors reduced to:  10 ShMem   1 Linda.
 Calling FoFJK, ICntrl=      2127 FMM=F ISym2X=0 I1Cent= 0 IOpClX= 0 NMat=1 NMatS=1 NMatT=0.
 ***** Axes restored to original set *****
 -------------------------------------------------------------------
 Center     Atomic                   Forces (Hartrees/Bohr)
 Number     Number              X              Y              Z
 -------------------------------------------------------------------
      1        6          -0.003992613    0.021686738    0.004304125
      2        1           0.004630549   -0.024998971   -0.004948043
      3        6          -0.004893762    0.004610273   -0.011849737
      4        6          -0.003179471   -0.008124368    0.005747813
      5        6           0.001953277    0.005830738    0.000862289
      6        6          -0.002509439   -0.011098068   -0.004893287
      7        1           0.001541075    0.015665293   -0.014800406
      8        6           0.002431355    0.010051087   -0.008035131
      9        1          -0.004951257   -0.015587428   -0.005728611
     10        6          -0.001623146   -0.001393439   -0.013476120
     11        1           0.004628070    0.014806009    0.006133489
     12        1          -0.002735216   -0.012955917    0.010080356
     13        1           0.001950192    0.001853121    0.016546597
     14        6           0.012292404    0.004820812    0.003490677
     15        6          -0.002874384   -0.005236457   -0.008503685
     16        6          -0.002215004    0.004476752    0.003592951
     17        6           0.006485323   -0.009481598   -0.004528066
     18        1           0.010997545    0.011621084    0.014513557
     19        6           0.005119577    0.007003683    0.009773567
     20        1           0.008743540   -0.012632586   -0.008039145
     21        6           0.012775820   -0.002220220    0.004074971
     22        1          -0.008882446    0.012113799    0.007260878
     23        1          -0.006526399   -0.009280497   -0.012186686
     24        1          -0.015727486    0.002860752   -0.005026935
     25        6          -0.009083111   -0.000413836    0.010168674
     26        6           0.009377279   -0.004620592   -0.000699553
     27        6          -0.002663687    0.005435899   -0.001403241
     28        6           0.001979425   -0.011834016    0.003053679
     29        1          -0.018936042    0.007534845    0.007145124
     30        6          -0.011643844    0.005377719    0.002631693
     31        1           0.004343015   -0.015998316    0.005016517
     32        6          -0.009188793   -0.006969636    0.007266101
     33        1          -0.003551147    0.015506117   -0.005016829
     34        1           0.014616698   -0.007028817   -0.003667255
     35        1           0.011312100    0.008620039   -0.008860327
 -------------------------------------------------------------------
 Cartesian Forces:  Max     0.024998971 RMS     0.009004958

 GradGradGradGradGradGradGradGradGradGradGradGradGradGradGradGradGradGrad
 Berny optimization.
 Internal  Forces:  Max     0.025901227 RMS     0.006565352
 Search for a local minimum.
 Step number   1 out of a maximum of  197
 All quantities printed in internal units (Hartrees-Bohrs-Radians)
 Mixed Optimization -- RFO/linear search
 Second derivative matrix not updated -- first step.
     Eigenvalues ---    0.00649   0.00649   0.00650   0.01537   0.01537
     Eigenvalues ---    0.01537   0.02143   0.02143   0.02144   0.02171
     Eigenvalues ---    0.02172   0.02172   0.02181   0.02182   0.02182
     Eigenvalues ---    0.02201   0.02201   0.02201   0.02213   0.02213
     Eigenvalues ---    0.02213   0.02215   0.02215   0.02215   0.02216
     Eigenvalues ---    0.02217   0.02217   0.02217   0.02218   0.02218
     Eigenvalues ---    0.04655   0.06495   0.06498   0.15999   0.15999
     Eigenvalues ---    0.15999   0.16000   0.16000   0.16000   0.16000
     Eigenvalues ---    0.16000   0.16000   0.16000   0.16000   0.16000
     Eigenvalues ---    0.16000   0.16000   0.16000   0.19005   0.19009
     Eigenvalues ---    0.22000   0.22000   0.22000   0.22000   0.22000
     Eigenvalues ---    0.22000   0.23478   0.23478   0.23478   0.25000
     Eigenvalues ---    0.25000   0.25000   0.31292   0.31470   0.31471
     Eigenvalues ---    0.31472   0.33902   0.33902   0.33906   0.34106
     Eigenvalues ---    0.34108   0.34109   0.34258   0.34260   0.34261
     Eigenvalues ---    0.34261   0.34262   0.34262   0.34281   0.34282
     Eigenvalues ---    0.34282   0.42458   0.42466   0.42468   0.42570
     Eigenvalues ---    0.42573   0.42577   0.46395   0.46404   0.46405
     Eigenvalues ---    0.46766   0.46773   0.46781   0.47227   0.47234
     Eigenvalues ---    0.47235   0.47303   0.47305   0.473081000.00000
     Eigenvalues --- 1000.000001000.000001000.000001000.000001000.00000
     Eigenvalues --- 1000.000001000.000001000.000001000.000001000.00000
     Eigenvalues --- 1000.000001000.000001000.000001000.000001000.00000
     Eigenvalues --- 1000.000001000.000001000.000001000.000001000.00000
     Eigenvalues --- 1000.000001000.000001000.000001000.000001000.00000
     Eigenvalues --- 1000.000001000.000001000.000001000.000001000.00000
     Eigenvalues --- 1000.000001000.000001000.000001000.000001000.00000
     Eigenvalues --- 1000.000001000.000001000.000001000.000001000.00000
     Eigenvalues --- 1000.000001000.000001000.000001000.000001000.00000
     Eigenvalues --- 1000.000001000.000001000.000001000.000001000.00000
     Eigenvalues --- 1000.000001000.000001000.000001000.000001000.00000
     Eigenvalues --- 1000.000001000.000001000.000001000.000001000.00000
     Eigenvalues --- 1000.000001000.000001000.000001000.000001000.00000
     Eigenvalues --- 1000.000001000.000001000.000001000.000001000.00000
     Eigenvalues --- 1000.000001000.000001000.000001000.000001000.00000
     Eigenvalues --- 1000.000001000.000001000.000001000.000001000.00000
     Eigenvalues --- 1000.000001000.000001000.000001000.000001000.00000
     Eigenvalues --- 1000.000001000.00000
 RFO step:  Lambda=-2.71068854D-02 EMin= 6.49310383D-03
 Linear search not attempted -- first point.
 Maximum step size (   0.300) exceeded in Quadratic search.
    -- Step size scaled by   0.783
 Iteration  1 RMS(Cart)=  0.10438285 RMS(Int)=  0.00168508
 Iteration  2 RMS(Cart)=  0.00452406 RMS(Int)=  0.00032063
 Iteration  3 RMS(Cart)=  0.00000481 RMS(Int)=  0.00032062
 Iteration  4 RMS(Cart)=  0.00000000 RMS(Int)=  0.00032062
 Variable       Old X    -DE/DX   Delta X   Delta X   Delta X     New X
                                 (Linear)    (Quad)   (Total)
    R1        2.12158  -0.02590   0.00000  -0.05963  -0.05963   2.06195
    R2        2.85121   0.01957   0.00000   0.04482   0.04482   2.89603
    R3        2.85125   0.01954   0.00000   0.04475   0.04475   2.89600
    R4        2.85123   0.01956   0.00000   0.04479   0.04479   2.89602
    R5        2.63735  -0.00245   0.00000  -0.00385  -0.00384   2.63351
    R6        2.64084  -0.00433   0.00000  -0.00699  -0.00698   2.63386
    R7        2.62762  -0.00297   0.00000  -0.00455  -0.00455   2.62306
    R8        2.07496  -0.02144   0.00000  -0.04584  -0.04584   2.02912
    R9        2.62634  -0.00371   0.00000  -0.00591  -0.00590   2.62044
   R10        2.07149  -0.01731   0.00000  -0.03681  -0.03681   2.03467
   R11        2.62693  -0.00571   0.00000  -0.00890  -0.00892   2.61802
   R12        2.06891  -0.01668   0.00000  -0.03532  -0.03532   2.03359
   R13        2.62851  -0.00629   0.00000  -0.00994  -0.00994   2.61857
   R14        2.06894  -0.01664   0.00000  -0.03523  -0.03523   2.03371
   R15        2.06859  -0.01676   0.00000  -0.03547  -0.03547   2.03312
   R16        2.63741  -0.00247   0.00000  -0.00387  -0.00386   2.63354
   R17        2.64100  -0.00443   0.00000  -0.00717  -0.00715   2.63385
   R18        2.62764  -0.00300   0.00000  -0.00460  -0.00461   2.62302
   R19        2.07496  -0.02144   0.00000  -0.04583  -0.04583   2.02912
   R20        2.62639  -0.00371   0.00000  -0.00591  -0.00590   2.62049
   R21        2.07151  -0.01732   0.00000  -0.03684  -0.03684   2.03467
   R22        2.62711  -0.00579   0.00000  -0.00903  -0.00904   2.61807
   R23        2.06892  -0.01668   0.00000  -0.03533  -0.03533   2.03359
   R24        2.62853  -0.00632   0.00000  -0.00999  -0.01000   2.61853
   R25        2.06896  -0.01665   0.00000  -0.03525  -0.03525   2.03371
   R26        2.06857  -0.01676   0.00000  -0.03546  -0.03546   2.03311
   R27        2.63716  -0.00235   0.00000  -0.00368  -0.00368   2.63348
   R28        2.64091  -0.00436   0.00000  -0.00704  -0.00703   2.63388
   R29        2.62765  -0.00299   0.00000  -0.00458  -0.00458   2.62307
   R30        2.07489  -0.02143   0.00000  -0.04582  -0.04582   2.02908
   R31        2.62638  -0.00373   0.00000  -0.00593  -0.00593   2.62045
   R32        2.07146  -0.01730   0.00000  -0.03679  -0.03679   2.03467
   R33        2.62701  -0.00575   0.00000  -0.00896  -0.00898   2.61803
   R34        2.06891  -0.01668   0.00000  -0.03532  -0.03532   2.03359
   R35        2.62838  -0.00623   0.00000  -0.00983  -0.00984   2.61854
   R36        2.06890  -0.01663   0.00000  -0.03520  -0.03520   2.03370
   R37        2.06857  -0.01676   0.00000  -0.03546  -0.03546   2.03311
    A1        1.86685  -0.00347   0.00000  -0.03690  -0.03618   1.83068
    A2        1.86696  -0.00348   0.00000  -0.03700  -0.03627   1.83069
    A3        1.86683  -0.00348   0.00000  -0.03698  -0.03626   1.83057
    A4        1.95202   0.00313   0.00000   0.03332   0.03107   1.98309
    A5        1.95241   0.00313   0.00000   0.03332   0.03107   1.98348
    A6        1.95242   0.00315   0.00000   0.03339   0.03115   1.98357
    A7        2.12869   0.00998   0.00000   0.02837   0.02836   2.15705
    A8        2.07440  -0.00227   0.00000  -0.00624  -0.00625   2.06815
    A9        2.08009  -0.00770   0.00000  -0.02212  -0.02211   2.05798
   A10        2.10074   0.00327   0.00000   0.01023   0.01023   2.11096
   A11        2.08620   0.00074   0.00000   0.00480   0.00480   2.09100
   A12        2.09620  -0.00401   0.00000  -0.01506  -0.01506   2.08114
   A13        2.10009   0.00549   0.00000   0.01665   0.01667   2.11675
   A14        2.09416  -0.00347   0.00000  -0.01137  -0.01138   2.08277
   A15        2.08894  -0.00202   0.00000  -0.00529  -0.00530   2.08364
   A16        2.09748   0.00129   0.00000   0.00393   0.00390   2.10138
   A17        2.09047  -0.00055   0.00000  -0.00157  -0.00157   2.08891
   A18        2.09523  -0.00074   0.00000  -0.00236  -0.00235   2.09288
   A19        2.09757  -0.00007   0.00000  -0.00101  -0.00102   2.09655
   A20        2.09156   0.00014   0.00000   0.00096   0.00096   2.09252
   A21        2.09406  -0.00007   0.00000   0.00005   0.00006   2.09411
   A22        2.09041  -0.00227   0.00000  -0.00767  -0.00770   2.08271
   A23        2.09669   0.00115   0.00000   0.00390   0.00391   2.10060
   A24        2.09608   0.00112   0.00000   0.00377   0.00378   2.09986
   A25        2.12854   0.00999   0.00000   0.02840   0.02839   2.15693
   A26        2.07453  -0.00227   0.00000  -0.00624  -0.00624   2.06828
   A27        2.08012  -0.00772   0.00000  -0.02216  -0.02214   2.05798
   A28        2.10069   0.00329   0.00000   0.01029   0.01028   2.11097
   A29        2.08623   0.00073   0.00000   0.00476   0.00476   2.09099
   A30        2.09622  -0.00401   0.00000  -0.01508  -0.01508   2.08114
   A31        2.10009   0.00549   0.00000   0.01664   0.01666   2.11675
   A32        2.09421  -0.00348   0.00000  -0.01141  -0.01142   2.08279
   A33        2.08888  -0.00201   0.00000  -0.00524  -0.00525   2.08363
   A34        2.09750   0.00128   0.00000   0.00390   0.00387   2.10137
   A35        2.09044  -0.00054   0.00000  -0.00153  -0.00152   2.08892
   A36        2.09524  -0.00074   0.00000  -0.00237  -0.00236   2.09288
   A37        2.09754  -0.00006   0.00000  -0.00098  -0.00098   2.09655
   A38        2.09154   0.00014   0.00000   0.00096   0.00096   2.09250
   A39        2.09411  -0.00008   0.00000   0.00002   0.00002   2.09413
   A40        2.09042  -0.00227   0.00000  -0.00769  -0.00771   2.08271
   A41        2.09665   0.00115   0.00000   0.00391   0.00392   2.10057
   A42        2.09611   0.00112   0.00000   0.00377   0.00378   2.09989
   A43        2.12880   0.01000   0.00000   0.02841   0.02840   2.15721
   A44        2.07438  -0.00230   0.00000  -0.00632  -0.00633   2.06805
   A45        2.08000  -0.00769   0.00000  -0.02209  -0.02207   2.05793
   A46        2.10076   0.00327   0.00000   0.01024   0.01023   2.11099
   A47        2.08629   0.00074   0.00000   0.00479   0.00479   2.09108
   A48        2.09609  -0.00401   0.00000  -0.01506  -0.01506   2.08103
   A49        2.10019   0.00547   0.00000   0.01659   0.01660   2.11679
   A50        2.09412  -0.00346   0.00000  -0.01135  -0.01136   2.08276
   A51        2.08887  -0.00201   0.00000  -0.00525  -0.00526   2.08361
   A52        2.09754   0.00127   0.00000   0.00387   0.00384   2.10139
   A53        2.09044  -0.00054   0.00000  -0.00155  -0.00154   2.08890
   A54        2.09520  -0.00073   0.00000  -0.00233  -0.00232   2.09288
   A55        2.09753  -0.00006   0.00000  -0.00098  -0.00099   2.09655
   A56        2.09156   0.00014   0.00000   0.00093   0.00093   2.09249
   A57        2.09409  -0.00007   0.00000   0.00005   0.00005   2.09415
[...]
 14,0.00019116,-0.00009640,0.00025598,0.00003558,0.00004263,0.00010653,
 -0.00027795,0.00014646,0.00001060,0.00008315,0.00015602,0.00003346,0.0
 0021572,-0.00002680,0.00000541,-0.00001138,-0.00008265,-0.00021818,0.0
 0008956,-0.00002528,0.00003136,0.00001789,0.00003332,-0.00001648,0.000
 02436,-0.00000039,0.00000496,0.00000413,0.00016729,0.00000128,-0.00079
 268,-0.00025359,0.00026894,0.00000035,0.00041897,0.00003578,-0.0000625
 9,0.00022428,0.00001224,0.00023628,-0.00001006,0.00001469,0.00000765,-
 0.00039051,0.00016492,-0.00001134,0.00001568,-0.00004819,0.00004709,0.
 00008845,-0.00023346,-0.00023301,0.00001097,-0.00001896,0.00000852,0.0
 0001480,0.00001754,0.00001033,0.00001402,0.00000254,0.00000066,0.05566
 921,-0.04203005,0.01362155,0.01479886,0.04582901,-0.03914057,0.0735074
 4,0.10130883,-0.17286999,-0.05984214,-0.00183638,0.03307711,-0.0001224
 8,0.00026773,-0.00098820,-0.14955906,-0.22231470,0.36671108,0.00091289
 ,0.00113459,-0.00169741,-0.00052429,-0.00115952,0.00005573,0.00015272,
 0.00000920,0.00024897,0.00003425,0.00017046,-0.00007728,-0.00003747,-0
 .00000465,0.00001553,-0.00003201,-0.00000443,-0.00001021,-0.00000908,-
 0.00007264,-0.00002126,0.00001119,-0.00004127,0.00006593,-0.00004751,-
 0.00002962,0.00002324,-0.00004162,-0.00002243,-0.00004614,-0.00000651,
 -0.00002333,-0.00002668,0.00000566,0.00000798,-0.00001628,0.00000269,-
 0.00001111,-0.00001808,0.00000779,-0.00034707,-0.00019930,0.00015803,-
 0.00007316,0.00010121,0.00000342,0.00002976,0.00007179,0.00004738,-0.0
 0001860,-0.00003218,-0.00000343,0.00000810,-0.00001806,0.00000750,-0.0
 0001658,-0.00000484,-0.00001846,0.00000695,-0.00005029,0.00002548,-0.0
 0000355,0.00000820,0.00002503,-0.00000317,-0.00000556,0.00000901,0.000
 00681,0.00000610,0.00001231,-0.00000177,-0.00000103,-0.00285768,0.0300
 9908,-0.01516147,-0.00529524,0.00309374,0.00307685,-0.08870858,0.06682
 243,-0.02633608,-0.00104287,-0.00049993,0.00033166,-0.00022494,0.00142
 981,-0.00079000,0.01096940,-0.02394146,0.01276463,0.08791347,-0.001656
 77,-0.00039987,-0.00175917,0.00038941,0.00051542,-0.00016714,0.0002805
 2,0.00046932,-0.00014544,-0.00023327,-0.00011743,0.00005331,-0.0000771
 8,0.00013352,-0.00034327,-0.00007795,0.00003586,-0.00019024,0.00011919
 ,-0.00006783,0.00010242,0.00004919,0.00012731,0.00003692,0.00002498,-0
 .00003024,0.00000828,-0.00003387,-0.00009232,0.00000220,0.00002180,-0.
 00000486,0.00000217,0.00000372,-0.00001412,-0.00000602,0.00001196,-0.0
 0000417,0.00000802,-0.00006448,0.00025822,0.00023826,-0.00012593,0.000
 04810,-0.00006512,-0.00000676,0.00005077,-0.00003222,-0.00003593,0.000
 03946,0.00001470,0.00000280,-0.00003585,0.00000837,-0.00000573,-0.0000
 1898,-0.00003391,0.00000638,-0.00002760,0.00001339,0.00000121,0.000002
 11,0.00000371,-0.00001003,-0.00000502,-0.00000094,-0.00000837,-0.00000
 456,0.00000218,-0.00000111,-0.00000453,0.00000230,-0.00086420,-0.00755
 438,0.00825850,0.00341136,0.00269454,0.00204109,0.06740211,-0.28763039
 ,0.12051132,-0.00040009,0.00052822,-0.00077350,0.00003656,-0.00056047,
 0.00031628,0.00876636,-0.00949132,0.00615714,-0.07383381,0.30033888,-0
 .00026923,-0.00130339,-0.00266993,0.00013861,-0.00097715,0.00039027,0.
 00024938,0.00007154,-0.00010416,-0.00006947,0.00004768,-0.00000154,-0.
 00007913,0.00012247,-0.00018423,-0.00006247,-0.00003293,-0.00008464,0.
 00002932,-0.00005548,0.00007341,0.00004468,0.00005902,-0.00000641,0.00
 000161,-0.00001691,0.00000578,-0.00000322,-0.00004827,0.00001016,0.000
 00694,0.00000385,-0.00000433,0.00000040,-0.00001311,0.00000465,0.00000
 249,-0.00000288,0.00001395,-0.00014148,-0.00024748,0.00015669,-0.00000
 569,-0.00005046,0.00002265,-0.00012722,0.00013301,0.00007813,0.0000138
 5,-0.00000076,-0.00005170,0.00000582,-0.00001935,-0.00000605,0.0000298
 1,-0.00001561,-0.00002889,-0.00000503,-0.00003185,-0.00002585,-0.00002
 631,0.00000472,0.00000664,0.00000007,0.00000653,-0.00000525,-0.0000161
 5,-0.00000134,-0.00001043,-0.00000109,-0.00000394,-0.00000305,0.002746
 66,-0.00365806,0.00668493,0.00287354,0.00240368,0.00557152,-0.02637995
 ,0.12136510,-0.11280841,0.00027878,-0.00070106,-0.00064044,0.00010446,
 -0.00026732,0.00003541,-0.00727202,0.01767260,-0.00267290,0.02470954,-
 0.13642969,0.10605573,0.00035076,0.00090318,-0.00147967,-0.00003315,-0
 .00076036,-0.00017930,0.00063662,-0.00017983,-0.00037306,0.00018899,-0
 .00011757,0.00000618,0.00019664,-0.00006577,0.00040164,-0.00006514,-0.
 00017967,0.00032439,-0.00031034,-0.00027601,-0.00001720,-0.00014312,-0
 .00016817,-0.00018438,0.00000380,0.00000491,-0.00001873,0.00010744,0.0
 0024813,0.00000101,0.00001830,0.00000928,0.00004772,-0.00002945,0.0000
 1530,0.00002419,0.00000010,-0.00000622,0.00001716,0.00018349,0.0002610
 6,0.00046773,0.00027757,-0.00024623,0.00001910,-0.00040358,-0.00010546
 ,0.00003183,-0.00020525,-0.00005718,-0.00021770,0.00002590,-0.00001174
 ,-0.00002216,0.00035187,-0.00014414,0.00003139,0.00000327,0.00006373,0
 .00000043,-0.00010992,0.00024344,0.00020277,-0.00002460,0.00001691,0.0
 0000318,-0.00002041,-0.00002524,-0.00001647,-0.00002457,-0.00000042,-0
 .00000225,-0.05194132,0.05288009,-0.01545135,-0.05335156,-0.05247954,0
 .05418315,0.07830743,-0.01715695,-0.01324253,-0.33181896,0.11851089,0.
 01885022,-0.00049021,-0.00152282,0.00423763,-0.16670830,0.01580183,0.0
 2119885,-0.00236620,-0.00168223,0.00512032,0.73979889,0.00030317,-0.00
 137224,0.00152210,-0.00047370,0.00078472,0.00044895,-0.00131531,0.0000
 8948,-0.00006569,-0.00026521,-0.00008716,0.00034769,-0.00017398,0.0003
 4261,-0.00020207,0.00004833,0.00020145,-0.00040069,0.00017265,0.000052
 69,0.00010096,0.00020933,0.00015430,0.00024398,-0.00000865,0.00000908,
 -0.00001658,-0.00011596,-0.00031146,0.00013444,-0.00002169,0.00004331,
 0.00004771,0.00004049,-0.00002216,0.00002491,0.00000833,0.00000585,0.0
 0000603,-0.00007826,-0.00051330,-0.00019273,-0.00038580,0.00013757,-0.
 00011448,0.00031111,0.00019115,-0.00004806,0.00023337,0.00003181,0.000
 20574,-0.00001380,-0.00000568,0.00001220,-0.00032347,0.00018920,-0.000
 05100,0.00001934,-0.00008376,0.00003976,0.00001616,-0.00019639,-0.0002
 2791,-0.00001191,-0.00000633,0.00000539,-0.00001499,-0.00000002,0.0000
 0315,0.00000178,-0.00000646,-0.00000017,0.05409206,-0.05917914,0.01048
 117,0.00550354,0.07466287,-0.04088920,-0.07574016,-0.02739122,0.048920
 71,0.04563028,-0.17184722,0.03728412,-0.00188933,0.00084949,0.00577874
 ,0.08899350,-0.29320319,0.09369936,-0.00103928,0.00229539,0.00445595,-
 0.04754017,0.62402062,-0.00071051,0.00004745,-0.00118194,0.00013434,-0
 .00029924,-0.00009087,0.00078088,0.00019831,0.00014069,0.00001134,0.00
 012149,-0.00008225,0.00001438,-0.00014064,-0.00013257,-0.00003757,-0.0
 0010577,0.00007428,-0.00006468,-0.00006890,0.00000288,-0.00005931,0.00
 001110,-0.00004204,0.00001239,-0.00000872,0.00002133,0.00002272,0.0000
 5795,-0.00004711,0.00000309,-0.00001275,-0.00002066,-0.00001345,0.0000
 0832,-0.00002783,-0.00000520,-0.00000895,-0.00000244,-0.00004270,0.000
 18425,0.00001500,0.00006724,0.00004121,0.00006297,-0.00002453,-0.00007
 252,-0.00005139,-0.00004915,0.00000509,-0.00002659,0.00000258,0.000002
 37,-0.00001279,0.00004108,-0.00005896,0.00000017,-0.00003821,0.0000075
 5,-0.00004296,0.00003369,0.00001392,0.00005511,0.00001648,-0.00000109,
 -0.00000467,0.00003018,0.00001727,0.00000897,0.00001194,0.00000142,-0.
 00000124,-0.01598709,0.01192703,-0.00817784,0.01981044,-0.02033666,0.0
 1485394,0.02057487,0.02885577,-0.01466020,0.06369629,0.01007578,-0.113
 50820,0.00426375,0.00552035,0.00386910,-0.02297203,0.12092287,-0.14835
 640,0.00482759,0.00479395,0.00443846,-0.17908223,-0.25446146,0.3949541
 5,0.00055576,-0.00084304,0.00022675,-0.00013226,-0.00018255,0.00012863
 ,-0.00008861,-0.00007201,-0.00001962,0.00000541,0.00002196,0.00000603,
 -0.00000696,0.00000391,0.00005101,0.00000871,0.00000800,0.00000534,0.0
 0000578,0.00000793,0.00000999,0.00000678,-0.00000690,0.00000876,-0.000
 00135,0.00000831,-0.00000406,-0.00000031,-0.00000218,0.00000723,0.0000
 0057,0.00000115,-0.00000051,0.00000140,-0.00000210,0.00000522,-0.00000
 087,0.00000160,0.00000106,0.00015555,0.00003620,-0.00001877,0.00000644
 ,0.00003609,-0.00000984,-0.00002826,0.00000769,-0.00002098,-0.00001821
 ,0.00001603,-0.00001229,0.00000274,-0.00001054,0.00001214,0.00000769,0
 .00000114,-0.00001271,-0.00000016,-0.00000822,0.00001010,-0.00003326,0
 .00001835,-0.00001343,-0.00000995,-0.00000506,0.00000690,-0.00000818,-
 0.00000719,-0.00000046,-0.00000515,-0.00000533,0.00000396,-0.00241724,
 -0.00130715,0.00491265,0.01093731,-0.02361447,0.01239940,-0.00119275,-
 0.00046116,0.00033577,-0.08962475,0.06832368,-0.02684149,0.00077452,-0
 .00040787,-0.00185544,-0.00504393,0.00306456,0.00327058,-0.00002319,-0
 .00016525,-0.00034764,-0.00155528,0.03097344,-0.01631151,0.08736179,0.
 00070596,-0.00045674,-0.00007289,-0.00010761,-0.00015102,0.00012759,-0
 .00018688,-0.00009822,-0.00005634,0.00001115,0.00004364,0.00005335,0.0
 0000325,0.00004679,0.00008790,-0.00001495,-0.00002018,-0.00001604,0.00
 000453,-0.00004424,-0.00002137,0.00001280,-0.00000550,0.00001931,0.000
 00182,0.00000627,-0.00001356,-0.00000420,-0.00001204,0.00002418,0.0000
 1054,0.00000903,0.00001159,0.00000117,-0.00000994,0.00001788,0.0000013
 3,-0.00000123,0.00001589,0.00014272,-0.00001610,0.00010665,-0.00001250
 ,-0.00002175,-0.00003744,-0.00007872,0.00000831,-0.00001780,-0.0000157
 7,0.00000783,-0.00003120,0.00001369,-0.00001285,0.00000056,0.00003949,
 0.00001388,-0.00000269,0.00001743,-0.00000151,0.00002714,-0.00005451,0
 .00004372,-0.00000749,-0.00002115,0.00000223,0.00000971,-0.00002344,-0
 .00002311,-0.00001142,-0.00002210,-0.00000526,0.00000276,-0.00170939,0
 .00210184,0.00463621,0.00862549,-0.00925127,0.00584805,-0.00058549,0.0
 0058123,-0.00072633,0.06812494,-0.29046008,0.12245599,-0.00132746,-0.0
 0028947,-0.00239386,0.00350429,0.00288296,0.00241619,-0.00015808,-0.00
 041903,-0.00046184,-0.00129569,-0.00571876,0.00740139,-0.07527795,0.30
 216214,-0.00039145,0.00058225,-0.00024764,0.00019128,0.00013596,-0.000
 20173,0.00008282,0.00013491,0.00014521,0.00004926,0.00002124,-0.000103
 54,-0.00003436,-0.00003711,-0.00010778,0.00001008,0.00000272,0.0000103
 0,-0.00001537,0.00004806,0.00003959,0.00000460,0.00000496,-0.00000023,
 -0.00001312,-0.00001676,0.00000984,-0.00000549,-0.00000554,-0.00002326
 ,-0.00001076,-0.00000984,-0.00002814,0.00000076,0.00000010,-0.00001233
 ,-0.00000438,0.00000054,-0.00000763,-0.00023650,-0.00001378,-0.0000403
 5,0.00009089,-0.00002963,0.00004777,-0.00000871,-0.00000851,0.00003247
 ,-0.00002517,-0.00001578,-0.00001723,-0.00000517,0.00001152,-0.0000174
 3,0.00002355,-0.00001355,-0.00001258,-0.00000080,-0.00002175,-0.000013
 99,0.00001890,0.00000842,0.00003039,0.00002213,-0.00000304,-0.00001081
 ,0.00000137,-0.00000208,0.00000312,0.00000899,0.00000136,0.00000148,0.
 00491486,0.00415723,0.00431044,-0.00723100,0.01778081,-0.00268464,0.00
 029581,-0.00074832,-0.00061520,-0.02692519,0.12258679,-0.11362077,-0.0
 0110298,-0.00274008,-0.00292480,0.00304914,0.00261315,0.00623336,-0.00
 036194,-0.00045654,-0.00084424,0.00349597,-0.00454222,0.00710281,0.025
 93574,-0.13691581,0.10649821,-0.00073686,0.00076104,-0.00027335,-0.000
 00079,-0.00005850,0.00000440,-0.00012504,-0.00008494,-0.00015890,0.000
 03599,0.00003737,0.00005146,0.00004310,0.00002297,0.00010152,-0.000005
 98,-0.00002284,-0.00000533,-0.00002305,-0.00003500,-0.00003491,0.00001
 000,-0.00001734,0.00001458,-0.00001043,0.00000838,-0.00001439,0.000008
 38,-0.00001035,0.00003262,-0.00000145,0.00001814,0.00001504,-0.0000091
 3,-0.00000707,0.00002234,-0.00000314,0.00000064,0.00001908,0.00001997,
 -0.00022810,0.00028211,-0.00009311,-0.00001930,-0.00006393,-0.00007497
 ,0.00003816,0.00001550,0.00002139,0.00000686,-0.00001408,0.00000741,-0
 .00000253,-0.00000200,0.00000901,0.00002274,0.00001308,0.00001573,0.00
 000521,0.00001252,-0.00003132,-0.00000117,-0.00001302,-0.00001735,0.00
 001116,0.00000278,-0.00001718,-0.00000430,-0.00001859,-0.00001577,0.00
 000139,-0.00000408,-0.00026661,-0.00182295,0.00459430,0.00067176,-0.00
 085026,-0.00007145,-0.01603334,0.01352852,-0.00015374,0.00223041,0.002
 19687,0.00106188,-0.00020052,-0.00011818,-0.00032293,-0.32253904,0.108
 55875,0.03581126,0.00067064,-0.00151002,-0.00126142,-0.00232679,-0.001
 19310,0.00362312,-0.00034305,0.00002789,0.00007004,0.33852976,-0.00076
 359,0.00038692,-0.00007626,0.00004009,-0.00003401,-0.00004684,0.000060
 02,0.00002211,-0.00007601,-0.00000123,-0.00000486,-0.00001016,0.000022
 58,-0.00003615,0.00002071,-0.00000432,0.00002045,0.00001978,0.00001622
 ,-0.00000669,0.00001878,-0.00000930,-0.00001188,-0.00000886,-0.0000052
 3,-0.00000101,0.00000033,0.00000325,0.00001328,-0.00001139,0.00000434,
 -0.00000993,-0.00000674,-0.00000389,0.00000175,0.00000016,0.00000231,0
 .00000046,-0.00000435,-0.00000639,-0.00014419,0.00008656,-0.00004038,0
 .00003186,-0.00002157,-0.00000601,0.00003577,0.00000194,0.00001936,0.0
 0001912,0.00000534,-0.00000315,-0.00000743,0.00000890,-0.00002495,0.00
 001498,-0.00001296,-0.00000091,-0.00001819,0.00000279,-0.00000929,-0.0
 0001547,-0.00002393,-0.00000370,-0.00000349,0.00000199,-0.00000614,-0.
 00000047,-0.00000147,0.00000009,-0.00000353,0.00000166,-0.00146672,0.0
 0085782,0.00561967,-0.00081641,-0.00087452,0.00025416,-0.01892790,0.01
 161670,0.00345643,0.00174053,-0.00291766,0.00633807,-0.00013382,-0.000
 26042,-0.00055724,0.10877782,-0.11112332,-0.00280682,-0.00043080,-0.00
 032181,-0.00277346,0.03106256,-0.00497683,-0.00521253,0.00141012,-0.00
 053183,-0.00023322,-0.11895778,0.10849154,0.00066849,-0.00050839,0.000
 04553,-0.00005056,-0.00003760,0.00006166,0.00010788,0.00005271,0.00005
 355,-0.00002534,0.00000170,-0.00004423,0.00000168,-0.00001735,-0.00005
 091,-0.00001762,0.00001700,-0.00000592,0.00003961,-0.00000421,0.000015
 13,-0.00001424,0.00000922,-0.00000180,0.00000520,-0.00001267,0.0000054
 6,-0.00001399,-0.00000022,-0.00003311,0.00000744,-0.00001710,-0.000016
 81,0.00000293,-0.00000084,-0.00000775,0.00000703,-0.00000287,-0.000006
 54,0.00012227,0.00010529,-0.00031033,0.00001413,0.00000741,0.00002395,
 0.00005269,0.00003122,0.00003788,0.00003050,-0.00000964,0.00004189,0.0
 0000300,0.00000729,-0.00001352,-0.00005653,0.00000068,-0.00000372,-0.0
 0000360,-0.00000413,-0.00000134,0.00003314,-0.00003531,-0.00003260,0.0
 0000984,-0.00000673,-0.00000001,0.00000029,0.00000379,0.00000251,0.000
 00509,0.00000035,-0.00000037,0.00407577,0.00572238,0.00399822,-0.00019
 910,0.00024941,-0.00099867,0.01951049,-0.00869127,0.00362463,0.0013651
 0,0.00619826,0.00441381,-0.00026328,-0.00058038,-0.00080171,0.03574097
 ,-0.00270965,-0.06031330,-0.00192126,-0.00243018,-0.00298901,-0.015920
 47,0.00682869,0.00722116,-0.00073530,0.00025997,0.00002910,-0.04151078
 ,-0.00174418,0.04885217,0.00000774,-0.00014028,-0.00034652,-0.00000950
 ,-0.00011479,0.00004609,-0.00000403,0.00000603,-0.00006395,0.00002436,
 0.00003970,0.00002077,0.00000813,0.00001483,0.00001874,-0.00001364,-0.
 00002721,-0.00001029,-0.00002315,-0.00002672,-0.00002685,0.00000436,0.
 00000308,0.00000827,-0.00000103,0.00000134,-0.00000560,-0.00000201,-0.
 00000616,0.00001227,0.00000445,0.00000684,0.00000538,-0.00000292,-0.00
 000581,0.00000872,0.00000013,-0.00000184,0.00001192,0.00003878,-0.0000
 3449,0.00005025,-0.00004243,-0.00005644,-0.00001669,-0.00001284,0.0000
 1798,0.00004005,0.00003685,-0.00002038,0.00000908,0.00001128,0.0000083
 2,-0.00002260,0.00000218,0.00001654,0.00001688,0.00001239,0.00000810,0
 .00000489,-0.00000329,-0.00000105,-0.00001633,-0.00000881,0.00000926,0
 .00000291,-0.00001090,-0.00000874,-0.00001171,-0.00001501,0.00000097,-
 0.00000380,-0.00030103,0.00084457,-0.00076842,-0.00394542,0.00476360,0
 .00185313,0.00127239,0.00323282,0.00080221,-0.01511777,-0.02004955,0.0
 1971307,-0.00092321,-0.00084484,0.00082310,0.01064856,0.00787544,-0.00
 685590,0.00027023,0.00026541,-0.00028876,-0.20852292,-0.09595214,0.117
 41975,0.00070326,-0.00035260,-0.00189377,0.00060137,-0.00153739,-0.001
 07146,0.21531345,-0.00018479,-0.00018848,-0.00050479,0.00006840,-0.000
 01702,0.00002637,-0.00000546,0.00006070,-0.00007642,-0.00001447,0.0000
 1867,0.00001616,-0.00000691,0.00001681,-0.00001413,-0.00000698,-0.0000
 0782,-0.00001397,0.00001398,-0.00001725,0.,0.00000446,0.00001346,0.000
 00290,0.00000649,-0.00000047,-0.00000533,-0.00000032,-0.00001054,0.000
 00658,0.00000263,0.00000507,0.00000155,-0.00000140,-0.00000608,0.00000
 537,0.00000080,-0.00000028,0.00000893,0.00004663,0.00000087,0.00006373
 ,-0.00004468,0.00002191,-0.00002260,-0.00002487,0.00001365,-0.00003027
 ,-0.00001102,0.00000269,-0.00000441,0.00000433,-0.00000719,-0.00000099
 ,0.00000619,0.00000559,0.00000216,0.00001124,0.00000180,0.00001438,-0.
 00001058,0.00000252,0.00000314,-0.00000516,0.00000383,0.,-0.00000815,-
 0.00000496,-0.00000557,-0.00000646,0.00000098,-0.00000073,0.00081122,-
 0.00075436,-0.00045002,0.00418033,0.00170738,0.00293354,0.00379968,-0.
 00250810,0.00534155,0.01227071,0.01157187,-0.00838800,0.00045178,0.000
 29812,-0.00039968,-0.02446715,-0.00843045,0.01726827,-0.00108267,-0.00
 073234,0.00076619,-0.09599988,-0.13914027,0.09057337,-0.00156118,-0.00
 035973,-0.00227645,-0.00030236,-0.00020905,-0.00268261,0.10206562,0.13
 864848,-0.00020000,-0.00040243,-0.00077907,0.00003289,-0.00014983,0.00
 003249,0.00012667,0.00012936,-0.00000848,-0.00000863,-0.00000184,-0.00
 004666,-0.00002111,-0.00003221,-0.00006589,0.00000641,0.00002474,0.000
 02330,0.00002095,0.00002812,0.00003946,-0.00000704,0.00000410,-0.00001
 130,-0.00000283,-0.00000756,0.00000621,-0.00000087,0.00000791,-0.00001
 974,-0.00000061,-0.00001442,-0.00001845,0.00000089,0.00000278,-0.00001
 068,0.00000159,0.00000066,-0.00001105,0.00000753,0.00000961,-0.0000487
 7,0.00000610,0.00003277,0.00001839,0.00002238,0.00002885,-0.00002178,-
 0.00001192,0.00000511,0.00000503,-0.00000467,-0.00000628,0.00000153,-0
 .00001033,-0.00000399,-0.00002016,-0.00000262,-0.00001735,-0.00000170,
 0.00001141,-0.00000558,0.00000440,0.00000910,-0.00000443,-0.00000474,-
 0.00000031,-0.00000111,0.00000663,0.00000737,-0.00000216,0.00000284,-0
 .00085982,-0.00055136,-0.00028543,0.00221939,0.00277652,0.00647825,0.0
 0049035,0.00552137,0.00516152,-0.00020189,0.00362088,0.00307030,-0.000
 00021,0.00008367,-0.00013524,0.01276159,0.00514847,-0.00280591,0.00048
 836,0.00025886,-0.00040691,0.11754263,0.09062053,-0.14635102,-0.001133
 20,-0.00273624,-0.00295976,-0.00182474,-0.00220928,-0.00279498,-0.1294
 6482,-0.10215822,0.14195736||0.00000727,-0.00004102,-0.00000761,0.0000
 0214,-0.00001819,-0.00000241,0.00000022,0.00007241,-0.00001234,-0.0000
 1073,-0.00003418,-0.00006915,-0.00001132,-0.00002553,0.00004784,0.0000
 0760,-0.00001668,0.00006658,-0.00000284,-0.00000889,0.00001059,-0.0000
 1334,-0.00003269,-0.00004482,0.00000899,0.00001330,-0.00000022,0.00001
 921,0.00005671,0.00000173,-0.00000783,-0.00000459,-0.00000692,0.000006
 02,0.00000892,0.00000021,-0.00000649,-0.00000662,-0.00001105,0.0000031
 2,0.00006999,0.00003840,0.00007275,-0.00003914,0.00000861,-0.00003787,
 -0.00001356,-0.00004444,-0.00006472,-0.00001128,-0.00003398,-0.0000075
 9,-0.00000516,-0.00001105,0.00005312,-0.00003136,-0.00000478,-0.000004
 83,0.00000841,0.00001285,-0.00001603,0.00004663,0.00004186,0.00001034,
 -0.00000157,-0.00000486,-0.00000383,0.00000565,0.00000843,0.00001330,-
 0.00000484,-0.00000305,-0.00003897,0.00006000,0.00001393,-0.00003537,-
 0.00006035,0.00003585,0.00005426,-0.00000111,-0.00001438,0.00005698,0.
 00001321,-0.00003878,0.00001338,-0.00000318,-0.00000319,-0.00001576,-0
 .00004826,0.00002836,-0.00000991,0.00001103,-0.00000616,-0.00003209,0.
 00005077,-0.00001102,0.00000006,-0.00000631,0.00000948,-0.00000630,0.0
 0000761,-0.00000432,-0.00000293,-0.00001015,0.00000980|||@


 "ANNA, YOU MUSN'T SPEAK OF OXIDIZED MURIATIC ACID
 ANYMORE, FROM NOW ON YOU MUST SAY CHLORINE."
   -- JENS JACOB BERZELIUS, IN 1820, TO HIS COOK, WHO HAD
 COMPLAINED OF THE SMELL OF THE FLASK SHE WAS CLEANING.
 Job cpu time:  0 days  0 hours  6 minutes 28.0 seconds.
 File lengths (MBytes):  RWF=    350 Int=      0 D2E=      0 Chk=      7 Scr=      1
 Normal termination of Gaussian 09 at Mon Sep 06 13:00:15 2021.
