 Entering Link 1 = b:\programy\g09w\l1.exe PID=     18652.
  
 Copyright (c) 1988,1990,1992,1993,1995,1998,2003,2009, Gaussian, Inc.
                  All Rights Reserved.
  
 This is part of the Gaussian(R) 09 program.  It is based on
 the Gaussian(R) 03 system (copyright 2003, Gaussian, Inc.),
 the Gaussian(R) 98 system (copyright 1998, Gaussian, Inc.),
 the Gaussian(R) 94 system (copyright 1995, Gaussian, Inc.),
 the Gaussian 92(TM) system (copyright 1992, Gaussian, Inc.),
 the Gaussian 90(TM) system (copyright 1990, Gaussian, Inc.),
 the Gaussian 88(TM) system (copyright 1988, Gaussian, Inc.),
 the Gaussian 86(TM) system (copyright 1986, Carnegie Mellon
 University), and the Gaussian 82(TM) system (copyright 1983,
 Carnegie Mellon University). Gaussian is a federally registered
 trademark of Gaussian, Inc.
  
 This software contains proprietary and confidential information,
 including trade secrets, belonging to Gaussian, Inc.
  
 This software is provided under written license and may be
 used, copied, transmitted, or stored only in accord with that
 written license.
  
 The following legend is applicable only to US Government
 contracts under FAR:
  
                    RESTRICTED RIGHTS LEGEND
  
 Use, reproduction and disclosure by the US Government is
 subject to restrictions as set forth in subparagraphs (a)
 and (c) of the Commercial Computer Software - Restricted
 Rights clause in FAR 52.227-19.
  
 Gaussian, Inc.
 340 Quinnipiac St., Bldg. 40, Wallingford CT 06492
  
  
 ---------------------------------------------------------------
 Warning -- This program may not be used in any manner that
 competes with the business of Gaussian, Inc. or will provide
 assistance to any competitor of Gaussian, Inc.  The licensee
 of this program is prohibited from giving any competitor of
 Gaussian, Inc. access to this program.  By using this program,
 the user acknowledges that Gaussian, Inc. is engaged in the
 business of creating and licensing software in the field of
 computational chemistry and represents and warrants to the
 licensee that it is not a competitor of Gaussian, Inc. and that
 it will not use this program in any manner prohibited above.
 ---------------------------------------------------------------
  

 Cite this work as:
 Gaussian 09, Revision A.02,
 M. J. Frisch, G. W. Trucks, H. B. Schlegel, G. E. Scuseria, 
 M. A. Robb, J. R. Cheeseman, G. Scalmani, V. Barone, B. Mennucci, 
 G. A. Petersson, H. Nakatsuji, M. Caricato, X. Li, H. P. Hratchian, 
 A. F. Izmaylov, J. Bloino, G. Zheng, J. L. Sonnenberg, M. Hada, 
 M. Ehara, K. Toyota, R. Fukuda, J. Hasegawa, M. Ishida, T. Nakajima, 
 Y. Honda, O. Kitao, H. Nakai, T. Vreven, J. A. Montgomery, Jr., 
 J. E. Peralta, F. Ogliaro, M. Bearpark, J. J. Heyd, E. Brothers, 
 K. N. Kudin, V. N. Staroverov, R. Kobayashi, J. Normand, 
 K. Raghavachari, A. Rendell, J. C. Burant, S. S. Iyengar, J. Tomasi, 
 M. Cossi, N. Rega, J. M. Millam, M. Klene, J. E. Knox, J. B. Cross, 
 V. Bakken, C. Adamo, J. Jaramillo, R. Gomperts, R. E. Stratmann, 
 O. Yazyev, A. J. Austin, R. Cammi, C. Pomelli, J. W. Ochterski, 
 R. L. Martin, K. Morokuma, V. G. Zakrzewski, G. A. Voth, 
 P. Salvador, J. J. Dannenberg, S. Dapprich, A. D. Daniels, 
 O. Farkas, J. B. Foresman, J. V. Ortiz, J. Cioslowski, 
 and D. J. Fox, Gaussian, Inc., Wallingford CT, 2009.
 
 ******************************************
 Gaussian 09:  IA32W-G09RevA.02 11-Jun-2009
                06-Sep-2021 
 ******************************************
 %nprocshared=12
 Will use up to   12 processors via shared memory.
 ----------------------------------------------
 # opt freq=noraman hf/6-311g geom=connectivity
 ----------------------------------------------
 1/18=20,19=15,38=1,57=2/1,3;
 2/9=110,12=2,17=6,18=5,40=1/2;
 3/5=4,6=6,11=9,16=1,25=1,30=1,71=1/1,2,3;
 4//1;
 5/5=2,38=5/2;
 6/7=2,8=2,9=2,10=2,28=1/1;
 7//1,2,3,16;
 1/18=20,19=15/3(2);
 2/9=110/2;
 99//99;
 2/9=110/2;
 3/5=4,6=6,11=9,16=1,25=1,30=1,71=1/1,2,3;
 4/5=5,16=3/1;
 5/5=2,38=5/2;
 7//1,2,3,16;
 1/18=20,19=15/3(-5);
 2/9=110/2;
 6/7=2,8=2,9=2,10=2,19=2,28=1/1;
 99/9=1/99;
 -----
 M0001
 -----
 Symbolic Z-matrix:
 Charge =  0 Multiplicity = 1
 C                     0.10424  -0.7278   -0.22339 
 H                     0.27486  -1.77019  -0.60756 
 C                    -0.00065  -0.84089   1.27716 
 C                    -0.56882   0.15646   2.07147 
 C                     0.49696  -1.99355   1.89277 
 C                    -0.64281   0.00385   3.45134 
 H                    -0.96781   1.06696   1.59607 
 C                     0.4253   -2.14311   3.27261 
 H                     0.94885  -2.78699   1.28569 
 C                    -0.14563  -1.14528   4.05528 
 H                    -1.09519   0.79208   4.0618 
 H                     0.81912  -3.04979   3.74335 
 H                    -0.20373  -1.26483   5.14182 
 C                     1.28877   0.09346  -0.67311 
 C                     1.91867  -0.25243  -1.87306 
 C                     1.77003   1.18105   0.05496 
 C                     3.00732   0.47787  -2.33275 
 H                     1.55026  -1.10289  -2.45862 
 C                     2.86179   1.90936  -0.40596 
 H                     1.29139   1.45976   1.00241 
 C                     3.48206   1.56073  -1.59964 
 H                     3.49221   0.19946  -3.27404 
 H                     3.23238   2.7593    0.17625 
 H                     4.34096   2.13473  -1.96157 
 C                    -1.16109  -0.22029  -0.87054 
 C                    -1.58751   1.10023  -0.71991 
 C                    -1.91593  -1.09143  -1.65982 
 C                    -2.74101   1.54612  -1.35365 
 H                    -1.00745   1.77683  -0.07398 
 C                    -3.07203  -0.64514  -2.29 
 H                    -1.59691  -2.13289  -1.78571 
 C                    -3.48482   0.67442  -2.14143 
 H                    -3.06315   2.58509  -1.23077 
 H                    -3.65745  -1.33558  -2.90597 
 H                    -4.39315   1.02531  -2.64147 
 

 GradGradGradGradGradGradGradGradGradGradGradGradGradGradGradGradGradGrad
 Berny optimization.
 Initialization pass.
                           ----------------------------
                           !    Initial Parameters    !
                           ! (Angstroms and Degrees)  !
 --------------------------                            --------------------------
 ! Name  Definition              Value          Derivative Info.                !
 --------------------------------------------------------------------------------
 ! R1    R(1,2)                  1.124          estimate D2E/DX2                !
 ! R2    R(1,3)                  1.5085         estimate D2E/DX2                !
 ! R3    R(1,14)                 1.5099         estimate D2E/DX2                !
 ! R4    R(1,25)                 1.5091         estimate D2E/DX2                !
 ! R5    R(3,4)                  1.3959         estimate D2E/DX2                !
 ! R6    R(3,5)                  1.3983         estimate D2E/DX2                !
 ! R7    R(4,6)                  1.3903         estimate D2E/DX2                !
 ! R8    R(4,7)                  1.1019         estimate D2E/DX2                !
 ! R9    R(5,8)                  1.3898         estimate D2E/DX2                !
 ! R10   R(5,9)                  1.0965         estimate D2E/DX2                !
 ! R11   R(6,10)                 1.3901         estimate D2E/DX2                !
 ! R12   R(6,11)                 1.0948         estimate D2E/DX2                !
 ! R13   R(8,10)                 1.3908         estimate D2E/DX2                !
 ! R14   R(8,12)                 1.0949         estimate D2E/DX2                !
 ! R15   R(10,13)                1.0946         estimate D2E/DX2                !
 ! R16   R(14,15)                1.3987         estimate D2E/DX2                !
 ! R17   R(14,16)                1.3945         estimate D2E/DX2                !
 ! R18   R(15,17)                1.3892         estimate D2E/DX2                !
 ! R19   R(15,18)                1.0963         estimate D2E/DX2                !
 ! R20   R(16,19)                1.391          estimate D2E/DX2                !
 ! R21   R(16,20)                1.0975         estimate D2E/DX2                !
 ! R22   R(17,21)                1.3912         estimate D2E/DX2                !
 ! R23   R(17,22)                1.0948         estimate D2E/DX2                !
 ! R24   R(19,21)                1.3897         estimate D2E/DX2                !
 ! R25   R(19,23)                1.0949         estimate D2E/DX2                !
 ! R26   R(21,24)                1.0946         estimate D2E/DX2                !
 ! R27   R(25,26)                1.3958         estimate D2E/DX2                !
 ! R28   R(25,27)                1.397          estimate D2E/DX2                !
 ! R29   R(26,28)                1.3896         estimate D2E/DX2                !
 ! R30   R(26,29)                1.1007         estimate D2E/DX2                !
 ! R31   R(27,30)                1.3903         estimate D2E/DX2                !
 ! R32   R(27,31)                1.0965         estimate D2E/DX2                !
 ! R33   R(28,32)                1.3906         estimate D2E/DX2                !
 ! R34   R(28,33)                1.0947         estimate D2E/DX2                !
 ! R35   R(30,32)                1.3906         estimate D2E/DX2                !
 ! R36   R(30,34)                1.0949         estimate D2E/DX2                !
 ! R37   R(32,35)                1.0946         estimate D2E/DX2                !
 ! A1    A(2,1,3)              106.3216         estimate D2E/DX2                !
 ! A2    A(2,1,14)             106.4718         estimate D2E/DX2                !
 ! A3    A(2,1,25)             107.0137         estimate D2E/DX2                !
 ! A4    A(3,1,14)             113.0547         estimate D2E/DX2                !
 ! A5    A(3,1,25)             113.1721         estimate D2E/DX2                !
 ! A6    A(14,1,25)            110.3125         estimate D2E/DX2                !
 ! A7    A(1,3,4)              122.7376         estimate D2E/DX2                !
 ! A8    A(1,3,5)              118.3602         estimate D2E/DX2                !
 ! A9    A(4,3,5)              118.902          estimate D2E/DX2                !
 ! A10   A(3,4,6)              120.5323         estimate D2E/DX2                !
 ! A11   A(3,4,7)              119.4897         estimate D2E/DX2                !
 ! A12   A(6,4,7)              119.9763         estimate D2E/DX2                !
 ! A13   A(3,5,8)              120.4958         estimate D2E/DX2                !
 ! A14   A(3,5,9)              119.9612         estimate D2E/DX2                !
 ! A15   A(8,5,9)              119.5429         estimate D2E/DX2                !
 ! A16   A(4,6,10)             120.1929         estimate D2E/DX2                !
 ! A17   A(4,6,11)             119.7613         estimate D2E/DX2                !
 ! A18   A(10,6,11)            120.0457         estimate D2E/DX2                !
 ! A19   A(5,8,10)             120.1793         estimate D2E/DX2                !
 ! A20   A(5,8,12)             119.831          estimate D2E/DX2                !
 ! A21   A(10,8,12)            119.9897         estimate D2E/DX2                !
 ! A22   A(6,10,8)             119.6973         estimate D2E/DX2                !
 ! A23   A(6,10,13)            120.1677         estimate D2E/DX2                !
 ! A24   A(8,10,13)            120.1349         estimate D2E/DX2                !
 ! A25   A(1,14,15)            118.3155         estimate D2E/DX2                !
 ! A26   A(1,14,16)            122.6465         estimate D2E/DX2                !
 ! A27   A(15,14,16)           119.037          estimate D2E/DX2                !
 ! A28   A(14,15,17)           120.452          estimate D2E/DX2                !
 ! A29   A(14,15,18)           119.9159         estimate D2E/DX2                !
 ! A30   A(17,15,18)           119.6316         estimate D2E/DX2                !
 ! A31   A(14,16,19)           120.4134         estimate D2E/DX2                !
 ! A32   A(14,16,20)           119.8873         estimate D2E/DX2                !
 ! A33   A(19,16,20)           119.6968         estimate D2E/DX2                !
 ! A34   A(15,17,21)           120.1484         estimate D2E/DX2                !
 ! A35   A(15,17,22)           119.8608         estimate D2E/DX2                !
 ! A36   A(21,17,22)           119.9908         estimate D2E/DX2                !
 ! A37   A(16,19,21)           120.2395         estimate D2E/DX2                !
 ! A38   A(16,19,23)           119.7308         estimate D2E/DX2                !
 ! A39   A(21,19,23)           120.0297         estimate D2E/DX2                !
 ! A40   A(17,21,19)           119.7095         estimate D2E/DX2                !
 ! A41   A(17,21,24)           120.1116         estimate D2E/DX2                !
 ! A42   A(19,21,24)           120.1788         estimate D2E/DX2                !
 ! A43   A(1,25,26)            121.8718         estimate D2E/DX2                !
 ! A44   A(1,25,27)            119.0531         estimate D2E/DX2                !
 ! A45   A(26,25,27)           119.0675         estimate D2E/DX2                !
 ! A46   A(25,26,28)           120.5266         estimate D2E/DX2                !
 ! A47   A(25,26,29)           118.9398         estimate D2E/DX2                !
 ! A48   A(28,26,29)           120.5209         estimate D2E/DX2                !
 ! A49   A(25,27,30)           120.3471         estimate D2E/DX2                !
 ! A50   A(25,27,31)           119.9963         estimate D2E/DX2                !
 ! A51   A(30,27,31)           119.6565         estimate D2E/DX2                !
 ! A52   A(26,28,32)           120.0813         estimate D2E/DX2                !
 ! A53   A(26,28,33)           119.843          estimate D2E/DX2                !
 ! A54   A(32,28,33)           120.0756         estimate D2E/DX2                !
 ! A55   A(27,30,32)           120.2011         estimate D2E/DX2                !
 ! A56   A(27,30,34)           119.8146         estimate D2E/DX2                !
 ! A57   A(32,30,34)           119.9842         estimate D2E/DX2                !
 ! A58   A(28,32,30)           119.7743         estimate D2E/DX2                !
 ! A59   A(28,32,35)           120.1124         estimate D2E/DX2                !
 ! A60   A(30,32,35)           120.1132         estimate D2E/DX2                !
 ! D1    D(2,1,3,4)           -161.8205         estimate D2E/DX2                !
 ! D2    D(2,1,3,5)             18.3551         estimate D2E/DX2                !
 ! D3    D(14,1,3,4)            81.7098         estimate D2E/DX2                !
 ! D4    D(14,1,3,5)           -98.1146         estimate D2E/DX2                !
 ! D5    D(25,1,3,4)           -44.6282         estimate D2E/DX2                !
 ! D6    D(25,1,3,5)           135.5475         estimate D2E/DX2                !
 ! D7    D(2,1,14,15)           30.7611         estimate D2E/DX2                !
 ! D8    D(2,1,14,16)         -149.599          estimate D2E/DX2                !
 ! D9    D(3,1,14,15)          147.1418         estimate D2E/DX2                !
 ! D10   D(3,1,14,16)          -33.2182         estimate D2E/DX2                !
 ! D11   D(25,1,14,15)         -85.0117         estimate D2E/DX2                !
 ! D12   D(25,1,14,16)          94.6282         estimate D2E/DX2                !
 ! D13   D(2,1,25,26)         -173.0907         estimate D2E/DX2                !
 ! D14   D(2,1,25,27)            5.892          estimate D2E/DX2                !
 ! D15   D(3,1,25,26)           70.1238         estimate D2E/DX2                !
 ! D16   D(3,1,25,27)         -110.8935         estimate D2E/DX2                !
 ! D17   D(14,1,25,26)         -57.6581         estimate D2E/DX2                !
 ! D18   D(14,1,25,27)         121.3246         estimate D2E/DX2                !
 ! D19   D(1,3,4,6)            179.9526         estimate D2E/DX2                !
 ! D20   D(1,3,4,7)              0.4328         estimate D2E/DX2                !
 ! D21   D(5,3,4,6)             -0.2239         estimate D2E/DX2                !
 ! D22   D(5,3,4,7)           -179.7438         estimate D2E/DX2                !
 ! D23   D(1,3,5,8)            179.8922         estimate D2E/DX2                !
 ! D24   D(1,3,5,9)             -0.0364         estimate D2E/DX2                !
 ! D25   D(4,3,5,8)              0.0609         estimate D2E/DX2                !
 ! D26   D(4,3,5,9)           -179.8676         estimate D2E/DX2                !
 ! D27   D(3,4,6,10)             0.2291         estimate D2E/DX2                !
 ! D28   D(3,4,6,11)          -179.7193         estimate D2E/DX2                !
 ! D29   D(7,4,6,10)           179.7467         estimate D2E/DX2                !
 ! D30   D(7,4,6,11)            -0.2018         estimate D2E/DX2                !
 ! D31   D(3,5,8,10)             0.0977         estimate D2E/DX2                !
 ! D32   D(3,5,8,12)          -179.9465         estimate D2E/DX2                !
 ! D33   D(9,5,8,10)          -179.9735         estimate D2E/DX2                !
 ! D34   D(9,5,8,12)            -0.0177         estimate D2E/DX2                !
 ! D35   D(4,6,10,8)            -0.0679         estimate D2E/DX2                !
 ! D36   D(4,6,10,13)          179.9754         estimate D2E/DX2                !
 ! D37   D(11,6,10,8)          179.8804         estimate D2E/DX2                !
 ! D38   D(11,6,10,13)          -0.0763         estimate D2E/DX2                !
 ! D39   D(5,8,10,6)            -0.0946         estimate D2E/DX2                !
 ! D40   D(5,8,10,13)          179.8621         estimate D2E/DX2                !
 ! D41   D(12,8,10,6)          179.9497         estimate D2E/DX2                !
 ! D42   D(12,8,10,13)          -0.0936         estimate D2E/DX2                !
 ! D43   D(1,14,15,17)         179.611          estimate D2E/DX2                !
 ! D44   D(1,14,15,18)          -0.1528         estimate D2E/DX2                !
 ! D45   D(16,14,15,17)         -0.0423         estimate D2E/DX2                !
 ! D46   D(16,14,15,18)       -179.806          estimate D2E/DX2                !
 ! D47   D(1,14,16,19)        -179.7149         estimate D2E/DX2                !
 ! D48   D(1,14,16,20)           0.853          estimate D2E/DX2                !
 ! D49   D(15,14,16,19)         -0.0775         estimate D2E/DX2                !
 ! D50   D(15,14,16,20)       -179.5095         estimate D2E/DX2                !
 ! D51   D(14,15,17,21)          0.1069         estimate D2E/DX2                !
 ! D52   D(14,15,17,22)       -179.9146         estimate D2E/DX2                !
 ! D53   D(18,15,17,21)        179.8713         estimate D2E/DX2                !
 ! D54   D(18,15,17,22)         -0.1502         estimate D2E/DX2                !
 ! D55   D(14,16,19,21)          0.1333         estimate D2E/DX2                !
 ! D56   D(14,16,19,23)       -179.8057         estimate D2E/DX2                !
 ! D57   D(20,16,19,21)        179.5664         estimate D2E/DX2                !
 ! D58   D(20,16,19,23)         -0.3726         estimate D2E/DX2                !
 ! D59   D(15,17,21,19)         -0.0513         estimate D2E/DX2                !
 ! D60   D(15,17,21,24)        179.8973         estimate D2E/DX2                !
 ! D61   D(22,17,21,19)        179.9702         estimate D2E/DX2                !
 ! D62   D(22,17,21,24)         -0.0812         estimate D2E/DX2                !
 ! D63   D(16,19,21,17)         -0.0683         estimate D2E/DX2                !
 ! D64   D(16,19,21,24)        179.9832         estimate D2E/DX2                !
 ! D65   D(23,19,21,17)        179.8705         estimate D2E/DX2                !
 ! D66   D(23,19,21,24)         -0.078          estimate D2E/DX2                !
 ! D67   D(1,25,26,28)         178.5047         estimate D2E/DX2                !
 ! D68   D(1,25,26,29)          -2.7863         estimate D2E/DX2                !
 ! D69   D(27,25,26,28)         -0.4779         estimate D2E/DX2                !
 ! D70   D(27,25,26,29)        178.2311         estimate D2E/DX2                !
 ! D71   D(1,25,27,30)        -178.7329         estimate D2E/DX2                !
 ! D72   D(1,25,27,31)           1.2022         estimate D2E/DX2                !
 ! D73   D(26,25,27,30)          0.2787         estimate D2E/DX2                !
 ! D74   D(26,25,27,31)       -179.7862         estimate D2E/DX2                !
 ! D75   D(25,26,28,32)          0.2648         estimate D2E/DX2                !
 ! D76   D(25,26,28,33)       -179.7741         estimate D2E/DX2                !
 ! D77   D(29,26,28,32)       -178.4236         estimate D2E/DX2                !
 ! D78   D(29,26,28,33)          1.5374         estimate D2E/DX2                !
 ! D79   D(25,27,30,32)          0.1335         estimate D2E/DX2                !
 ! D80   D(25,27,30,34)       -179.9531         estimate D2E/DX2                !
 ! D81   D(31,27,30,32)       -179.8018         estimate D2E/DX2                !
 ! D82   D(31,27,30,34)          0.1115         estimate D2E/DX2                !
 ! D83   D(26,28,32,30)          0.1524         estimate D2E/DX2                !
 ! D84   D(26,28,32,35)       -179.9557         estimate D2E/DX2                !
 ! D85   D(33,28,32,30)       -179.8085         estimate D2E/DX2                !
 ! D86   D(33,28,32,35)          0.0834         estimate D2E/DX2                !
 ! D87   D(27,30,32,28)         -0.3507         estimate D2E/DX2                !
 ! D88   D(27,30,32,35)        179.7574         estimate D2E/DX2                !
 ! D89   D(34,30,32,28)        179.7361         estimate D2E/DX2                !
 ! D90   D(34,30,32,35)         -0.1558         estimate D2E/DX2                !
 --------------------------------------------------------------------------------
 Trust Radius=3.00D-01 FncErr=1.00D-07 GrdErr=1.00D-07
 Number of steps in this run= 197 maximum allowed number of steps= 210.
 GradGradGradGradGradGradGradGradGradGradGradGradGradGradGradGradGradGrad

                          Input orientation:                          
 ---------------------------------------------------------------------
 Center     Atomic      Atomic             Coordinates (Angstroms)
 Number     Number       Type             X           Y           Z
 ---------------------------------------------------------------------
      1          6           0        0.104237   -0.727796   -0.223394
      2          1           0        0.274863   -1.770186   -0.607559
      3          6           0       -0.000649   -0.840891    1.277158
      4          6           0       -0.568821    0.156462    2.071469
      5          6           0        0.496959   -1.993546    1.892770
      6          6           0       -0.642807    0.003854    3.451344
      7          1           0       -0.967809    1.066960    1.596070
      8          6           0        0.425297   -2.143105    3.272608
      9          1           0        0.948847   -2.786994    1.285690
     10          6           0       -0.145628   -1.145279    4.055283
     11          1           0       -1.095186    0.792081    4.061802
     12          1           0        0.819125   -3.049789    3.743351
     13          1           0       -0.203732   -1.264830    5.141816
     14          6           0        1.288766    0.093460   -0.673108
     15          6           0        1.918672   -0.252426   -1.873063
     16          6           0        1.770028    1.181047    0.054962
     17          6           0        3.007323    0.477866   -2.332747
     18          1           0        1.550258   -1.102885   -2.458625
     19          6           0        2.861787    1.909356   -0.405964
     20          1           0        1.291387    1.459763    1.002406
     21          6           0        3.482057    1.560734   -1.599643
     22          1           0        3.492207    0.199463   -3.274039
     23          1           0        3.232379    2.759296    0.176253
     24          1           0        4.340960    2.134725   -1.961572
     25          6           0       -1.161092   -0.220295   -0.870543
     26          6           0       -1.587512    1.100230   -0.719908
     27          6           0       -1.915933   -1.091430   -1.659820
     28          6           0       -2.741012    1.546120   -1.353654
     29          1           0       -1.007449    1.776834   -0.073984
     30          6           0       -3.072028   -0.645144   -2.289997
     31          1           0       -1.596912   -2.132890   -1.785715
     32          6           0       -3.484825    0.674418   -2.141434
     33          1           0       -3.063154    2.585086   -1.230770
     34          1           0       -3.657449   -1.335577   -2.905972
     35          1           0       -4.393154    1.025309   -2.641471
 ---------------------------------------------------------------------
                    Distance matrix (angstroms):
                    1          2          3          4          5
     1  C    0.000000
     2  H    1.123954   0.000000
     3  C    1.508459   2.119352   0.000000
     4  C    2.549767   3.406019   1.395873   0.000000
     5  C    2.496898   2.520091   1.398286   2.406315   0.000000
     6  C    3.820613   4.523718   2.419307   1.390258   2.778098
     7  H    2.771440   3.801264   2.162637   1.101909   3.405917
     8  C    3.785262   3.900948   2.420540   2.778311   1.389769
     9  H    2.689051   2.252231   2.165394   3.403629   1.096498
    10  C    4.306251   4.723284   2.798508   2.410216   2.410174
    11  H    4.702291   5.499562   3.408644   2.154646   3.872899
    12  H    4.651643   4.567715   3.410772   3.873193   2.155015
    13  H    5.400807   5.791351   3.893141   3.402997   3.402689
    14  C    1.509905   2.122609   2.517766   3.314710   3.400923
    15  C    2.497912   2.570448   3.735503   4.681255   4.385688
    16  C    2.548729   3.374051   2.952507   3.253657   3.882818
    17  C    3.785618   3.936540   4.880413   5.682360   5.501345
    18  H    2.688481   2.344860   4.053398   5.157344   4.564795
    19  C    3.819945   4.502426   4.311647   4.580325   5.109718
    20  H    2.774405   3.749383   2.652896   2.510351   3.653656
    21  C    4.305937   4.729201   5.115958   5.644347   5.808671
    22  H    4.652374   4.619625   5.830590   6.713289   6.362131
    23  H    4.701574   5.466028   4.962440   4.981536   5.746168
    24  H    5.400474   5.797830   6.180068   6.654690   6.831904
    25  C    1.509111   2.129153   2.518807   3.024593   3.678240
    26  C    2.539728   3.423500   3.205364   3.117726   4.554399
    27  C    2.505322   2.523402   3.515242   4.158661   4.388253
    28  C    3.813610   4.544232   4.486489   4.287311   5.792492
    29  H    2.744328   3.809249   3.113152   2.724145   4.510779
    30  C    3.790295   3.911266   4.711293   5.092249   5.661395
    31  H    2.703524   2.241238   3.687615   4.601735   4.234969
    32  C    4.304236   4.739633   5.111009   5.149749   6.264778
    33  H    4.692799   5.522603   5.235070   4.798406   6.587471
    34  H    4.660033   4.575442   5.578125   6.044893   6.381219
    35  H    5.398796   5.808784   6.175148   6.131249   7.320248
                    6          7          8          9         10
     6  C    0.000000
     7  H    2.162837   0.000000
     8  C    2.404626   3.880212   0.000000
     9  H    3.874564   4.315422   2.153263   0.000000
    10  C    1.390121   3.408477   1.390752   3.400551   0.000000
    11  H    1.094809   2.484274   3.398531   4.969370   2.157560
    12  H    3.398124   4.975095   1.094886   2.475073   2.157593
    13  H    2.158713   4.312003   2.158930   4.302920   1.094633
    14  C    4.555229   3.344997   4.616978   3.499921   5.094080
    15  C    5.914065   4.701855   5.681793   4.164411   6.340648
    16  C    4.329315   3.143848   4.817835   4.234900   5.008403
    17  C    6.855935   5.619992   6.704950   5.290532   7.306342
    18  H    6.400167   5.243038   5.932506   4.149436   6.731183
    19  C    5.549048   4.402678   5.990894   5.345721   6.186927
    20  H    3.443555   2.368691   4.345640   4.269956   4.262782
    21  C    6.704539   5.500700   6.841128   5.800434   7.242982
    22  H    7.897302   6.660500   7.599484   6.014876   8.292234
    23  H    5.773711   4.745678   6.442100   6.099729   6.457826
    24  H    7.660170   6.479195   7.812100   6.802534   8.190876
    25  C    4.358620   2.789008   4.835239   3.960950   5.113759
    26  C    4.415184   2.397685   5.523659   5.056288   5.470264
    27  C    5.380009   4.019752   5.560237   4.444990   5.983251
    28  C    5.465259   3.474869   6.711051   6.273522   6.575428
    29  H    3.962872   1.815096   5.349613   5.148236   5.131503
    30  C    6.267800   4.739257   6.739269   5.791416   7.005465
    31  H    5.736094   4.698008   5.447574   4.042557   6.099086
    32  C    6.309191   4.523096   7.248403   6.586653   7.270546
    33  H    5.868818   3.832258   7.403074   7.161562   7.097178
    34  H    7.162235   5.768426   7.449549   6.394889   7.799242
    35  H    7.227092   5.448988   8.260306   7.648086   8.221888
                   11         12         13         14         15
    11  H    0.000000
    12  H    4.304179   0.000000
    13  H    2.488373   2.487573   0.000000
    14  C    5.347025   5.441111   6.155148   0.000000
    15  C    6.737727   6.370114   7.398519   1.398682   0.000000
    16  C    4.941206   5.692838   5.979475   1.394469   2.407119
    17  C    7.603918   7.358772   8.319673   2.419836   1.389171
    18  H    7.287334   6.541368   7.801885   2.165107   1.096308
    19  C    6.071810   6.781032   7.088774   2.417279   2.777615
    20  H    3.937186   5.298289   5.176243   2.161976   3.404909
    21  C    7.320788   7.542925   8.186337   2.796763   2.409664
    22  H    8.672367   8.182101   9.307563   3.410459   2.154750
    23  H    6.139645   7.231421   7.256532   3.406718   3.872466
    24  H    8.224076   8.475179   9.092267   3.891374   3.402030
    25  C    5.035601   5.763273   6.177058   2.477747   3.238986
    26  C    4.816855   6.552499   6.470561   3.047745   3.931002
    27  C    6.079326   6.364745   7.015978   3.556355   3.931107
    28  C    5.710034   7.731521   7.518667   4.337335   5.021675
    29  H    4.252313   6.419089   6.091161   2.909519   3.989583
    30  C    6.805797   7.571306   7.990180   4.709182   5.023460
    31  H    6.557487   6.103155   7.119351   3.810730   3.987869
    32  C    6.648637   8.186843   8.220218   5.027988   5.488975
    33  H    5.924448   8.459656   7.975462   5.045632   5.769109
    34  H    7.722824   8.197056   8.757857   5.611851   5.773495
    35  H    7.474280   9.194576   9.131021   6.084982   6.485538
                   16         17         18         19         20
    16  C    0.000000
    17  C    2.779661   0.000000
    18  H    3.403346   2.153522   0.000000
    19  C    1.390979   2.404753   3.873902   0.000000
    20  H    1.097466   3.877087   4.314269   2.156802   0.000000
    21  C    2.411000   1.391193   3.400671   1.389655   3.402923
    22  H    3.874488   1.094830   2.476323   3.398091   4.971916
    23  H    2.155006   3.398625   4.968758   1.094858   2.477653
    24  H    3.403764   2.159060   4.303162   2.158394   4.305884
    25  C    3.378133   4.472265   3.263800   4.575456   3.513572
    26  C    3.446741   4.909286   4.209805   4.533156   3.373972
    27  C    4.657353   5.210947   3.557064   5.779574   4.887017
    28  C    4.739932   5.928165   5.162673   5.693980   4.671052
    29  H    2.843583   4.786201   4.530029   3.885712   2.558085
    30  C    5.681488   6.182353   4.647956   6.729428   5.857469
    31  H    5.070162   5.321115   3.379112   6.174419   5.387304
    32  C    5.717893   6.497939   5.348970   6.694506   5.771716
    33  H    5.194620   6.519618   6.032606   6.020120   5.021500
    34  H    6.675180   6.930826   5.232063   7.699355   6.897850
    35  H    6.729027   7.427116   6.315599   7.642852   6.766136
                   21         22         23         24         25
    21  C    0.000000
    22  H    2.157954   0.000000
    23  H    2.157011   4.304042   0.000000
    24  H    1.094612   2.487608   2.487839   0.000000
    25  C    5.026180   5.254159   5.410761   6.083506   0.000000
    26  C    5.165900   5.756606   5.175611   6.144810   1.395819
    27  C    6.014640   5.789653   6.686133   7.046123   1.397004
    28  C    6.227946   6.659909   6.284410   7.132346   2.418629
    29  H    4.746577   5.742417   4.359356   5.683006   2.155606
    30  C    6.949713   6.691104   7.577476   7.923884   2.418062
    31  H    6.282786   5.792590   7.148765   7.314491   2.164601
    32  C    7.043900   7.084303   7.405350   7.962899   2.795605
    33  H    6.635145   7.269038   6.453200   7.453711   3.408484
    34  H    7.814580   7.321844   8.587073   8.769803   3.408610
    35  H    7.961848   7.953683   8.312342   8.830505   3.890236
                   26         27         28         29         30
    26  C    0.000000
    27  C    2.407212   0.000000
    28  C    1.389610   2.780496   0.000000
    29  H    1.100674   3.401052   2.167032   0.000000
    30  C    2.777643   1.390269   2.405815   3.878038   0.000000
    31  H    3.404276   1.096478   3.876952   4.308530   2.154914
    32  C    2.408703   2.410724   1.390582   3.409848   1.390581
    33  H    2.154831   3.875173   1.094681   2.493461   3.399475
    34  H    3.872554   2.155314   3.399077   4.972903   1.094916
    35  H    3.401418   3.403063   2.158538   4.315064   2.158546
                   31         32         33         34         35
    31  H    0.000000
    32  C    3.401724   0.000000
    33  H    4.971632   2.158187   0.000000
    34  H    2.477196   2.157406   4.304776   0.000000
    35  H    4.304127   1.094633   2.488349   2.486968   0.000000
 Stoichiometry    C19H16
 Framework group  C1[X(C19H16)]
 Deg. of freedom    99
 Full point group                 C1      NOp   1
 Largest Abelian subgroup         C1      NOp   1
 Largest concise Abelian subgroup C1      NOp   1
                         Standard orientation:                         
 ---------------------------------------------------------------------
 Center     Atomic      Atomic             Coordinates (Angstroms)
 Number     Number       Type             X           Y           Z
 ---------------------------------------------------------------------
      1          6           0        0.022431   -0.012810   -0.754051
      2          1           0       -0.000334   -0.006306   -1.877756
      3          6           0        1.457050   -0.262753   -0.360547
      4          6           0        1.825190   -0.701360    0.912464
      5          6           0        2.455612   -0.040662   -1.313833
      6          6           0        3.162271   -0.918201    1.225534
      7          1           0        1.045853   -0.883505    1.669867
      8          6           0        3.792057   -0.254661   -0.998271
      9          1           0        2.186139    0.306062   -2.318559
     10          6           0        4.148701   -0.694897    0.271842
     11          1           0        3.436444   -1.266657    2.226541
     12          1           0        4.565134   -0.076471   -1.752840
     13          1           0        5.201371   -0.865376    0.518910
     14          6           0       -0.486589    1.336816   -0.307708
     15          6           0       -1.426070    1.990573   -1.111628
     16          6           0       -0.063074    1.948000    0.871967
     17          6           0       -1.930191    3.230329   -0.739251
     18          1           0       -1.771457    1.521765   -2.040508
     19          6           0       -0.567335    3.190536    1.241626
     20          1           0        0.679596    1.451176    1.509178
     21          6           0       -1.501403    3.833824    0.438608
     22          1           0       -2.666291    3.732806   -1.375117
     23          1           0       -0.224643    3.661662    2.168620
     24          1           0       -1.897772    4.811478    0.730599
     25          6           0       -0.916582   -1.103321   -0.299675
     26          6           0       -1.233674   -1.289148    1.046888
     27          6           0       -1.501242   -1.937164   -1.255970
     28          6           0       -2.125910   -2.282696    1.431326
     29          1           0       -0.749413   -0.650365    1.801163
     30          6           0       -2.390591   -2.933479   -0.869625
     31          1           0       -1.260239   -1.806933   -2.317676
     32          6           0       -2.707462   -3.105970    0.473341
     33          1           0       -2.369428   -2.416190    2.490196
     34          1           0       -2.843164   -3.582588   -1.626378
     35          1           0       -3.410922   -3.888302    0.775537
 ---------------------------------------------------------------------
 Rotational constants (GHZ):      0.4000900      0.3720931      0.2368772
 Standard basis: 6-311G (5D, 7F)
 There are   295 symmetry adapted basis functions of A   symmetry.
 Integral buffers will be    262144 words long.
 Raffenetti 1 integral format.
 Two-electron integral symmetry is turned on.
   295 basis functions,   574 primitive gaussians,   295 cartesian basis functions
    65 alpha electrons       65 beta electrons
       nuclear repulsion energy      1288.3927540237 Hartrees.
 NAtoms=   35 NActive=   35 NUniq=   35 SFac= 7.50D-01 NAtFMM=   80 NAOKFM=F Big=F
 One-electron integrals computed using PRISM.
 PrsmSu:  requested number of processors reduced to:  10 ShMem   1 Linda.
 NBasis=   295 RedAO= T  NBF=   295
 NBsUse=   295 1.00D-06 NBFU=   295
 Harris functional with IExCor=  205 diagonalized for initial guess.
 ExpMin= 1.03D-01 ExpMax= 4.56D+03 ExpMxC= 6.82D+02 IAcc=1 IRadAn=         1 AccDes= 0.00D+00
 HarFok:  IExCor=  205 AccDes= 0.00D+00 IRadAn=         1 IDoV= 1
 ScaDFX=  1.000000  1.000000  1.000000  1.000000
 FoFCou: FMM=F IPFlag=           0 FMFlag=      100000 FMFlg1=           0
         NFxFlg=           0 DoJE=T BraDBF=F KetDBF=T FulRan=T
         Omega=  0.000000  0.000000  1.000000  0.000000  0.000000 ICntrl=     500 IOpCl=  0
         NMat0=    1 NMatS0=    1 NMatT0=    0 NMatD0=    1 NMtDS0=    0 NMtDT0=    0
         I1Cent=           4 NGrid=           0.
 Petite list used in FoFCou.
 Initial guess orbital symmetries:
       Occupied  (A) (A) (A) (A) (A) (A) (A) (A) (A) (A) (A) (A)
                 (A) (A) (A) (A) (A) (A) (A) (A) (A) (A) (A) (A)
                 (A) (A) (A) (A) (A) (A) (A) (A) (A) (A) (A) (A)
                 (A) (A) (A) (A) (A) (A) (A) (A) (A) (A) (A) (A)
                 (A) (A) (A) (A) (A) (A) (A) (A) (A) (A) (A) (A)
                 (A) (A) (A) (A) (A)
       Virtual   (A) (A) (A) (A) (A) (A) (A) (A) (A) (A) (A) (A)
                 (A) (A) (A) (A) (A) (A) (A) (A) (A) (A) (A) (A)
                 (A) (A) (A) (A) (A) (A) (A) (A) (A) (A) (A) (A)
                 (A) (A) (A) (A) (A) (A) (A) (A) (A) (A) (A) (A)
                 (A) (A) (A) (A) (A) (A) (A) (A) (A) (A) (A) (A)
                 (A) (A) (A) (A) (A) (A) (A) (A) (A) (A) (A) (A)
                 (A) (A) (A) (A) (A) (A) (A) (A) (A) (A) (A) (A)
                 (A) (A) (A) (A) (A) (A) (A) (A) (A) (A) (A) (A)
                 (A) (A) (A) (A) (A) (A) (A) (A) (A) (A) (A) (A)
                 (A) (A) (A) (A) (A) (A) (A) (A) (A) (A) (A) (A)
                 (A) (A) (A) (A) (A) (A) (A) (A) (A) (A) (A) (A)
                 (A) (A) (A) (A) (A) (A) (A) (A) (A) (A) (A) (A)
                 (A) (A) (A) (A) (A) (A) (A) (A) (A) (A) (A) (A)
                 (A) (A) (A) (A) (A) (A) (A) (A) (A) (A) (A) (A)
                 (A) (A) (A) (A) (A) (A) (A) (A) (A) (A) (A) (A)
                 (A) (A) (A) (A) (A) (A) (A) (A) (A) (A) (A) (A)
                 (A) (A) (A) (A) (A) (A) (A) (A) (A) (A) (A) (A)
                 (A) (A) (A) (A) (A) (A) (A) (A) (A) (A) (A) (A)
                 (A) (A) (A) (A) (A) (A) (A) (A) (A) (A) (A) (A)
                 (A) (A)
 The electronic state of the initial guess is 1-A.
 Requested convergence on RMS density matrix=1.00D-08 within 128 cycles.
 Requested convergence on MAX density matrix=1.00D-06.
 Requested convergence on             energy=1.00D-06.
 No special actions if energy rises.
 Integral accuracy reduced to 1.0D-05 until final iterations.
 Initial convergence to 1.0D-05 achieved.  Increase integral accuracy.
 SCF Done:  E(RHF) =  -728.671738323     A.U. after   14 cycles
             Convg  =    0.6180D-08             -V/T =  2.0001

 **********************************************************************

            Population analysis using the SCF density.

 **********************************************************************

 Orbital symmetries:
       Occupied  (A) (A) (A) (A) (A) (A) (A) (A) (A) (A) (A) (A)
                 (A) (A) (A) (A) (A) (A) (A) (A) (A) (A) (A) (A)
                 (A) (A) (A) (A) (A) (A) (A) (A) (A) (A) (A) (A)
                 (A) (A) (A) (A) (A) (A) (A) (A) (A) (A) (A) (A)
                 (A) (A) (A) (A) (A) (A) (A) (A) (A) (A) (A) (A)
                 (A) (A) (A) (A) (A)
       Virtual   (A) (A) (A) (A) (A) (A) (A) (A) (A) (A) (A) (A)
                 (A) (A) (A) (A) (A) (A) (A) (A) (A) (A) (A) (A)
                 (A) (A) (A) (A) (A) (A) (A) (A) (A) (A) (A) (A)
                 (A) (A) (A) (A) (A) (A) (A) (A) (A) (A) (A) (A)
                 (A) (A) (A) (A) (A) (A) (A) (A) (A) (A) (A) (A)
                 (A) (A) (A) (A) (A) (A) (A) (A) (A) (A) (A) (A)
                 (A) (A) (A) (A) (A) (A) (A) (A) (A) (A) (A) (A)
                 (A) (A) (A) (A) (A) (A) (A) (A) (A) (A) (A) (A)
                 (A) (A) (A) (A) (A) (A) (A) (A) (A) (A) (A) (A)
                 (A) (A) (A) (A) (A) (A) (A) (A) (A) (A) (A) (A)
                 (A) (A) (A) (A) (A) (A) (A) (A) (A) (A) (A) (A)
                 (A) (A) (A) (A) (A) (A) (A) (A) (A) (A) (A) (A)
                 (A) (A) (A) (A) (A) (A) (A) (A) (A) (A) (A) (A)
                 (A) (A) (A) (A) (A) (A) (A) (A) (A) (A) (A) (A)
                 (A) (A) (A) (A) (A) (A) (A) (A) (A) (A) (A) (A)
                 (A) (A) (A) (A) (A) (A) (A) (A) (A) (A) (A) (A)
                 (A) (A) (A) (A) (A) (A) (A) (A) (A) (A) (A) (A)
                 (A) (A) (A) (A) (A) (A) (A) (A) (A) (A) (A) (A)
                 (A) (A) (A) (A) (A) (A) (A) (A) (A) (A) (A) (A)
                 (A) (A)
 The electronic state is 1-A.
 Alpha  occ. eigenvalues --  -11.25830 -11.25272 -11.25261 -11.25129 -11.24446
 Alpha  occ. eigenvalues --  -11.24432 -11.24357 -11.24350 -11.24209 -11.24189
 Alpha  occ. eigenvalues --  -11.24127 -11.24117 -11.24111 -11.24054 -11.24025
 Alpha  occ. eigenvalues --  -11.24019 -11.23913 -11.23833 -11.23736  -1.18592
 Alpha  occ. eigenvalues --   -1.15826  -1.15681  -1.09038  -1.02411  -1.02115
 Alpha  occ. eigenvalues --   -1.01890  -1.01496  -1.01388  -0.92962  -0.84536
 Alpha  occ. eigenvalues --   -0.82944  -0.82543  -0.81707  -0.81562  -0.77732
 Alpha  occ. eigenvalues --   -0.70732  -0.70448  -0.69107  -0.65997  -0.63618
 Alpha  occ. eigenvalues --   -0.63503  -0.62368  -0.62033  -0.61900  -0.59568
 Alpha  occ. eigenvalues --   -0.58774  -0.58517  -0.58430  -0.57615  -0.53920
 Alpha  occ. eigenvalues --   -0.51740  -0.51078  -0.50852  -0.49677  -0.49167
 Alpha  occ. eigenvalues --   -0.48681  -0.47791  -0.47472  -0.46763  -0.34694
 Alpha  occ. eigenvalues --   -0.34244  -0.33700  -0.33586  -0.33278  -0.31180
 Alpha virt. eigenvalues --    0.11653   0.12014   0.13579   0.13745   0.14057
 Alpha virt. eigenvalues --    0.14931   0.15135   0.16274   0.16375   0.16882
 Alpha virt. eigenvalues --    0.18809   0.19132   0.19284   0.21284   0.21420
 Alpha virt. eigenvalues --    0.21511   0.23637   0.24243   0.24982   0.27153
 Alpha virt. eigenvalues --    0.28520   0.29475   0.34029   0.34193   0.35870
 Alpha virt. eigenvalues --    0.37470   0.38509   0.39683   0.40956   0.43680
 Alpha virt. eigenvalues --    0.44099   0.44376   0.45025   0.45396   0.45575
 Alpha virt. eigenvalues --    0.45869   0.46404   0.48411   0.49895   0.50379
 Alpha virt. eigenvalues --    0.50800   0.51018   0.51445   0.54974   0.55782
 Alpha virt. eigenvalues --    0.56803   0.57907   0.58955   0.59051   0.59614
 Alpha virt. eigenvalues --    0.59688   0.60669   0.61071   0.61496   0.61699
 Alpha virt. eigenvalues --    0.61850   0.62383   0.62467   0.63286   0.63466
 Alpha virt. eigenvalues --    0.64134   0.64997   0.65165   0.65421   0.66901
 Alpha virt. eigenvalues --    0.67410   0.68228   0.68435   0.70117   0.71402
 Alpha virt. eigenvalues --    0.72347   0.73797   0.74458   0.75069   0.76217
 Alpha virt. eigenvalues --    0.77291   0.78320   0.78611   0.80470   0.81178
 Alpha virt. eigenvalues --    0.81859   0.82196   0.82344   0.82823   0.82913
 Alpha virt. eigenvalues --    0.83517   0.83925   0.84058   0.84788   0.85603
 Alpha virt. eigenvalues --    0.86039   0.86385   0.86899   0.87457   0.88062
 Alpha virt. eigenvalues --    0.89671   0.90553   0.91267   0.92976   0.94401
 Alpha virt. eigenvalues --    0.96094   0.96853   0.97684   0.98144   0.98949
 Alpha virt. eigenvalues --    0.99331   1.00301   1.02796   1.05744   1.06223
 Alpha virt. eigenvalues --    1.06804   1.07138   1.08019   1.08375   1.10519
 Alpha virt. eigenvalues --    1.11087   1.12222   1.12490   1.12992   1.14260
 Alpha virt. eigenvalues --    1.14639   1.15385   1.18588   1.19485   1.21726
 Alpha virt. eigenvalues --    1.25350   1.26744   1.27702   1.28214   1.28825
 Alpha virt. eigenvalues --    1.30338   1.35120   1.39520   1.45233   1.46619
 Alpha virt. eigenvalues --    1.51680   1.52266   1.56507   2.54624   2.55624
 Alpha virt. eigenvalues --    2.56176   2.59200   2.61968   2.62495   2.64468
 Alpha virt. eigenvalues --    2.66996   2.67725   2.68458   2.72301   2.76742
 Alpha virt. eigenvalues --    2.77762   2.83504   2.87910   2.88621   2.94132
 Alpha virt. eigenvalues --    2.94275   2.94425   2.97081   2.97455   2.98028
 Alpha virt. eigenvalues --    3.00380   3.00778   3.04044   3.05739   3.07133
 Alpha virt. eigenvalues --    3.08139   3.08428   3.08975   3.09973   3.14337
 Alpha virt. eigenvalues --    3.14784   3.16345   3.16830   3.17566   3.18841
 Alpha virt. eigenvalues --    3.22643   3.25646   3.25820   3.28291   3.28892
 Alpha virt. eigenvalues --    3.30916   3.33376   3.34271   3.35156   3.42622
 Alpha virt. eigenvalues --    3.43067   3.44412   3.46938   3.49491   3.52252
 Alpha virt. eigenvalues --    3.53437   3.54460   3.59227   3.60657   3.60673
 Alpha virt. eigenvalues --    3.63125   3.63512   3.63777   3.65964   3.66666
 Alpha virt. eigenvalues --    3.68374   3.70274   3.70474   3.71425   3.73479
 Alpha virt. eigenvalues --    3.74202   3.75554   3.80870   3.85860   3.86664
 Alpha virt. eigenvalues --    3.93015  24.24841  24.30693  24.31559  24.50537
 Alpha virt. eigenvalues --   24.50837  24.51119  24.53997  24.54670  24.56110
 Alpha virt. eigenvalues --   24.77292  24.78597  24.79147  24.79614  24.80641
 Alpha virt. eigenvalues --   24.81839  24.83251  25.05547  25.05810  25.06128
          Condensed to atoms (all electrons):
              1          2          3          4          5          6
     1  C    5.830368   0.463969   0.170592  -0.045861  -0.045342   0.003575
     2  H    0.463969   0.512431  -0.073819   0.005103   0.002816  -0.000275
     3  C    0.170592  -0.073819   5.366695   0.450337   0.495170  -0.064485
     4  C   -0.045861   0.005103   0.450337   5.121807  -0.061485   0.473351
     5  C   -0.045342   0.002816   0.495170  -0.061485   5.040863  -0.036098
     6  C    0.003575  -0.000275  -0.064485   0.473351  -0.036098   5.056467
     7  H   -0.000316  -0.000141  -0.053031   0.386639   0.004509  -0.025349
     8  C    0.008264   0.001515  -0.071566  -0.031230   0.471725  -0.075110
     9  H   -0.000717   0.002682  -0.045668   0.004753   0.394474  -0.000401
    10  C    0.001140  -0.000016  -0.017743  -0.094835  -0.086750   0.495831
    11  H   -0.000295   0.000014   0.006029  -0.036762  -0.000392   0.395577
    12  H   -0.000389  -0.000029   0.007146  -0.000598  -0.039666   0.006225
    13  H   -0.000019  -0.000001  -0.001593   0.008119   0.007488  -0.042535
    14  C    0.157455  -0.059886  -0.103784  -0.005806  -0.001465   0.000879
    15  C   -0.050173  -0.003305   0.006404  -0.000176   0.000451   0.000023
    16  C   -0.040028   0.004913  -0.014476  -0.007366   0.001903  -0.001484
    17  C    0.006259   0.001548  -0.000760   0.000025  -0.000017   0.000000
    18  H    0.001784   0.001054   0.000695  -0.000038   0.000013   0.000000
    19  C    0.004840  -0.000248   0.000511   0.000016  -0.000090  -0.000031
    20  H   -0.001665  -0.000068  -0.003170   0.001062  -0.000891   0.000959
    21  C    0.000990   0.000009   0.000046  -0.000019  -0.000013   0.000000
    22  H   -0.000351  -0.000026   0.000011   0.000000   0.000001   0.000000
    23  H   -0.000325   0.000013   0.000037   0.000028   0.000007  -0.000001
    24  H   -0.000012  -0.000002  -0.000001   0.000001   0.000000   0.000000
    25  C    0.185194  -0.074347  -0.112182  -0.004656   0.001978   0.001542
    26  C   -0.054369   0.005553  -0.006308  -0.017214   0.000222  -0.000013
    27  C   -0.026216   0.002060  -0.000335   0.001496   0.000195   0.000042
    28  C    0.001398  -0.000282   0.001776  -0.001739   0.000028  -0.000089
    29  H    0.003104   0.000067  -0.003176   0.000311  -0.000195   0.000858
    30  C    0.007683   0.001759  -0.000602   0.000126  -0.000009   0.000000
    31  H   -0.000484   0.002414   0.000560   0.000003   0.000135   0.000003
    32  C    0.001274  -0.000013  -0.000035   0.000045  -0.000001   0.000003
    33  H   -0.000319   0.000012   0.000008   0.000016   0.000000   0.000001
    34  H   -0.000368  -0.000037   0.000020  -0.000001   0.000000   0.000000
    35  H   -0.000013  -0.000001  -0.000001   0.000001   0.000000   0.000000
              7          8          9         10         11         12
     1  C   -0.000316   0.008264  -0.000717   0.001140  -0.000295  -0.000389
     2  H   -0.000141   0.001515   0.002682  -0.000016   0.000014  -0.000029
     3  C   -0.053031  -0.071566  -0.045668  -0.017743   0.006029   0.007146
     4  C    0.386639  -0.031230   0.004753  -0.094835  -0.036762  -0.000598
     5  C    0.004509   0.471725   0.394474  -0.086750  -0.000392  -0.039666
     6  C   -0.025349  -0.075110  -0.000401   0.495831   0.395577   0.006225
     7  H    0.498362  -0.000213  -0.000243   0.004796  -0.003440   0.000020
     8  C   -0.000213   5.044574  -0.034684   0.494610   0.005896   0.396651
     9  H   -0.000243  -0.034684   0.507664   0.005350   0.000022  -0.004215
    10  C    0.004796   0.494610   0.005350   5.030395  -0.039658  -0.041055
    11  H   -0.003440   0.005896   0.000022  -0.039658   0.515467  -0.000212
    12  H    0.000020   0.396651  -0.004215  -0.041055  -0.000212   0.517932
    13  H   -0.000183  -0.042957  -0.000183   0.399166  -0.004353  -0.004547
    14  C   -0.000494  -0.000716   0.000480   0.000023  -0.000007   0.000022
    15  C   -0.000028   0.000003   0.000117  -0.000001  -0.000001   0.000000
    16  C    0.000342   0.000227   0.000188   0.000081   0.000013  -0.000001
    17  C    0.000006   0.000001  -0.000008   0.000000   0.000000   0.000000
    18  H    0.000007   0.000001   0.000004   0.000000   0.000000   0.000000
    19  C    0.000051  -0.000004   0.000009   0.000004   0.000001   0.000000
    20  H    0.000138  -0.000135  -0.000037   0.000047  -0.000002   0.000001
    21  C    0.000001   0.000000  -0.000004   0.000000   0.000000   0.000000
    22  H    0.000000   0.000000   0.000000   0.000000   0.000000   0.000000
    23  H   -0.000017   0.000001   0.000000  -0.000001   0.000000   0.000000
    24  H    0.000000   0.000000   0.000000   0.000000   0.000000   0.000000
    25  C   -0.003017  -0.000680   0.000362   0.000021   0.000011   0.000014
    26  C    0.002863   0.000029  -0.000026  -0.000005   0.000031   0.000000
    27  C   -0.000257  -0.000004  -0.000022  -0.000011   0.000002   0.000001
    28  C    0.001157  -0.000001   0.000002   0.000001   0.000000   0.000000
    29  H    0.003451   0.000016  -0.000007  -0.000011  -0.000053   0.000000
    30  C   -0.000139   0.000001   0.000001   0.000000   0.000000   0.000000
    31  H   -0.000005   0.000003  -0.000025  -0.000001   0.000000   0.000000
    32  C    0.000079   0.000000   0.000000   0.000000  -0.000001   0.000000
    33  H   -0.000105   0.000000   0.000000   0.000000   0.000001   0.000000
    34  H    0.000000   0.000000   0.000000   0.000000   0.000000   0.000000
    35  H    0.000000   0.000000   0.000000   0.000000   0.000000   0.000000
             13         14         15         16         17         18
     1  C   -0.000019   0.157455  -0.050173  -0.040028   0.006259   0.001784
     2  H   -0.000001  -0.059886  -0.003305   0.004913   0.001548   0.001054
     3  C   -0.001593  -0.103784   0.006404  -0.014476  -0.000760   0.000695
     4  C    0.008119  -0.005806  -0.000176  -0.007366   0.000025  -0.000038
     5  C    0.007488  -0.001465   0.000451   0.001903  -0.000017   0.000013
     6  C   -0.042535   0.000879   0.000023  -0.001484   0.000000   0.000000
     7  H   -0.000183  -0.000494  -0.000028   0.000342   0.000006   0.000007
     8  C   -0.042957  -0.000716   0.000003   0.000227   0.000001   0.000001
     9  H   -0.000183   0.000480   0.000117   0.000188  -0.000008   0.000004
    10  C    0.399166   0.000023  -0.000001   0.000081   0.000000   0.000000
    11  H   -0.004353  -0.000007  -0.000001   0.000013   0.000000   0.000000
    12  H   -0.004547   0.000022   0.000000  -0.000001   0.000000   0.000000
    13  H    0.517645   0.000001   0.000000  -0.000001   0.000000   0.000000
    14  C    0.000001   5.366322   0.473027   0.486068  -0.065274  -0.050647
    15  C    0.000000   0.473027   5.071762  -0.072003   0.466300   0.399584
    16  C   -0.000001   0.486068  -0.072003   5.087596  -0.027891   0.004141
    17  C    0.000000  -0.065274   0.466300  -0.027891   5.050258  -0.035576
    18  H    0.000000  -0.050647   0.399584   0.004141  -0.035576   0.509919
    19  C    0.000000  -0.064583  -0.031582   0.471469  -0.076896  -0.000335
    20  H    0.000001  -0.042633   0.004190   0.390207  -0.000182  -0.000249
    21  C    0.000000  -0.018522  -0.086103  -0.093473   0.488875   0.005342
    22  H    0.000000   0.006703  -0.039643  -0.000523   0.397089  -0.004287
    23  H    0.000000   0.006182  -0.000424  -0.037583   0.005999   0.000024
    24  H    0.000000  -0.001479   0.007374   0.007824  -0.042957  -0.000185
    25  C   -0.000002  -0.154127   0.000708  -0.014045  -0.000426   0.000564
    26  C    0.000001  -0.007715   0.000791  -0.000039   0.000193  -0.000050
    27  C    0.000000  -0.005696   0.002048  -0.000320  -0.000036   0.001439
    28  C    0.000000   0.000736  -0.000067  -0.000031   0.000002  -0.000018
    29  H    0.000000  -0.001867  -0.000267   0.004737  -0.000099  -0.000037
    30  C    0.000000  -0.000464  -0.000099   0.000048   0.000006   0.000030
    31  H    0.000000   0.000150   0.000252  -0.000048  -0.000006   0.000256
    32  C    0.000000   0.000097  -0.000014  -0.000004   0.000000  -0.000012
    33  H    0.000000   0.000017   0.000006  -0.000002   0.000001   0.000000
    34  H    0.000000   0.000011   0.000003   0.000000   0.000000  -0.000003
    35  H    0.000000  -0.000002   0.000000   0.000000   0.000000   0.000000
             19         20         21         22         23         24
     1  C    0.004840  -0.001665   0.000990  -0.000351  -0.000325  -0.000012
     2  H   -0.000248  -0.000068   0.000009  -0.000026   0.000013  -0.000002
     3  C    0.000511  -0.003170   0.000046   0.000011   0.000037  -0.000001
     4  C    0.000016   0.001062  -0.000019   0.000000   0.000028   0.000001
     5  C   -0.000090  -0.000891  -0.000013   0.000001   0.000007   0.000000
     6  C   -0.000031   0.000959   0.000000   0.000000  -0.000001   0.000000
     7  H    0.000051   0.000138   0.000001   0.000000  -0.000017   0.000000
     8  C   -0.000004  -0.000135   0.000000   0.000000   0.000001   0.000000
     9  H    0.000009  -0.000037  -0.000004   0.000000   0.000000   0.000000
    10  C    0.000004   0.000047   0.000000   0.000000  -0.000001   0.000000
    11  H    0.000001  -0.000002   0.000000   0.000000   0.000000   0.000000
    12  H    0.000000   0.000001   0.000000   0.000000   0.000000   0.000000
    13  H    0.000000   0.000001   0.000000   0.000000   0.000000   0.000000
    14  C   -0.064583  -0.042633  -0.018522   0.006703   0.006182  -0.001479
    15  C   -0.031582   0.004190  -0.086103  -0.039643  -0.000424   0.007374
    16  C    0.471469   0.390207  -0.093473  -0.000523  -0.037583   0.007824
    17  C   -0.076896  -0.000182   0.488875   0.397089   0.005999  -0.042957
    18  H   -0.000335  -0.000249   0.005342  -0.004287   0.000024  -0.000185
    19  C    5.050475  -0.029951   0.499299   0.006124   0.395908  -0.042204
    20  H   -0.029951   0.481451   0.004710   0.000020  -0.003332  -0.000182
    21  C    0.499299   0.004710   5.033469  -0.040723  -0.040262   0.399197
    22  H    0.006124   0.000020  -0.040723   0.518577  -0.000213  -0.004486
    23  H    0.395908  -0.003332  -0.040262  -0.000213   0.516815  -0.004445
    24  H   -0.042204  -0.000182   0.399197  -0.004486  -0.004445   0.518529
    25  C    0.000626  -0.001024   0.000075   0.000012   0.000005  -0.000001
    26  C   -0.000657   0.000495   0.000029   0.000003   0.000014  -0.000001
    27  C    0.000027  -0.000081  -0.000003  -0.000001   0.000000   0.000000
    28  C   -0.000016   0.000062   0.000003   0.000000   0.000000   0.000000
    29  H    0.000444   0.001018  -0.000012   0.000001  -0.000001  -0.000001
    30  C   -0.000001   0.000002   0.000000   0.000000   0.000000   0.000000
    31  H    0.000000   0.000000   0.000000  -0.000001   0.000000   0.000000
    32  C    0.000000   0.000002   0.000000   0.000000   0.000000   0.000000
    33  H   -0.000001  -0.000009   0.000000   0.000000   0.000000   0.000000
    34  H    0.000000   0.000000   0.000000   0.000000   0.000000   0.000000
    35  H    0.000000   0.000000   0.000000   0.000000   0.000000   0.000000
             25         26         27         28         29         30
     1  C    0.185194  -0.054369  -0.026216   0.001398   0.003104   0.007683
     2  H   -0.074347   0.005553   0.002060  -0.000282   0.000067   0.001759
     3  C   -0.112182  -0.006308  -0.000335   0.001776  -0.003176  -0.000602
     4  C   -0.004656  -0.017214   0.001496  -0.001739   0.000311   0.000126
     5  C    0.001978   0.000222   0.000195   0.000028  -0.000195  -0.000009
     6  C    0.001542  -0.000013   0.000042  -0.000089   0.000858   0.000000
     7  H   -0.003017   0.002863  -0.000257   0.001157   0.003451  -0.000139
     8  C   -0.000680   0.000029  -0.000004  -0.000001   0.000016   0.000001
     9  H    0.000362  -0.000026  -0.000022   0.000002  -0.000007   0.000001
    10  C    0.000021  -0.000005  -0.000011   0.000001  -0.000011   0.000000
    11  H    0.000011   0.000031   0.000002   0.000000  -0.000053   0.000000
    12  H    0.000014   0.000000   0.000001   0.000000   0.000000   0.000000
    13  H   -0.000002   0.000001   0.000000   0.000000   0.000000   0.000000
    14  C   -0.154127  -0.007715  -0.005696   0.000736  -0.001867  -0.000464
    15  C    0.000708   0.000791   0.002048  -0.000067  -0.000267  -0.000099
    16  C   -0.014045  -0.000039  -0.000320  -0.000031   0.004737   0.000048
    17  C   -0.000426   0.000193  -0.000036   0.000002  -0.000099   0.000006
    18  H    0.000564  -0.000050   0.001439  -0.000018  -0.000037   0.000030
    19  C    0.000626  -0.000657   0.000027  -0.000016   0.000444  -0.000001
    20  H   -0.001024   0.000495  -0.000081   0.000062   0.001018   0.000002
    21  C    0.000075   0.000029  -0.000003   0.000003  -0.000012   0.000000
    22  H    0.000012   0.000003  -0.000001   0.000000   0.000001   0.000000
    23  H    0.000005   0.000014   0.000000   0.000000  -0.000001   0.000000
    24  H   -0.000001  -0.000001   0.000000   0.000000  -0.000001   0.000000
    25  C    5.374473   0.439009   0.503556  -0.061711  -0.048460  -0.072748
    26  C    0.439009   5.095483  -0.065460   0.479256   0.388594  -0.029627
    27  C    0.503556  -0.065460   5.070198  -0.033428   0.004046   0.459713
    28  C   -0.061711   0.479256  -0.033428   5.035841  -0.027233  -0.076822
    29  H   -0.048460   0.388594   0.004046  -0.027233   0.495167  -0.000169
    30  C   -0.072748  -0.029627   0.459713  -0.076822  -0.000169   5.055012
    31  H   -0.046664   0.004631   0.395753  -0.000239  -0.000260  -0.035042
    32  C   -0.017864  -0.092106  -0.086342   0.494379   0.004557   0.496951
    33  H    0.006071  -0.039064  -0.000449   0.396690  -0.003435   0.006001
    34  H    0.007061  -0.000618  -0.039708   0.006222   0.000021   0.396774
    35  H   -0.001593   0.008019   0.007535  -0.042923  -0.000169  -0.042753
             31         32         33         34         35
     1  C   -0.000484   0.001274  -0.000319  -0.000368  -0.000013
     2  H    0.002414  -0.000013   0.000012  -0.000037  -0.000001
     3  C    0.000560  -0.000035   0.000008   0.000020  -0.000001
     4  C    0.000003   0.000045   0.000016  -0.000001   0.000001
     5  C    0.000135  -0.000001   0.000000   0.000000   0.000000
     6  C    0.000003   0.000003   0.000001   0.000000   0.000000
     7  H   -0.000005   0.000079  -0.000105   0.000000   0.000000
     8  C    0.000003   0.000000   0.000000   0.000000   0.000000
     9  H   -0.000025   0.000000   0.000000   0.000000   0.000000
    10  C   -0.000001   0.000000   0.000000   0.000000   0.000000
    11  H    0.000000  -0.000001   0.000001   0.000000   0.000000
    12  H    0.000000   0.000000   0.000000   0.000000   0.000000
    13  H    0.000000   0.000000   0.000000   0.000000   0.000000
    14  C    0.000150   0.000097   0.000017   0.000011  -0.000002
    15  C    0.000252  -0.000014   0.000006   0.000003   0.000000
    16  C   -0.000048  -0.000004  -0.000002   0.000000   0.000000
    17  C   -0.000006   0.000000   0.000001   0.000000   0.000000
    18  H    0.000256  -0.000012   0.000000  -0.000003   0.000000
    19  C    0.000000   0.000000  -0.000001   0.000000   0.000000
    20  H    0.000000   0.000002  -0.000009   0.000000   0.000000
    21  C    0.000000   0.000000   0.000000   0.000000   0.000000
    22  H   -0.000001   0.000000   0.000000   0.000000   0.000000
    23  H    0.000000   0.000000   0.000000   0.000000   0.000000
    24  H    0.000000   0.000000   0.000000   0.000000   0.000000
    25  C   -0.046664  -0.017864   0.006071   0.007061  -0.001593
    26  C    0.004631  -0.092106  -0.039064  -0.000618   0.008019
    27  C    0.395753  -0.086342  -0.000449  -0.039708   0.007535
    28  C   -0.000239   0.494379   0.396690   0.006222  -0.042923
    29  H   -0.000260   0.004557  -0.003435   0.000021  -0.000169
    30  C   -0.035042   0.496951   0.006001   0.396774  -0.042753
    31  H    0.510844   0.005163   0.000024  -0.004175  -0.000186
    32  C    0.005163   5.031031  -0.039556  -0.040774   0.399629
    33  H    0.000024  -0.039556   0.515364  -0.000211  -0.004458
    34  H   -0.004175  -0.040774  -0.000211   0.518280  -0.004580
    35  H   -0.000186   0.399629  -0.004458  -0.004580   0.517483
 Mulliken atomic charges:
              1
     1  C   -0.580625
     2  H    0.204562
     3  C    0.066696
     4  C   -0.145451
     5  C   -0.149563
     6  C   -0.189464
     7  H    0.184557
     8  C   -0.166219
     9  H    0.170131
    10  C   -0.151377
    11  H    0.162109
    12  H    0.162701
    13  H    0.163953
    14  C    0.086996
    15  C   -0.149157
    16  C   -0.150439
    17  C   -0.166436
    18  H    0.166582
    19  C   -0.183205
    20  H    0.199248
    21  C   -0.152910
    22  H    0.161713
    23  H    0.161572
    24  H    0.163031
    25  C    0.092267
    26  C   -0.111946
    27  C   -0.189743
    28  C   -0.172956
    29  H    0.179060
    30  C   -0.165631
    31  H    0.166943
    32  C   -0.156489
    33  H    0.163396
    34  H    0.162082
    35  H    0.164013
 Sum of Mulliken atomic charges =   0.00000
 Mulliken charges with hydrogens summed into heavy atoms:
              1
     1  C   -0.376063
     3  C    0.066696
     4  C    0.039106
     5  C    0.020568
     6  C   -0.027355
     8  C   -0.003519
    10  C    0.012576
    14  C    0.086996
    15  C    0.017425
    16  C    0.048809
    17  C   -0.004723
    19  C   -0.021633
    21  C    0.010121
    25  C    0.092267
    26  C    0.067114
    27  C   -0.022800
    28  C   -0.009560
    30  C   -0.003548
    32  C    0.007525
 Sum of Mulliken charges with hydrogens summed into heavy atoms =   0.00000
 Electronic spatial extent (au):  <R**2>=           4939.6640
 Charge=              0.0000 electrons
 Dipole moment (field-independent basis, Debye):
    X=             -0.0129    Y=             -0.0664    Z=             -0.0427  Tot=              0.0800
 Quadrupole moment (field-independent basis, Debye-Ang):
   XX=           -110.5976   YY=           -114.0587   ZZ=           -102.8718
   XY=              0.8001   XZ=              2.2800   YZ=             -0.1628
 Traceless Quadrupole moment (field-independent basis, Debye-Ang):
   XX=             -1.4216   YY=             -4.8827   ZZ=              6.3042
   XY=              0.8001   XZ=              2.2800   YZ=             -0.1628
 Octapole moment (field-independent basis, Debye-Ang**2):
  XXX=             39.8527  YYY=             18.4889  ZZZ=             -0.1879  XYY=            -44.5418
  XXY=            -14.4167  XXZ=             -6.5041  XZZ=              0.7075  YZZ=             -4.8546
  YYZ=             10.4117  XYZ=              0.1254
 Hexadecapole moment (field-independent basis, Debye-Ang**3):
 XXXX=          -3091.8409 YYYY=          -2907.9213 ZZZZ=           -786.4151 XXXY=             -6.2467
 XXXZ=              0.7709 YYYX=              2.7563 YYYZ=             58.6118 ZZZX=              6.2436
 ZZZY=             -4.0803 XXYY=           -972.9613 XXZZ=           -631.2463 YYZZ=           -601.4578
 XXYZ=            -49.9712 YYXZ=             22.6572 ZZXY=             15.7085
 N-N= 1.288392754024D+03 E-N=-4.272795376413D+03  KE= 7.285917592259D+02
 PrsmSu:  requested number of processors reduced to:  10 ShMem   1 Linda.
 Calling FoFJK, ICntrl=      2127 FMM=F ISym2X=0 I1Cent= 0 IOpClX= 0 NMat=1 NMatS=1 NMatT=0.
 ***** Axes restored to original set *****
 -------------------------------------------------------------------
 Center     Atomic                   Forces (Hartrees/Bohr)
 Number     Number              X              Y              Z
 -------------------------------------------------------------------
      1        6           0.002660830   -0.022605038   -0.007420450
      2        1          -0.004858450    0.025531769    0.008910834
      3        6          -0.000206753   -0.008501097    0.010407238
      4        6          -0.006567410    0.011151578   -0.003617103
      5        6           0.002981040   -0.004832960   -0.002684192
      6        6          -0.004535100    0.009119422    0.006517728
      7        1           0.007781511   -0.023140098    0.018249911
      8        6           0.004779931   -0.010254155    0.006494644
      9        1          -0.007522286    0.013145908    0.009223039
     10        6          -0.000349889   -0.002136180    0.013286950
     11        1           0.006924924   -0.012034842   -0.009259359
     12        1          -0.006183505    0.013791718   -0.007137997
     13        1           0.000762482    0.001784696   -0.016689030
     14        6           0.013578426    0.002017969   -0.005079902
     15        6          -0.000880548   -0.004434431   -0.004569265
     16        6          -0.004024864    0.003302746    0.009862164
     17        6           0.005033077   -0.003341493   -0.011260339
     18        1           0.005533851    0.013287114    0.009779100
     19        6           0.004184817    0.010150379    0.005211641
     20        1           0.011891280   -0.004968829   -0.017788362
     21        6           0.010615285    0.007446433   -0.004075897
     22        1          -0.007229605    0.004164796    0.014398726
     23        1          -0.005587322   -0.012988077   -0.008893324
     24        1          -0.013038911   -0.008872437    0.005641783
     25        6          -0.010445879   -0.004383615   -0.008538155
     26        6           0.005133072    0.008829092    0.005802084
     27        6           0.001635969   -0.005819677   -0.000792498
     28        6          -0.002057657    0.011833913    0.003180687
     29        1          -0.012994223   -0.009315986   -0.021931255
     30        6          -0.008454331   -0.006844679   -0.007797534
     31        1          -0.004751544    0.016932638    0.002396945
     32        6          -0.011479977    0.002540141   -0.006892586
     33        1           0.004791509   -0.015845749   -0.001848376
     34        1           0.008876571    0.010665377    0.009290979
     35        1           0.014003678   -0.005376345    0.007621169
 -------------------------------------------------------------------
 Cartesian Forces:  Max     0.025531769 RMS     0.009558959

 GradGradGradGradGradGradGradGradGradGradGradGradGradGradGradGradGradGrad
 Berny optimization.
 Internal  Forces:  Max     0.029811668 RMS     0.007835402
 Search for a local minimum.
 Step number   1 out of a maximum of  197
 All quantities printed in internal units (Hartrees-Bohrs-Radians)
 Mixed Optimization -- RFO/linear search
 Second derivative matrix not updated -- first step.
     Eigenvalues ---    0.00635   0.00645   0.00654   0.01530   0.01533
     Eigenvalues ---    0.01536   0.02137   0.02140   0.02146   0.02167
     Eigenvalues ---    0.02170   0.02172   0.02181   0.02185   0.02186
     Eigenvalues ---    0.02201   0.02203   0.02203   0.02213   0.02213
     Eigenvalues ---    0.02215   0.02215   0.02216   0.02217   0.02217
     Eigenvalues ---    0.02218   0.02218   0.02219   0.02220   0.02222
     Eigenvalues ---    0.04519   0.06373   0.06675   0.15996   0.15999
     Eigenvalues ---    0.15999   0.16000   0.16000   0.16000   0.16000
     Eigenvalues ---    0.16000   0.16000   0.16000   0.16000   0.16000
     Eigenvalues ---    0.16000   0.16000   0.16000   0.18940   0.19364
     Eigenvalues ---    0.22000   0.22000   0.22000   0.22000   0.22000
     Eigenvalues ---    0.22000   0.23476   0.23476   0.23477   0.24996
     Eigenvalues ---    0.24999   0.25000   0.31166   0.31360   0.31440
     Eigenvalues ---    0.31506   0.33472   0.33608   0.33964   0.34072
     Eigenvalues ---    0.34075   0.34094   0.34251   0.34254   0.34257
     Eigenvalues ---    0.34260   0.34263   0.34277   0.34283   0.34283
     Eigenvalues ---    0.34285   0.42415   0.42423   0.42488   0.42568
     Eigenvalues ---    0.42583   0.42618   0.46336   0.46356   0.46432
     Eigenvalues ---    0.46759   0.46775   0.46830   0.47221   0.47234
     Eigenvalues ---    0.47255   0.47323   0.47338   0.473701000.00000
     Eigenvalues --- 1000.000001000.000001000.000001000.000001000.00000
     Eigenvalues --- 1000.000001000.000001000.000001000.000001000.00000
     Eigenvalues --- 1000.000001000.000001000.000001000.000001000.00000
     Eigenvalues --- 1000.000001000.000001000.000001000.000001000.00000
     Eigenvalues --- 1000.000001000.000001000.000001000.000001000.00000
     Eigenvalues --- 1000.000001000.000001000.000001000.000001000.00000
     Eigenvalues --- 1000.000001000.000001000.000001000.000001000.00000
     Eigenvalues --- 1000.000001000.000001000.000001000.000001000.00000
     Eigenvalues --- 1000.000001000.000001000.000001000.000001000.00000
     Eigenvalues --- 1000.000001000.000001000.000001000.000001000.00000
     Eigenvalues --- 1000.000001000.000001000.000001000.000001000.00000
     Eigenvalues --- 1000.000001000.000001000.000001000.000001000.00000
     Eigenvalues --- 1000.000001000.000001000.000001000.000001000.00000
     Eigenvalues --- 1000.000001000.000001000.000001000.000001000.00000
     Eigenvalues --- 1000.000001000.000001000.000001000.000001000.00000
     Eigenvalues --- 1000.000001000.000001000.000001000.000001000.00000
     Eigenvalues --- 1000.000001000.000001000.000001000.000001000.00000
     Eigenvalues --- 1000.000001000.00000
 RFO step:  Lambda=-4.28773927D-02 EMin= 6.34921949D-03
 Linear search not attempted -- first point.
 Maximum step size (   0.300) exceeded in Quadratic search.
    -- Step size scaled by   0.575
 Iteration  1 RMS(Cart)=  0.12587836 RMS(Int)=  0.00284145
 Iteration  2 RMS(Cart)=  0.00584495 RMS(Int)=  0.00028871
 Iteration  3 RMS(Cart)=  0.00000906 RMS(Int)=  0.00028866
 Iteration  4 RMS(Cart)=  0.00000000 RMS(Int)=  0.00028866
 Variable       Old X    -DE/DX   Delta X   Delta X   Delta X     New X
                                 (Linear)    (Quad)   (Total)
    R1        2.12397  -0.02746   0.00000  -0.04455  -0.04455   2.07942
    R2        2.85057   0.02570   0.00000   0.04130   0.04130   2.89187
    R3        2.85331   0.02090   0.00000   0.03372   0.03372   2.88703
    R4        2.85181   0.02265   0.00000   0.03645   0.03645   2.88826
    R5        2.63782   0.00072   0.00000   0.00101   0.00102   2.63884
    R6        2.64238  -0.00359   0.00000  -0.00404  -0.00403   2.63835
    R7        2.62721  -0.00321   0.00000  -0.00346  -0.00347   2.62374
    R8        2.08231  -0.02981   0.00000  -0.04540  -0.04540   2.03690
    R9        2.62628  -0.00363   0.00000  -0.00416  -0.00416   2.62213
   R10        2.07208  -0.01772   0.00000  -0.02656  -0.02656   2.04552
   R11        2.62695  -0.00678   0.00000  -0.00763  -0.00765   2.61930
   R12        2.06889  -0.01669   0.00000  -0.02490  -0.02490   2.04399
   R13        2.62814  -0.00844   0.00000  -0.00961  -0.00962   2.61852
   R14        2.06903  -0.01671   0.00000  -0.02494  -0.02494   2.04409
   R15        2.06856  -0.01680   0.00000  -0.02505  -0.02505   2.04351
   R16        2.64313  -0.00428   0.00000  -0.00493  -0.00492   2.63820
   R17        2.63516  -0.00247   0.00000  -0.00274  -0.00273   2.63243
   R18        2.62515  -0.00414   0.00000  -0.00467  -0.00467   2.62048
   R19        2.07172  -0.01739   0.00000  -0.02606  -0.02606   2.04567
   R20        2.62857  -0.00273   0.00000  -0.00298  -0.00298   2.62559
   R21        2.07391  -0.02180   0.00000  -0.03278  -0.03278   2.04113
   R22        2.62897  -0.00601   0.00000  -0.00678  -0.00679   2.62218
   R23        2.06893  -0.01664   0.00000  -0.02483  -0.02483   2.04410
   R24        2.62607  -0.00626   0.00000  -0.00695  -0.00696   2.61911
   R25        2.06898  -0.01670   0.00000  -0.02492  -0.02492   2.04406
   R26        2.06852  -0.01675   0.00000  -0.02497  -0.02497   2.04354
   R27        2.63772   0.00072   0.00000   0.00096   0.00098   2.63870
   R28        2.63995  -0.00421   0.00000  -0.00473  -0.00471   2.63524
   R29        2.62598  -0.00455   0.00000  -0.00499  -0.00498   2.62100
   R30        2.07997  -0.02544   0.00000  -0.03861  -0.03861   2.04136
   R31        2.62723  -0.00276   0.00000  -0.00315  -0.00316   2.62407
   R32        2.07204  -0.01774   0.00000  -0.02659  -0.02659   2.04545
   R33        2.62782  -0.00542   0.00000  -0.00612  -0.00613   2.62169
   R34        2.06865  -0.01666   0.00000  -0.02484  -0.02484   2.04381
   R35        2.62782  -0.00840   0.00000  -0.00952  -0.00954   2.61828
   R36        2.06909  -0.01670   0.00000  -0.02492  -0.02492   2.04417
   R37        2.06856  -0.01683   0.00000  -0.02509  -0.02509   2.04347
    A1        1.85566  -0.00924   0.00000  -0.04552  -0.04457   1.81109
    A2        1.85828  -0.00027   0.00000  -0.01894  -0.01877   1.83951
    A3        1.86774  -0.00591   0.00000  -0.03536  -0.03461   1.83313
    A4        1.97318   0.00302   0.00000   0.02543   0.02353   1.99671
    A5        1.97523   0.01475   0.00000   0.05378   0.05261   2.02784
    A6        1.92532  -0.00409   0.00000   0.00946   0.00713   1.93245
    A7        2.14217   0.02505   0.00000   0.04917   0.04916   2.19133
    A8        2.06578  -0.01294   0.00000  -0.02544  -0.02546   2.04032
    A9        2.07523  -0.01211   0.00000  -0.02373  -0.02370   2.05153
   A10        2.10368   0.00440   0.00000   0.00977   0.00978   2.11346
   A11        2.08549   0.00421   0.00000   0.01329   0.01328   2.09877
   A12        2.09398  -0.00862   0.00000  -0.02309  -0.02309   2.07089
   A13        2.10305   0.00829   0.00000   0.01757   0.01760   2.12065
   A14        2.09372  -0.00487   0.00000  -0.01083  -0.01085   2.08287
   A15        2.08642  -0.00342   0.00000  -0.00674  -0.00675   2.07966
   A16        2.09776   0.00244   0.00000   0.00499   0.00497   2.10273
   A17        2.09023  -0.00116   0.00000  -0.00234  -0.00233   2.08790
   A18        2.09519  -0.00127   0.00000  -0.00266  -0.00264   2.09255
   A19        2.09752   0.00004   0.00000  -0.00097  -0.00097   2.09655
   A20        2.09145   0.00005   0.00000   0.00069   0.00070   2.09214
   A21        2.09422  -0.00009   0.00000   0.00027   0.00028   2.09449
   A22        2.08911  -0.00306   0.00000  -0.00763  -0.00767   2.08144
   A23        2.09732   0.00152   0.00000   0.00378   0.00380   2.10112
   A24        2.09675   0.00154   0.00000   0.00385   0.00387   2.10062
   A25        2.06500  -0.00202   0.00000  -0.00388  -0.00389   2.06111
   A26        2.14059   0.00959   0.00000   0.01892   0.01891   2.15950
   A27        2.07759  -0.00757   0.00000  -0.01504  -0.01503   2.06256
   A28        2.10228   0.00530   0.00000   0.01113   0.01113   2.11342
   A29        2.09293  -0.00326   0.00000  -0.00729  -0.00730   2.08563
   A30        2.08797  -0.00204   0.00000  -0.00384  -0.00384   2.08412
   A31        2.10161   0.00315   0.00000   0.00687   0.00687   2.10848
   A32        2.09243   0.00059   0.00000   0.00269   0.00269   2.09512
   A33        2.08910  -0.00374   0.00000  -0.00959  -0.00959   2.07951
   A34        2.09698   0.00010   0.00000  -0.00033  -0.00033   2.09665
   A35        2.09196   0.00000   0.00000   0.00032   0.00032   2.09228
   A36        2.09424  -0.00010   0.00000   0.00001   0.00002   2.09425
   A37        2.09857   0.00131   0.00000   0.00276   0.00275   2.10133
   A38        2.08970  -0.00060   0.00000  -0.00123  -0.00123   2.08847
   A39        2.09491  -0.00071   0.00000  -0.00153  -0.00153   2.09338
   A40        2.08933  -0.00229   0.00000  -0.00539  -0.00540   2.08393
   A41        2.09634   0.00117   0.00000   0.00276   0.00277   2.09911
   A42        2.09752   0.00112   0.00000   0.00262   0.00263   2.10014
   A43        2.12706   0.01644   0.00000   0.03218   0.03210   2.15916
   A44        2.07787  -0.00626   0.00000  -0.01240  -0.01247   2.06540
   A45        2.07812  -0.01021   0.00000  -0.02007  -0.02007   2.05805
   A46        2.10359   0.00378   0.00000   0.00842   0.00835   2.11194
   A47        2.07589   0.00412   0.00000   0.01301   0.01289   2.08878
   A48        2.10349  -0.00784   0.00000  -0.02091  -0.02103   2.08246
   A49        2.10045   0.00695   0.00000   0.01486   0.01486   2.11531
   A50        2.09433  -0.00405   0.00000  -0.00904  -0.00905   2.08528
   A51        2.08840  -0.00291   0.00000  -0.00581  -0.00582   2.08258
   A52        2.09581   0.00212   0.00000   0.00426   0.00426   2.10007
   A53        2.09166  -0.00098   0.00000  -0.00189  -0.00190   2.08975
   A54        2.09572  -0.00114   0.00000  -0.00236  -0.00237   2.09334
   A55        2.09791  -0.00010   0.00000  -0.00100  -0.00103   2.09688
   A56        2.09116   0.00021   0.00000   0.00095   0.00096   2.09212
   A57        2.09412  -0.00011   0.00000   0.00005   0.00006   2.09418
[...]
 .00758063,0.00008440,0.00131379,0.00021974,0.00159698,-0.00004636,0.00
 032035,0.00002061,0.00007590,0.00014841,-0.00001444,0.00017717,0.00018
 043,-0.00006465,0.00005853,-0.00015108,-0.00006608,-0.00004400,0.00005
 561,-0.00007695,-0.00007710,0.00013806,0.00001535,0.00001236,-0.000012
 24,0.00009495,-0.00011600,0.00004546,0.00001066,0.00003043,0.00002356,
 -0.00001721,-0.00002492,0.00002370,0.00000104,0.00000327,0.00000688,-0
 .00044177,0.00028290,-0.00073520,-0.00033310,-0.00013335,-0.00004671,0
 .00008360,0.00025818,0.00006596,0.00025782,0.00021936,0.00001696,0.000
 00141,-0.00003247,0.00004035,-0.00013413,-0.00010251,0.00020169,-0.000
 00558,0.00001768,0.00000129,-0.00003599,-0.00016499,-0.00021331,-0.000
 02100,0.00000614,0.00001392,-0.00000356,-0.00002156,0.00000506,-0.0000
 1258,-0.00000011,0.00000119,-0.02944894,-0.03988945,0.00547739,-0.0220
 3782,0.02930987,-0.02157447,-0.09131964,0.05791678,-0.13373956,0.03949
 412,0.00597214,0.02466789,0.00012729,0.00029797,-0.00093087,0.20167515
 ,-0.09010993,0.27885033,0.00084278,-0.00120221,0.00165760,-0.00061899,
 0.00060438,0.00021909,0.00023632,-0.00003763,-0.00022839,0.00000621,-0
 .00012928,0.00003057,-0.00003176,-0.00006112,0.00007835,-0.00003670,-0
 .00004033,0.00006379,-0.00000266,0.00009048,0.00000891,0.00001365,0.00
 002248,-0.00007361,-0.00004843,0.00002488,-0.00001502,-0.00005887,0.00
 001805,0.00005362,-0.00000518,0.00001782,0.00002810,0.00000918,-0.0000
 0448,0.00001636,0.00000354,0.00001001,0.00001736,-0.00006112,0.0001718
 9,0.00016121,0.00001873,-0.00001578,-0.00005418,0.00007538,0.00009318,
 -0.00006196,-0.00000368,0.00001711,0.00001708,-0.00000961,-0.00001261,
 0.00003936,0.00002926,0.00001074,0.00001944,-0.00000226,-0.00000088,0.
 00001377,0.00002321,0.00001383,-0.00000826,0.00000764,-0.00000063,-0.0
 0000853,0.00001732,0.00001107,0.00000541,0.00000952,0.00000659,0.00000
 013,0.00701894,-0.02708746,0.00654207,-0.00287641,-0.00417298,-0.00357
 275,-0.07261447,0.02868349,-0.01572294,-0.00114811,-0.00018460,-0.0000
 2905,0.00026840,-0.00126249,0.00038689,0.00228095,0.03264847,-0.008795
 43,0.07039585,0.00180662,0.00024398,-0.00067499,-0.00087128,0.00083308
 ,-0.00000709,-0.00030928,0.00036094,-0.00010919,0.00026782,-0.00009999
 ,0.00003274,-0.00002302,0.00016074,-0.00026128,0.00001644,0.00008270,-
 0.00014555,-0.00008252,-0.00007858,0.00008404,-0.00007116,0.00009678,0
 .00003720,-0.00003212,-0.00002672,-0.00000344,0.00003972,-0.00005988,0
 .00000186,-0.00001953,-0.00000683,0.00001322,0.00000330,-0.00001266,-0
 .00000326,-0.00000804,-0.00000487,0.00001141,-0.00007900,0.00033650,0.
 00033678,-0.00002551,0.00001794,-0.00006472,0.00012245,0.00015142,-0.0
 0008610,0.00001310,0.00000118,-0.00002583,-0.00000146,-0.00003124,0.00
 002991,0.00003751,0.00005165,0.00004085,0.00000997,-0.00003329,0.00000
 827,0.00000209,0.00000337,-0.00000036,0.00000977,-0.00000332,0.0000001
 6,0.00001869,0.00000177,0.00000055,0.00000611,-0.00000129,0.00000224,0
 .00721394,-0.01757243,0.00801679,-0.00453607,-0.00069175,0.00009450,0.
 02808303,-0.34416547,0.07683291,-0.00029640,0.00086931,-0.00053596,0.0
 0030025,-0.00102805,0.00035586,-0.00378219,-0.00536061,0.00102639,-0.0
 3015165,0.36384835,0.00069321,-0.00046349,-0.00324040,0.00014995,-0.00
 094442,0.00016676,-0.00035483,0.00006659,-0.00007920,0.00009831,0.0000
 6468,0.00000937,0.00001307,0.00021347,-0.00021725,0.00006942,0.0000269
 5,-0.00012679,-0.00001616,-0.00010010,0.00007753,-0.00007854,0.0000558
 9,0.00002166,0.00000395,-0.00002495,0.00000316,0.00003435,-0.00005891,
 -0.00000507,-0.00001150,-0.00000116,-0.00000371,0.00000436,-0.00001519
 ,-0.00000033,-0.00000180,-0.00000811,0.00001379,0.00022874,-0.00016454
 ,0.00014679,0.00007619,0.00016112,0.00009567,0.00004039,-0.00003075,0.
 00000225,-0.00002309,-0.00002162,-0.00003779,0.00001401,-0.00002770,-0
 .00003105,-0.00001418,0.00001235,-0.00004583,0.00000267,-0.00002520,-0
 .00000980,0.00002217,0.00001198,0.00000764,0.00001587,0.00000599,-0.00
 001028,-0.00000116,0.00000627,-0.00000433,0.00000228,-0.00000363,-0.00
 000351,-0.00003927,-0.00618301,0.00682486,-0.00357061,0.00046905,0.006
 53441,-0.01609547,0.07758799,-0.07240044,-0.00002766,-0.00046032,-0.00
 087626,0.00002588,-0.00035826,0.00000970,-0.00043050,0.01540847,0.0018
 8899,0.02211044,-0.08605749,0.06009426,0.00066937,-0.00029592,0.000639
 75,-0.00033366,0.00030451,0.00009491,0.00004768,0.00009830,0.00040738,
 0.00001456,0.00019361,-0.00010160,0.00010729,0.00003790,-0.00033021,-0
 .00008393,0.00009563,-0.00013615,-0.00029182,0.00013722,0.00003601,-0.
 00008043,0.00006137,0.00010616,0.00000487,-0.00001268,0.00002300,0.000
 09065,-0.00007970,-0.00007660,0.00001106,-0.00000793,-0.00006694,-0.00
 001288,-0.00000371,-0.00003400,0.00000040,0.00000721,-0.00001744,0.000
 12028,0.00007384,-0.00037605,-0.00026126,-0.00006806,-0.00000503,0.000
 05153,0.00020957,0.00006188,0.00017689,0.00013705,-0.00000456,0.000021
 13,-0.00001961,-0.00002447,-0.00010191,-0.00002216,0.00013939,0.000014
 98,0.00001607,0.00001706,-0.00004994,-0.00016217,-0.00013346,-0.000032
 57,0.00001079,0.00002082,-0.00002262,-0.00002185,-0.00000717,-0.000022
 73,-0.00000622,0.00000323,-0.01602910,-0.03760084,0.00492033,-0.057489
 48,0.00838079,-0.02859894,0.03204510,0.04301620,-0.00119329,-0.2678791
 0,-0.14605289,-0.04252279,-0.00254964,0.00200523,-0.00504665,-0.154922
 49,0.05775395,-0.04162229,-0.00385396,0.00114004,-0.00539961,0.7429585
 0,0.00049034,-0.00194432,0.00177227,0.00010957,0.00102663,0.00068181,0
 .00143691,0.00065077,0.00002450,0.00034575,-0.00000363,0.00030346,0.00
 006277,0.00047076,-0.00022959,-0.00020943,0.00030894,-0.00042842,-0.00
 030634,0.00002757,0.00013646,-0.00027567,0.00003877,0.00033842,0.00000
 676,0.00001377,-0.00001082,0.00028336,-0.00032335,0.00004599,0.0000149
 4,0.00003960,0.00003706,-0.00003558,-0.00004634,0.00001473,-0.00001120
 ,0.00000531,0.00000200,0.00029200,-0.00043879,-0.00046318,-0.00048644,
 0.00006156,0.00001372,0.00035138,0.00037607,-0.00009137,0.00031439,0.0
 0037875,-0.00002061,0.00001697,-0.00010887,0.00002306,-0.00026635,-0.0
 0010969,0.00028303,0.00002352,0.00000264,0.00002001,0.00001891,-0.0002
 1069,-0.00033839,0.00000988,0.00000829,0.00000780,0.00000929,-0.000009
 68,0.00000205,-0.00000550,-0.00000862,-0.00000015,-0.03893824,-0.09714
 890,0.00287218,-0.05596447,0.08680752,-0.03899291,0.10782187,0.0041045
 1,0.04324667,-0.06479859,-0.24613947,0.01007229,0.00237670,0.00055738,
 0.00302436,-0.02366710,-0.34224934,0.04650703,0.00044008,0.00176754,0.
 00178324,0.01470189,0.72349493,0.00056603,0.00019135,-0.00092877,0.000
 02093,-0.00015276,-0.00003276,-0.00053948,-0.00001250,0.00016814,0.000
 00111,0.00010455,0.00001012,0.00002283,-0.00002912,-0.00017082,0.00004
 995,-0.00005162,-0.00001464,0.00005886,-0.00005034,0.00000829,0.000005
 43,0.00004073,0.00001057,-0.00000584,-0.00001277,0.00001553,-0.0000033
 1,0.00000285,-0.00001807,0.00000107,-0.00000112,-0.00000958,0.00000185
 ,0.00000963,-0.00002032,0.00000575,-0.00000577,-0.00000232,0.00001975,
 0.00009658,0.00000429,-0.00002016,-0.00003118,-0.00006426,-0.00001231,
 0.00005117,0.00005026,0.00002189,-0.00001382,-0.00001435,0.00003050,0.
 00001073,-0.00003572,0.00000342,0.00000945,0.00001153,-0.00000175,0.00
 000252,-0.00001024,-0.00002295,-0.00003213,0.00000972,-0.00002883,0.00
 000400,0.00001280,-0.00001182,-0.00000572,-0.00000332,-0.00001075,-0.0
 0000374,-0.00000095,0.00467843,0.00428764,-0.00611704,-0.01487780,-0.0
 1375973,0.00684688,-0.01447379,0.01872126,0.00010649,-0.06078888,-0.02
 348938,-0.10336763,-0.00491289,0.00281264,0.00621507,-0.02403484,0.079
 82307,-0.11091237,-0.00536839,0.00213307,0.00645916,0.22757256,-0.1140
 7101,0.29237185,0.00038368,0.00124052,-0.00002529,-0.00026621,0.000185
 77,-0.00012656,-0.00017888,0.00004044,0.00007849,0.00001187,-0.0000229
 6,-0.00004035,-0.00000259,-0.00000616,-0.00009121,0.00000215,0.0000001
 6,0.00000138,0.00000380,0.00001407,0.00000417,0.00000508,0.00001442,-0
 .00001301,0.00000551,-0.00001206,0.00000683,-0.00000476,0.00000787,-0.
 00001577,0.00000600,-0.00000173,-0.00000732,-0.00000151,0.00000772,-0.
 00001090,-0.00000029,0.00000039,-0.00000723,0.00021128,0.00005424,-0.0
 0003463,-0.00004243,-0.00003383,0.00002752,0.00000587,-0.00003426,0.00
 002032,0.00002073,-0.00000214,0.00000935,0.00000145,0.00001129,-0.0000
 1860,-0.00001000,-0.00002841,0.00001664,0.00000067,0.00001926,-0.00001
 002,-0.00003570,-0.00005029,0.00001280,-0.00001924,0.00000677,0.000007
 94,-0.00001981,-0.00000131,-0.00000933,-0.00001521,0.00000245,-0.00000
 261,-0.00399237,0.00070061,-0.00534312,0.00237833,0.03219040,-0.008429
 74,-0.00132337,-0.00030942,-0.00005270,-0.07305226,0.02821644,-0.01602
 230,0.00050631,-0.00008405,0.00224551,-0.00266039,-0.00405630,-0.00382
 222,-0.00008428,0.00014503,0.00044351,0.00861522,-0.02839499,0.0075770
 8,0.06901239,-0.00042007,-0.00037310,-0.00013136,0.00012509,-0.0000791
 4,0.00008310,0.00016831,-0.00001380,-0.00009208,-0.00000272,0.00001442
 ,0.00006997,-0.00001938,0.00002527,0.00009048,0.00002309,-0.00001008,-
 0.00002310,0.00001028,-0.00004404,-0.00004023,-0.00000527,-0.00000888,
 0.00001390,-0.00000749,0.00000605,-0.00001119,0.00000811,-0.00001185,0
 .00002136,-0.00001241,0.00000192,0.00001787,0.00000412,-0.00001089,0.0
 0001472,0.,-0.00000530,0.00001495,-0.00009128,-0.00008547,0.00010761,0
 .00005294,0.00003010,-0.00001483,0.00003373,-0.00000717,-0.00004510,-0
 .00003193,0.00000239,0.00000807,-0.00001466,-0.00000505,0.00002492,-0.
 00000039,0.00000905,-0.00001989,-0.00000829,-0.00001363,-0.00000234,0.
 00002715,0.00004556,-0.00000207,0.00002280,-0.00000808,-0.00001492,0.0
 0001791,0.00000956,0.00000857,0.00001994,0.00000405,-0.00000039,0.0011
 0753,0.00175584,0.00197828,-0.00370997,-0.00521378,0.00089026,-0.00019
 417,0.00094497,-0.00049352,0.02838712,-0.34801961,0.07821027,0.0009792
 3,0.00098627,-0.00094435,-0.00453676,-0.00057101,0.00027600,0.00013506
 ,-0.00017086,-0.00019563,0.00757284,-0.01572944,0.00785550,-0.02972840
 ,0.36660035,0.00002896,0.00053893,-0.00015953,-0.00020040,0.00006199,-
 0.00013946,-0.00006242,0.00006298,0.00015080,-0.00006664,0.00002604,-0
 .00008065,0.00003165,0.00000297,-0.00009055,-0.00000550,-0.00000486,0.
 00000673,0.00000340,0.00003379,0.00004130,-0.00000766,-0.00000005,0.00
 000484,0.00001744,-0.00001042,0.00000320,0.00000683,-0.00000190,-0.000
 01903,0.00000799,0.00000043,-0.00002645,-0.00000109,-0.00000071,-0.000
 00846,0.00000325,0.00000249,-0.00000414,0.00018829,0.00005907,-0.00002
 653,0.00002874,-0.00000181,0.00002485,-0.00006602,-0.00006751,0.000033
 76,-0.00002707,-0.00001830,-0.00001417,0.00000410,-0.00001957,-0.00001
 207,0.00002882,0.00000211,-0.00002666,-0.00000246,0.00001144,-0.000014
 61,-0.00000929,0.00000891,0.00003108,0.00000590,-0.00000521,-0.0000008
 5,-0.00001584,-0.00000697,-0.00000828,-0.00000369,-0.00000175,0.000002
 21,-0.00510434,0.00156921,0.00622640,-0.00050939,0.01557196,0.00183370
 ,0.00001639,-0.00048840,-0.00084834,-0.01595193,0.07837532,-0.07265363
 ,0.00184563,-0.00143491,-0.00392931,-0.00376924,0.00049453,0.00730908,
 0.00045369,-0.00018665,-0.00103141,-0.00050180,-0.00688912,0.00694821,
 0.02134805,-0.08653503,0.06042745,-0.00061525,-0.00123216,0.00012620,-
 0.00000294,0.00006054,0.00002985,-0.00010853,0.00000013,0.00019478,0.0
 0003997,-0.00000884,-0.00005574,0.00003788,0.00002644,-0.00010818,-0.0
 0001071,0.00001326,0.00000113,-0.00002774,0.00001961,0.00003477,-0.000
 00126,0.00002405,-0.00000647,-0.00000688,-0.00001480,0.00001214,0.0000
 0495,0.00001378,-0.00002847,0.00000333,-0.00001178,-0.00001622,-0.0000
 1366,0.00000575,-0.00001973,-0.00000398,0.00000113,-0.00001676,-0.0001
 2128,0.00031066,-0.00026121,-0.00005798,-0.00006645,-0.00001818,-0.000
 09142,-0.00004175,0.00007248,0.00001326,-0.00002073,-0.00001352,0.0000
 1219,0.00000842,-0.00001274,0.00002841,-0.00000717,0.00001161,0.000003
 00,0.00000759,-0.00000147,-0.00003268,-0.00001311,0.00001839,-0.000016
 76,-0.00000557,0.00001918,-0.00001418,-0.00001504,-0.00000472,-0.00001
 388,-0.00000602,0.00000356,-0.00232700,0.00245673,-0.00525960,-0.00005
 067,0.00117824,0.00010163,-0.01594171,-0.02420045,-0.00357190,0.002260
 03,0.00099102,-0.00282763,-0.00020140,-0.00001802,0.00043921,-0.232231
 44,-0.14646516,-0.04303055,0.00036763,0.00108065,0.00203682,0.00808203
 ,0.00691874,-0.00044268,0.00015868,0.00024647,0.00004713,0.24056127,0.
 00046477,0.00035779,0.00003858,-0.00004743,-0.00000960,-0.00005391,-0.
 00009089,0.00001334,-0.00001199,0.00001292,-0.00000966,-0.00002311,0.0
 0000753,-0.00003542,-0.00001528,-0.00000735,0.00001751,0.00002557,-0.0
 0001460,-0.00000407,0.00002821,0.00000978,-0.00000016,-0.00001428,0.00
 000289,-0.00000154,0.00000394,-0.00000941,0.00001657,-0.00001237,0.000
 00049,-0.00001100,-0.00001075,-0.00000129,0.00000537,-0.00000539,-0.00
 000302,0.00000170,-0.00000917,0.00006043,-0.00005859,0.00001941,-0.000
 01648,0.00001029,-0.00000723,-0.00000587,0.00003446,0.00000551,0.00001
 133,0.00001360,-0.00001481,0.00001131,-0.00001396,-0.00000540,-0.00000
 989,0.00001340,0.00000583,0.00000926,-0.00000654,0.00000942,0.00000460
 ,-0.00000348,-0.00001279,-0.00000005,-0.00000064,0.00000478,0.00000121
 ,-0.00000595,-0.00000037,-0.00000284,-0.00000572,0.00000234,0.00200036
 ,0.00056222,0.00276335,0.00111932,-0.00024278,0.00029151,0.01192574,0.
 01174746,0.00359766,0.00150351,-0.00524048,0.00361412,0.00001020,-0.00
 003720,-0.00026445,-0.14669811,-0.20127036,-0.02694811,-0.00012053,0.0
 0100753,-0.00139004,-0.02898221,-0.01502373,-0.00739729,-0.00128498,-0
 .00100477,-0.00030557,0.15902792,0.20815031,-0.00030788,-0.00053679,-0
 .00004658,0.00005915,-0.00003620,0.00003933,-0.00012188,0.00000280,0.0
 0004580,0.00001756,0.00001817,-0.00004340,-0.00000310,-0.00001674,-0.0
 0004635,0.00000999,0.00002532,0.00000178,-0.00003477,-0.00002391,0.000
 01715,0.00001214,0.00001167,-0.00000232,0.00000126,-0.00001357,0.00000
 246,0.00000783,0.00001271,-0.00003299,-0.00000306,-0.00001647,-0.00002
 054,-0.00000214,0.,-0.00000684,-0.00000652,-0.00000383,-0.00000694,-0.
 00016144,0.00006963,-0.00025498,-0.00005464,0.00001170,0.00004643,-0.0
 0000550,0.00000799,0.00001964,0.00005418,0.00002651,-0.00000659,0.0000
 0563,-0.00000576,-0.00000202,-0.00002627,-0.00002469,0.00004070,-0.000
 00536,0.00000627,-0.00001002,-0.00001843,-0.00003843,-0.00004332,0.000
 00032,0.00000343,0.00000226,-0.00000539,-0.00000948,-0.00000072,-0.000
 00415,-0.00000191,-0.00000008,-0.00488386,0.00300376,0.00635879,0.0002
 1556,0.00032591,-0.00090787,-0.01141423,-0.01127439,0.00340572,-0.0029
 7388,0.00342533,0.00670140,0.00039554,-0.00030515,-0.00102389,-0.04303
 943,-0.02685753,-0.06048872,0.00232452,-0.00095025,-0.00401845,0.00736
 063,0.00735607,0.00685529,0.00036024,0.00029379,0.00000039,0.05039578,
 0.02690326,0.04717794,-0.00004581,0.00005412,0.00044324,-0.00002796,0.
 00010298,-0.00002809,-0.00000392,-0.00003435,0.00008096,0.00002950,-0.
 00002806,-0.00003840,0.00001277,-0.00001484,-0.00002362,-0.00002354,0.
 00001938,0.00002306,-0.00002634,0.00001888,0.00003579,0.00000734,-0.00
 000247,-0.00001128,0.00000283,-0.00000253,0.00000709,-0.00000682,0.000
 01148,-0.00001321,0.00000732,-0.00000560,-0.00000932,-0.00000683,0.000
 00796,-0.00000912,-0.00000193,0.00000458,-0.00001458,0.00002952,0.0000
 6182,-0.00006667,-0.00001770,-0.00001982,-0.00003181,-0.00006600,0.000
 02020,0.00003612,0.00000907,-0.00001110,-0.00002189,0.00001709,-0.0000
 0176,-0.00001191,0.00002277,0.00002958,-0.00000342,0.00001581,-0.00000
 494,0.00001955,-0.00000571,-0.00000582,0.00001445,-0.00001409,0.000001
 89,0.00001557,-0.00000694,-0.00001283,-0.00000494,-0.00001495,-0.00000
 810,0.00000418,0.00035974,-0.00066060,0.00070346,-0.00089130,-0.004866
 60,-0.00295238,0.00262792,-0.00024253,-0.00242129,-0.01594525,0.013130
 74,-0.01154231,-0.00096354,0.00050408,-0.00046938,0.00167897,-0.003566
 15,-0.00060131,-0.00016803,-0.00002732,-0.00002121,-0.28901402,0.07731
 388,-0.11508097,0.00038027,-0.00015849,0.00223853,0.00031872,0.0011113
 7,0.00185160,0.30173107,0.00012463,0.00003825,-0.00020867,-0.00007389,
 0.00002624,0.00001431,0.00000988,0.00004535,-0.00003945,0.00001943,0.0
 0000750,0.00001566,-0.00000119,0.00001797,-0.00000444,0.00000192,0.000
 00155,-0.00001361,-0.00001196,-0.00001707,0.00000048,-0.00000699,0.000
 00797,0.00000402,-0.00000693,-0.00000128,-0.00000365,0.00000305,-0.000
 00935,0.00000333,-0.00000225,0.00000359,0.00000380,0.00000213,-0.00000
 422,0.00000285,0.00000012,-0.00000097,0.00000590,-0.00002480,-0.000008
 42,0.00005139,0.00001674,0.00001564,-0.00003762,0.00001179,0.00004429,
 -0.00001149,-0.00000631,-0.00000232,-0.00000017,-0.00000546,-0.0000026
 4,0.00001207,0.00001581,0.00001698,-0.00000677,0.00000278,-0.00000923,
 0.00000497,0.00000941,0.00000569,0.00000813,0.00000352,0.00000051,-0.0
 0000246,0.00000266,0.00000213,-0.00000005,0.00000149,0.00000152,0.0000
 0030,-0.00064519,-0.00115925,-0.00024015,-0.00421600,-0.00244468,0.000
 85072,-0.00086604,-0.00579331,0.00277308,-0.02290882,0.01251357,-0.010
 94759,-0.00094684,0.00036359,-0.00048508,0.03243996,-0.00379232,0.0152
 1430,0.00146507,-0.00048697,0.00066051,0.07738198,-0.10064645,0.042963
 25,0.00119345,0.00095017,-0.00084343,-0.00026407,0.00103411,-0.0013892
 3,-0.08271906,0.09928186,0.00028109,-0.00015906,-0.00095248,0.00001345
 ,-0.00016387,0.00000770,-0.00016486,0.00008886,0.00000670,0.00000479,0
 .00001427,-0.00004055,0.00002332,-0.00000552,-0.00007170,-0.00000974,0
 .00001490,0.00002382,-0.00002548,0.00000640,0.00004247,0.00000209,0.00
 001024,-0.00000878,0.00000440,-0.00000718,0.00000316,-0.00000267,0.000
 00849,-0.00001616,0.00000262,-0.00000864,-0.00001985,-0.00000181,0.000
 00267,-0.00000863,-0.00000265,0.00000145,-0.00000830,-0.00002307,0.000
 00749,-0.00003043,-0.00002885,0.00002782,-0.00001881,-0.00000654,0.000
 03130,0.00001965,0.00000720,0.00000451,-0.00001911,0.00000566,-0.00001
 532,-0.00000196,0.00001069,0.00000831,0.00000491,0.00000572,-0.0000056
 8,-0.00000099,-0.00000618,-0.00000859,0.00000354,0.00000342,-0.0000022
 5,0.00000436,-0.00000643,-0.00000489,-0.00000491,-0.00000421,-0.000004
 13,0.00000223,0.00082823,-0.00030174,-0.00054130,-0.00312919,0.0006388
 1,0.00758163,-0.00230157,0.00299174,0.00708611,-0.00339313,0.00389136,
 0.00296208,-0.00012073,0.00011999,-0.00016013,-0.00842996,0.00037747,0
 .00152158,-0.00030926,0.00005342,-0.00021408,-0.11520408,0.04296735,-0
 .10438103,0.00192307,-0.00141359,-0.00394988,0.00215109,-0.00081115,-0
 .00375249,0.12790353,-0.04835522,0.09493162||0.00000852,-0.00000222,0.
 00001844,-0.00000144,0.00000292,-0.00000670,-0.00002597,0.00004010,-0.
 00000963,0.00002846,-0.00001689,-0.00005370,0.00001280,-0.00002258,0.0
 0003670,0.00001414,-0.00002869,0.00004722,-0.00000685,0.00000423,-0.00
 000151,0.00001368,-0.00001087,-0.00004184,-0.00000028,0.00000199,-0.00
 000519,-0.00003192,0.00003917,0.00000727,-0.00000163,0.00000339,-0.000
 00302,-0.00000085,0.00000078,0.00000300,0.00000207,-0.00000297,0.00000
 135,-0.00000487,0.00002379,0.00002450,0.00002483,0.00000047,-0.0000216
 0,-0.00003554,-0.00003361,-0.00000970,-0.00002268,-0.00003214,-0.00000
 294,-0.00000313,-0.00000158,0.00000279,0.00003617,0.00000577,-0.000027
 63,0.00000055,-0.00000089,0.00000697,-0.00000518,0.00002907,0.00003329
 ,0.00000335,0.00000374,0.00000054,-0.00000251,0.00000033,0.00000254,0.
 00000145,-0.00000122,-0.00000468,-0.00000627,0.00000458,0.00000370,0.0
 0001358,-0.00001638,0.00000453,-0.00000046,-0.00000071,-0.00000461,-0.
 00001398,-0.00000379,-0.00000939,0.00000070,0.00000432,0.,0.00000278,-
 0.00000136,0.00000577,0.00000058,-0.00000101,0.00000125,-0.00000036,0.
 00001205,0.00000274,0.00000092,0.00000234,0.00000297,0.00000032,-0.000
 00103,-0.00000190,-0.00000098,-0.00000109,-0.00000153|||@


 A warm smile is the universal language of kindness.
                             -- William Arthur Ward
 Job cpu time:  0 days  0 hours  6 minutes 53.0 seconds.
 File lengths (MBytes):  RWF=    350 Int=      0 D2E=      0 Chk=      7 Scr=      1
 Normal termination of Gaussian 09 at Mon Sep 06 15:22:43 2021.
