 Entering Link 1 = b:\programy\g09w\l1.exe PID=     19988.
  
 Copyright (c) 1988,1990,1992,1993,1995,1998,2003,2009, Gaussian, Inc.
                  All Rights Reserved.
  
 This is part of the Gaussian(R) 09 program.  It is based on
 the Gaussian(R) 03 system (copyright 2003, Gaussian, Inc.),
 the Gaussian(R) 98 system (copyright 1998, Gaussian, Inc.),
 the Gaussian(R) 94 system (copyright 1995, Gaussian, Inc.),
 the Gaussian 92(TM) system (copyright 1992, Gaussian, Inc.),
 the Gaussian 90(TM) system (copyright 1990, Gaussian, Inc.),
 the Gaussian 88(TM) system (copyright 1988, Gaussian, Inc.),
 the Gaussian 86(TM) system (copyright 1986, Carnegie Mellon
 University), and the Gaussian 82(TM) system (copyright 1983,
 Carnegie Mellon University). Gaussian is a federally registered
 trademark of Gaussian, Inc.
  
 This software contains proprietary and confidential information,
 including trade secrets, belonging to Gaussian, Inc.
  
 This software is provided under written license and may be
 used, copied, transmitted, or stored only in accord with that
 written license.
  
 The following legend is applicable only to US Government
 contracts under FAR:
  
                    RESTRICTED RIGHTS LEGEND
  
 Use, reproduction and disclosure by the US Government is
 subject to restrictions as set forth in subparagraphs (a)
 and (c) of the Commercial Computer Software - Restricted
 Rights clause in FAR 52.227-19.
  
 Gaussian, Inc.
 340 Quinnipiac St., Bldg. 40, Wallingford CT 06492
  
  
 ---------------------------------------------------------------
 Warning -- This program may not be used in any manner that
 competes with the business of Gaussian, Inc. or will provide
 assistance to any competitor of Gaussian, Inc.  The licensee
 of this program is prohibited from giving any competitor of
 Gaussian, Inc. access to this program.  By using this program,
 the user acknowledges that Gaussian, Inc. is engaged in the
 business of creating and licensing software in the field of
 computational chemistry and represents and warrants to the
 licensee that it is not a competitor of Gaussian, Inc. and that
 it will not use this program in any manner prohibited above.
 ---------------------------------------------------------------
  

 Cite this work as:
 Gaussian 09, Revision A.02,
 M. J. Frisch, G. W. Trucks, H. B. Schlegel, G. E. Scuseria, 
 M. A. Robb, J. R. Cheeseman, G. Scalmani, V. Barone, B. Mennucci, 
 G. A. Petersson, H. Nakatsuji, M. Caricato, X. Li, H. P. Hratchian, 
 A. F. Izmaylov, J. Bloino, G. Zheng, J. L. Sonnenberg, M. Hada, 
 M. Ehara, K. Toyota, R. Fukuda, J. Hasegawa, M. Ishida, T. Nakajima, 
 Y. Honda, O. Kitao, H. Nakai, T. Vreven, J. A. Montgomery, Jr., 
 J. E. Peralta, F. Ogliaro, M. Bearpark, J. J. Heyd, E. Brothers, 
 K. N. Kudin, V. N. Staroverov, R. Kobayashi, J. Normand, 
 K. Raghavachari, A. Rendell, J. C. Burant, S. S. Iyengar, J. Tomasi, 
 M. Cossi, N. Rega, J. M. Millam, M. Klene, J. E. Knox, J. B. Cross, 
 V. Bakken, C. Adamo, J. Jaramillo, R. Gomperts, R. E. Stratmann, 
 O. Yazyev, A. J. Austin, R. Cammi, C. Pomelli, J. W. Ochterski, 
 R. L. Martin, K. Morokuma, V. G. Zakrzewski, G. A. Voth, 
 P. Salvador, J. J. Dannenberg, S. Dapprich, A. D. Daniels, 
 O. Farkas, J. B. Foresman, J. V. Ortiz, J. Cioslowski, 
 and D. J. Fox, Gaussian, Inc., Wallingford CT, 2009.
 
 ******************************************
 Gaussian 09:  IA32W-G09RevA.02 11-Jun-2009
                07-Sep-2021 
 ******************************************
 %nprocshared=12
 Will use up to   12 processors via shared memory.
 ----------------------------------------------
 # opt freq=noraman hf/6-311g geom=connectivity
 ----------------------------------------------
 1/18=20,19=15,38=1,57=2/1,3;
 2/9=110,12=2,17=6,18=5,40=1/2;
 3/5=4,6=6,11=9,16=1,25=1,30=1,71=1/1,2,3;
 4//1;
 5/5=2,38=5/2;
 6/7=2,8=2,9=2,10=2,28=1/1;
 7//1,2,3,16;
 1/18=20,19=15/3(2);
 2/9=110/2;
 99//99;
 2/9=110/2;
 3/5=4,6=6,11=9,16=1,25=1,30=1,71=1/1,2,3;
 4/5=5,16=3/1;
 5/5=2,38=5/2;
 7//1,2,3,16;
 1/18=20,19=15/3(-5);
 2/9=110/2;
 6/7=2,8=2,9=2,10=2,19=2,28=1/1;
 99/9=1/99;
 -----
 M0001
 -----
 Symbolic Z-matrix:
 Charge =  0 Multiplicity = 1
 C                     0.21541   0.73908  -0.07539 
 H                     0.50328   1.81209  -0.24115 
 C                     0.22981   0.49659   1.41297 
 C                    -0.17512  -0.71992   1.96711 
 C                     0.65317   1.52187   2.26194 
 C                    -0.15841  -0.90735   3.34371 
 H                    -0.5199   -1.52504   1.29875 
 C                     0.67014   1.33179   3.63917 
 H                     0.97432   2.48292   1.84287 
 C                     0.26487   0.11795   4.1826 
 H                    -0.48102  -1.86412   3.76688 
 H                     1.00334   2.1416    4.29624 
 H                     0.27764  -0.02995   5.26715 
 C                    -1.17042   0.54013  -0.6409 
 C                    -1.74145  -0.73052  -0.73578 
 C                    -1.89459   1.64795  -1.08631 
 C                    -3.01192  -0.8923   -1.27442 
 H                    -1.17876  -1.59872  -0.36046 
 C                    -3.16732   1.48394  -1.62194 
 H                    -1.46092   2.65225  -1.01404 
 C                    -3.72666   0.21472  -1.71983 
 H                    -3.44983  -1.8931   -1.34657 
 H                    -3.72909   2.35776  -1.96768 
 H                    -4.72746   0.08719  -2.14461 
 C                     1.23509  -0.06231  -0.847 
 C                     1.32486   0.14109  -2.22887 
 C                     2.11279  -0.95708  -0.23727 
 C                     2.26967  -0.54219  -2.98218 
 H                     0.63726   0.84263  -2.71608 
 C                     3.06047  -1.63946  -0.99401 
 H                     2.05959  -1.125     0.84607 
 C                     3.14105  -1.43527  -2.36569 
 H                     2.3288   -0.37696  -4.06283 
 H                     3.74468  -2.33897  -0.50286 
 H                     3.88663  -1.97328  -2.95959 
 

 GradGradGradGradGradGradGradGradGradGradGradGradGradGradGradGradGradGrad
 Berny optimization.
 Initialization pass.
                           ----------------------------
                           !    Initial Parameters    !
                           ! (Angstroms and Degrees)  !
 --------------------------                            --------------------------
 ! Name  Definition              Value          Derivative Info.                !
 --------------------------------------------------------------------------------
 ! R1    R(1,2)                  1.1233         estimate D2E/DX2                !
 ! R2    R(1,3)                  1.5081         estimate D2E/DX2                !
 ! R3    R(1,14)                 1.5099         estimate D2E/DX2                !
 ! R4    R(1,25)                 1.5091         estimate D2E/DX2                !
 ! R5    R(3,4)                  1.3968         estimate D2E/DX2                !
 ! R6    R(3,5)                  1.3968         estimate D2E/DX2                !
 ! R7    R(4,6)                  1.3894         estimate D2E/DX2                !
 ! R8    R(4,7)                  1.1017         estimate D2E/DX2                !
 ! R9    R(5,8)                  1.3904         estimate D2E/DX2                !
 ! R10   R(5,9)                  1.0965         estimate D2E/DX2                !
 ! R11   R(6,10)                 1.3907         estimate D2E/DX2                !
 ! R12   R(6,11)                 1.0948         estimate D2E/DX2                !
 ! R13   R(8,10)                 1.3903         estimate D2E/DX2                !
 ! R14   R(8,12)                 1.0948         estimate D2E/DX2                !
 ! R15   R(10,13)                1.0947         estimate D2E/DX2                !
 ! R16   R(14,15)                1.3963         estimate D2E/DX2                !
 ! R17   R(14,16)                1.3964         estimate D2E/DX2                !
 ! R18   R(15,17)                1.3894         estimate D2E/DX2                !
 ! R19   R(15,18)                1.1006         estimate D2E/DX2                !
 ! R20   R(16,19)                1.3906         estimate D2E/DX2                !
 ! R21   R(16,20)                1.0963         estimate D2E/DX2                !
 ! R22   R(17,21)                1.3909         estimate D2E/DX2                !
 ! R23   R(17,22)                1.0948         estimate D2E/DX2                !
 ! R24   R(19,21)                1.3905         estimate D2E/DX2                !
 ! R25   R(19,23)                1.0948         estimate D2E/DX2                !
 ! R26   R(21,24)                1.0947         estimate D2E/DX2                !
 ! R27   R(25,26)                1.3996         estimate D2E/DX2                !
 ! R28   R(25,27)                1.3938         estimate D2E/DX2                !
 ! R29   R(26,28)                1.3882         estimate D2E/DX2                !
 ! R30   R(26,29)                1.0965         estimate D2E/DX2                !
 ! R31   R(27,30)                1.3915         estimate D2E/DX2                !
 ! R32   R(27,31)                1.0976         estimate D2E/DX2                !
 ! R33   R(28,32)                1.3917         estimate D2E/DX2                !
 ! R34   R(28,33)                1.0948         estimate D2E/DX2                !
 ! R35   R(30,32)                1.3891         estimate D2E/DX2                !
 ! R36   R(30,34)                1.0948         estimate D2E/DX2                !
 ! R37   R(32,35)                1.0946         estimate D2E/DX2                !
 ! A1    A(2,1,3)              107.2655         estimate D2E/DX2                !
 ! A2    A(2,1,14)             107.8077         estimate D2E/DX2                !
 ! A3    A(2,1,25)             104.9907         estimate D2E/DX2                !
 ! A4    A(3,1,14)             110.9291         estimate D2E/DX2                !
 ! A5    A(3,1,25)             114.3802         estimate D2E/DX2                !
 ! A6    A(14,1,25)            111.0195         estimate D2E/DX2                !
 ! A7    A(1,3,4)              121.9262         estimate D2E/DX2                !
 ! A8    A(1,3,5)              118.9933         estimate D2E/DX2                !
 ! A9    A(4,3,5)              119.0794         estimate D2E/DX2                !
 ! A10   A(3,4,6)              120.4694         estimate D2E/DX2                !
 ! A11   A(3,4,7)              119.1124         estimate D2E/DX2                !
 ! A12   A(6,4,7)              120.4139         estimate D2E/DX2                !
 ! A13   A(3,5,8)              120.3567         estimate D2E/DX2                !
 ! A14   A(3,5,9)              119.9863         estimate D2E/DX2                !
 ! A15   A(8,5,9)              119.657          estimate D2E/DX2                !
 ! A16   A(4,6,10)             120.1223         estimate D2E/DX2                !
 ! A17   A(4,6,11)             119.8229         estimate D2E/DX2                !
 ! A18   A(10,6,11)            120.0548         estimate D2E/DX2                !
 ! A19   A(5,8,10)             120.1964         estimate D2E/DX2                !
 ! A20   A(5,8,12)             119.8083         estimate D2E/DX2                !
 ! A21   A(10,8,12)            119.9952         estimate D2E/DX2                !
 ! A22   A(6,10,8)             119.7758         estimate D2E/DX2                !
 ! A23   A(6,10,13)            120.1038         estimate D2E/DX2                !
 ! A24   A(8,10,13)            120.1203         estimate D2E/DX2                !
 ! A25   A(1,14,15)            121.379          estimate D2E/DX2                !
 ! A26   A(1,14,16)            119.399          estimate D2E/DX2                !
 ! A27   A(15,14,16)           119.2209         estimate D2E/DX2                !
 ! A28   A(14,15,17)           120.4148         estimate D2E/DX2                !
 ! A29   A(14,15,18)           119.0532         estimate D2E/DX2                !
 ! A30   A(17,15,18)           120.5219         estimate D2E/DX2                !
 ! A31   A(14,16,19)           120.2608         estimate D2E/DX2                !
 ! A32   A(14,16,20)           120.0371         estimate D2E/DX2                !
 ! A33   A(19,16,20)           119.702          estimate D2E/DX2                !
 ! A34   A(15,17,21)           120.0888         estimate D2E/DX2                !
 ! A35   A(15,17,22)           119.851          estimate D2E/DX2                !
 ! A36   A(21,17,22)           120.0602         estimate D2E/DX2                !
 ! A37   A(16,19,21)           120.196          estimate D2E/DX2                !
 ! A38   A(16,19,23)           119.8109         estimate D2E/DX2                !
 ! A39   A(21,19,23)           119.9931         estimate D2E/DX2                !
 ! A40   A(17,21,19)           119.8174         estimate D2E/DX2                !
 ! A41   A(17,21,24)           120.0872         estimate D2E/DX2                !
 ! A42   A(19,21,24)           120.0953         estimate D2E/DX2                !
 ! A43   A(1,25,26)            118.0981         estimate D2E/DX2                !
 ! A44   A(1,25,27)            122.8687         estimate D2E/DX2                !
 ! A45   A(26,25,27)           118.9994         estimate D2E/DX2                !
 ! A46   A(25,26,28)           120.5239         estimate D2E/DX2                !
 ! A47   A(25,26,29)           119.4354         estimate D2E/DX2                !
 ! A48   A(28,26,29)           120.0398         estimate D2E/DX2                !
 ! A49   A(25,27,30)           120.3811         estimate D2E/DX2                !
 ! A50   A(25,27,31)           119.9653         estimate D2E/DX2                !
 ! A51   A(30,27,31)           119.6535         estimate D2E/DX2                !
 ! A52   A(26,28,32)           120.1068         estimate D2E/DX2                !
 ! A53   A(26,28,33)           119.8758         estimate D2E/DX2                !
 ! A54   A(32,28,33)           120.0173         estimate D2E/DX2                !
 ! A55   A(27,30,32)           120.2924         estimate D2E/DX2                !
 ! A56   A(27,30,34)           119.6668         estimate D2E/DX2                !
 ! A57   A(32,30,34)           120.0408         estimate D2E/DX2                !
 ! A58   A(28,32,30)           119.6958         estimate D2E/DX2                !
 ! A59   A(28,32,35)           120.1027         estimate D2E/DX2                !
 ! A60   A(30,32,35)           120.2014         estimate D2E/DX2                !
 ! D1    D(2,1,3,4)            175.4084         estimate D2E/DX2                !
 ! D2    D(2,1,3,5)             -4.2069         estimate D2E/DX2                !
 ! D3    D(14,1,3,4)            57.9089         estimate D2E/DX2                !
 ! D4    D(14,1,3,5)          -121.7063         estimate D2E/DX2                !
 ! D5    D(25,1,3,4)           -68.5997         estimate D2E/DX2                !
 ! D6    D(25,1,3,5)           111.785          estimate D2E/DX2                !
 ! D7    D(2,1,14,15)          171.9649         estimate D2E/DX2                !
 ! D8    D(2,1,14,16)           -7.6438         estimate D2E/DX2                !
 ! D9    D(3,1,14,15)          -70.8671         estimate D2E/DX2                !
 ! D10   D(3,1,14,16)          109.5242         estimate D2E/DX2                !
 ! D11   D(25,1,14,15)          57.4788         estimate D2E/DX2                !
 ! D12   D(25,1,14,16)        -122.1299         estimate D2E/DX2                !
 ! D13   D(2,1,25,26)          -60.2541         estimate D2E/DX2                !
 ! D14   D(2,1,25,27)          117.611          estimate D2E/DX2                !
 ! D15   D(3,1,25,26)         -177.557          estimate D2E/DX2                !
 ! D16   D(3,1,25,27)            0.3082         estimate D2E/DX2                !
 ! D17   D(14,1,25,26)          55.9812         estimate D2E/DX2                !
 ! D18   D(14,1,25,27)        -126.1536         estimate D2E/DX2                !
 ! D19   D(1,3,4,6)           -179.5498         estimate D2E/DX2                !
 ! D20   D(1,3,4,7)             -0.298          estimate D2E/DX2                !
 ! D21   D(5,3,4,6)              0.0651         estimate D2E/DX2                !
 ! D22   D(5,3,4,7)            179.317          estimate D2E/DX2                !
 ! D23   D(1,3,5,8)            179.6141         estimate D2E/DX2                !
 ! D24   D(1,3,5,9)             -0.3787         estimate D2E/DX2                !
 ! D25   D(4,3,5,8)             -0.0123         estimate D2E/DX2                !
 ! D26   D(4,3,5,9)            179.995          estimate D2E/DX2                !
 ! D27   D(3,4,6,10)            -0.0893         estimate D2E/DX2                !
 ! D28   D(3,4,6,11)           179.809          estimate D2E/DX2                !
 ! D29   D(7,4,6,10)          -179.3314         estimate D2E/DX2                !
 ! D30   D(7,4,6,11)             0.567          estimate D2E/DX2                !
 ! D31   D(3,5,8,10)            -0.0166         estimate D2E/DX2                !
 ! D32   D(3,5,8,12)          -179.9798         estimate D2E/DX2                !
 ! D33   D(9,5,8,10)           179.9762         estimate D2E/DX2                !
 ! D34   D(9,5,8,12)             0.0129         estimate D2E/DX2                !
 ! D35   D(4,6,10,8)             0.0597         estimate D2E/DX2                !
 ! D36   D(4,6,10,13)          179.983          estimate D2E/DX2                !
 ! D37   D(11,6,10,8)         -179.8384         estimate D2E/DX2                !
 ! D38   D(11,6,10,13)           0.0848         estimate D2E/DX2                !
 ! D39   D(5,8,10,6)            -0.007          estimate D2E/DX2                !
 ! D40   D(5,8,10,13)         -179.9302         estimate D2E/DX2                !
 ! D41   D(12,8,10,6)          179.9562         estimate D2E/DX2                !
 ! D42   D(12,8,10,13)           0.033          estimate D2E/DX2                !
 ! D43   D(1,14,15,17)        -179.2205         estimate D2E/DX2                !
 ! D44   D(1,14,15,18)           1.9312         estimate D2E/DX2                !
 ! D45   D(16,14,15,17)          0.3889         estimate D2E/DX2                !
 ! D46   D(16,14,15,18)       -178.4594         estimate D2E/DX2                !
 ! D47   D(1,14,16,19)         179.3912         estimate D2E/DX2                !
 ! D48   D(1,14,16,20)          -0.6533         estimate D2E/DX2                !
 ! D49   D(15,14,16,19)         -0.2261         estimate D2E/DX2                !
 ! D50   D(15,14,16,20)        179.7294         estimate D2E/DX2                !
 ! D51   D(14,15,17,21)         -0.2101         estimate D2E/DX2                !
 ! D52   D(14,15,17,22)        179.8556         estimate D2E/DX2                !
 ! D53   D(18,15,17,21)        178.6212         estimate D2E/DX2                !
 ! D54   D(18,15,17,22)         -1.3131         estimate D2E/DX2                !
 ! D55   D(14,16,19,21)         -0.1156         estimate D2E/DX2                !
 ! D56   D(14,16,19,23)        179.9187         estimate D2E/DX2                !
 ! D57   D(20,16,19,21)        179.9287         estimate D2E/DX2                !
 ! D58   D(20,16,19,23)         -0.037          estimate D2E/DX2                !
 ! D59   D(15,17,21,19)         -0.1349         estimate D2E/DX2                !
 ! D60   D(15,17,21,24)        179.9734         estimate D2E/DX2                !
 ! D61   D(22,17,21,19)        179.7992         estimate D2E/DX2                !
 ! D62   D(22,17,21,24)         -0.0925         estimate D2E/DX2                !
 ! D63   D(16,19,21,17)          0.2973         estimate D2E/DX2                !
 ! D64   D(16,19,21,24)       -179.811          estimate D2E/DX2                !
 ! D65   D(23,19,21,17)       -179.737          estimate D2E/DX2                !
 ! D66   D(23,19,21,24)          0.1547         estimate D2E/DX2                !
 ! D67   D(1,25,26,28)         178.2336         estimate D2E/DX2                !
 ! D68   D(1,25,26,29)          -2.112          estimate D2E/DX2                !
 ! D69   D(27,25,26,28)          0.2837         estimate D2E/DX2                !
 ! D70   D(27,25,26,29)        179.9381         estimate D2E/DX2                !
 ! D71   D(1,25,27,30)        -178.0326         estimate D2E/DX2                !
 ! D72   D(1,25,27,31)           1.8568         estimate D2E/DX2                !
 ! D73   D(26,25,27,30)         -0.1858         estimate D2E/DX2                !
 ! D74   D(26,25,27,31)        179.7036         estimate D2E/DX2                !
 ! D75   D(25,26,28,32)         -0.1986         estimate D2E/DX2                !
 ! D76   D(25,26,28,33)        179.837          estimate D2E/DX2                !
 ! D77   D(29,26,28,32)       -179.8509         estimate D2E/DX2                !
 ! D78   D(29,26,28,33)          0.1848         estimate D2E/DX2                !
 ! D79   D(25,27,30,32)          0.0032         estimate D2E/DX2                !
 ! D80   D(25,27,30,34)        179.9473         estimate D2E/DX2                !
 ! D81   D(31,27,30,32)       -179.8865         estimate D2E/DX2                !
 ! D82   D(31,27,30,34)          0.0576         estimate D2E/DX2                !
 ! D83   D(26,28,32,30)          0.0125         estimate D2E/DX2                !
 ! D84   D(26,28,32,35)       -179.9416         estimate D2E/DX2                !
 ! D85   D(33,28,32,30)        179.9767         estimate D2E/DX2                !
 ! D86   D(33,28,32,35)          0.0227         estimate D2E/DX2                !
 ! D87   D(27,30,32,28)          0.085          estimate D2E/DX2                !
 ! D88   D(27,30,32,35)       -179.961          estimate D2E/DX2                !
 ! D89   D(34,30,32,28)       -179.8589         estimate D2E/DX2                !
 ! D90   D(34,30,32,35)          0.0951         estimate D2E/DX2                !
 --------------------------------------------------------------------------------
 Trust Radius=3.00D-01 FncErr=1.00D-07 GrdErr=1.00D-07
 Number of steps in this run= 197 maximum allowed number of steps= 210.
 GradGradGradGradGradGradGradGradGradGradGradGradGradGradGradGradGradGrad

                          Input orientation:                          
 ---------------------------------------------------------------------
 Center     Atomic      Atomic             Coordinates (Angstroms)
 Number     Number       Type             X           Y           Z
 ---------------------------------------------------------------------
      1          6           0        0.215406    0.739083   -0.075393
      2          1           0        0.503284    1.812091   -0.241149
      3          6           0        0.229807    0.496591    1.412973
      4          6           0       -0.175120   -0.719924    1.967107
      5          6           0        0.653172    1.521868    2.261941
      6          6           0       -0.158411   -0.907355    3.343712
      7          1           0       -0.519902   -1.525040    1.298746
      8          6           0        0.670143    1.331795    3.639167
      9          1           0        0.974321    2.482917    1.842866
     10          6           0        0.264866    0.117949    4.182601
     11          1           0       -0.481024   -1.864119    3.766881
     12          1           0        1.003341    2.141604    4.296242
     13          1           0        0.277645   -0.029953    5.267152
     14          6           0       -1.170422    0.540133   -0.640902
     15          6           0       -1.741446   -0.730524   -0.735779
     16          6           0       -1.894593    1.647946   -1.086310
     17          6           0       -3.011923   -0.892299   -1.274423
     18          1           0       -1.178757   -1.598722   -0.360457
     19          6           0       -3.167322    1.483942   -1.621943
     20          1           0       -1.460918    2.652251   -1.014038
     21          6           0       -3.726658    0.214722   -1.719829
     22          1           0       -3.449831   -1.893097   -1.346573
     23          1           0       -3.729094    2.357758   -1.967677
     24          1           0       -4.727455    0.087186   -2.144610
     25          6           0        1.235086   -0.062308   -0.847004
     26          6           0        1.324861    0.141094   -2.228871
     27          6           0        2.112792   -0.957082   -0.237265
     28          6           0        2.269667   -0.542194   -2.982181
     29          1           0        0.637257    0.842627   -2.716080
     30          6           0        3.060466   -1.639455   -0.994006
     31          1           0        2.059594   -1.124999    0.846075
     32          6           0        3.141055   -1.435268   -2.365690
     33          1           0        2.328801   -0.376964   -4.062832
     34          1           0        3.744679   -2.338968   -0.502864
     35          1           0        3.886633   -1.973283   -2.959590
 ---------------------------------------------------------------------
                    Distance matrix (angstroms):
                    1          2          3          4          5
     1  C    0.000000
     2  H    1.123252   0.000000
     3  C    1.508059   2.131068   0.000000
     4  C    2.540278   3.427495   1.396760   0.000000
     5  C    2.503501   2.524313   1.396845   2.408033   0.000000
     6  C    3.813236   4.548016   2.418580   1.389407   2.780291
     7  H    2.748670   3.815052   2.159190   1.101723   3.404041
     8  C    3.788937   3.913487   2.418140   2.778453   1.390384
     9  H    2.701227   2.239421   2.164394   3.405119   1.096529
    10  C    4.303343   4.743050   2.795610   2.409156   2.410540
    11  H    4.693053   5.526996   3.408682   2.154518   3.875068
    12  H    4.658229   4.576741   3.408469   3.873239   2.155243
    13  H    5.397969   5.812523   3.890274   3.401670   3.403008
    14  C    1.509935   2.139853   2.486149   3.062691   3.565921
    15  C    2.534783   3.427588   3.163666   3.123953   4.449021
    16  C    2.509997   2.547754   3.476364   4.229272   4.209250
    17  C    3.809821   4.553906   4.433952   4.310995   5.636222
    18  H    2.736839   3.804884   3.085360   2.682746   4.468894
    19  C    3.793348   3.935431   4.661123   5.166389   5.448134
    20  H    2.711334   2.271853   3.660028   4.681032   4.059455
    21  C    4.303370   4.757151   5.054455   5.203891   6.061851
    22  H    4.688095   5.529692   5.183188   4.804221   6.443446
    23  H    4.664754   4.603441   5.528620   6.130691   6.147572
    24  H    5.398010   5.827443   6.115428   6.187196   7.101208
    25  C    1.509092   2.101419   2.535833   3.215643   3.537481
    26  C    2.495185   2.723647   3.819495   4.538449   4.746060
    27  C    2.550147   3.202944   2.895183   3.185913   3.810736
    28  C    3.782998   4.021942   4.955551   5.523045   5.862953
    29  H    2.676174   2.661407   4.163512   5.003375   5.024172
    30  C    3.820426   4.361094   4.285892   4.481377   5.137140
    31  H    2.779376   3.497235   2.509790   2.532735   3.314906
    32  C    4.304960   4.692211   5.146429   5.502896   6.029028
    33  H    4.648835   4.767570   5.929023   6.538150   6.812932
    34  H    4.702435   5.273180   4.905624   4.907840   5.666358
    35  H    5.399391   5.758995   6.212242   6.507003   7.066521
                    6          7          8          9         10
     6  C    0.000000
     7  H    2.166586   0.000000
     8  C    2.405740   3.880113   0.000000
     9  H    3.876798   4.311900   2.155064   0.000000
    10  C    1.390736   3.410556   1.390320   3.401581   0.000000
    11  H    1.094783   2.491622   3.399318   4.971577   2.158187
    12  H    3.398990   4.974890   1.094788   2.477174   2.157182
    13  H    2.158611   4.315045   2.158413   4.304138   1.094664
    14  C    4.358501   2.906948   4.725822   3.813586   5.050195
    15  C    4.379442   2.502542   5.404541   4.934673   5.379187
    16  C    5.400832   4.200727   5.385903   4.184246   5.896234
    17  C    5.428621   3.637544   6.530511   6.082740   6.444925
    18  H    3.903839   1.786749   5.291819   5.113722   5.066595
    19  C    6.279297   4.959156   6.513721   5.491454   6.880304
    20  H    5.775578   4.866645   5.285578   3.757787   6.033744
    21  C    6.295307   4.735171   7.021292   6.319550   7.126030
    22  H    5.814113   3.964551   7.227151   6.992507   6.958092
    23  H    7.184817   6.003711   7.200179   6.054587   7.667749
    24  H    7.210198   5.670932   8.008445   7.358651   8.059641
    25  C    4.496447   3.134296   4.731639   3.712354   5.125499
    26  C    5.861144   4.315464   6.023312   4.710208   6.498545
    27  C    4.240782   3.100481   4.727253   4.178116   4.909760
    28  C    6.785707   5.203270   7.064882   5.840402   7.469211
    29  H    6.357405   4.802467   6.374129   4.856763   6.946627
    30  C    5.450957   4.253097   6.000688   5.421605   6.140123
    31  H    3.347402   2.649291   3.970865   3.897238   3.987276
    32  C    6.615318   5.180613   7.058353   6.144823   7.318815
    33  H    7.830991   6.178972   8.061748   6.700060   8.514219
    34  H    5.663901   4.700524   6.331168   6.035554   6.332387
    35  H    7.565064   6.144257   8.050648   7.169579   8.276553
                   11         12         13         14         15
    11  H    0.000000
    12  H    4.304576   0.000000
    13  H    2.488083   2.486957   0.000000
    14  C    5.067963   5.627197   6.109582   0.000000
    15  C    4.811200   6.411256   6.372025   1.396294   0.000000
    16  C    6.155180   6.132992   6.921014   1.396446   2.409034
    17  C    5.724040   7.507278   7.372727   2.417506   1.389396
    18  H    4.194304   6.358965   6.020974   2.157178   1.100570
    19  C    6.889495   7.269929   7.849797   2.416781   2.778897
    20  H    6.649434   5.876428   7.047706   2.164408   3.405772
    21  C    6.705200   7.891697   8.056812   2.793621   2.408923
    22  H    5.912874   8.243235   7.817081   3.407974   2.154815
    23  H    7.826836   7.853620   8.608012   3.407477   3.873732
    24  H    7.535615   8.862688   8.944214   3.888288   3.401426
    25  C    5.242089   5.600349   6.188752   2.488349   3.052643
    26  C    6.575039   6.832460   7.570751   2.984513   3.520125
    27  C    4.856314   5.602270   5.875878   3.630987   3.892942
    28  C    7.406999   7.860140   8.501885   4.299679   4.601176
    29  H    7.113776   7.141009   8.038825   2.768677   3.471977
    30  C    5.937901   6.820183   7.038231   4.772389   4.893996
    31  H    3.941084   4.867239   4.890848   3.926419   4.135913
    32  C    7.135250   7.857809   8.272503   5.046379   5.195391
    33  H    8.450512   8.830297   9.559093   4.979481   5.268890
    34  H    6.026008   7.114905   7.116528   5.697938   5.721793
    35  H    8.020832   8.825688   9.191333   6.104701   6.177788
                   16         17         18         19         20
    16  C    0.000000
    17  C    2.781486   0.000000
    18  H    3.402960   2.166764   0.000000
    19  C    1.390554   2.406542   3.879247   0.000000
    20  H    1.096323   3.877790   4.310169   2.155530   0.000000
    21  C    2.410797   1.390945   3.410025   1.390453   3.401950
    22  H    3.876273   1.094790   2.493363   3.400005   4.972579
    23  H    2.155467   3.399677   4.974044   1.094839   2.478059
    24  H    3.403099   2.158626   4.314944   2.158269   4.304418
    25  C    3.574510   4.348409   2.902402   4.729970   3.829512
    26  C    3.733756   4.559229   3.575757   4.727718   3.942372
    27  C    4.854501   5.229015   3.355768   5.979593   5.138293
    28  C    5.072682   5.561853   4.458848   5.959558   5.291062
    29  H    3.116882   4.290089   3.847994   4.010392   3.251772
    30  C    5.947111   6.124605   4.286497   6.995375   6.233944
    31  H    5.201820   5.501904   3.488130   6.341793   5.488318
    32  C    6.041587   6.272545   4.765339   6.990749   6.301819
    33  H    5.549504   6.046828   5.244353   6.295099   5.730031
    34  H    6.930893   6.952685   4.980810   7.977640   7.229924
    35  H    7.074252   7.183202   5.705608   7.968688   7.333283
                   21         22         23         24         25
    21  C    0.000000
    22  H    2.158438   0.000000
    23  H    2.157322   4.305059   0.000000
    24  H    1.094669   2.488113   2.486670   0.000000
    25  C    5.045540   5.054682   5.635221   6.103935   0.000000
    26  C    5.077636   5.264415   5.524879   6.053143   1.399638
    27  C    6.137613   5.748866   6.936146   7.177565   1.393833
    28  C    6.174331   6.100230   6.739739   7.075123   2.420667
    29  H    4.520014   5.105294   4.681960   5.447697   2.160961
    30  C    7.073177   6.524769   7.938758   8.059584   2.416819
    31  H    6.469886   5.979251   7.318176   7.515159   2.162323
    32  C    7.092607   6.684907   7.857761   8.017493   2.797167
    33  H    6.519841   6.562721   6.968965   7.327056   3.411271
    34  H    7.988943   7.257522   8.947748   8.964296   3.405829
    35  H    8.017890   7.512120   8.817092   8.894506   3.891728
                   26         27         28         29         30
    26  C    0.000000
    27  C    2.406931   0.000000
    28  C    1.388171   2.780522   0.000000
    29  H    1.096504   3.400099   2.157152   0.000000
    30  C    2.776251   1.391537   2.404618   3.872753   0.000000
    31  H    3.405600   1.097567   3.878058   4.310863   2.156921
    32  C    2.408775   2.411675   1.391747   3.403026   1.389138
    33  H    2.153994   3.875326   1.094808   2.482431   3.398075
    34  H    3.871088   2.154810   3.398686   4.967589   1.094845
    35  H    3.401061   3.404442   2.159422   4.306633   2.158127
                   31         32         33         34         35
    31  H    0.000000
    32  C    3.403125   0.000000
    33  H    4.972866   2.158716   0.000000
    34  H    2.476463   2.156653   4.304363   0.000000
    35  H    4.305896   1.094561   2.488417   2.487846   0.000000
 Stoichiometry    C19H16
 Framework group  C1[X(C19H16)]
 Deg. of freedom    99
 Full point group                 C1      NOp   1
 Largest Abelian subgroup         C1      NOp   1
 Largest concise Abelian subgroup C1      NOp   1
                         Standard orientation:                         
 ---------------------------------------------------------------------
 Center     Atomic      Atomic             Coordinates (Angstroms)
 Number     Number       Type             X           Y           Z
 ---------------------------------------------------------------------
      1          6           0       -0.016394    0.011594   -0.759022
      2          1           0        0.015769    0.011028   -1.881813
      3          6           0       -1.468056   -0.032139   -0.352810
      4          6           0       -1.858082   -0.137141    0.984273
      5          6           0       -2.450544    0.026187   -1.344017
      6          6           0       -3.204542   -0.184312    1.323791
      7          1           0       -1.083514   -0.194625    1.765639
      8          6           0       -3.797402   -0.020070   -1.001962
      9          1           0       -2.161058    0.108796   -2.398412
     10          6           0       -4.177051   -0.125244    0.331378
     11          1           0       -3.498315   -0.269824    2.374949
     12          1           0       -4.559948    0.025969   -1.786159
     13          1           0       -5.237788   -0.162713    0.599190
     14          6           0        0.716253   -1.216939   -0.275454
     15          6           0        0.991924   -1.412885    1.079260
     16          6           0        1.134803   -2.174455   -1.201758
     17          6           0        1.681665   -2.543065    1.500414
     18          1           0        0.638470   -0.669296    1.809602
     19          6           0        1.822023   -3.306442   -0.777524
     20          1           0        0.921576   -2.036289   -2.268233
     21          6           0        2.099234   -3.491317    0.572415
     22          1           0        1.894919   -2.686250    2.564644
     23          1           0        2.145579   -4.053121   -1.509956
     24          1           0        2.643043   -4.381532    0.904212
     25          6           0        0.707723    1.270326   -0.348408
     26          6           0        2.046022    1.415742   -0.731549
     27          6           0        0.089654    2.303847    0.353443
     28          6           0        2.749413    2.569185   -0.412444
     29          1           0        2.539604    0.606709   -1.283060
     30          6           0        0.796033    3.460077    0.670518
     31          1           0       -0.960662    2.208615    0.657448
     32          6           0        2.125209    3.595626    0.290228
     33          1           0        3.796655    2.670614   -0.715096
     34          1           0        0.298750    4.264985    1.221443
     35          1           0        2.679611    4.505478    0.540972
 ---------------------------------------------------------------------
 Rotational constants (GHZ):      0.4051518      0.3784307      0.2333928
 Standard basis: 6-311G (5D, 7F)
 There are   295 symmetry adapted basis functions of A   symmetry.
 Integral buffers will be    262144 words long.
 Raffenetti 1 integral format.
 Two-electron integral symmetry is turned on.
   295 basis functions,   574 primitive gaussians,   295 cartesian basis functions
    65 alpha electrons       65 beta electrons
       nuclear repulsion energy      1290.2375671942 Hartrees.
 NAtoms=   35 NActive=   35 NUniq=   35 SFac= 7.50D-01 NAtFMM=   80 NAOKFM=F Big=F
 One-electron integrals computed using PRISM.
 PrsmSu:  requested number of processors reduced to:  10 ShMem   1 Linda.
 NBasis=   295 RedAO= T  NBF=   295
 NBsUse=   295 1.00D-06 NBFU=   295
 Harris functional with IExCor=  205 diagonalized for initial guess.
 ExpMin= 1.03D-01 ExpMax= 4.56D+03 ExpMxC= 6.82D+02 IAcc=1 IRadAn=         1 AccDes= 0.00D+00
 HarFok:  IExCor=  205 AccDes= 0.00D+00 IRadAn=         1 IDoV= 1
 ScaDFX=  1.000000  1.000000  1.000000  1.000000
 FoFCou: FMM=F IPFlag=           0 FMFlag=      100000 FMFlg1=           0
         NFxFlg=           0 DoJE=T BraDBF=F KetDBF=T FulRan=T
         Omega=  0.000000  0.000000  1.000000  0.000000  0.000000 ICntrl=     500 IOpCl=  0
         NMat0=    1 NMatS0=    1 NMatT0=    0 NMatD0=    1 NMtDS0=    0 NMtDT0=    0
         I1Cent=           4 NGrid=           0.
 Petite list used in FoFCou.
 Initial guess orbital symmetries:
       Occupied  (A) (A) (A) (A) (A) (A) (A) (A) (A) (A) (A) (A)
                 (A) (A) (A) (A) (A) (A) (A) (A) (A) (A) (A) (A)
                 (A) (A) (A) (A) (A) (A) (A) (A) (A) (A) (A) (A)
                 (A) (A) (A) (A) (A) (A) (A) (A) (A) (A) (A) (A)
                 (A) (A) (A) (A) (A) (A) (A) (A) (A) (A) (A) (A)
                 (A) (A) (A) (A) (A)
       Virtual   (A) (A) (A) (A) (A) (A) (A) (A) (A) (A) (A) (A)
                 (A) (A) (A) (A) (A) (A) (A) (A) (A) (A) (A) (A)
                 (A) (A) (A) (A) (A) (A) (A) (A) (A) (A) (A) (A)
                 (A) (A) (A) (A) (A) (A) (A) (A) (A) (A) (A) (A)
                 (A) (A) (A) (A) (A) (A) (A) (A) (A) (A) (A) (A)
                 (A) (A) (A) (A) (A) (A) (A) (A) (A) (A) (A) (A)
                 (A) (A) (A) (A) (A) (A) (A) (A) (A) (A) (A) (A)
                 (A) (A) (A) (A) (A) (A) (A) (A) (A) (A) (A) (A)
                 (A) (A) (A) (A) (A) (A) (A) (A) (A) (A) (A) (A)
                 (A) (A) (A) (A) (A) (A) (A) (A) (A) (A) (A) (A)
                 (A) (A) (A) (A) (A) (A) (A) (A) (A) (A) (A) (A)
                 (A) (A) (A) (A) (A) (A) (A) (A) (A) (A) (A) (A)
                 (A) (A) (A) (A) (A) (A) (A) (A) (A) (A) (A) (A)
                 (A) (A) (A) (A) (A) (A) (A) (A) (A) (A) (A) (A)
                 (A) (A) (A) (A) (A) (A) (A) (A) (A) (A) (A) (A)
                 (A) (A) (A) (A) (A) (A) (A) (A) (A) (A) (A) (A)
                 (A) (A) (A) (A) (A) (A) (A) (A) (A) (A) (A) (A)
                 (A) (A) (A) (A) (A) (A) (A) (A) (A) (A) (A) (A)
                 (A) (A) (A) (A) (A) (A) (A) (A) (A) (A) (A) (A)
                 (A) (A)
 The electronic state of the initial guess is 1-A.
 Requested convergence on RMS density matrix=1.00D-08 within 128 cycles.
 Requested convergence on MAX density matrix=1.00D-06.
 Requested convergence on             energy=1.00D-06.
 No special actions if energy rises.
 Integral accuracy reduced to 1.0D-05 until final iterations.
 Initial convergence to 1.0D-05 achieved.  Increase integral accuracy.
 SCF Done:  E(RHF) =  -728.672334237     A.U. after   14 cycles
             Convg  =    0.8032D-08             -V/T =  2.0001

 **********************************************************************

            Population analysis using the SCF density.

 **********************************************************************

 Orbital symmetries:
       Occupied  (A) (A) (A) (A) (A) (A) (A) (A) (A) (A) (A) (A)
                 (A) (A) (A) (A) (A) (A) (A) (A) (A) (A) (A) (A)
                 (A) (A) (A) (A) (A) (A) (A) (A) (A) (A) (A) (A)
                 (A) (A) (A) (A) (A) (A) (A) (A) (A) (A) (A) (A)
                 (A) (A) (A) (A) (A) (A) (A) (A) (A) (A) (A) (A)
                 (A) (A) (A) (A) (A)
       Virtual   (A) (A) (A) (A) (A) (A) (A) (A) (A) (A) (A) (A)
                 (A) (A) (A) (A) (A) (A) (A) (A) (A) (A) (A) (A)
                 (A) (A) (A) (A) (A) (A) (A) (A) (A) (A) (A) (A)
                 (A) (A) (A) (A) (A) (A) (A) (A) (A) (A) (A) (A)
                 (A) (A) (A) (A) (A) (A) (A) (A) (A) (A) (A) (A)
                 (A) (A) (A) (A) (A) (A) (A) (A) (A) (A) (A) (A)
                 (A) (A) (A) (A) (A) (A) (A) (A) (A) (A) (A) (A)
                 (A) (A) (A) (A) (A) (A) (A) (A) (A) (A) (A) (A)
                 (A) (A) (A) (A) (A) (A) (A) (A) (A) (A) (A) (A)
                 (A) (A) (A) (A) (A) (A) (A) (A) (A) (A) (A) (A)
                 (A) (A) (A) (A) (A) (A) (A) (A) (A) (A) (A) (A)
                 (A) (A) (A) (A) (A) (A) (A) (A) (A) (A) (A) (A)
                 (A) (A) (A) (A) (A) (A) (A) (A) (A) (A) (A) (A)
                 (A) (A) (A) (A) (A) (A) (A) (A) (A) (A) (A) (A)
                 (A) (A) (A) (A) (A) (A) (A) (A) (A) (A) (A) (A)
                 (A) (A) (A) (A) (A) (A) (A) (A) (A) (A) (A) (A)
                 (A) (A) (A) (A) (A) (A) (A) (A) (A) (A) (A) (A)
                 (A) (A) (A) (A) (A) (A) (A) (A) (A) (A) (A) (A)
                 (A) (A) (A) (A) (A) (A) (A) (A) (A) (A) (A) (A)
                 (A) (A)
 The electronic state is 1-A.
 Alpha  occ. eigenvalues --  -11.25773 -11.25243 -11.25195 -11.24952 -11.24520
 Alpha  occ. eigenvalues --  -11.24429 -11.24413 -11.24361 -11.24218 -11.24164
 Alpha  occ. eigenvalues --  -11.24137 -11.24109 -11.24074 -11.24065 -11.24018
 Alpha  occ. eigenvalues --  -11.23994 -11.23743 -11.23683 -11.23509  -1.18611
 Alpha  occ. eigenvalues --   -1.15872  -1.15588  -1.09029  -1.02387  -1.02226
 Alpha  occ. eigenvalues --   -1.01878  -1.01489  -1.01137  -0.92924  -0.84328
 Alpha  occ. eigenvalues --   -0.83298  -0.82391  -0.81850  -0.81205  -0.77608
 Alpha  occ. eigenvalues --   -0.70851  -0.70382  -0.68989  -0.65743  -0.63866
 Alpha  occ. eigenvalues --   -0.63594  -0.62485  -0.61735  -0.61644  -0.59690
 Alpha  occ. eigenvalues --   -0.58851  -0.58477  -0.58336  -0.56970  -0.54836
 Alpha  occ. eigenvalues --   -0.51723  -0.50964  -0.50303  -0.49821  -0.49377
 Alpha  occ. eigenvalues --   -0.48490  -0.47871  -0.47536  -0.46367  -0.34965
 Alpha  occ. eigenvalues --   -0.34311  -0.33886  -0.33354  -0.32768  -0.31353
 Alpha virt. eigenvalues --    0.11489   0.12266   0.12898   0.13672   0.14883
 Alpha virt. eigenvalues --    0.14968   0.15506   0.16241   0.16462   0.16952
 Alpha virt. eigenvalues --    0.18913   0.19159   0.19235   0.21261   0.21321
 Alpha virt. eigenvalues --    0.21554   0.23585   0.23972   0.25071   0.25474
 Alpha virt. eigenvalues --    0.27226   0.30916   0.33395   0.34284   0.35774
 Alpha virt. eigenvalues --    0.37459   0.39826   0.40259   0.41610   0.43230
 Alpha virt. eigenvalues --    0.44107   0.44417   0.44811   0.45435   0.45655
 Alpha virt. eigenvalues --    0.45890   0.46817   0.47097   0.48263   0.50484
 Alpha virt. eigenvalues --    0.51207   0.51483   0.51831   0.54845   0.55929
 Alpha virt. eigenvalues --    0.57336   0.57825   0.58445   0.59087   0.59527
 Alpha virt. eigenvalues --    0.59953   0.60393   0.60706   0.61225   0.61452
 Alpha virt. eigenvalues --    0.62107   0.62330   0.62884   0.63698   0.63847
 Alpha virt. eigenvalues --    0.64385   0.64556   0.65184   0.65908   0.66321
 Alpha virt. eigenvalues --    0.67153   0.67813   0.68647   0.70038   0.72308
 Alpha virt. eigenvalues --    0.73191   0.73842   0.73962   0.75051   0.75772
 Alpha virt. eigenvalues --    0.76610   0.78793   0.79267   0.79649   0.81421
 Alpha virt. eigenvalues --    0.81622   0.82169   0.82502   0.82988   0.83098
 Alpha virt. eigenvalues --    0.83793   0.84298   0.84638   0.84685   0.85448
 Alpha virt. eigenvalues --    0.86038   0.86272   0.86518   0.87588   0.88250
 Alpha virt. eigenvalues --    0.90149   0.90787   0.92384   0.93123   0.94615
 Alpha virt. eigenvalues --    0.96095   0.96604   0.97102   0.98194   0.99404
 Alpha virt. eigenvalues --    0.99711   1.02359   1.03066   1.04384   1.06142
 Alpha virt. eigenvalues --    1.06938   1.08438   1.08855   1.09931   1.10535
 Alpha virt. eigenvalues --    1.11002   1.11829   1.12531   1.12655   1.13931
 Alpha virt. eigenvalues --    1.14768   1.16771   1.18748   1.20710   1.21027
 Alpha virt. eigenvalues --    1.24051   1.25648   1.27192   1.28613   1.29007
 Alpha virt. eigenvalues --    1.29267   1.32660   1.33935   1.46365   1.47395
 Alpha virt. eigenvalues --    1.52375   1.53984   1.57554   2.53718   2.55665
 Alpha virt. eigenvalues --    2.56297   2.57824   2.62081   2.62188   2.64018
 Alpha virt. eigenvalues --    2.66097   2.67534   2.68538   2.71680   2.74448
 Alpha virt. eigenvalues --    2.78285   2.83664   2.86320   2.91043   2.94338
 Alpha virt. eigenvalues --    2.94541   2.94742   2.96108   2.97916   2.98448
 Alpha virt. eigenvalues --    3.00192   3.02080   3.03800   3.04765   3.06388
 Alpha virt. eigenvalues --    3.08535   3.08909   3.09494   3.10160   3.13205
 Alpha virt. eigenvalues --    3.15305   3.16322   3.17683   3.18254   3.19365
 Alpha virt. eigenvalues --    3.21658   3.24244   3.25364   3.27573   3.28720
 Alpha virt. eigenvalues --    3.31124   3.33826   3.34103   3.35613   3.41421
 Alpha virt. eigenvalues --    3.41810   3.44303   3.45124   3.50018   3.51962
 Alpha virt. eigenvalues --    3.53270   3.55644   3.57311   3.58364   3.59984
 Alpha virt. eigenvalues --    3.62133   3.64425   3.64864   3.66016   3.66307
 Alpha virt. eigenvalues --    3.67635   3.69289   3.71312   3.72789   3.73535
 Alpha virt. eigenvalues --    3.75560   3.76913   3.78976   3.85241   3.87669
 Alpha virt. eigenvalues --    3.91420  24.25829  24.30140  24.31898  24.50451
 Alpha virt. eigenvalues --   24.50822  24.51029  24.53362  24.54544  24.56562
 Alpha virt. eigenvalues --   24.76542  24.77174  24.79128  24.80174  24.80561
 Alpha virt. eigenvalues --   24.82507  24.86696  25.04783  25.05836  25.07075
          Condensed to atoms (all electrons):
              1          2          3          4          5          6
     1  C    6.056585   0.474728   0.125258  -0.066354  -0.027307   0.002020
     2  H    0.474728   0.505861  -0.077608   0.004479   0.006542  -0.000228
     3  C    0.125258  -0.077608   5.386505   0.450267   0.501660  -0.065776
     4  C   -0.066354   0.004479   0.450267   5.105058  -0.061824   0.479172
     5  C   -0.027307   0.006542   0.501660  -0.061824   5.041820  -0.034695
     6  C    0.002020  -0.000228  -0.065776   0.479172  -0.034695   5.048633
     7  H    0.001269  -0.000072  -0.049207   0.386298   0.004639  -0.026629
     8  C    0.008376   0.001487  -0.076837  -0.029943   0.470077  -0.076838
     9  H   -0.002077   0.002788  -0.045004   0.004776   0.393878  -0.000308
    10  C    0.001743   0.000001  -0.015933  -0.093772  -0.088760   0.490278
    11  H   -0.000364   0.000012   0.005977  -0.038399  -0.000366   0.396894
    12  H   -0.000420  -0.000033   0.007091  -0.000629  -0.039577   0.006285
    13  H   -0.000025  -0.000002  -0.001664   0.007996   0.007548  -0.042904
    14  C    0.157791  -0.071256  -0.133492  -0.003653  -0.003610   0.001990
    15  C   -0.053248   0.005804  -0.004487  -0.012966   0.000661  -0.000103
    16  C   -0.024687   0.000974  -0.001359   0.000592   0.000588   0.000049
    17  C    0.002795  -0.000272   0.001907  -0.000658   0.000030  -0.000102
    18  H    0.000638   0.000128  -0.002711  -0.001306  -0.000196   0.000826
    19  C    0.006886   0.001614  -0.000511   0.000143  -0.000017   0.000001
    20  H    0.000051   0.002239   0.000422  -0.000004   0.000251   0.000000
    21  C    0.001255  -0.000003  -0.000084  -0.000017  -0.000007   0.000002
    22  H   -0.000341   0.000011   0.000025   0.000054   0.000000   0.000002
    23  H   -0.000341  -0.000039   0.000025   0.000000   0.000001   0.000000
    24  H   -0.000011  -0.000001  -0.000003   0.000000   0.000000   0.000000
    25  C    0.049909  -0.062849  -0.069695   0.005787  -0.001085   0.000996
    26  C   -0.084328  -0.005102   0.011137   0.000561  -0.000199   0.000018
    27  C   -0.026130   0.001893  -0.012184  -0.016322   0.000909  -0.001461
    28  C    0.007324   0.000873  -0.000875  -0.000015   0.000007   0.000000
    29  H   -0.000727  -0.000134   0.000873  -0.000042  -0.000004   0.000000
    30  C    0.011384  -0.000164  -0.001169  -0.000746  -0.000123  -0.000040
    31  H   -0.010340  -0.000272  -0.000041  -0.001449  -0.001301   0.000710
    32  C    0.000540   0.000022   0.000109  -0.000024  -0.000004   0.000000
    33  H   -0.000353   0.000000   0.000012   0.000000   0.000000   0.000000
    34  H   -0.000356   0.000015   0.000057   0.000034   0.000004  -0.000001
    35  H   -0.000014  -0.000002   0.000000   0.000001   0.000000   0.000000
              7          8          9         10         11         12
     1  C    0.001269   0.008376  -0.002077   0.001743  -0.000364  -0.000420
     2  H   -0.000072   0.001487   0.002788   0.000001   0.000012  -0.000033
     3  C   -0.049207  -0.076837  -0.045004  -0.015933   0.005977   0.007091
     4  C    0.386298  -0.029943   0.004776  -0.093772  -0.038399  -0.000629
     5  C    0.004639   0.470077   0.393878  -0.088760  -0.000366  -0.039577
     6  C   -0.026629  -0.076838  -0.000308   0.490278   0.396894   0.006285
     7  H    0.497458  -0.000166  -0.000265   0.004687  -0.003420   0.000018
     8  C   -0.000166   5.045663  -0.033826   0.499101   0.005896   0.396445
     9  H   -0.000265  -0.033826   0.506251   0.005091   0.000025  -0.004093
    10  C    0.004687   0.499101   0.005091   5.033921  -0.039821  -0.041142
    11  H   -0.003420   0.005896   0.000025  -0.039821   0.514564  -0.000207
    12  H    0.000018   0.396445  -0.004093  -0.041142  -0.000207   0.518016
    13  H   -0.000174  -0.042591  -0.000179   0.399440  -0.004357  -0.004559
    14  C   -0.003464  -0.000624   0.000182  -0.000035   0.000022   0.000018
    15  C    0.002683   0.000044  -0.000025   0.000001   0.000032  -0.000001
    16  C   -0.000220  -0.000010   0.000136  -0.000014   0.000002   0.000001
    17  C    0.001186  -0.000001   0.000002   0.000002  -0.000001   0.000000
    18  H    0.002101   0.000007  -0.000004  -0.000012  -0.000036   0.000000
    19  C   -0.000079   0.000002  -0.000002   0.000000   0.000000   0.000000
    20  H    0.000000   0.000008   0.000042  -0.000002   0.000000   0.000000
    21  C    0.000017   0.000000  -0.000001   0.000000   0.000000   0.000000
    22  H   -0.000070   0.000000   0.000000   0.000000   0.000001   0.000000
    23  H    0.000001   0.000000   0.000000   0.000000   0.000000   0.000000
    24  H    0.000000   0.000000   0.000000   0.000000   0.000000   0.000000
    25  C    0.000888  -0.000788   0.000518  -0.000067   0.000013   0.000026
    26  C    0.000055   0.000005   0.000010   0.000000  -0.000001   0.000000
    27  C    0.001202   0.000385   0.000169   0.000094   0.000012  -0.000007
    28  C   -0.000022   0.000000  -0.000001   0.000000   0.000000   0.000000
    29  H    0.000018   0.000000  -0.000002   0.000000   0.000000   0.000000
    30  C    0.000041   0.000002   0.000008   0.000004  -0.000001   0.000000
    31  H   -0.000081  -0.000119   0.000056   0.000060   0.000044   0.000009
    32  C    0.000002   0.000000   0.000000   0.000000   0.000000   0.000000
    33  H    0.000000   0.000000   0.000000   0.000000   0.000000   0.000000
    34  H   -0.000003   0.000000   0.000000  -0.000001   0.000000   0.000000
    35  H    0.000000   0.000000   0.000000   0.000000   0.000000   0.000000
             13         14         15         16         17         18
     1  C   -0.000025   0.157791  -0.053248  -0.024687   0.002795   0.000638
     2  H   -0.000002  -0.071256   0.005804   0.000974  -0.000272   0.000128
     3  C   -0.001664  -0.133492  -0.004487  -0.001359   0.001907  -0.002711
     4  C    0.007996  -0.003653  -0.012966   0.000592  -0.000658  -0.001306
     5  C    0.007548  -0.003610   0.000661   0.000588   0.000030  -0.000196
     6  C   -0.042904   0.001990  -0.000103   0.000049  -0.000102   0.000826
     7  H   -0.000174  -0.003464   0.002683  -0.000220   0.001186   0.002101
     8  C   -0.042591  -0.000624   0.000044  -0.000010  -0.000001   0.000007
     9  H   -0.000179   0.000182  -0.000025   0.000136   0.000002  -0.000004
    10  C    0.399440  -0.000035   0.000001  -0.000014   0.000002  -0.000012
    11  H   -0.004357   0.000022   0.000032   0.000002  -0.000001  -0.000036
    12  H   -0.004559   0.000018  -0.000001   0.000001   0.000000   0.000000
    13  H    0.516934  -0.000003   0.000001   0.000000   0.000000   0.000000
    14  C   -0.000003   5.381698   0.443275   0.493673  -0.058756  -0.045160
    15  C    0.000001   0.443275   5.075929  -0.071681   0.479394   0.389561
    16  C    0.000000   0.493673  -0.071681   5.092027  -0.030580   0.004029
    17  C    0.000000  -0.058756   0.479394  -0.030580   5.038504  -0.028143
    18  H    0.000000  -0.045160   0.389561   0.004029  -0.028143   0.495673
    19  C    0.000000  -0.072509  -0.027044   0.453273  -0.078161  -0.000023
    20  H    0.000000  -0.050737   0.004328   0.400481  -0.000286  -0.000269
    21  C    0.000000  -0.018822  -0.090856  -0.085970   0.491419   0.004552
    22  H    0.000000   0.006040  -0.039033  -0.000485   0.397199  -0.003361
    23  H    0.000000   0.006950  -0.000676  -0.039751   0.006230   0.000016
    24  H    0.000000  -0.001543   0.007881   0.007481  -0.042923  -0.000170
    25  C    0.000002  -0.106513  -0.009630  -0.002046  -0.000613   0.000909
    26  C    0.000000  -0.004660  -0.006128   0.000925  -0.000318  -0.000099
    27  C   -0.000003  -0.002440   0.001668  -0.000434   0.000028   0.000339
    28  C    0.000000  -0.001310  -0.000074  -0.000044  -0.000001  -0.000028
    29  H    0.000000   0.003383  -0.000406   0.002067  -0.000178  -0.000086
    30  C    0.000000  -0.000701   0.000038   0.000008   0.000007  -0.000009
    31  H    0.000008   0.000328   0.000120  -0.000021  -0.000002  -0.000002
    32  C    0.000000   0.000118   0.000042  -0.000002   0.000003  -0.000050
    33  H    0.000000   0.000011   0.000013  -0.000005   0.000002   0.000005
    34  H    0.000000   0.000011   0.000000   0.000000   0.000000   0.000003
    35  H    0.000000   0.000002  -0.000001   0.000000   0.000000   0.000001
             19         20         21         22         23         24
     1  C    0.006886   0.000051   0.001255  -0.000341  -0.000341  -0.000011
     2  H    0.001614   0.002239  -0.000003   0.000011  -0.000039  -0.000001
     3  C   -0.000511   0.000422  -0.000084   0.000025   0.000025  -0.000003
     4  C    0.000143  -0.000004  -0.000017   0.000054   0.000000   0.000000
     5  C   -0.000017   0.000251  -0.000007   0.000000   0.000001   0.000000
     6  C    0.000001   0.000000   0.000002   0.000002   0.000000   0.000000
     7  H   -0.000079   0.000000   0.000017  -0.000070   0.000001   0.000000
     8  C    0.000002   0.000008   0.000000   0.000000   0.000000   0.000000
     9  H   -0.000002   0.000042  -0.000001   0.000000   0.000000   0.000000
    10  C    0.000000  -0.000002   0.000000   0.000000   0.000000   0.000000
    11  H    0.000000   0.000000   0.000000   0.000001   0.000000   0.000000
    12  H    0.000000   0.000000   0.000000   0.000000   0.000000   0.000000
    13  H    0.000000   0.000000   0.000000   0.000000   0.000000   0.000000
    14  C   -0.072509  -0.050737  -0.018822   0.006040   0.006950  -0.001543
    15  C   -0.027044   0.004328  -0.090856  -0.039033  -0.000676   0.007881
    16  C    0.453273   0.400481  -0.085970  -0.000485  -0.039751   0.007481
    17  C   -0.078161  -0.000286   0.491419   0.397199   0.006230  -0.042923
    18  H   -0.000023  -0.000269   0.004552  -0.003361   0.000016  -0.000170
    19  C    5.060580  -0.035116   0.496788   0.005995   0.397032  -0.042568
    20  H   -0.035116   0.510313   0.005263   0.000024  -0.004218  -0.000185
    21  C    0.496788   0.005263   5.034135  -0.039822  -0.040676   0.399722
    22  H    0.005995   0.000024  -0.039822   0.514989  -0.000207  -0.004485
    23  H    0.397032  -0.004218  -0.040676  -0.000207   0.518163  -0.004587
    24  H   -0.042568  -0.000185   0.399722  -0.004485  -0.004587   0.517447
    25  C   -0.000421   0.000122   0.000074   0.000020   0.000011   0.000000
    26  C   -0.000137   0.000316   0.000080   0.000017  -0.000001   0.000000
    27  C    0.000024  -0.000039  -0.000003  -0.000001   0.000000   0.000000
    28  C    0.000013  -0.000008   0.000001   0.000002   0.000000   0.000000
    29  H    0.000103   0.000224  -0.000088   0.000003   0.000002   0.000000
    30  C    0.000000   0.000000   0.000000   0.000000   0.000000   0.000000
    31  H    0.000000   0.000001   0.000000   0.000000   0.000000   0.000000
    32  C    0.000000   0.000001   0.000000   0.000000   0.000000   0.000000
    33  H    0.000000   0.000000   0.000000   0.000000   0.000000   0.000000
    34  H    0.000000   0.000000   0.000000   0.000000   0.000000   0.000000
    35  H    0.000000   0.000000   0.000000   0.000000   0.000000   0.000000
             25         26         27         28         29         30
     1  C    0.049909  -0.084328  -0.026130   0.007324  -0.000727   0.011384
     2  H   -0.062849  -0.005102   0.001893   0.000873  -0.000134  -0.000164
     3  C   -0.069695   0.011137  -0.012184  -0.000875   0.000873  -0.001169
     4  C    0.005787   0.000561  -0.016322  -0.000015  -0.000042  -0.000746
     5  C   -0.001085  -0.000199   0.000909   0.000007  -0.000004  -0.000123
     6  C    0.000996   0.000018  -0.001461   0.000000   0.000000  -0.000040
     7  H    0.000888   0.000055   0.001202  -0.000022   0.000018   0.000041
     8  C   -0.000788   0.000005   0.000385   0.000000   0.000000   0.000002
     9  H    0.000518   0.000010   0.000169  -0.000001  -0.000002   0.000008
    10  C   -0.000067   0.000000   0.000094   0.000000   0.000000   0.000004
    11  H    0.000013  -0.000001   0.000012   0.000000   0.000000  -0.000001
    12  H    0.000026   0.000000  -0.000007   0.000000   0.000000   0.000000
    13  H    0.000002   0.000000  -0.000003   0.000000   0.000000   0.000000
    14  C   -0.106513  -0.004660  -0.002440  -0.001310   0.003383  -0.000701
    15  C   -0.009630  -0.006128   0.001668  -0.000074  -0.000406   0.000038
    16  C   -0.002046   0.000925  -0.000434  -0.000044   0.002067   0.000008
    17  C   -0.000613  -0.000318   0.000028  -0.000001  -0.000178   0.000007
    18  H    0.000909  -0.000099   0.000339  -0.000028  -0.000086  -0.000009
    19  C   -0.000421  -0.000137   0.000024   0.000013   0.000103   0.000000
    20  H    0.000122   0.000316  -0.000039  -0.000008   0.000224   0.000000
    21  C    0.000074   0.000080  -0.000003   0.000001  -0.000088   0.000000
    22  H    0.000020   0.000017  -0.000001   0.000002   0.000003   0.000000
    23  H    0.000011  -0.000001   0.000000   0.000000   0.000002   0.000000
    24  H    0.000000   0.000000   0.000000   0.000000   0.000000   0.000000
    25  C    5.355968   0.469185   0.505164  -0.057069  -0.047294  -0.070448
    26  C    0.469185   5.114570  -0.080745   0.465679   0.398165  -0.033288
    27  C    0.505164  -0.080745   5.089175  -0.029451   0.004326   0.455147
    28  C   -0.057069   0.465679  -0.029451   5.057798  -0.035267  -0.074456
    29  H   -0.047294   0.398165   0.004326  -0.035267   0.494317  -0.000445
    30  C   -0.070448  -0.033288   0.455147  -0.074456  -0.000445   5.076843
    31  H   -0.034698   0.004856   0.393045  -0.000384  -0.000205  -0.035784
    32  C   -0.020051  -0.084957  -0.091154   0.480093   0.005256   0.498300
    33  H    0.006200  -0.038775  -0.000462   0.397296  -0.003988   0.006028
    34  H    0.006476  -0.000411  -0.036803   0.006018   0.000018   0.395504
    35  H   -0.001467   0.007426   0.007723  -0.043329  -0.000174  -0.042075
             31         32         33         34         35
     1  C   -0.010340   0.000540  -0.000353  -0.000356  -0.000014
     2  H   -0.000272   0.000022   0.000000   0.000015  -0.000002
     3  C   -0.000041   0.000109   0.000012   0.000057   0.000000
     4  C   -0.001449  -0.000024   0.000000   0.000034   0.000001
     5  C   -0.001301  -0.000004   0.000000   0.000004   0.000000
     6  C    0.000710   0.000000   0.000000  -0.000001   0.000000
     7  H   -0.000081   0.000002   0.000000  -0.000003   0.000000
     8  C   -0.000119   0.000000   0.000000   0.000000   0.000000
     9  H    0.000056   0.000000   0.000000   0.000000   0.000000
    10  C    0.000060   0.000000   0.000000  -0.000001   0.000000
    11  H    0.000044   0.000000   0.000000   0.000000   0.000000
    12  H    0.000009   0.000000   0.000000   0.000000   0.000000
    13  H    0.000008   0.000000   0.000000   0.000000   0.000000
    14  C    0.000328   0.000118   0.000011   0.000011   0.000002
    15  C    0.000120   0.000042   0.000013   0.000000  -0.000001
    16  C   -0.000021  -0.000002  -0.000005   0.000000   0.000000
    17  C   -0.000002   0.000003   0.000002   0.000000   0.000000
    18  H   -0.000002  -0.000050   0.000005   0.000003   0.000001
    19  C    0.000000   0.000000   0.000000   0.000000   0.000000
    20  H    0.000001   0.000001   0.000000   0.000000   0.000000
    21  C    0.000000   0.000000   0.000000   0.000000   0.000000
    22  H    0.000000   0.000000   0.000000   0.000000   0.000000
    23  H    0.000000   0.000000   0.000000   0.000000   0.000000
    24  H    0.000000   0.000000   0.000000   0.000000   0.000000
    25  C   -0.034698  -0.020051   0.006200   0.006476  -0.001467
    26  C    0.004856  -0.084957  -0.038775  -0.000411   0.007426
    27  C    0.393045  -0.091154  -0.000462  -0.036803   0.007723
    28  C   -0.000384   0.480093   0.397296   0.006018  -0.043329
    29  H   -0.000205   0.005256  -0.003988   0.000018  -0.000174
    30  C   -0.035784   0.498300   0.006028   0.395504  -0.042075
    31  H    0.476153   0.004946   0.000018  -0.003436  -0.000170
    32  C    0.004946   5.041561  -0.040821  -0.041161   0.399504
    33  H    0.000018  -0.040821   0.517768  -0.000212  -0.004415
    34  H   -0.003436  -0.041161  -0.000212   0.517731  -0.004477
    35  H   -0.000170   0.399504  -0.004415  -0.004477   0.519293
 Mulliken atomic charges:
              1
     1  C   -0.611129
     2  H    0.208564
     3  C    0.067315
     4  C   -0.117095
     5  C   -0.169543
     6  C   -0.178788
     7  H    0.181309
     8  C   -0.165757
     9  H    0.171856
    10  C   -0.154862
    11  H    0.163480
    12  H    0.162759
    13  H    0.164534
    14  C    0.083793
    15  C   -0.095114
    16  C   -0.198999
    17  C   -0.177714
    18  H    0.182878
    19  C   -0.165865
    20  H    0.166778
    21  C   -0.156959
    22  H    0.163421
    23  H    0.162067
    24  H    0.163944
    25  C    0.082466
    26  C   -0.133854
    27  C   -0.163666
    28  C   -0.172771
    29  H    0.180288
    30  C   -0.183862
    31  H    0.207952
    32  C   -0.152270
    33  H    0.161681
    34  H    0.160990
    35  H    0.162174
 Sum of Mulliken atomic charges =   0.00000
 Mulliken charges with hydrogens summed into heavy atoms:
              1
     1  C   -0.402565
     3  C    0.067315
     4  C    0.064213
     5  C    0.002313
     6  C   -0.015307
     8  C   -0.002999
    10  C    0.009672
    14  C    0.083793
    15  C    0.087764
    16  C   -0.032221
    17  C   -0.014293
    19  C   -0.003798
    21  C    0.006985
    25  C    0.082466
    26  C    0.046434
    27  C    0.044286
    28  C   -0.011090
    30  C   -0.022872
    32  C    0.009905
 Sum of Mulliken charges with hydrogens summed into heavy atoms =   0.00000
 Electronic spatial extent (au):  <R**2>=           4933.2465
 Charge=              0.0000 electrons
 Dipole moment (field-independent basis, Debye):
    X=             -0.0894    Y=             -0.1547    Z=             -0.0214  Tot=              0.1800
 Quadrupole moment (field-independent basis, Debye-Ang):
   XX=           -108.1807   YY=           -113.4038   ZZ=           -106.1408
   XY=             -2.5847   XZ=             -1.3878   YZ=              2.5474
 Traceless Quadrupole moment (field-independent basis, Debye-Ang):
   XX=              1.0610   YY=             -4.1620   ZZ=              3.1010
   XY=             -2.5847   XZ=             -1.3878   YZ=              2.5474
 Octapole moment (field-independent basis, Debye-Ang**2):
  XXX=            -29.5704  YYY=              3.5914  ZZZ=              0.4020  XYY=             38.7479
  XXY=              5.1749  XXZ=             -4.7984  XZZ=             -9.2986  YZZ=            -15.9654
  YYZ=             13.1551  XYZ=             -1.1728
 Hexadecapole moment (field-independent basis, Debye-Ang**3):
 XXXX=          -3064.4748 YYYY=          -2894.8425 ZZZZ=           -690.1207 XXXY=             55.2290
 XXXZ=            -21.6198 YYYX=            -56.9884 YYYZ=             80.7265 ZZZX=              6.2541
 ZZZY=             -3.6987 XXYY=          -1018.8193 XXZZ=           -630.7534 YYZZ=           -625.0359
 XXYZ=            -18.8117 YYXZ=             10.2181 ZZXY=            -33.0996
 N-N= 1.290237567194D+03 E-N=-4.276542348042D+03  KE= 7.286016966480D+02
 PrsmSu:  requested number of processors reduced to:  10 ShMem   1 Linda.
 Calling FoFJK, ICntrl=      2127 FMM=F ISym2X=0 I1Cent= 0 IOpClX= 0 NMat=1 NMatS=1 NMatT=0.
 ***** Axes restored to original set *****
 -------------------------------------------------------------------
 Center     Atomic                   Forces (Hartrees/Bohr)
 Number     Number              X              Y              Z
 -------------------------------------------------------------------
      1        6           0.005330200    0.022583562   -0.002120797
      2        1          -0.009809148   -0.023137840    0.005511698
      3        6           0.002863070    0.007523999    0.010891540
      4        6          -0.005868826   -0.009919960   -0.005410552
      5        6           0.002128362    0.005031102   -0.002770225
      6        6          -0.003904424   -0.011641058    0.002744193
      7        1           0.010186241    0.016747838    0.022655341
      8        6           0.003756244    0.008539386    0.009989718
      9        1          -0.005275242   -0.015868267    0.006293066
     10        6           0.000974301    0.000200613    0.013722759
     11        1           0.004956661    0.014606810   -0.006386471
     12        1          -0.005170602   -0.012375279   -0.009852086
     13        1          -0.000238071    0.002326971   -0.016650947
     14        6          -0.010047200    0.007867702   -0.006509879
     15        6           0.004236649   -0.010079757    0.002701001
     16        6           0.002367166    0.005282572    0.000770988
     17        6          -0.002895597   -0.012083280    0.000706744
     18        1          -0.014491467    0.016345788   -0.016577750
     19        6          -0.008808240    0.009225781   -0.004742529
     20        1          -0.006399246   -0.016313445   -0.000922058
     21        6          -0.012603233    0.000619963   -0.005542644
     22        1           0.006604793    0.015331421    0.001095164
     23        1           0.008411300   -0.013391637    0.005102314
     24        1           0.015402718    0.001978871    0.006465044
     25        6           0.011903384   -0.006968652   -0.005879139
     26        6          -0.003428944    0.004362191   -0.005725569
     27        6          -0.000333516   -0.001332306    0.012325261
     28        6          -0.001136009    0.003759710   -0.012238609
     29        1           0.011606265   -0.011879505    0.007375335
     30        6           0.009055215   -0.008910105    0.002147746
     31        1           0.003086088    0.003217464   -0.021911766
     32        6           0.010063332   -0.007991662   -0.005215725
     33        1          -0.000827539   -0.002441801    0.016438325
     34        1          -0.010364080    0.010641932   -0.007545357
     35        1          -0.011330607    0.008140879    0.009065866
 -------------------------------------------------------------------
 Cartesian Forces:  Max     0.023137840 RMS     0.009561763

 GradGradGradGradGradGradGradGradGradGradGradGradGradGradGradGradGradGrad
 Berny optimization.
 Internal  Forces:  Max     0.029170617 RMS     0.007793213
 Search for a local minimum.
 Step number   1 out of a maximum of  197
 All quantities printed in internal units (Hartrees-Bohrs-Radians)
 Mixed Optimization -- RFO/linear search
 Second derivative matrix not updated -- first step.
     Eigenvalues ---    0.00635   0.00646   0.00659   0.01533   0.01536
     Eigenvalues ---    0.01538   0.02136   0.02142   0.02146   0.02171
     Eigenvalues ---    0.02172   0.02173   0.02182   0.02185   0.02185
     Eigenvalues ---    0.02202   0.02202   0.02203   0.02211   0.02211
     Eigenvalues ---    0.02214   0.02214   0.02215   0.02216   0.02217
     Eigenvalues ---    0.02218   0.02220   0.02220   0.02221   0.02227
     Eigenvalues ---    0.04545   0.06373   0.06661   0.15997   0.15999
     Eigenvalues ---    0.16000   0.16000   0.16000   0.16000   0.16000
     Eigenvalues ---    0.16000   0.16000   0.16000   0.16000   0.16000
     Eigenvalues ---    0.16000   0.16000   0.16000   0.18866   0.19365
     Eigenvalues ---    0.22000   0.22000   0.22000   0.22000   0.22000
     Eigenvalues ---    0.22000   0.23471   0.23477   0.23478   0.24982
     Eigenvalues ---    0.24999   0.24999   0.31236   0.31357   0.31442
     Eigenvalues ---    0.31546   0.33492   0.33619   0.33953   0.34069
     Eigenvalues ---    0.34072   0.34092   0.34259   0.34259   0.34263
     Eigenvalues ---    0.34265   0.34265   0.34266   0.34279   0.34279
     Eigenvalues ---    0.34291   0.42365   0.42466   0.42487   0.42567
     Eigenvalues ---    0.42579   0.42638   0.46300   0.46391   0.46440
     Eigenvalues ---    0.46744   0.46756   0.46838   0.47207   0.47207
     Eigenvalues ---    0.47236   0.47345   0.47354   0.474801000.00000
     Eigenvalues --- 1000.000001000.000001000.000001000.000001000.00000
     Eigenvalues --- 1000.000001000.000001000.000001000.000001000.00000
     Eigenvalues --- 1000.000001000.000001000.000001000.000001000.00000
     Eigenvalues --- 1000.000001000.000001000.000001000.000001000.00000
     Eigenvalues --- 1000.000001000.000001000.000001000.000001000.00000
     Eigenvalues --- 1000.000001000.000001000.000001000.000001000.00000
     Eigenvalues --- 1000.000001000.000001000.000001000.000001000.00000
     Eigenvalues --- 1000.000001000.000001000.000001000.000001000.00000
     Eigenvalues --- 1000.000001000.000001000.000001000.000001000.00000
     Eigenvalues --- 1000.000001000.000001000.000001000.000001000.00000
     Eigenvalues --- 1000.000001000.000001000.000001000.000001000.00000
     Eigenvalues --- 1000.000001000.000001000.000001000.000001000.00000
     Eigenvalues --- 1000.000001000.000001000.000001000.000001000.00000
     Eigenvalues --- 1000.000001000.000001000.000001000.000001000.00000
     Eigenvalues --- 1000.000001000.000001000.000001000.000001000.00000
     Eigenvalues --- 1000.000001000.000001000.000001000.000001000.00000
     Eigenvalues --- 1000.000001000.000001000.000001000.000001000.00000
     Eigenvalues --- 1000.000001000.00000
 RFO step:  Lambda=-4.20423470D-02 EMin= 6.34530843D-03
 Linear search not attempted -- first point.
 Maximum step size (   0.300) exceeded in Quadratic search.
    -- Step size scaled by   0.587
 Iteration  1 RMS(Cart)=  0.12537093 RMS(Int)=  0.00299547
 Iteration  2 RMS(Cart)=  0.00604899 RMS(Int)=  0.00028118
 Iteration  3 RMS(Cart)=  0.00001046 RMS(Int)=  0.00028112
 Iteration  4 RMS(Cart)=  0.00000000 RMS(Int)=  0.00028112
 Variable       Old X    -DE/DX   Delta X   Delta X   Delta X     New X
                                 (Linear)    (Quad)   (Total)
    R1        2.12264  -0.02543   0.00000  -0.04215  -0.04215   2.08049
    R2        2.84982   0.02411   0.00000   0.03961   0.03961   2.88943
    R3        2.85336   0.02263   0.00000   0.03738   0.03738   2.89074
    R4        2.85177   0.02306   0.00000   0.03800   0.03800   2.88977
    R5        2.63949   0.00084   0.00000   0.00114   0.00115   2.64065
    R6        2.63966  -0.00399   0.00000  -0.00459  -0.00457   2.63509
    R7        2.62560  -0.00410   0.00000  -0.00458  -0.00459   2.62101
    R8        2.08195  -0.02917   0.00000  -0.04545  -0.04545   2.03650
    R9        2.62744  -0.00250   0.00000  -0.00294  -0.00293   2.62451
   R10        2.07214  -0.01786   0.00000  -0.02741  -0.02741   2.04473
   R11        2.62811  -0.00566   0.00000  -0.00653  -0.00655   2.62156
   R12        2.06884  -0.01669   0.00000  -0.02549  -0.02549   2.04335
   R13        2.62732  -0.00912   0.00000  -0.01056  -0.01057   2.61675
   R14        2.06885  -0.01664   0.00000  -0.02541  -0.02541   2.04344
   R15        2.06862  -0.01681   0.00000  -0.02566  -0.02566   2.04295
   R16        2.63861  -0.00009   0.00000   0.00001   0.00003   2.63864
   R17        2.63890  -0.00426   0.00000  -0.00491  -0.00490   2.63401
   R18        2.62558  -0.00463   0.00000  -0.00522  -0.00521   2.62037
   R19        2.07978  -0.02596   0.00000  -0.04031  -0.04031   2.03947
   R20        2.62777  -0.00235   0.00000  -0.00274  -0.00275   2.62502
   R21        2.07175  -0.01754   0.00000  -0.02690  -0.02690   2.04485
   R22        2.62850  -0.00526   0.00000  -0.00607  -0.00608   2.62242
   R23        2.06885  -0.01673   0.00000  -0.02554  -0.02554   2.04331
   R24        2.62757  -0.00866   0.00000  -0.00999  -0.01001   2.61756
   R25        2.06895  -0.01662   0.00000  -0.02537  -0.02537   2.04357
   R26        2.06862  -0.01682   0.00000  -0.02567  -0.02567   2.04295
   R27        2.64493  -0.00247   0.00000  -0.00289  -0.00288   2.64205
   R28        2.63396  -0.00249   0.00000  -0.00276  -0.00275   2.63121
   R29        2.62326  -0.00512   0.00000  -0.00590  -0.00590   2.61736
   R30        2.07209  -0.01816   0.00000  -0.02786  -0.02786   2.04423
   R31        2.62962  -0.00098   0.00000  -0.00103  -0.00103   2.62859
   R32        2.07410  -0.02227   0.00000  -0.03428  -0.03428   2.03982
   R33        2.63002  -0.00469   0.00000  -0.00550  -0.00551   2.62451
   R34        2.06889  -0.01664   0.00000  -0.02541  -0.02541   2.04348
   R35        2.62509  -0.00768   0.00000  -0.00875  -0.00876   2.61633
   R36        2.06896  -0.01666   0.00000  -0.02544  -0.02544   2.04351
   R37        2.06842  -0.01664   0.00000  -0.02539  -0.02539   2.04303
    A1        1.87214  -0.01013   0.00000  -0.05097  -0.05004   1.82210
    A2        1.88160  -0.00794   0.00000  -0.04521  -0.04442   1.83718
    A3        1.83243   0.00316   0.00000  -0.00296  -0.00273   1.82970
    A4        1.93608   0.01529   0.00000   0.05416   0.05301   1.98909
    A5        1.99631   0.00183   0.00000   0.02364   0.02180   2.01811
    A6        1.93766  -0.00409   0.00000   0.00990   0.00768   1.94533
    A7        2.12801   0.02359   0.00000   0.04748   0.04746   2.17547
    A8        2.07683  -0.01152   0.00000  -0.02315  -0.02317   2.05366
    A9        2.07833  -0.01207   0.00000  -0.02431  -0.02428   2.05405
   A10        2.10259   0.00456   0.00000   0.01026   0.01025   2.11284
   A11        2.07890   0.00443   0.00000   0.01443   0.01441   2.09331
   A12        2.10162  -0.00898   0.00000  -0.02457  -0.02459   2.07703
   A13        2.10062   0.00830   0.00000   0.01808   0.01811   2.11873
   A14        2.09416  -0.00474   0.00000  -0.01077  -0.01078   2.08338
   A15        2.08841  -0.00356   0.00000  -0.00732  -0.00733   2.08108
   A16        2.09653   0.00243   0.00000   0.00503   0.00500   2.10153
   A17        2.09130  -0.00114   0.00000  -0.00229  -0.00228   2.08902
   A18        2.09535  -0.00129   0.00000  -0.00273  -0.00272   2.09263
   A19        2.09782  -0.00019   0.00000  -0.00137  -0.00137   2.09645
   A20        2.09105   0.00026   0.00000   0.00118   0.00118   2.09223
   A21        2.09431  -0.00008   0.00000   0.00019   0.00020   2.09451
   A22        2.09048  -0.00303   0.00000  -0.00769  -0.00772   2.08276
   A23        2.09621   0.00155   0.00000   0.00396   0.00397   2.10018
   A24        2.09650   0.00148   0.00000   0.00373   0.00375   2.10024
   A25        2.11846   0.01753   0.00000   0.03527   0.03520   2.15367
   A26        2.08391  -0.00705   0.00000  -0.01418  -0.01424   2.06967
   A27        2.08080  -0.01049   0.00000  -0.02120  -0.02120   2.05960
   A28        2.10163   0.00409   0.00000   0.00914   0.00908   2.11072
   A29        2.07787   0.00361   0.00000   0.01200   0.01189   2.08976
   A30        2.10350  -0.00764   0.00000  -0.02069  -0.02081   2.08270
   A31        2.09895   0.00721   0.00000   0.01578   0.01578   2.11473
   A32        2.09504  -0.00426   0.00000  -0.00981  -0.00982   2.08522
   A33        2.08919  -0.00295   0.00000  -0.00597  -0.00599   2.08321
   A34        2.09595   0.00219   0.00000   0.00450   0.00450   2.10044
   A35        2.09179  -0.00101   0.00000  -0.00198  -0.00199   2.08980
   A36        2.09545  -0.00119   0.00000  -0.00251  -0.00252   2.09292
   A37        2.09782  -0.00026   0.00000  -0.00129  -0.00131   2.09650
   A38        2.09109   0.00034   0.00000   0.00125   0.00127   2.09236
   A39        2.09428  -0.00008   0.00000   0.00004   0.00005   2.09432
   A40        2.09121  -0.00273   0.00000  -0.00685  -0.00688   2.08432
   A41        2.09592   0.00139   0.00000   0.00351   0.00351   2.09943
   A42        2.09606   0.00134   0.00000   0.00335   0.00336   2.09941
   A43        2.06120  -0.00054   0.00000  -0.00112  -0.00113   2.06007
   A44        2.14446   0.00838   0.00000   0.01683   0.01682   2.16129
   A45        2.07693  -0.00785   0.00000  -0.01584  -0.01582   2.06111
   A46        2.10354   0.00491   0.00000   0.01057   0.01058   2.11412
   A47        2.08454  -0.00167   0.00000  -0.00301  -0.00301   2.08153
   A48        2.09509  -0.00324   0.00000  -0.00757  -0.00757   2.08751
   A49        2.10105   0.00335   0.00000   0.00764   0.00764   2.10869
   A50        2.09379   0.00002   0.00000   0.00111   0.00110   2.09489
   A51        2.08835  -0.00337   0.00000  -0.00875  -0.00876   2.07959
   A52        2.09626   0.00072   0.00000   0.00088   0.00088   2.09714
   A53        2.09223  -0.00035   0.00000  -0.00042  -0.00042   2.09181
   A54        2.09470  -0.00037   0.00000  -0.00046  -0.00046   2.09424
   A55        2.09950   0.00114   0.00000   0.00240   0.00239   2.10189
   A56        2.08858  -0.00048   0.00000  -0.00095  -0.00094   2.08764
   A57        2.09511  -0.00066   0.00000  -0.00146  -0.00145   2.09366
[...]
 352,-0.00043684,0.00152934,0.00031989,0.00008502,-0.00095564,-0.000721
 96,0.00007994,-0.00027153,-0.00043726,0.00022840,0.00023469,0.00064627
 ,0.00022248,0.00003794,0.00061339,-0.00005905,0.00006412,-0.00003147,0
 .00009283,0.00025186,-0.00048005,-0.00002656,-0.00007839,0.00002994,-0
 .00038142,-0.00033737,0.00003703,0.00000645,0.00000803,-0.00000091,-0.
 00000698,0.00000305,-0.00000966,-0.00001063,-0.00000373,-0.00000915,0.
 00121424,-0.00048236,-0.00148026,0.00034404,-0.00020735,-0.00035239,-0
 .00018579,0.00032471,-0.00016823,-0.00047890,0.00024861,-0.00003183,-0
 .00009191,0.00018960,0.00033500,0.00018065,0.00015024,0.00025127,0.000
 00486,-0.00001456,-0.00005012,0.00012730,-0.00033550,-0.00008023,0.000
 02082,0.00002576,-0.00002841,0.00001438,-0.00001477,0.00004453,-0.0000
 1118,0.00001220,0.00000575,-0.00318315,-0.05429781,0.08136022,0.048281
 33,-0.00957458,-0.07363537,0.06878817,0.00391498,-0.19739775,-0.055586
 26,0.08587233,-0.01427710,0.00042041,-0.00064048,-0.00078654,-0.151927
 04,-0.17790040,0.65524295,-0.00187983,-0.00233349,-0.00116065,0.000531
 85,-0.00036679,-0.00007897,-0.00075880,0.00130772,0.00052469,-0.000281
 32,0.00053593,0.00022294,-0.00016777,0.00026028,0.00021571,0.00008825,
 -0.00002390,0.00038391,-0.00028763,0.00003883,0.00000904,-0.00009549,0
 .00009505,-0.00042073,0.00001664,-0.00018167,0.00002054,-0.00020274,-0
 .00018491,-0.00001985,0.00001151,0.00000186,0.00000073,-0.00000397,-0.
 00004628,-0.00003531,-0.00000153,-0.00003350,-0.00003609,-0.00034852,0
 .00049044,0.00022938,-0.00008116,0.00016749,0.00012887,-0.00015590,-0.
 00007332,-0.00004638,-0.00001822,-0.00008249,-0.00001634,0.00008576,-0
 .00004741,-0.00022286,0.00002942,0.00004918,-0.00000010,-0.00000105,-0
 .00001387,0.00000059,0.00001317,-0.00002509,-0.00001049,-0.00000215,0.
 00000845,-0.00000322,0.00000044,-0.00000923,-0.00000933,0.00001873,-0.
 00000618,0.00000237,0.01008577,0.00560721,-0.01506773,0.00280442,0.006
 06890,0.00126952,-0.08423370,-0.01854894,0.08177058,-0.00086617,0.0002
 3777,-0.00055518,0.00019082,0.00028534,-0.00080049,-0.00169033,-0.0099
 9855,0.02490282,0.07889442,-0.00241982,-0.00088051,-0.00064080,0.00012
 533,0.00003526,-0.00015228,0.00088487,-0.00072845,-0.00004061,0.000263
 17,0.00034658,-0.00035469,-0.00049495,-0.00020328,-0.00030395,0.000050
 32,0.00003295,-0.00029870,-0.00004462,-0.00002525,0.00002165,-0.000164
 70,-0.00010726,-0.00006274,0.00006170,-0.00002819,0.00004810,0.0001834
 4,0.00006662,0.00006493,-0.00005565,-0.00001740,0.00005508,0.00003417,
 0.00000534,0.00002392,-0.00000401,0.00000713,0.00005162,-0.00013838,0.
 00041146,0.00012450,-0.00008422,0.00013194,0.00002783,-0.00010304,-0.0
 0006411,-0.00004705,0.00005454,-0.00003053,-0.00002575,0.00001365,-0.0
 0004953,-0.00002454,0.00000483,-0.00000510,-0.00001949,-0.00000088,-0.
 00003503,0.00001989,-0.00001921,0.00000878,0.00000417,-0.00001867,-0.0
 0001136,-0.00000825,-0.00000795,-0.00000271,-0.00000341,0.,-0.00000879
 ,0.00000373,-0.00942282,-0.00338381,0.02749321,0.00615728,-0.00165679,
 0.00372943,-0.01818699,-0.09755211,0.09534587,0.00041905,-0.00103313,-
 0.00063972,-0.00052726,-0.00046682,0.00129158,0.00675987,0.01074072,-0
 .01813551,0.01371714,0.09387056,-0.00100360,-0.00164992,-0.00136779,0.
 00013037,-0.00013235,-0.00009071,0.00101555,-0.00187529,-0.00003100,0.
 00070533,-0.00083644,-0.00035002,0.00060374,-0.00007756,0.00037167,0.0
 0022687,0.00000098,0.00022985,-0.00027272,0.00008391,0.00003268,-0.000
 03993,0.00007919,-0.00016787,-0.00004950,0.00003579,0.00000831,-0.0002
 9206,-0.00008691,-0.00011846,-0.00000691,0.00000911,0.00000702,0.00000
 312,-0.00000358,-0.00001601,-0.00000681,-0.00000329,-0.00000648,-0.000
 16060,0.00045907,0.00031667,-0.00023786,0.00021868,0.00022278,-0.00017
 375,-0.00008980,-0.00004547,0.00000866,-0.00010953,-0.00000344,0.00007
 043,-0.00004821,-0.00031673,0.00002217,0.00002915,0.00000185,0.0000120
 4,-0.00001269,-0.00000927,0.00000858,-0.00001361,-0.00001458,-0.000015
 70,0.00000247,-0.00001403,-0.00000534,-0.00000662,-0.00001128,0.000016
 96,-0.00000690,-0.00000435,0.00617300,0.00223213,-0.00789208,0.0007724
 5,0.00344620,0.00216550,0.08210559,0.09734038,-0.31534997,-0.00046410,
 -0.00060163,0.00059866,0.00023371,0.00012864,-0.00047401,0.00179415,0.
 00900675,-0.00935748,-0.09386777,-0.10542565,0.33085735,-0.00068805,-0
 .00019545,-0.00096410,-0.00010079,-0.00015873,0.00015824,-0.00007028,0
 .00013878,-0.00010648,0.00005075,0.00009438,0.00003201,-0.00006066,-0.
 00005878,0.00004077,0.00001383,0.00001610,-0.00001296,-0.00000759,0.00
 000457,-0.00000475,0.00000327,-0.00003714,-0.00001886,-0.00003394,-0.0
 0000798,-0.00004780,0.00000896,-0.00002534,0.00006253,-0.00001032,-0.0
 0000362,0.00002086,0.00000252,0.00002556,0.00003501,-0.00000472,0.0000
 0285,0.00001636,0.00004619,0.00028738,0.00070666,-0.00010552,0.0001408
 1,-0.00005033,-0.00018914,-0.00015960,-0.00005613,0.00003182,-0.000073
 23,-0.00001304,0.00000138,-0.00000662,-0.00000135,-0.00000693,0.000036
 46,-0.00004258,0.00002325,-0.00000737,0.00001800,-0.00005490,0.0000143
 2,-0.00000929,-0.00003199,-0.00001977,-0.00000623,-0.00003151,0.000002
 68,-0.00001668,-0.00000473,-0.00000844,-0.00000637,-0.00348164,0.00223
 547,-0.00807422,-0.01741822,0.03280471,0.00064133,-0.00209301,-0.00998
 400,0.03224722,-0.16092753,0.11994661,-0.03475680,0.00124429,0.0054189
 6,0.00541317,-0.14431251,-0.00774961,0.10574289,0.00099522,0.00608575,
 0.00435808,0.52363533,0.00131393,-0.00117960,0.00066086,0.00047847,0.0
 0071334,-0.00040700,-0.00011189,-0.00049561,-0.00006787,-0.00002890,0.
 00009462,-0.00038579,-0.00012474,0.00019091,0.00025104,0.00013263,0.00
 005622,0.00025084,0.00001263,-0.00000618,-0.00000892,0.00001032,0.0001
 5275,-0.00031374,0.00003623,-0.00007496,0.00003030,-0.00019629,-0.0001
 9463,-0.00002202,0.00000817,-0.00000569,-0.00001013,0.00000594,-0.0000
 0081,-0.00001275,-0.00000028,-0.00000630,0.00000158,0.00019777,0.00001
 374,-0.00119921,0.00039293,-0.00007285,-0.00016144,-0.00016503,0.00030
 012,-0.00022282,-0.00038332,0.00015384,-0.00005797,0.00006065,0.000047
 22,0.00016389,0.00016783,0.00017317,0.00022976,-0.00001436,0.00000692,
 -0.00001145,0.00016914,-0.00028520,-0.00005245,0.00004935,0.00004504,-
 0.00001193,0.00001603,-0.00001622,0.00004341,0.00000452,0.00000574,0.0
 0000886,0.00059973,-0.05081927,0.05421805,0.06291961,-0.02645648,-0.05
 449997,-0.04039402,0.06661174,-0.00983267,0.08037616,-0.26901582,0.114
 81979,0.00496875,0.00289071,0.00017419,0.03168239,-0.15813690,0.048536
 40,0.00641670,0.00157364,-0.00019849,-0.25989602,0.57630287,-0.0018655
 2,0.00085563,-0.00033498,-0.00017631,-0.00087732,0.00004793,0.00039840
 ,0.00038068,0.00025034,-0.00001750,-0.00021732,0.00033337,0.00012751,-
 0.00015676,-0.00039450,-0.00017050,-0.00008841,-0.00027043,-0.00003004
 ,-0.00001064,0.00002110,-0.00004280,-0.00014198,0.00038601,-0.00001460
 ,0.00006856,-0.00001495,0.00022811,0.00026523,-0.00006584,0.00000495,0
 .00001558,-0.00001961,-0.00000978,-0.00002237,-0.00001316,0.00000250,-
 0.00000106,-0.00002128,-0.00051358,-0.00010752,0.00080684,-0.00007990,
 -0.00007003,0.00019801,0.00032446,-0.00007932,0.00029572,0.00038271,-0
 .00018904,0.00002468,0.00007098,-0.00030848,-0.00030305,-0.00015163,-0
 .00019817,-0.00019699,-0.00001353,0.00000156,0.00000404,-0.00006390,0.
 00028206,0.00008916,0.00003212,0.00000701,0.00002789,0.00002172,0.0000
 1745,-0.00003173,0.00001614,-0.00000736,0.00000252,-0.00736079,0.05340
 610,-0.06499971,-0.03879014,-0.00433079,0.08013130,0.07221152,-0.05926
 941,-0.02835114,0.01654871,0.05275607,-0.17843812,0.00577469,-0.000354
 60,0.00023028,0.05379596,0.11025999,-0.31464713,0.00428738,0.00009557,
 0.00166203,-0.21114041,-0.11455662,0.65890234,-0.00004792,-0.00062873,
 0.00091954,0.00007306,-0.00001908,-0.00003436,-0.00039764,0.00014086,0
 .00001497,0.00002896,0.00001497,0.00004476,0.00001511,0.00002595,0.000
 07282,0.00003768,-0.00000729,0.00003360,-0.00001367,0.00000714,-0.0000
 0225,0.00000743,-0.00000925,-0.00005475,-0.00000236,-0.00000485,-0.000
 00754,-0.00003359,-0.00003261,0.00003523,-0.00000337,-0.00000809,0.000
 01390,0.00000526,0.00000549,0.00000567,-0.00000152,0.00000079,0.000008
 41,0.00005640,0.00008428,0.00014187,-0.00004466,-0.00001290,-0.0000436
 3,-0.00006850,-0.00002620,-0.00002461,-0.00000329,0.00001902,-0.000017
 87,0.00001081,0.00000866,0.00004607,-0.00000172,0.00001231,-0.00001720
 ,0.00000744,-0.00001296,0.00001058,-0.00003431,-0.00000264,-0.00002414
 ,-0.00001923,-0.00002114,0.00000426,-0.00001356,0.00000002,0.00000213,
 -0.00001170,-0.00000332,0.00000505,0.00108722,0.00633655,0.00409546,-0
 .00148688,-0.01051939,0.02482632,-0.00090243,0.00039613,-0.00054575,-0
 .08702484,-0.01967935,0.08593291,-0.00178552,-0.00229215,-0.00233374,0
 .00302874,0.00599299,0.00107134,-0.00057151,-0.00058197,-0.00030658,0.
 00975021,0.00666888,-0.01545090,0.07987377,0.00006285,0.00033708,-0.00
 078081,-0.00004609,-0.00004115,0.00002858,0.00008502,-0.00014189,0.000
 03355,-0.00001439,0.00002647,-0.00005118,0.00000463,0.00004020,-0.0000
 0794,0.00000108,0.00002062,0.00002261,0.00000846,-0.00000652,-0.000000
 12,-0.00000643,0.00001357,-0.00003194,0.00000451,-0.00001778,0.0000019
 3,-0.00002329,-0.00002076,-0.00001303,0.00000320,-0.00000339,-0.000003
 11,-0.00000065,-0.00000105,-0.00000743,0.00000166,-0.00000332,0.000000
 12,-0.00009397,0.00001818,0.00003892,-0.00000973,-0.00000333,-0.000003
 18,0.00001856,-0.00003243,0.00003239,0.00001849,0.00002132,-0.00000316
 ,0.00001371,-0.00000660,0.00002203,-0.00000484,-0.00001332,-0.00001037
 ,0.00000123,-0.00000181,-0.00000518,-0.00001300,0.00001174,-0.00000108
 ,-0.00000738,-0.00001033,0.00000385,0.00000177,0.00000106,-0.00000396,
 -0.00000421,0.00000014,0.00000173,0.00619555,0.00159438,0.00017807,0.0
 0709524,0.01082769,-0.01781797,0.00040371,-0.00093282,-0.00065684,-0.0
 1981590,-0.09861022,0.09569787,-0.00281856,-0.00086890,-0.00116859,0.0
 0620807,-0.00163400,0.00360792,-0.00056050,-0.00036957,-0.00028079,-0.
 01080814,-0.00302776,0.02803089,0.01665619,0.09400220,-0.00016236,0.00
 054178,-0.00059348,0.00002856,-0.00006162,-0.00000510,0.00019231,-0.00
 016750,0.00010494,-0.00003288,-0.00002876,-0.00009273,0.00003412,0.000
 03930,-0.00005653,-0.00001071,0.00000427,0.00002417,-0.00000734,-0.000
 00021,0.00000661,0.00001170,0.00002184,-0.00000076,0.00000763,0.000007
 31,0.00001632,-0.00001205,-0.00001064,-0.00002507,0.00000519,0.0000088
 7,-0.00001410,-0.00001296,-0.00000559,-0.00001935,-0.00000090,0.000000
 50,-0.00001483,-0.00010450,-0.00008880,-0.00012397,0.00003054,0.000041
 85,0.00003482,0.00007237,0.00003023,0.00005700,-0.00000438,-0.00002103
 ,-0.00000947,-0.00002550,-0.00003765,-0.00001882,0.00001323,-0.0000122
 1,0.00001131,-0.00001077,0.00000381,-0.00001159,0.00002396,-0.00000882
 ,0.00001110,0.00001011,0.00001533,0.00000137,0.00002163,-0.00000607,-0
 .00000264,0.00001727,0.00000119,0.00000233,0.00464594,-0.00011129,0.00
 190532,0.00199425,0.00968063,-0.01013461,-0.00041579,-0.00068337,0.000
 63371,0.08602564,0.09551185,-0.30836326,-0.00157234,-0.00209651,0.0000
 1563,0.00072499,0.00399979,0.00233427,-0.00036850,-0.00027463,-0.00032
 154,0.00723885,0.00069524,-0.00680324,-0.09635826,-0.10606017,0.322020
 55,-0.00020165,0.00072846,-0.00066153,-0.00028951,0.00017781,0.0001497
 5,0.00002428,-0.00004039,-0.00027433,0.00003147,-0.00002639,0.00009933
 ,0.00003643,-0.00000745,0.00001194,-0.00000603,-0.00002154,-0.00001999
 ,-0.00001858,0.00001241,-0.00001186,-0.00001228,-0.00001381,0.00001725
 ,-0.00001550,-0.00002052,-0.00000426,0.00002535,0.00000560,0.00003590,
 -0.00001798,-0.00000138,0.00002165,0.00000258,0.00000165,0.00000531,-0
 .00000244,0.00000358,0.00001083,0.00010926,0.00017136,0.00013096,-0.00
 011364,0.00000737,0.00001987,-0.00010847,-0.00005111,-0.00005546,0.000
 00736,0.00000332,0.00001051,0.00003728,0.00004931,-0.00001127,-0.00000
 425,0.00000657,0.00000075,0.00001505,-0.00001837,-0.00000820,-0.000023
 61,-0.00000643,-0.00001034,-0.00002389,-0.00001319,-0.00001641,-0.0000
 1402,0.00000009,-0.00000298,-0.00000745,-0.00000069,-0.00000599,0.0011
 7326,0.00473252,0.00558206,-0.00070867,-0.00066608,0.00048914,-0.00477
 862,0.02210924,-0.01288719,0.00399692,0.00228135,0.00482890,-0.0005895
 3,-0.00045321,-0.00045811,-0.11377864,0.11142209,-0.04393759,-0.001772
 41,-0.00278428,-0.00145015,0.00971389,-0.01011682,0.00688264,0.0001750
 5,-0.00049308,0.00022193,0.10894175,-0.00020994,-0.00042149,0.00070305
 ,0.00014809,-0.00014675,-0.00005894,0.00006922,0.00000116,0.00015331,-
 0.00003068,-0.00002465,-0.00001084,0.00000214,0.00000183,-0.00008276,-
 0.00002835,0.00000380,-0.00002629,-0.00000238,-0.00001166,0.00001393,-
 0.00001467,0.00001492,0.00003847,0.00002203,-0.00000057,0.00002307,0.0
 0000412,0.00004134,-0.00005802,0.00001345,0.00000118,-0.00001740,-0.00
 000392,-0.00002580,-0.00002376,0.00000832,-0.00000650,-0.00001988,0.00
 000365,-0.00010589,-0.00018286,0.00003769,0.00005070,0.00002152,0.0000
 7698,0.00005014,0.00001527,-0.00001008,-0.00002129,-0.00001504,-0.0000
 1544,-0.00004078,0.00000265,0.00001641,-0.00000311,0.00001798,-0.00001
 310,0.00000443,-0.00000265,0.00002390,-0.00001099,0.00000159,0.0000063
 0,0.00000957,0.00001087,0.00001697,-0.00000854,0.00000591,0.00001470,0
 .00000017,0.00000443,0.00528734,0.00264531,-0.00041675,-0.00061325,0.0
 0039315,-0.00082086,0.00474728,-0.00818369,0.01057645,0.00200708,0.003
 68816,0.00376724,-0.00045877,-0.00051412,-0.00026933,0.11134992,-0.261
 75018,0.10479636,-0.00229764,-0.00081799,-0.00189527,0.00724542,-0.003
 67887,0.00080402,0.00023599,-0.00044218,0.00009638,-0.12484908,0.27019
 794,0.00011394,-0.00061201,0.00047432,0.00009378,-0.00013359,-0.000048
 78,-0.00005656,0.00003560,0.00007374,-0.00000425,0.00003188,0.00002556
 ,-0.00000624,0.00000258,-0.00002573,-0.00000865,0.00000897,-0.00002543
 ,0.00000787,-0.00000599,0.00000269,-0.00001663,-0.00000357,0.00000633,
 0.00000561,-0.00001248,0.00000039,-0.00000097,0.00001444,-0.00002570,0
 .00000447,-0.00000566,-0.00000172,0.00000280,-0.00000592,-0.00000499,0
 .00000442,-0.00000422,-0.00000001,0.00003170,-0.00003355,-0.00004499,-
 0.00002598,0.00002195,0.00000846,0.00002184,-0.00000757,-0.00000957,0.
 00000513,0.00001129,0.00001274,0.00001792,0.00002353,0.00000465,0.0000
 0556,-0.00000418,0.00000842,0.00000011,0.00000347,-0.00000473,0.000000
 36,-0.00000252,-0.00000102,-0.00000679,-0.00000256,-0.00000421,0.00000
 063,-0.00000109,0.00000171,-0.00000152,0.00000150,-0.00000244,0.005518
 90,-0.00013687,0.00017909,0.00051846,-0.00070269,-0.00091121,0.0098784
 9,-0.01676449,0.01196594,0.00509565,0.00340029,-0.00361516,-0.00044291
 ,-0.00027424,-0.00018291,-0.04386251,0.10502261,-0.11820304,-0.0022912
 9,-0.00112864,0.00014897,-0.01606197,0.02816134,-0.00620672,-0.0007170
 0,0.00127511,-0.00057859,0.04363006,-0.11607609,0.11690732,-0.00056275
 ,-0.00040662,-0.00029835,0.00001916,-0.00011404,0.00004243,-0.00006113
 ,0.00001199,-0.00001988,0.00001553,0.00004619,0.00001973,-0.00003511,0
 .00002234,0.00001738,0.00000690,0.00000852,-0.00001880,0.00000871,-0.0
 0000746,-0.00000508,-0.00001992,-0.00001044,-0.00001540,-0.00000100,-0
 .00001941,-0.00000529,0.00000501,-0.00000401,0.00001431,-0.00000729,-0
 .00000637,0.00001019,0.00000851,0.00000213,0.00000468,0.00000118,-0.00
 000142,0.00001171,-0.00002525,0.00012829,0.00011401,-0.00004587,-0.000
 01685,-0.00002334,-0.00005819,-0.00004218,-0.00003378,0.00002095,0.000
 03326,0.00001299,0.00003537,0.00003937,0.00003152,-0.00001098,0.000000
 92,-0.00001102,0.00000858,-0.00000716,-0.00000052,-0.00002229,0.000007
 94,-0.00000615,-0.00001730,-0.00001743,-0.00000485,-0.00001300,0.00000
 349,-0.00000163,-0.00001403,0.00000007,-0.00000182,0.00016044,-0.00073
 551,-0.00075561,0.00408439,0.00509619,0.00059824,0.00477690,0.00209735
 ,0.00389249,-0.00502034,0.00421043,0.01034055,-0.00049023,0.00023407,0
 .00036224,-0.00205492,0.00745635,0.00164979,-0.00034621,0.00024433,0.0
 0009261,-0.21588692,0.11474291,0.11478135,-0.00168893,-0.00206373,-0.0
 0222101,-0.00180278,-0.00278969,-0.00145443,0.21903281,-0.00050714,-0.
 00028386,-0.00030764,0.00001669,-0.00002865,0.00007785,0.00004951,0.00
 000739,0.00006209,-0.00001201,0.00001633,-0.00005188,-0.00002410,0.000
 01314,-0.00003094,-0.00000120,0.00000100,-0.00001026,-0.00000280,-0.00
 000699,0.00000454,-0.00000007,0.00000671,0.00000515,0.00001130,0.00000
 276,0.00001460,0.00000451,0.00000156,-0.00000915,0.00000070,0.00000370
 ,-0.00000516,-0.00000320,-0.00000650,-0.00000941,0.00000079,0.00000040
 ,-0.00000680,-0.00008366,0.00006444,-0.00001952,0.00001513,0.00002099,
 -0.00001172,-0.00001662,0.00001313,-0.00001301,-0.00001019,-0.00000890
 ,-0.00000934,-0.00000081,-0.00001554,0.00001534,0.00000062,0.00001428,
 0.00000353,-0.00000638,-0.00000100,0.00000491,0.00000634,-0.00000978,0
 .00000159,-0.00000051,0.00000452,0.00000252,0.00000563,-0.00000585,0.0
 0000015,0.00000830,0.00000041,0.00000289,-0.00062190,-0.00073604,0.000
 64208,0.00481760,-0.00117606,0.00522875,0.00235179,0.00271539,0.004605
 07,0.02177475,-0.00755985,-0.01774569,0.00097166,-0.00069546,-0.000779
 44,-0.00997220,0.01067718,0.00858251,-0.00045450,0.00024675,0.00028208
 ,0.11469903,-0.13585942,-0.06625920,-0.00274431,-0.00072553,-0.0010253
 0,-0.00212892,-0.00088875,-0.00209662,-0.12814384,0.13419812,-0.000441
 39,-0.00024995,-0.00011340,0.00005918,-0.00013974,0.00001547,0.0000256
 7,-0.00002654,0.00004451,0.00000132,-0.00005190,-0.00003393,0.00003517
 ,0.00002527,0.00000112,0.00000334,-0.00001589,0.00003673,-0.00002351,0
 .00000610,0.00000388,0.00001061,0.00001553,0.00000085,0.00000050,0.000
 00471,0.00001073,-0.00001457,-0.00000361,-0.00000303,0.00000264,0.0000
 0743,-0.00000613,-0.00000636,-0.00000965,-0.00001124,-0.00000007,-0.00
 000061,-0.00001277,-0.00006417,0.00002723,0.00000898,0.00000061,0.0000
 3858,0.00002126,0.00000305,0.00000638,0.00000410,0.00000029,-0.0000211
 2,-0.00001022,-0.00001120,-0.00002067,-0.00002077,0.00000440,0.0000034
 3,0.00000320,-0.00000300,-0.00000078,-0.00000286,0.00000746,-0.0000029
 6,-0.00000024,-0.00000019,0.00000330,0.00000385,0.00000635,-0.00000424
 ,-0.00000083,0.00000816,-0.00000093,0.00000243,-0.00067401,0.00065609,
 -0.00076532,0.00096374,0.00473923,0.00102024,0.00347256,0.00511290,-0.
 00325449,-0.01243371,0.00965455,0.01199406,-0.00054674,0.00036445,0.00
 031664,0.02471200,-0.01880051,-0.00909772,0.00104222,-0.00081464,-0.00
 066077,0.11465835,-0.06621234,-0.14230098,-0.00134631,-0.00206872,0.00
 001023,-0.00233312,-0.00107576,0.00007663,-0.12711926,0.06885541,0.142
 71979||-0.00000412,0.00000097,-0.00003813,0.00001027,0.00000050,-0.000
 00190,0.00000621,0.00000881,0.00002764,-0.00000091,-0.00001794,0.00000
 350,0.00000360,-0.00001242,-0.00000964,-0.00000936,0.00000908,-0.00000
 307,0.00000706,0.00000643,0.00000262,-0.00001448,0.00001154,0.00001212
 ,-0.00000217,-0.00000426,0.00000072,0.00001727,-0.00001055,-0.00000444
 ,0.00000133,0.00000176,0.00000116,-0.00000121,-0.00000199,0.00000248,0
 .00000040,0.00000130,-0.00000127,0.00000338,-0.00000157,0.00000837,-0.
 00000944,-0.00000408,-0.00001194,0.00000859,0.00000131,-0.00000414,0.0
 0000438,0.00000399,-0.00000569,0.00000034,0.00000463,0.00000835,-0.000
 00413,-0.00000702,-0.00000316,0.00000006,-0.00000376,-0.00000069,-0.00
 000361,0.00000124,0.00001019,-0.00000403,0.00000182,0.00000037,0.00000
 014,-0.00000216,-0.00000098,0.00000124,-0.00000079,-0.00000152,-0.0000
 2085,0.00007217,-0.00005693,-0.00004970,0.00001015,0.00007545,0.000068
 99,-0.00007194,0.00000086,0.00005895,-0.00007371,-0.00000855,0.0000042
 5,-0.00000220,-0.00000673,-0.00005619,0.00001023,0.00007388,-0.0000068
 4,0.00000357,-0.00000550,-0.00000520,0.00006292,-0.00006656,-0.0000074
 1,0.00000607,0.00000202,0.00000306,0.00000014,-0.00000627,0.00000013,-
 0.00000423,0.00000741|||@


 SILVERMAN'S PARADOX - IF MURPHY'S LAW CAN GO WRONG, IT WILL.
 Job cpu time:  0 days  0 hours  6 minutes 25.0 seconds.
 File lengths (MBytes):  RWF=    350 Int=      0 D2E=      0 Chk=      7 Scr=      1
 Normal termination of Gaussian 09 at Tue Sep 07 08:31:33 2021.
