 Entering Link 1 = b:\programy\g09w\l1.exe PID=      6132.
  
 Copyright (c) 1988,1990,1992,1993,1995,1998,2003,2009, Gaussian, Inc.
                  All Rights Reserved.
  
 This is part of the Gaussian(R) 09 program.  It is based on
 the Gaussian(R) 03 system (copyright 2003, Gaussian, Inc.),
 the Gaussian(R) 98 system (copyright 1998, Gaussian, Inc.),
 the Gaussian(R) 94 system (copyright 1995, Gaussian, Inc.),
 the Gaussian 92(TM) system (copyright 1992, Gaussian, Inc.),
 the Gaussian 90(TM) system (copyright 1990, Gaussian, Inc.),
 the Gaussian 88(TM) system (copyright 1988, Gaussian, Inc.),
 the Gaussian 86(TM) system (copyright 1986, Carnegie Mellon
 University), and the Gaussian 82(TM) system (copyright 1983,
 Carnegie Mellon University). Gaussian is a federally registered
 trademark of Gaussian, Inc.
  
 This software contains proprietary and confidential information,
 including trade secrets, belonging to Gaussian, Inc.
  
 This software is provided under written license and may be
 used, copied, transmitted, or stored only in accord with that
 written license.
  
 The following legend is applicable only to US Government
 contracts under FAR:
  
                    RESTRICTED RIGHTS LEGEND
  
 Use, reproduction and disclosure by the US Government is
 subject to restrictions as set forth in subparagraphs (a)
 and (c) of the Commercial Computer Software - Restricted
 Rights clause in FAR 52.227-19.
  
 Gaussian, Inc.
 340 Quinnipiac St., Bldg. 40, Wallingford CT 06492
  
  
 ---------------------------------------------------------------
 Warning -- This program may not be used in any manner that
 competes with the business of Gaussian, Inc. or will provide
 assistance to any competitor of Gaussian, Inc.  The licensee
 of this program is prohibited from giving any competitor of
 Gaussian, Inc. access to this program.  By using this program,
 the user acknowledges that Gaussian, Inc. is engaged in the
 business of creating and licensing software in the field of
 computational chemistry and represents and warrants to the
 licensee that it is not a competitor of Gaussian, Inc. and that
 it will not use this program in any manner prohibited above.
 ---------------------------------------------------------------
  

 Cite this work as:
 Gaussian 09, Revision A.02,
 M. J. Frisch, G. W. Trucks, H. B. Schlegel, G. E. Scuseria, 
 M. A. Robb, J. R. Cheeseman, G. Scalmani, V. Barone, B. Mennucci, 
 G. A. Petersson, H. Nakatsuji, M. Caricato, X. Li, H. P. Hratchian, 
 A. F. Izmaylov, J. Bloino, G. Zheng, J. L. Sonnenberg, M. Hada, 
 M. Ehara, K. Toyota, R. Fukuda, J. Hasegawa, M. Ishida, T. Nakajima, 
 Y. Honda, O. Kitao, H. Nakai, T. Vreven, J. A. Montgomery, Jr., 
 J. E. Peralta, F. Ogliaro, M. Bearpark, J. J. Heyd, E. Brothers, 
 K. N. Kudin, V. N. Staroverov, R. Kobayashi, J. Normand, 
 K. Raghavachari, A. Rendell, J. C. Burant, S. S. Iyengar, J. Tomasi, 
 M. Cossi, N. Rega, J. M. Millam, M. Klene, J. E. Knox, J. B. Cross, 
 V. Bakken, C. Adamo, J. Jaramillo, R. Gomperts, R. E. Stratmann, 
 O. Yazyev, A. J. Austin, R. Cammi, C. Pomelli, J. W. Ochterski, 
 R. L. Martin, K. Morokuma, V. G. Zakrzewski, G. A. Voth, 
 P. Salvador, J. J. Dannenberg, S. Dapprich, A. D. Daniels, 
 O. Farkas, J. B. Foresman, J. V. Ortiz, J. Cioslowski, 
 and D. J. Fox, Gaussian, Inc., Wallingford CT, 2009.
 
 ******************************************
 Gaussian 09:  IA32W-G09RevA.02 11-Jun-2009
                06-Sep-2021 
 ******************************************
 %nprocshared=12
 Will use up to   12 processors via shared memory.
 ----------------------------------------------
 # opt freq=noraman hf/6-311g geom=connectivity
 ----------------------------------------------
 1/18=20,19=15,38=1,57=2/1,3;
 2/9=110,12=2,17=6,18=5,40=1/2;
 3/5=4,6=6,11=9,16=1,25=1,30=1,71=1/1,2,3;
 4//1;
 5/5=2,38=5/2;
 6/7=2,8=2,9=2,10=2,28=1/1;
 7//1,2,3,16;
 1/18=20,19=15/3(2);
 2/9=110/2;
 99//99;
 2/9=110/2;
 3/5=4,6=6,11=9,16=1,25=1,30=1,71=1/1,2,3;
 4/5=5,16=3/1;
 5/5=2,38=5/2;
 7//1,2,3,16;
 1/18=20,19=15/3(-5);
 2/9=110/2;
 6/7=2,8=2,9=2,10=2,19=2,28=1/1;
 99/9=1/99;
 -----
 M0001
 -----
 Symbolic Z-matrix:
 Charge =  0 Multiplicity = 1
 C                     0.        0.        0.7743 
 H                     0.        0.        1.89897 
 C                     1.36538  -0.47404   0.34055 
 C                     2.30733  -0.7995    1.31988 
 C                     1.7181   -0.598    -1.00417 
 C                     3.57538  -1.23954   0.95778 
 H                     2.04776  -0.70816   2.38133 
 C                     2.9855   -1.0376   -1.36551 
 H                     0.97183  -0.34046  -1.7769 
 C                     3.91735  -1.35942  -0.38471 
 H                     4.30583  -1.49219   1.73322 
 H                     3.24875  -1.13016  -2.42413 
 H                     4.91619  -1.70574  -0.66843 
 C                    -1.09322  -0.94543   0.34055 
 C                    -1.37694  -1.18892  -1.00417 
 C                    -1.84605  -1.59846   1.31988 
 C                    -2.39134  -2.06672  -1.36551 
 H                    -0.78076  -0.6714   -1.7769 
 C                    -2.86116  -2.4766    0.95778 
 H                    -1.63716  -1.41933   2.38133 
 C                    -3.13597  -2.71282  -0.38471 
 H                    -2.60312  -2.24842  -2.42413 
 H                    -3.44519  -2.98286   1.73322 
 H                    -3.93531  -3.40467  -0.66843 
 C                    -0.27216   1.41947   0.34055 
 C                    -0.46128   2.39795   1.31988 
 C                    -0.34116   1.78692  -1.00417 
 C                    -0.71421   3.71614   0.95778 
 H                    -0.4106    2.12749   2.38133 
 C                    -0.59416   3.10432  -1.36551 
 H                    -0.19107   1.01186  -1.7769 
 C                    -0.78139   4.07224  -0.38471 
 H                    -0.86064   4.47506   1.73322 
 H                    -0.64563   3.37858  -2.42413 
 H                    -0.98088   5.11041  -0.66843 
 

 GradGradGradGradGradGradGradGradGradGradGradGradGradGradGradGradGradGrad
 Berny optimization.
 Initialization pass.
                           ----------------------------
                           !    Initial Parameters    !
                           ! (Angstroms and Degrees)  !
 --------------------------                            --------------------------
 ! Name  Definition              Value          Derivative Info.                !
 --------------------------------------------------------------------------------
 ! R1    R(1,2)                  1.1247         estimate D2E/DX2                !
 ! R2    R(1,3)                  1.509          estimate D2E/DX2                !
 ! R3    R(1,14)                 1.509          estimate D2E/DX2                !
 ! R4    R(1,25)                 1.509          estimate D2E/DX2                !
 ! R5    R(3,4)                  1.3972         estimate D2E/DX2                !
 ! R6    R(3,5)                  1.3957         estimate D2E/DX2                !
 ! R7    R(4,6)                  1.3902         estimate D2E/DX2                !
 ! R8    R(4,7)                  1.0965         estimate D2E/DX2                !
 ! R9    R(5,8)                  1.3893         estimate D2E/DX2                !
 ! R10   R(5,9)                  1.1047         estimate D2E/DX2                !
 ! R11   R(6,10)                 1.3905         estimate D2E/DX2                !
 ! R12   R(6,11)                 1.0949         estimate D2E/DX2                !
 ! R13   R(8,10)                 1.3906         estimate D2E/DX2                !
 ! R14   R(8,12)                 1.0948         estimate D2E/DX2                !
 ! R15   R(10,13)                1.0946         estimate D2E/DX2                !
 ! R16   R(14,15)                1.3957         estimate D2E/DX2                !
 ! R17   R(14,16)                1.3972         estimate D2E/DX2                !
 ! R18   R(15,17)                1.3893         estimate D2E/DX2                !
 ! R19   R(15,18)                1.1047         estimate D2E/DX2                !
 ! R20   R(16,19)                1.3902         estimate D2E/DX2                !
 ! R21   R(16,20)                1.0965         estimate D2E/DX2                !
 ! R22   R(17,21)                1.3906         estimate D2E/DX2                !
 ! R23   R(17,22)                1.0948         estimate D2E/DX2                !
 ! R24   R(19,21)                1.3905         estimate D2E/DX2                !
 ! R25   R(19,23)                1.0949         estimate D2E/DX2                !
 ! R26   R(21,24)                1.0946         estimate D2E/DX2                !
 ! R27   R(25,26)                1.3972         estimate D2E/DX2                !
 ! R28   R(25,27)                1.3957         estimate D2E/DX2                !
 ! R29   R(26,28)                1.3902         estimate D2E/DX2                !
 ! R30   R(26,29)                1.0965         estimate D2E/DX2                !
 ! R31   R(27,30)                1.3893         estimate D2E/DX2                !
 ! R32   R(27,31)                1.1047         estimate D2E/DX2                !
 ! R33   R(28,32)                1.3905         estimate D2E/DX2                !
 ! R34   R(28,33)                1.0949         estimate D2E/DX2                !
 ! R35   R(30,32)                1.3906         estimate D2E/DX2                !
 ! R36   R(30,34)                1.0948         estimate D2E/DX2                !
 ! R37   R(32,35)                1.0946         estimate D2E/DX2                !
 ! A1    A(2,1,3)              106.705          estimate D2E/DX2                !
 ! A2    A(2,1,14)             106.705          estimate D2E/DX2                !
 ! A3    A(2,1,25)             106.705          estimate D2E/DX2                !
 ! A4    A(3,1,14)             112.0901         estimate D2E/DX2                !
 ! A5    A(3,1,25)             112.0901         estimate D2E/DX2                !
 ! A6    A(14,1,25)            112.0901         estimate D2E/DX2                !
 ! A7    A(1,3,4)              118.7954         estimate D2E/DX2                !
 ! A8    A(1,3,5)              122.2424         estimate D2E/DX2                !
 ! A9    A(4,3,5)              118.9622         estimate D2E/DX2                !
 ! A10   A(3,4,6)              120.4026         estimate D2E/DX2                !
 ! A11   A(3,4,7)              119.9662         estimate D2E/DX2                !
 ! A12   A(6,4,7)              119.6313         estimate D2E/DX2                !
 ! A13   A(3,5,8)              120.613          estimate D2E/DX2                !
 ! A14   A(3,5,9)              118.8493         estimate D2E/DX2                !
 ! A15   A(8,5,9)              120.5377         estimate D2E/DX2                !
 ! A16   A(4,6,10)             120.2037         estimate D2E/DX2                !
 ! A17   A(4,6,11)             119.8085         estimate D2E/DX2                !
 ! A18   A(10,6,11)            119.9878         estimate D2E/DX2                !
 ! A19   A(5,8,10)             120.0717         estimate D2E/DX2                !
 ! A20   A(5,8,12)             119.8425         estimate D2E/DX2                !
 ! A21   A(10,8,12)            120.0858         estimate D2E/DX2                !
 ! A22   A(6,10,8)             119.7469         estimate D2E/DX2                !
 ! A23   A(6,10,13)            120.1285         estimate D2E/DX2                !
 ! A24   A(8,10,13)            120.1246         estimate D2E/DX2                !
 ! A25   A(1,14,15)            122.2424         estimate D2E/DX2                !
 ! A26   A(1,14,16)            118.7954         estimate D2E/DX2                !
 ! A27   A(15,14,16)           118.9622         estimate D2E/DX2                !
 ! A28   A(14,15,17)           120.613          estimate D2E/DX2                !
 ! A29   A(14,15,18)           118.8493         estimate D2E/DX2                !
 ! A30   A(17,15,18)           120.5377         estimate D2E/DX2                !
 ! A31   A(14,16,19)           120.4026         estimate D2E/DX2                !
 ! A32   A(14,16,20)           119.9662         estimate D2E/DX2                !
 ! A33   A(19,16,20)           119.6313         estimate D2E/DX2                !
 ! A34   A(15,17,21)           120.0717         estimate D2E/DX2                !
 ! A35   A(15,17,22)           119.8425         estimate D2E/DX2                !
 ! A36   A(21,17,22)           120.0858         estimate D2E/DX2                !
 ! A37   A(16,19,21)           120.2037         estimate D2E/DX2                !
 ! A38   A(16,19,23)           119.8085         estimate D2E/DX2                !
 ! A39   A(21,19,23)           119.9878         estimate D2E/DX2                !
 ! A40   A(17,21,19)           119.7469         estimate D2E/DX2                !
 ! A41   A(17,21,24)           120.1246         estimate D2E/DX2                !
 ! A42   A(19,21,24)           120.1285         estimate D2E/DX2                !
 ! A43   A(1,25,26)            118.7954         estimate D2E/DX2                !
 ! A44   A(1,25,27)            122.2424         estimate D2E/DX2                !
 ! A45   A(26,25,27)           118.9622         estimate D2E/DX2                !
 ! A46   A(25,26,28)           120.4026         estimate D2E/DX2                !
 ! A47   A(25,26,29)           119.9662         estimate D2E/DX2                !
 ! A48   A(28,26,29)           119.6313         estimate D2E/DX2                !
 ! A49   A(25,27,30)           120.613          estimate D2E/DX2                !
 ! A50   A(25,27,31)           118.8493         estimate D2E/DX2                !
 ! A51   A(30,27,31)           120.5377         estimate D2E/DX2                !
 ! A52   A(26,28,32)           120.2037         estimate D2E/DX2                !
 ! A53   A(26,28,33)           119.8085         estimate D2E/DX2                !
 ! A54   A(32,28,33)           119.9878         estimate D2E/DX2                !
 ! A55   A(27,30,32)           120.0717         estimate D2E/DX2                !
 ! A56   A(27,30,34)           119.8425         estimate D2E/DX2                !
 ! A57   A(32,30,34)           120.0858         estimate D2E/DX2                !
 ! A58   A(28,32,30)           119.7469         estimate D2E/DX2                !
 ! A59   A(28,32,35)           120.1285         estimate D2E/DX2                !
 ! A60   A(30,32,35)           120.1246         estimate D2E/DX2                !
 ! D1    D(2,1,3,4)             -0.0694         estimate D2E/DX2                !
 ! D2    D(2,1,3,5)            179.9308         estimate D2E/DX2                !
 ! D3    D(14,1,3,4)          -116.5366         estimate D2E/DX2                !
 ! D4    D(14,1,3,5)            63.4636         estimate D2E/DX2                !
 ! D5    D(25,1,3,4)           116.3978         estimate D2E/DX2                !
 ! D6    D(25,1,3,5)           -63.602          estimate D2E/DX2                !
 ! D7    D(2,1,14,15)          179.9308         estimate D2E/DX2                !
 ! D8    D(2,1,14,16)           -0.0694         estimate D2E/DX2                !
 ! D9    D(3,1,14,15)          -63.602          estimate D2E/DX2                !
 ! D10   D(3,1,14,16)          116.3978         estimate D2E/DX2                !
 ! D11   D(25,1,14,15)          63.4636         estimate D2E/DX2                !
 ! D12   D(25,1,14,16)        -116.5366         estimate D2E/DX2                !
 ! D13   D(2,1,25,26)           -0.0694         estimate D2E/DX2                !
 ! D14   D(2,1,25,27)          179.9308         estimate D2E/DX2                !
 ! D15   D(3,1,25,26)         -116.5366         estimate D2E/DX2                !
 ! D16   D(3,1,25,27)           63.4636         estimate D2E/DX2                !
 ! D17   D(14,1,25,26)         116.3978         estimate D2E/DX2                !
 ! D18   D(14,1,25,27)         -63.602          estimate D2E/DX2                !
 ! D19   D(1,3,4,6)           -179.9932         estimate D2E/DX2                !
 ! D20   D(1,3,4,7)             -0.001          estimate D2E/DX2                !
 ! D21   D(5,3,4,6)              0.0066         estimate D2E/DX2                !
 ! D22   D(5,3,4,7)            179.9987         estimate D2E/DX2                !
 ! D23   D(1,3,5,8)            179.983          estimate D2E/DX2                !
 ! D24   D(1,3,5,9)             -0.0174         estimate D2E/DX2                !
 ! D25   D(4,3,5,8)             -0.0167         estimate D2E/DX2                !
 ! D26   D(4,3,5,9)            179.9829         estimate D2E/DX2                !
 ! D27   D(3,4,6,10)             0.0097         estimate D2E/DX2                !
 ! D28   D(3,4,6,11)          -179.9837         estimate D2E/DX2                !
 ! D29   D(7,4,6,10)          -179.9825         estimate D2E/DX2                !
 ! D30   D(7,4,6,11)             0.0241         estimate D2E/DX2                !
 ! D31   D(3,5,8,10)             0.0107         estimate D2E/DX2                !
 ! D32   D(3,5,8,12)          -179.9978         estimate D2E/DX2                !
 ! D33   D(9,5,8,10)          -179.989          estimate D2E/DX2                !
 ! D34   D(9,5,8,12)             0.0026         estimate D2E/DX2                !
 ! D35   D(4,6,10,8)            -0.0159         estimate D2E/DX2                !
 ! D36   D(4,6,10,13)          179.9832         estimate D2E/DX2                !
 ! D37   D(11,6,10,8)          179.9775         estimate D2E/DX2                !
 ! D38   D(11,6,10,13)          -0.0234         estimate D2E/DX2                !
 ! D39   D(5,8,10,6)             0.0057         estimate D2E/DX2                !
 ! D40   D(5,8,10,13)         -179.9933         estimate D2E/DX2                !
 ! D41   D(12,8,10,6)         -179.9858         estimate D2E/DX2                !
 ! D42   D(12,8,10,13)           0.0152         estimate D2E/DX2                !
 ! D43   D(1,14,15,17)         179.983          estimate D2E/DX2                !
 ! D44   D(1,14,15,18)          -0.0174         estimate D2E/DX2                !
 ! D45   D(16,14,15,17)         -0.0167         estimate D2E/DX2                !
 ! D46   D(16,14,15,18)        179.9829         estimate D2E/DX2                !
 ! D47   D(1,14,16,19)        -179.9932         estimate D2E/DX2                !
 ! D48   D(1,14,16,20)          -0.001          estimate D2E/DX2                !
 ! D49   D(15,14,16,19)          0.0065         estimate D2E/DX2                !
 ! D50   D(15,14,16,20)        179.9987         estimate D2E/DX2                !
 ! D51   D(14,15,17,21)          0.0107         estimate D2E/DX2                !
 ! D52   D(14,15,17,22)       -179.9978         estimate D2E/DX2                !
 ! D53   D(18,15,17,21)       -179.9889         estimate D2E/DX2                !
 ! D54   D(18,15,17,22)          0.0026         estimate D2E/DX2                !
 ! D55   D(14,16,19,21)          0.0097         estimate D2E/DX2                !
 ! D56   D(14,16,19,23)       -179.9837         estimate D2E/DX2                !
 ! D57   D(20,16,19,21)       -179.9825         estimate D2E/DX2                !
 ! D58   D(20,16,19,23)          0.0241         estimate D2E/DX2                !
 ! D59   D(15,17,21,19)          0.0057         estimate D2E/DX2                !
 ! D60   D(15,17,21,24)       -179.9933         estimate D2E/DX2                !
 ! D61   D(22,17,21,19)       -179.9858         estimate D2E/DX2                !
 ! D62   D(22,17,21,24)          0.0152         estimate D2E/DX2                !
 ! D63   D(16,19,21,17)         -0.0159         estimate D2E/DX2                !
 ! D64   D(16,19,21,24)        179.9832         estimate D2E/DX2                !
 ! D65   D(23,19,21,17)        179.9775         estimate D2E/DX2                !
 ! D66   D(23,19,21,24)         -0.0234         estimate D2E/DX2                !
 ! D67   D(1,25,26,28)        -179.9932         estimate D2E/DX2                !
 ! D68   D(1,25,26,29)          -0.001          estimate D2E/DX2                !
 ! D69   D(27,25,26,28)          0.0065         estimate D2E/DX2                !
 ! D70   D(27,25,26,29)        179.9987         estimate D2E/DX2                !
 ! D71   D(1,25,27,30)         179.983          estimate D2E/DX2                !
 ! D72   D(1,25,27,31)          -0.0174         estimate D2E/DX2                !
 ! D73   D(26,25,27,30)         -0.0167         estimate D2E/DX2                !
 ! D74   D(26,25,27,31)        179.9829         estimate D2E/DX2                !
 ! D75   D(25,26,28,32)          0.0097         estimate D2E/DX2                !
 ! D76   D(25,26,28,33)       -179.9837         estimate D2E/DX2                !
 ! D77   D(29,26,28,32)       -179.9825         estimate D2E/DX2                !
 ! D78   D(29,26,28,33)          0.0241         estimate D2E/DX2                !
 ! D79   D(25,27,30,32)          0.0107         estimate D2E/DX2                !
 ! D80   D(25,27,30,34)       -179.9978         estimate D2E/DX2                !
 ! D81   D(31,27,30,32)       -179.9889         estimate D2E/DX2                !
 ! D82   D(31,27,30,34)          0.0026         estimate D2E/DX2                !
 ! D83   D(26,28,32,30)         -0.0159         estimate D2E/DX2                !
 ! D84   D(26,28,32,35)        179.9832         estimate D2E/DX2                !
 ! D85   D(33,28,32,30)        179.9775         estimate D2E/DX2                !
 ! D86   D(33,28,32,35)         -0.0234         estimate D2E/DX2                !
 ! D87   D(27,30,32,28)          0.0057         estimate D2E/DX2                !
 ! D88   D(27,30,32,35)       -179.9933         estimate D2E/DX2                !
 ! D89   D(34,30,32,28)       -179.9858         estimate D2E/DX2                !
 ! D90   D(34,30,32,35)          0.0152         estimate D2E/DX2                !
 --------------------------------------------------------------------------------
 Trust Radius=3.00D-01 FncErr=1.00D-07 GrdErr=1.00D-07
 Number of steps in this run= 197 maximum allowed number of steps= 210.
 GradGradGradGradGradGradGradGradGradGradGradGradGradGradGradGradGradGrad

                          Input orientation:                          
 ---------------------------------------------------------------------
 Center     Atomic      Atomic             Coordinates (Angstroms)
 Number     Number       Type             X           Y           Z
 ---------------------------------------------------------------------
      1          6           0        0.000000    0.000000    0.774305
      2          1           0        0.000000    0.000000    1.898975
      3          6           0        1.365377   -0.474037    0.340550
      4          6           0        2.307327   -0.799496    1.319883
      5          6           0        1.718100   -0.598005   -1.004171
      6          6           0        3.575376   -1.239541    0.957777
      7          1           0        2.047755   -0.708156    2.381331
      8          6           0        2.985503   -1.037601   -1.365515
      9          1           0        0.971833   -0.340459   -1.776905
     10          6           0        3.917355   -1.359419   -0.384713
     11          1           0        4.305834   -1.492194    1.733225
     12          1           0        3.248754   -1.130157   -2.424129
     13          1           0        4.916186   -1.705744   -0.668428
     14          6           0       -1.093216   -0.945433    0.340550
     15          6           0       -1.376937   -1.188916   -1.004171
     16          6           0       -1.846047   -1.598456    1.319883
     17          6           0       -2.391340   -2.066721   -1.365515
     18          1           0       -0.780763   -0.671402   -1.776905
     19          6           0       -2.861162   -2.476596    0.957777
     20          1           0       -1.637159   -1.419330    2.381331
     21          6           0       -3.135969   -2.712819   -0.384713
     22          1           0       -2.603121   -2.248425   -2.424129
     23          1           0       -3.445195   -2.982864    1.733225
     24          1           0       -3.935311   -3.404670   -0.668428
     25          6           0       -0.272161    1.419470    0.340550
     26          6           0       -0.461280    2.397952    1.319883
     27          6           0       -0.341162    1.786921   -1.004171
     28          6           0       -0.714214    3.716137    0.957777
     29          1           0       -0.410596    2.127486    2.381331
     30          6           0       -0.594163    3.104322   -1.365515
     31          1           0       -0.191070    1.011862   -1.776905
     32          6           0       -0.781386    4.072238   -0.384713
     33          1           0       -0.860639    4.475058    1.733225
     34          1           0       -0.645632    3.378582   -2.424129
     35          1           0       -0.980876    5.110414   -0.668428
 ---------------------------------------------------------------------
                    Distance matrix (angstroms):
                    1          2          3          4          5
     1  C    0.000000
     2  H    1.124670   0.000000
     3  C    1.509009   2.125477   0.000000
     4  C    2.502121   2.509641   1.397243   0.000000
     5  C    2.544101   3.426037   1.395727   2.406037   0.000000
     6  C    3.788593   3.899440   2.418897   1.390219   2.776739
     7  H    2.697651   2.219787   2.164542   1.096536   3.403297
     8  C    3.816893   4.543868   2.419312   2.779924   1.389290
     9  H    2.751189   3.817390   2.157854   3.403580   1.104700
    10  C    4.305463   4.733806   2.796873   2.410674   2.408361
    11  H    4.656863   4.560079   3.409175   2.155159   3.871598
    12  H    4.696981   5.524571   3.408966   3.874694   2.154616
    13  H    5.399993   5.802586   3.891450   3.403059   3.401112
    14  C    1.509009   2.125477   2.503377   3.541763   3.135678
    15  C    2.544101   3.426037   3.136816   4.373406   3.150941
    16  C    2.502121   2.509641   3.540714   4.229522   4.370958
    17  C    3.816893   4.543868   4.422694   5.558300   4.378949
    18  H    2.751189   3.817390   3.021338   4.375249   2.616643
    19  C    3.788593   3.899440   4.717504   5.445830   5.324282
    20  H    2.697651   2.219787   3.751478   4.131566   4.836730
    21  C    4.305463   4.733806   5.079396   6.016305   5.330868
    22  H    4.696981   5.524571   5.151784   6.342675   4.838710
    23  H    4.656863   4.560079   5.601371   6.166803   6.311933
    24  H    5.399993   5.802586   6.140353   7.050591   6.320691
    25  C    1.509009   2.125477   2.503377   3.540714   3.136816
    26  C    2.502121   2.509641   3.541763   4.229522   4.373406
    27  C    2.544101   3.426037   3.135678   4.370958   3.150941
    28  C    3.788593   3.899440   4.718392   5.445344   5.327026
    29  H    2.697651   2.219787   3.753237   4.132917   4.839553
    30  C    3.816893   4.543868   4.422115   5.556060   4.379995
    31  H    2.751189   3.817390   3.018946   4.371853   2.614138
    32  C    4.305463   4.733806   5.079687   6.014947   5.333135
    33  H    4.656863   4.560079   5.602520   6.166667   6.314998
    34  H    4.696981   5.524571   5.150755   6.339868   4.839086
    35  H    5.399993   5.802586   6.140768   7.049304   6.323230
                    6          7          8          9         10
     6  C    0.000000
     7  H    2.154647   0.000000
     8  C    2.405496   3.876436   0.000000
     9  H    3.881400   4.310886   2.170280   0.000000
    10  C    1.390539   3.401550   1.390643   3.413587   0.000000
    11  H    1.094861   2.476626   3.398840   4.976250   2.157361
    12  H    3.399402   4.971210   1.094775   2.495373   2.158427
    13  H    2.158624   4.303964   2.158676   4.318639   1.094577
    14  C    4.718392   3.753237   4.422115   3.018946   5.079687
    15  C    5.327026   4.839553   4.379995   2.614138   5.333135
    16  C    5.445344   4.132917   5.556060   4.371853   6.014947
    17  C    6.456285   5.965746   5.474444   3.802651   6.423542
    18  H    5.174670   5.029194   3.806324   1.783569   4.948119
    19  C    6.554337   5.408452   6.453827   5.170437   6.999904
    20  H    5.406418   3.752914   5.962682   5.026105   6.205418
    21  C    7.001070   6.208113   6.421896   4.943716   7.181996
    22  H    7.115403   6.862618   5.815452   4.103600   6.889569
    23  H    7.275226   5.980538   7.398656   6.230044   7.831243
    24  H    7.983905   7.236663   7.347558   5.890515   8.119600
    25  C    4.717504   3.751478   4.422694   3.021338   5.079396
    26  C    5.445830   4.131566   5.558300   4.375249   6.016305
    27  C    5.324282   4.836730   4.378949   2.616643   5.330868
    28  C    6.554337   5.406418   6.456285   5.174670   7.001070
    29  H    5.408452   3.752914   5.965746   5.029194   6.208113
    30  C    6.453827   5.962682   5.474444   3.806324   6.421896
    31  H    5.170437   5.026105   3.802651   1.783569   4.943716
    32  C    6.999904   6.205418   6.423542   4.948119   7.181996
    33  H    7.275726   5.978671   7.401649   6.234435   7.833008
    34  H    7.112050   6.859170   5.814506   4.106868   6.886851
    35  H    7.982850   7.233906   7.349570   5.895237   8.119846
                   11         12         13         14         15
    11  H    0.000000
    12  H    4.304890   0.000000
    13  H    2.487181   2.488799   0.000000
    14  C    5.602520   5.150755   6.140768   0.000000
    15  C    6.314998   4.839086   6.323230   1.395727   0.000000
    16  C    6.166667   6.339868   7.049304   1.397243   2.406037
    17  C    7.401649   5.814506   7.349570   2.419312   1.389290
    18  H    6.234435   4.106868   5.895237   2.157854   1.104700
    19  C    7.275726   7.112050   7.982850   2.418897   2.776739
    20  H    5.978671   6.859170   7.233906   2.164542   3.403297
    21  C    7.833008   6.886851   8.119846   2.796873   2.408361
    22  H    8.098712   5.957765   7.740605   3.408966   2.154616
    23  H    7.893069   8.094755   8.792705   3.409175   3.871598
    24  H    8.794428   7.737356   9.013065   3.891450   3.401112
    25  C    5.601371   5.151784   6.140353   2.503377   3.135678
    26  C    6.166803   6.342675   7.050591   3.540714   4.370958
    27  C    6.311933   4.838711   6.320691   3.136816   3.150941
    28  C    7.275226   7.115403   7.983905   4.717504   5.324282
    29  H    5.980538   6.862618   7.236663   3.751478   4.836730
    30  C    7.398656   5.815452   7.347558   4.422694   4.378949
    31  H    6.230044   4.103600   5.890515   3.021338   2.616643
    32  C    7.831243   6.889569   8.119600   5.079396   5.330868
    33  H    7.893069   8.098712   8.794428   5.601371   6.311933
    34  H    8.094755   5.957765   7.737356   5.151784   4.838710
    35  H    8.792705   7.740606   9.013065   6.140353   6.320691
                   16         17         18         19         20
    16  C    0.000000
    17  C    2.779924   0.000000
    18  H    3.403580   2.170280   0.000000
    19  C    1.390219   2.405496   3.881400   0.000000
    20  H    1.096536   3.876436   4.310886   2.154647   0.000000
    21  C    2.410674   1.390643   3.413587   1.390539   3.401550
    22  H    3.874694   1.094775   2.495373   3.399402   4.971210
    23  H    2.155159   3.398840   4.976250   1.094861   2.476626
    24  H    3.403059   2.158676   4.318639   2.158624   4.303964
    25  C    3.541763   4.422115   3.018946   4.718392   3.753238
    26  C    4.229522   5.556060   4.371853   5.445344   4.132917
    27  C    4.373406   4.379995   2.614138   5.327026   4.839553
    28  C    5.445830   6.453827   5.170437   6.554337   5.408452
    29  H    4.131566   5.962682   5.026105   5.406418   3.752914
    30  C    5.558300   5.474444   3.802651   6.456285   5.965746
    31  H    4.375249   3.806324   1.783569   5.174670   5.029194
    32  C    6.016305   6.421896   4.943716   7.001070   6.208113
    33  H    6.166803   7.398656   6.230044   7.275226   5.980538
    34  H    6.342675   5.815452   4.103600   7.115403   6.862618
    35  H    7.050591   7.347558   5.890515   7.983905   7.236663
                   21         22         23         24         25
    21  C    0.000000
    22  H    2.158427   0.000000
    23  H    2.157361   4.304890   0.000000
    24  H    1.094577   2.488799   2.487181   0.000000
    25  C    5.079687   5.150755   5.602520   6.140768   0.000000
    26  C    6.014947   6.339868   6.166667   7.049304   1.397243
    27  C    5.333135   4.839086   6.314998   6.323230   1.395727
    28  C    6.999904   7.112050   7.275726   7.982850   2.418897
    29  H    6.205418   6.859170   5.978671   7.233906   2.164542
    30  C    6.423542   5.814506   7.401649   7.349570   2.419312
    31  H    4.948119   4.106867   6.234435   5.895237   2.157854
    32  C    7.181996   6.886851   7.833008   8.119846   2.796873
    33  H    7.831243   8.094755   7.893069   8.792705   3.409175
    34  H    6.889569   5.957765   8.098712   7.740606   3.408966
    35  H    8.119600   7.737356   8.794428   9.013065   3.891450
                   26         27         28         29         30
    26  C    0.000000
    27  C    2.406037   0.000000
    28  C    1.390219   2.776739   0.000000
    29  H    1.096536   3.403297   2.154647   0.000000
    30  C    2.779924   1.389290   2.405496   3.876436   0.000000
    31  H    3.403580   1.104700   3.881400   4.310886   2.170280
    32  C    2.410674   2.408361   1.390539   3.401550   1.390643
    33  H    2.155159   3.871598   1.094861   2.476626   3.398840
    34  H    3.874694   2.154616   3.399402   4.971210   1.094775
    35  H    3.403059   3.401112   2.158624   4.303964   2.158676
                   31         32         33         34         35
    31  H    0.000000
    32  C    3.413587   0.000000
    33  H    4.976250   2.157361   0.000000
    34  H    2.495373   2.158427   4.304890   0.000000
    35  H    4.318639   1.094577   2.487181   2.488799   0.000000
 Stoichiometry    C19H16
 Framework group  C3[C3(CH),X(C18H15)]
 Deg. of freedom    33
 Full point group                 C3      NOp   3
 Largest Abelian subgroup         C1      NOp   1
 Largest concise Abelian subgroup C1      NOp   1
                         Standard orientation:                         
 ---------------------------------------------------------------------
 Center     Atomic      Atomic             Coordinates (Angstroms)
 Number     Number       Type             X           Y           Z
 ---------------------------------------------------------------------
      1          6           0        0.000000    0.000000    0.760238
      2          1           0        0.000000    0.000000    1.884908
      3          6           0        0.000000    1.445325    0.326483
      4          6           0       -0.001484    2.441915    1.305816
      5          6           0        0.001425    1.819196   -1.018238
      6          6           0       -0.001674    3.784148    0.943710
      7          1           0       -0.002637    2.166744    2.367264
      8          6           0        0.001023    3.160672   -1.379582
      9          1           0        0.002886    1.029740   -1.790972
     10          6           0       -0.000589    4.146527   -0.398780
     11          1           0       -0.002571    4.557065    1.719158
     12          1           0        0.002118    3.439717   -2.438196
     13          1           0       -0.001017    5.203695   -0.682495
     14          6           0        1.251688   -0.722663    0.326483
     15          6           0        1.574757   -0.910832   -1.018238
     16          6           0        2.115503   -1.219673    1.305816
     17          6           0        2.736710   -1.581222   -1.379582
     18          1           0        0.890338   -0.517369   -1.790972
     19          6           0        3.278005   -1.890624    0.943710
     20          1           0        1.877774   -1.081089    2.367264
     21          6           0        3.591292   -2.072754   -0.398780
     22          1           0        2.977823   -1.721693   -2.438196
     23          1           0        3.947819   -2.276306    1.719158
     24          1           0        4.507041   -2.600967   -0.682495
     25          6           0       -1.251688   -0.722663    0.326483
     26          6           0       -2.114019   -1.222243    1.305816
     27          6           0       -1.576183   -0.908364   -1.018238
     28          6           0       -3.276331   -1.893523    0.943710
     29          1           0       -1.875137   -1.085656    2.367264
     30          6           0       -2.737733   -1.579450   -1.379582
     31          1           0       -0.893224   -0.512371   -1.790972
     32          6           0       -3.590704   -2.073774   -0.398780
     33          1           0       -3.945248   -2.280759    1.719158
     34          1           0       -2.979941   -1.718024   -2.438196
     35          1           0       -4.506024   -2.602728   -0.682495
 ---------------------------------------------------------------------
 Rotational constants (GHZ):      0.3814739      0.3814739      0.2405465
 Standard basis: 6-311G (5D, 7F)
 There are   295 symmetry adapted basis functions of A   symmetry.
 Integral buffers will be    262144 words long.
 Raffenetti 1 integral format.
 Two-electron integral symmetry is turned on.
   295 basis functions,   574 primitive gaussians,   295 cartesian basis functions
    65 alpha electrons       65 beta electrons
       nuclear repulsion energy      1288.3027997962 Hartrees.
 NAtoms=   35 NActive=   35 NUniq=   13 SFac= 3.00D+00 NAtFMM=   80 NAOKFM=F Big=F
 One-electron integrals computed using PRISM.
 PrsmSu:  requested number of processors reduced to:  10 ShMem   1 Linda.
 NBasis=   295 RedAO= T  NBF=   295
 NBsUse=   295 1.00D-06 NBFU=   295
 Harris functional with IExCor=  205 diagonalized for initial guess.
 ExpMin= 1.03D-01 ExpMax= 4.56D+03 ExpMxC= 6.82D+02 IAcc=1 IRadAn=         1 AccDes= 0.00D+00
 HarFok:  IExCor=  205 AccDes= 0.00D+00 IRadAn=         1 IDoV= 1
 ScaDFX=  1.000000  1.000000  1.000000  1.000000
 FoFCou: FMM=F IPFlag=           0 FMFlag=      100000 FMFlg1=           0
         NFxFlg=           0 DoJE=T BraDBF=F KetDBF=T FulRan=T
         Omega=  0.000000  0.000000  1.000000  0.000000  0.000000 ICntrl=     500 IOpCl=  0
         NMat0=    1 NMatS0=    1 NMatT0=    0 NMatD0=    1 NMtDS0=    0 NMtDT0=    0
         I1Cent=           4 NGrid=           0.
 Petite list used in FoFCou.
 Initial guess orbital symmetries:
       Occupied  (E) (E) (A) (A) (E) (E) (E) (E) (A) (A) (E) (E)
                 (E) (E) (A) (E) (E) (A) (A) (A) (E) (E) (A) (A)
                 (E) (E) (E) (E) (A) (A) (E) (E) (E) (E) (A) (E)
                 (E) (A) (A) (E) (E) (A) (E) (E) (A) (E) (E) (E)
                 (E) (A) (A) (E) (E) (A) (E) (E) (E) (E) (A) (E)
                 (E) (A) (E) (E) (A)
       Virtual   (E) (E) (E) (E) (A) (A) (A) (A) (E) (E) (E) (E)
                 (A) (A) (E) (E) (A) (A) (E) (E) (E) (E) (A) (A)
                 (E) (E) (E) (E) (A) (A) (E) (E) (A) (E) (E) (E)
                 (E) (E) (E) (A) (A) (E) (E) (A) (E) (E) (A) (A)
                 (E) (E) (A) (E) (E) (A) (E) (E) (A) (E) (E) (E)
                 (E) (E) (E) (A) (E) (E) (A) (E) (E) (A) (E) (E)
                 (A) (A) (E) (E) (E) (E) (A) (A) (E) (E) (A) (E)
                 (E) (E) (E) (A) (A) (E) (E) (A) (E) (E) (A) (A)
                 (E) (E) (E) (E) (A) (A) (E) (E) (A) (A) (E) (E)
                 (A) (E) (E) (A) (E) (E) (E) (E) (A) (E) (E) (E)
                 (E) (A) (A) (E) (E) (A) (E) (E) (E) (E) (A) (E)
                 (E) (A) (A) (E) (E) (A) (A) (E) (E) (A) (E) (E)
                 (A) (E) (E) (A) (E) (E) (A) (E) (E) (A) (E) (E)
                 (E) (E) (A) (A) (A) (E) (E) (A) (A) (E) (E) (E)
                 (E) (E) (E) (A) (E) (E) (A) (A) (E) (E) (A) (E)
                 (E) (E) (E) (A) (E) (E) (A) (E) (E) (A) (E) (E)
                 (A) (E) (E) (E) (E) (A) (E) (E) (A) (A) (E) (E)
                 (A) (E) (E) (A) (E) (E) (A) (A) (E) (E) (A) (E)
                 (E) (A) (E) (E) (A) (E) (E) (A) (E) (E) (A) (A)
                 (E) (E)
 The electronic state of the initial guess is 1-A.
 Requested convergence on RMS density matrix=1.00D-08 within 128 cycles.
 Requested convergence on MAX density matrix=1.00D-06.
 Requested convergence on             energy=1.00D-06.
 No special actions if energy rises.
 Integral accuracy reduced to 1.0D-05 until final iterations.
 Initial convergence to 1.0D-05 achieved.  Increase integral accuracy.
 DSYEVD returned Info=       44103 IAlg= 4 N=   295 NDim=   295 NE2=      112833 trying DSYEV.
 DSYEVD returned Info=       44103 IAlg= 4 N=   295 NDim=   295 NE2=      112833 trying DSYEV.
 SCF Done:  E(RHF) =  -728.661798030     A.U. after   14 cycles
             Convg  =    0.5650D-08             -V/T =  2.0001

 **********************************************************************

            Population analysis using the SCF density.

 **********************************************************************

 Orbital symmetries:
       Occupied  (A) (E) (E) (A) (E) (E) (A) (E) (E) (A) (E) (E)
                 (A) (E) (E) (A) (E) (E) (A) (A) (E) (E) (A) (A)
                 (E) (E) (E) (E) (A) (A) (E) (E) (E) (E) (A) (E)
                 (E) (A) (A) (E) (E) (A) (E) (E) (A) (E) (E) (E)
                 (E) (A) (A) (E) (E) (A) (E) (E) (A) (E) (E) (E)
                 (E) (E) (E) (A) (A)
       Virtual   (E) (E) (E) (E) (A) (A) (A) (E) (E) (A) (A) (E)
                 (E) (A) (E) (E) (A) (E) (E) (A) (E) (E) (A) (E)
                 (E) (A) (E) (E) (A) (A) (E) (E) (A) (E) (E) (E)
                 (E) (A) (E) (E) (A) (E) (E) (A) (E) (E) (A) (A)
                 (E) (E) (A) (E) (E) (E) (E) (A) (A) (E) (E) (E)
                 (E) (E) (E) (A) (A) (E) (E) (E) (E) (A) (A) (E)
                 (E) (E) (E) (A) (E) (E) (A) (E) (E) (A) (A) (E)
                 (E) (E) (E) (A) (A) (E) (E) (E) (E) (A) (A) (A)
                 (E) (E) (A) (E) (E) (A) (A) (E) (E) (E) (E) (A)
                 (A) (E) (E) (E) (E) (A) (A) (E) (E) (E) (E) (A)
                 (E) (E) (A) (E) (E) (A) (E) (E) (E) (E) (A) (E)
                 (E) (A) (A) (E) (E) (A) (A) (E) (E) (A) (E) (E)
                 (A) (A) (E) (E) (E) (E) (A) (A) (E) (E) (A) (E)
                 (E) (E) (E) (A) (E) (E) (A) (A) (E) (E) (A) (E)
                 (E) (E) (E) (A) (E) (E) (A) (A) (E) (E) (A) (E)
                 (E) (E) (E) (A) (A) (E) (E) (E) (E) (A) (E) (E)
                 (A) (E) (E) (E) (E) (A) (E) (E) (A) (A) (E) (E)
                 (E) (E) (A) (A) (E) (E) (A) (A) (E) (E) (A) (E)
                 (E) (A) (E) (E) (A) (A) (E) (E) (E) (E) (A) (A)
                 (E) (E)
 The electronic state is 1-A.
 Alpha  occ. eigenvalues --  -11.25893 -11.25308 -11.25308 -11.25302 -11.24433
 Alpha  occ. eigenvalues --  -11.24433 -11.24433 -11.24317 -11.24317 -11.24317
 Alpha  occ. eigenvalues --  -11.24167 -11.24167 -11.24167 -11.24083 -11.24083
 Alpha  occ. eigenvalues --  -11.24083 -11.23986 -11.23986 -11.23986  -1.18667
 Alpha  occ. eigenvalues --   -1.15800  -1.15800  -1.09083  -1.02580  -1.01969
 Alpha  occ. eigenvalues --   -1.01969  -1.01541  -1.01541  -0.93065  -0.85065
 Alpha  occ. eigenvalues --   -0.82364  -0.82364  -0.81933  -0.81933  -0.78034
 Alpha  occ. eigenvalues --   -0.70467  -0.70467  -0.69874  -0.66406  -0.63080
 Alpha  occ. eigenvalues --   -0.63080  -0.62916  -0.62307  -0.62307  -0.59924
 Alpha  occ. eigenvalues --   -0.58653  -0.58653  -0.57965  -0.57965  -0.53383
 Alpha  occ. eigenvalues --   -0.52148  -0.51251  -0.51251  -0.49542  -0.48623
 Alpha  occ. eigenvalues --   -0.48623  -0.48112  -0.47200  -0.47200  -0.34399
 Alpha  occ. eigenvalues --   -0.34399  -0.33775  -0.33775  -0.33415  -0.31071
 Alpha virt. eigenvalues --    0.12122   0.12122   0.12787   0.12787   0.14081
 Alpha virt. eigenvalues --    0.15509   0.15695   0.16376   0.16376   0.16684
 Alpha virt. eigenvalues --    0.18461   0.19286   0.19286   0.21244   0.21594
 Alpha virt. eigenvalues --    0.21594   0.23779   0.24508   0.24508   0.28413
 Alpha virt. eigenvalues --    0.30982   0.30982   0.33862   0.33993   0.33993
 Alpha virt. eigenvalues --    0.38190   0.39437   0.39437   0.40128   0.43671
 Alpha virt. eigenvalues --    0.44509   0.44509   0.44810   0.45916   0.45916
 Alpha virt. eigenvalues --    0.46991   0.46991   0.48790   0.50139   0.50139
 Alpha virt. eigenvalues --    0.50773   0.52414   0.52414   0.55401   0.57112
 Alpha virt. eigenvalues --    0.57112   0.57372   0.58295   0.58681   0.58681
 Alpha virt. eigenvalues --    0.58968   0.60512   0.60512   0.61961   0.61961
 Alpha virt. eigenvalues --    0.62013   0.62153   0.63140   0.63140   0.63902
 Alpha virt. eigenvalues --    0.63902   0.65390   0.65390   0.65730   0.65992
 Alpha virt. eigenvalues --    0.66938   0.66938   0.68953   0.68953   0.70500
 Alpha virt. eigenvalues --    0.71464   0.74297   0.74297   0.75597   0.75597
 Alpha virt. eigenvalues --    0.76050   0.78750   0.78750   0.79608   0.81310
 Alpha virt. eigenvalues --    0.81310   0.81936   0.82769   0.82799   0.82799
 Alpha virt. eigenvalues --    0.83481   0.83481   0.84100   0.84269   0.86391
 Alpha virt. eigenvalues --    0.86391   0.86744   0.86744   0.86986   0.88629
 Alpha virt. eigenvalues --    0.89533   0.90402   0.90402   0.95751   0.96689
 Alpha virt. eigenvalues --    0.96689   0.96863   0.97607   0.98002   0.98002
 Alpha virt. eigenvalues --    1.00697   1.00697   1.02875   1.06060   1.06222
 Alpha virt. eigenvalues --    1.06222   1.07661   1.07661   1.08080   1.11062
 Alpha virt. eigenvalues --    1.11908   1.11908   1.12629   1.12629   1.13006
 Alpha virt. eigenvalues --    1.14539   1.14539   1.15119   1.22655   1.22655
 Alpha virt. eigenvalues --    1.25075   1.25916   1.25916   1.27820   1.27820
 Alpha virt. eigenvalues --    1.31111   1.38593   1.38593   1.38908   1.43634
 Alpha virt. eigenvalues --    1.52659   1.52659   1.55449   2.45107   2.55203
 Alpha virt. eigenvalues --    2.55203   2.56990   2.62124   2.62124   2.63064
 Alpha virt. eigenvalues --    2.66396   2.67292   2.67292   2.77820   2.77820
 Alpha virt. eigenvalues --    2.78255   2.83357   2.89173   2.89173   2.93999
 Alpha virt. eigenvalues --    2.94073   2.94073   2.96565   2.96565   2.98231
 Alpha virt. eigenvalues --    3.00840   3.00840   3.04217   3.04753   3.08408
 Alpha virt. eigenvalues --    3.08408   3.09155   3.09762   3.09762   3.13043
 Alpha virt. eigenvalues --    3.13043   3.15939   3.16637   3.16637   3.19345
 Alpha virt. eigenvalues --    3.22845   3.24351   3.24351   3.29227   3.30398
 Alpha virt. eigenvalues --    3.30398   3.33701   3.33701   3.34694   3.43643
 Alpha virt. eigenvalues --    3.44348   3.44348   3.48460   3.48460   3.51041
 Alpha virt. eigenvalues --    3.52870   3.52870   3.59380   3.59781   3.59781
 Alpha virt. eigenvalues --    3.62705   3.62705   3.63261   3.65542   3.65542
 Alpha virt. eigenvalues --    3.66499   3.68446   3.71031   3.71031   3.74571
 Alpha virt. eigenvalues --    3.74571   3.76312   3.80860   3.84784   3.84784
 Alpha virt. eigenvalues --    3.98442  24.23884  24.30688  24.30688  24.50331
 Alpha virt. eigenvalues --   24.50780  24.50780  24.53779  24.54629  24.54629
 Alpha virt. eigenvalues --   24.76556  24.78628  24.78792  24.78792  24.81064
 Alpha virt. eigenvalues --   24.81064  24.82965  25.04357  25.06497  25.06497
          Condensed to atoms (all electrons):
              1          2          3          4          5          6
     1  C    5.770580   0.437624   0.198430  -0.022226  -0.052320   0.007787
     2  H    0.437624   0.507720  -0.063992   0.003081   0.005145   0.001721
     3  C    0.198430  -0.063992   5.405798   0.505879   0.425735  -0.075528
     4  C   -0.022226   0.003081   0.505879   5.045519  -0.063287   0.470058
     5  C   -0.052320   0.005145   0.425735  -0.063287   5.081420  -0.028289
     6  C    0.007787   0.001721  -0.075528   0.470058  -0.028289   5.043824
     7  H   -0.000728   0.003404  -0.046008   0.393515   0.004564  -0.033442
     8  C    0.001675  -0.000298  -0.055363  -0.035107   0.483132  -0.078015
     9  H    0.002884   0.000004  -0.059271   0.004147   0.385246   0.000083
    10  C    0.001293   0.000000  -0.021389  -0.085339  -0.093069   0.499813
    11  H   -0.000378  -0.000043   0.007518  -0.040184  -0.000734   0.396996
    12  H   -0.000298   0.000012   0.005987  -0.000514  -0.038154   0.005944
    13  H   -0.000011  -0.000002  -0.001592   0.007565   0.008357  -0.042998
    14  C    0.198430  -0.063992  -0.155244  -0.002697  -0.003993  -0.000561
    15  C   -0.052320   0.005145  -0.004059   0.000213  -0.009868   0.000095
    16  C   -0.022226   0.003081  -0.002692   0.000720   0.000218  -0.000027
    17  C    0.001675  -0.000298   0.001913   0.000034  -0.000318  -0.000001
    18  H    0.002884   0.000004  -0.001997  -0.000326  -0.000503  -0.000016
    19  C    0.007787   0.001721  -0.000561  -0.000027   0.000096   0.000003
    20  H   -0.000728   0.003404   0.000304   0.000143  -0.000041   0.000001
    21  C    0.001293   0.000000  -0.000056  -0.000008  -0.000018   0.000000
    22  H   -0.000298   0.000012   0.000018   0.000001   0.000031   0.000000
    23  H   -0.000378  -0.000043   0.000018   0.000001   0.000000   0.000000
    24  H   -0.000011  -0.000002  -0.000002   0.000000   0.000000   0.000000
    25  C    0.198430  -0.063992  -0.155244  -0.002692  -0.004059  -0.000561
    26  C   -0.022226   0.003081  -0.002697   0.000720   0.000213  -0.000027
    27  C   -0.052320   0.005145  -0.003993   0.000218  -0.009868   0.000096
    28  C    0.007787   0.001721  -0.000561  -0.000027   0.000095   0.000003
    29  H   -0.000728   0.003404   0.000304   0.000141  -0.000040   0.000001
    30  C    0.001675  -0.000298   0.001913   0.000034  -0.000308  -0.000001
    31  H    0.002884   0.000004  -0.001990  -0.000327  -0.000381  -0.000017
    32  C    0.001293   0.000000  -0.000056  -0.000008  -0.000017   0.000000
    33  H   -0.000378  -0.000043   0.000018   0.000001   0.000000   0.000000
    34  H   -0.000298   0.000012   0.000018   0.000001   0.000030   0.000000
    35  H   -0.000011  -0.000002  -0.000002   0.000000   0.000001   0.000000
              7          8          9         10         11         12
     1  C   -0.000728   0.001675   0.002884   0.001293  -0.000378  -0.000298
     2  H    0.003404  -0.000298   0.000004   0.000000  -0.000043   0.000012
     3  C   -0.046008  -0.055363  -0.059271  -0.021389   0.007518   0.005987
     4  C    0.393515  -0.035107   0.004147  -0.085339  -0.040184  -0.000514
     5  C    0.004564   0.483132   0.385246  -0.093069  -0.000734  -0.038154
     6  C   -0.033442  -0.078015   0.000083   0.499813   0.396996   0.005944
     7  H    0.511780  -0.000175  -0.000304   0.005131  -0.004159   0.000027
     8  C   -0.000175   5.037094  -0.021614   0.494734   0.006421   0.396515
     9  H   -0.000304  -0.021614   0.530435   0.004617   0.000022  -0.003438
    10  C    0.005131   0.494734   0.004617   5.031833  -0.041405  -0.039224
    11  H   -0.004159   0.006421   0.000022  -0.041405   0.518827  -0.000208
    12  H    0.000027   0.396515  -0.003438  -0.039224  -0.000208   0.515316
    13  H   -0.000190  -0.043060  -0.000208   0.399280  -0.004664  -0.004425
    14  C    0.000304   0.001913  -0.001990  -0.000056   0.000018   0.000018
    15  C   -0.000040  -0.000308  -0.000381  -0.000017   0.000000   0.000030
    16  C    0.000141   0.000034  -0.000327  -0.000008   0.000001   0.000001
    17  C    0.000000  -0.000067   0.000937   0.000001   0.000000  -0.000001
    18  H    0.000001   0.000935  -0.002510  -0.000010   0.000000  -0.000027
    19  C    0.000001  -0.000001  -0.000017   0.000000   0.000000   0.000000
    20  H    0.000027   0.000000   0.000001   0.000000   0.000000   0.000000
    21  C    0.000000   0.000001  -0.000010   0.000000   0.000000   0.000000
    22  H    0.000000  -0.000001  -0.000027   0.000000   0.000000   0.000000
    23  H    0.000000   0.000000   0.000000   0.000000   0.000000   0.000000
    24  H    0.000000   0.000000   0.000000   0.000000   0.000000   0.000000
    25  C    0.000304   0.001913  -0.001997  -0.000056   0.000018   0.000018
    26  C    0.000143   0.000034  -0.000326  -0.000008   0.000001   0.000001
    27  C   -0.000041  -0.000318  -0.000503  -0.000018   0.000000   0.000031
    28  C    0.000001  -0.000001  -0.000016   0.000000   0.000000   0.000000
    29  H    0.000027   0.000000   0.000001   0.000000   0.000000   0.000000
    30  C    0.000000  -0.000067   0.000935   0.000001   0.000000  -0.000001
    31  H    0.000001   0.000937  -0.002510  -0.000010   0.000000  -0.000027
    32  C    0.000000   0.000001  -0.000010   0.000000   0.000000   0.000000
    33  H    0.000000   0.000000   0.000000   0.000000   0.000000   0.000000
    34  H    0.000000  -0.000001  -0.000027   0.000000   0.000000   0.000000
    35  H    0.000000   0.000000   0.000000   0.000000   0.000000   0.000000
             13         14         15         16         17         18
     1  C   -0.000011   0.198430  -0.052320  -0.022226   0.001675   0.002884
     2  H   -0.000002  -0.063992   0.005145   0.003081  -0.000298   0.000004
     3  C   -0.001592  -0.155244  -0.004059  -0.002692   0.001913  -0.001997
     4  C    0.007565  -0.002697   0.000213   0.000720   0.000034  -0.000326
     5  C    0.008357  -0.003993  -0.009868   0.000218  -0.000318  -0.000503
     6  C   -0.042998  -0.000561   0.000095  -0.000027  -0.000001  -0.000016
     7  H   -0.000190   0.000304  -0.000040   0.000141   0.000000   0.000001
     8  C   -0.043060   0.001913  -0.000308   0.000034  -0.000067   0.000935
     9  H   -0.000208  -0.001990  -0.000381  -0.000327   0.000937  -0.002510
    10  C    0.399280  -0.000056  -0.000017  -0.000008   0.000001  -0.000010
    11  H   -0.004664   0.000018   0.000000   0.000001   0.000000   0.000000
    12  H   -0.004425   0.000018   0.000030   0.000001  -0.000001  -0.000027
    13  H    0.518109  -0.000002   0.000001   0.000000   0.000000   0.000000
    14  C   -0.000002   5.405798   0.425735   0.505879  -0.055363  -0.059271
    15  C    0.000001   0.425735   5.081420  -0.063287   0.483132   0.385246
    16  C    0.000000   0.505879  -0.063287   5.045519  -0.035107   0.004147
    17  C    0.000000  -0.055363   0.483132  -0.035107   5.037094  -0.021614
    18  H    0.000000  -0.059271   0.385246   0.004147  -0.021614   0.530435
    19  C    0.000000  -0.075528  -0.028289   0.470058  -0.078015   0.000083
    20  H    0.000000  -0.046008   0.004564   0.393515  -0.000175  -0.000304
    21  C    0.000000  -0.021389  -0.093069  -0.085339   0.494734   0.004617
    22  H    0.000000   0.005987  -0.038154  -0.000514   0.396515  -0.003438
    23  H    0.000000   0.007518  -0.000734  -0.040184   0.006421   0.000022
    24  H    0.000000  -0.001592   0.008357   0.007565  -0.043060  -0.000208
    25  C   -0.000002  -0.155244  -0.003993  -0.002697   0.001913  -0.001990
    26  C    0.000000  -0.002692   0.000218   0.000720   0.000034  -0.000327
    27  C    0.000000  -0.004059  -0.009868   0.000213  -0.000308  -0.000381
    28  C    0.000000  -0.000561   0.000096  -0.000027  -0.000001  -0.000017
    29  H    0.000000   0.000304  -0.000041   0.000143   0.000000   0.000001
    30  C    0.000000   0.001913  -0.000318   0.000034  -0.000067   0.000937
    31  H    0.000000  -0.001997  -0.000503  -0.000326   0.000935  -0.002510
    32  C    0.000000  -0.000056  -0.000018  -0.000008   0.000001  -0.000010
    33  H    0.000000   0.000018   0.000000   0.000001   0.000000   0.000000
    34  H    0.000000   0.000018   0.000031   0.000001  -0.000001  -0.000027
    35  H    0.000000  -0.000002   0.000000   0.000000   0.000000   0.000000
             19         20         21         22         23         24
     1  C    0.007787  -0.000728   0.001293  -0.000298  -0.000378  -0.000011
     2  H    0.001721   0.003404   0.000000   0.000012  -0.000043  -0.000002
     3  C   -0.000561   0.000304  -0.000056   0.000018   0.000018  -0.000002
     4  C   -0.000027   0.000143  -0.000008   0.000001   0.000001   0.000000
     5  C    0.000096  -0.000041  -0.000018   0.000031   0.000000   0.000000
     6  C    0.000003   0.000001   0.000000   0.000000   0.000000   0.000000
     7  H    0.000001   0.000027   0.000000   0.000000   0.000000   0.000000
     8  C   -0.000001   0.000000   0.000001  -0.000001   0.000000   0.000000
     9  H   -0.000017   0.000001  -0.000010  -0.000027   0.000000   0.000000
    10  C    0.000000   0.000000   0.000000   0.000000   0.000000   0.000000
    11  H    0.000000   0.000000   0.000000   0.000000   0.000000   0.000000
    12  H    0.000000   0.000000   0.000000   0.000000   0.000000   0.000000
    13  H    0.000000   0.000000   0.000000   0.000000   0.000000   0.000000
    14  C   -0.075528  -0.046008  -0.021389   0.005987   0.007518  -0.001592
    15  C   -0.028289   0.004564  -0.093069  -0.038154  -0.000734   0.008357
    16  C    0.470058   0.393515  -0.085339  -0.000514  -0.040184   0.007565
    17  C   -0.078015  -0.000175   0.494734   0.396515   0.006421  -0.043060
    18  H    0.000083  -0.000304   0.004617  -0.003438   0.000022  -0.000208
    19  C    5.043824  -0.033442   0.499813   0.005944   0.396996  -0.042998
    20  H   -0.033442   0.511780   0.005131   0.000027  -0.004159  -0.000190
    21  C    0.499813   0.005131   5.031833  -0.039224  -0.041405   0.399280
    22  H    0.005944   0.000027  -0.039224   0.515316  -0.000208  -0.004425
    23  H    0.396996  -0.004159  -0.041405  -0.000208   0.518827  -0.004664
    24  H   -0.042998  -0.000190   0.399280  -0.004425  -0.004664   0.518109
    25  C   -0.000561   0.000304  -0.000056   0.000018   0.000018  -0.000002
    26  C   -0.000027   0.000141  -0.000008   0.000001   0.000001   0.000000
    27  C    0.000095  -0.000040  -0.000017   0.000030   0.000000   0.000001
    28  C    0.000003   0.000001   0.000000   0.000000   0.000000   0.000000
    29  H    0.000001   0.000027   0.000000   0.000000   0.000000   0.000000
    30  C   -0.000001   0.000000   0.000001  -0.000001   0.000000   0.000000
    31  H   -0.000016   0.000001  -0.000010  -0.000027   0.000000   0.000000
    32  C    0.000000   0.000000   0.000000   0.000000   0.000000   0.000000
    33  H    0.000000   0.000000   0.000000   0.000000   0.000000   0.000000
    34  H    0.000000   0.000000   0.000000   0.000000   0.000000   0.000000
    35  H    0.000000   0.000000   0.000000   0.000000   0.000000   0.000000
             25         26         27         28         29         30
     1  C    0.198430  -0.022226  -0.052320   0.007787  -0.000728   0.001675
     2  H   -0.063992   0.003081   0.005145   0.001721   0.003404  -0.000298
     3  C   -0.155244  -0.002697  -0.003993  -0.000561   0.000304   0.001913
     4  C   -0.002692   0.000720   0.000218  -0.000027   0.000141   0.000034
     5  C   -0.004059   0.000213  -0.009868   0.000095  -0.000040  -0.000308
     6  C   -0.000561  -0.000027   0.000096   0.000003   0.000001  -0.000001
     7  H    0.000304   0.000143  -0.000041   0.000001   0.000027   0.000000
     8  C    0.001913   0.000034  -0.000318  -0.000001   0.000000  -0.000067
     9  H   -0.001997  -0.000326  -0.000503  -0.000016   0.000001   0.000935
    10  C   -0.000056  -0.000008  -0.000018   0.000000   0.000000   0.000001
    11  H    0.000018   0.000001   0.000000   0.000000   0.000000   0.000000
    12  H    0.000018   0.000001   0.000031   0.000000   0.000000  -0.000001
    13  H   -0.000002   0.000000   0.000000   0.000000   0.000000   0.000000
    14  C   -0.155244  -0.002692  -0.004059  -0.000561   0.000304   0.001913
    15  C   -0.003993   0.000218  -0.009868   0.000096  -0.000041  -0.000318
    16  C   -0.002697   0.000720   0.000213  -0.000027   0.000143   0.000034
    17  C    0.001913   0.000034  -0.000308  -0.000001   0.000000  -0.000067
    18  H   -0.001990  -0.000327  -0.000381  -0.000017   0.000001   0.000937
    19  C   -0.000561  -0.000027   0.000095   0.000003   0.000001  -0.000001
    20  H    0.000304   0.000141  -0.000040   0.000001   0.000027   0.000000
    21  C   -0.000056  -0.000008  -0.000017   0.000000   0.000000   0.000001
    22  H    0.000018   0.000001   0.000030   0.000000   0.000000  -0.000001
    23  H    0.000018   0.000001   0.000000   0.000000   0.000000   0.000000
    24  H   -0.000002   0.000000   0.000001   0.000000   0.000000   0.000000
    25  C    5.405798   0.505879   0.425735  -0.075528  -0.046008  -0.055363
    26  C    0.505879   5.045519  -0.063287   0.470058   0.393515  -0.035107
    27  C    0.425735  -0.063287   5.081420  -0.028289   0.004564   0.483132
    28  C   -0.075528   0.470058  -0.028289   5.043824  -0.033442  -0.078015
    29  H   -0.046008   0.393515   0.004564  -0.033442   0.511780  -0.000175
    30  C   -0.055363  -0.035107   0.483132  -0.078015  -0.000175   5.037094
    31  H   -0.059271   0.004147   0.385246   0.000083  -0.000304  -0.021614
    32  C   -0.021389  -0.085339  -0.093069   0.499813   0.005131   0.494734
    33  H    0.007518  -0.040184  -0.000734   0.396996  -0.004159   0.006421
    34  H    0.005987  -0.000514  -0.038154   0.005944   0.000027   0.396515
    35  H   -0.001592   0.007565   0.008357  -0.042998  -0.000190  -0.043060
             31         32         33         34         35
     1  C    0.002884   0.001293  -0.000378  -0.000298  -0.000011
     2  H    0.000004   0.000000  -0.000043   0.000012  -0.000002
     3  C   -0.001990  -0.000056   0.000018   0.000018  -0.000002
     4  C   -0.000327  -0.000008   0.000001   0.000001   0.000000
     5  C   -0.000381  -0.000017   0.000000   0.000030   0.000001
     6  C   -0.000017   0.000000   0.000000   0.000000   0.000000
     7  H    0.000001   0.000000   0.000000   0.000000   0.000000
     8  C    0.000937   0.000001   0.000000  -0.000001   0.000000
     9  H   -0.002510  -0.000010   0.000000  -0.000027   0.000000
    10  C   -0.000010   0.000000   0.000000   0.000000   0.000000
    11  H    0.000000   0.000000   0.000000   0.000000   0.000000
    12  H   -0.000027   0.000000   0.000000   0.000000   0.000000
    13  H    0.000000   0.000000   0.000000   0.000000   0.000000
    14  C   -0.001997  -0.000056   0.000018   0.000018  -0.000002
    15  C   -0.000503  -0.000018   0.000000   0.000031   0.000000
    16  C   -0.000326  -0.000008   0.000001   0.000001   0.000000
    17  C    0.000935   0.000001   0.000000  -0.000001   0.000000
    18  H   -0.002510  -0.000010   0.000000  -0.000027   0.000000
    19  C   -0.000016   0.000000   0.000000   0.000000   0.000000
    20  H    0.000001   0.000000   0.000000   0.000000   0.000000
    21  C   -0.000010   0.000000   0.000000   0.000000   0.000000
    22  H   -0.000027   0.000000   0.000000   0.000000   0.000000
    23  H    0.000000   0.000000   0.000000   0.000000   0.000000
    24  H    0.000000   0.000000   0.000000   0.000000   0.000000
    25  C   -0.059271  -0.021389   0.007518   0.005987  -0.001592
    26  C    0.004147  -0.085339  -0.040184  -0.000514   0.007565
    27  C    0.385246  -0.093069  -0.000734  -0.038154   0.008357
    28  C    0.000083   0.499813   0.396996   0.005944  -0.042998
    29  H   -0.000304   0.005131  -0.004159   0.000027  -0.000190
    30  C   -0.021614   0.494734   0.006421   0.396515  -0.043060
    31  H    0.530435   0.004617   0.000022  -0.003438  -0.000208
    32  C    0.004617   5.031833  -0.041405  -0.039224   0.399280
    33  H    0.000022  -0.041405   0.518827  -0.000208  -0.004664
    34  H   -0.003438  -0.039224  -0.000208   0.515316  -0.004425
    35  H   -0.000208   0.399280  -0.004664  -0.004425   0.518109
 Mulliken atomic charges:
              1
     1  C   -0.616530
     2  H    0.207557
     3  C    0.098445
     4  C   -0.179223
     5  C   -0.089014
     6  C   -0.166942
     7  H    0.165714
     8  C   -0.190943
     9  H    0.166171
    10  C   -0.156092
    11  H    0.161952
    12  H    0.162416
    13  H    0.163840
    14  C    0.098445
    15  C   -0.089014
    16  C   -0.179223
    17  C   -0.190943
    18  H    0.166171
    19  C   -0.166942
    20  H    0.165714
    21  C   -0.156092
    22  H    0.162416
    23  H    0.161952
    24  H    0.163840
    25  C    0.098445
    26  C   -0.179223
    27  C   -0.089014
    28  C   -0.166942
    29  H    0.165714
    30  C   -0.190943
    31  H    0.166171
    32  C   -0.156092
    33  H    0.161952
    34  H    0.162416
    35  H    0.163840
 Sum of Mulliken atomic charges =   0.00000
 Mulliken charges with hydrogens summed into heavy atoms:
              1
     1  C   -0.408973
     3  C    0.098445
     4  C   -0.013508
     5  C    0.077157
     6  C   -0.004990
     8  C   -0.028527
    10  C    0.007749
    14  C    0.098445
    15  C    0.077157
    16  C   -0.013508
    17  C   -0.028527
    19  C   -0.004990
    21  C    0.007749
    25  C    0.098445
    26  C   -0.013508
    27  C    0.077157
    28  C   -0.004990
    30  C   -0.028527
    32  C    0.007749
 Sum of Mulliken charges with hydrogens summed into heavy atoms =   0.00000
 Electronic spatial extent (au):  <R**2>=           4935.2347
 Charge=              0.0000 electrons
 Dipole moment (field-independent basis, Debye):
    X=              0.0000    Y=              0.0000    Z=              0.0940  Tot=              0.0940
 Quadrupole moment (field-independent basis, Debye-Ang):
   XX=           -113.6402   YY=           -113.6402   ZZ=           -100.1371
   XY=              0.0000   XZ=              0.0000   YZ=              0.0000
 Traceless Quadrupole moment (field-independent basis, Debye-Ang):
   XX=             -4.5010   YY=             -4.5010   ZZ=              9.0021
   XY=              0.0000   XZ=              0.0000   YZ=              0.0000
 Octapole moment (field-independent basis, Debye-Ang**2):
  XXX=              0.0575  YYY=             53.9995  ZZZ=             -0.1197  XYY=             -0.0575
  XXY=            -53.9995  XXZ=              0.4738  XZZ=              0.0000  YZZ=              0.0000
  YYZ=              0.4738  XYZ=              0.0000
 Hexadecapole moment (field-independent basis, Debye-Ang**3):
 XXXX=          -2946.9618 YYYY=          -2946.9618 ZZZZ=           -846.8043 XXXY=              0.0000
 XXXZ=              0.1953 YYYX=              0.0000 YYYZ=             -1.5529 ZZZX=              0.0000
 ZZZY=              0.0000 XXYY=           -982.3206 XXZZ=           -617.0215 YYZZ=           -617.0215
 XXYZ=              1.5529 YYXZ=             -0.1953 ZZXY=              0.0000
 N-N= 1.288302799796D+03 E-N=-4.272511473076D+03  KE= 7.285963447858D+02
 PrsmSu:  requested number of processors reduced to:  10 ShMem   1 Linda.
 Calling FoFJK, ICntrl=      2127 FMM=F ISym2X=1 I1Cent= 0 IOpClX= 0 NMat=1 NMatS=1 NMatT=0.
 ***** Axes restored to original set *****
 -------------------------------------------------------------------
 Center     Atomic                   Forces (Hartrees/Bohr)
 Number     Number              X              Y              Z
 -------------------------------------------------------------------
      1        6           0.000000000    0.000000000    0.024335259
      2        1           0.000000000    0.000000000   -0.028892979
      3        6           0.012840667   -0.004463513    0.005006057
      4        6          -0.001335541    0.000483788    0.006051138
      5        6          -0.008072084    0.002775461   -0.011917887
      6        6           0.010028246   -0.003472379    0.007857485
      7        1           0.003815215   -0.001355551   -0.017399748
      8        6           0.001174372   -0.000431140   -0.012164014
      9        1           0.030388362   -0.010541615    0.017251194
     10        6           0.012639296   -0.004383063   -0.001817012
     11        1          -0.011032153    0.003832647   -0.011912052
     12        1          -0.003937055    0.001391081    0.016209252
     13        1          -0.015339175    0.005306103    0.004354827
     14        6          -0.010285849   -0.008888587    0.005006057
     15        6           0.006439662    0.005602899   -0.011917887
     16        6           0.001086743    0.000914719    0.006051138
     17        6          -0.000960564   -0.000801466   -0.012164014
     18        1          -0.024323487   -0.021046286    0.017251194
     19        6          -0.008021291   -0.006948526    0.007857485
     20        1          -0.003081549   -0.002626297   -0.017399748
     21        6          -0.010115492   -0.008754419   -0.001817012
     22        1           0.003173239    0.002714049    0.016209252
     23        1           0.008835246    0.007637801   -0.011912052
     24        1           0.012264807    0.010631063    0.004354827
     25        6          -0.002554818    0.013352100    0.005006057
     26        6           0.000248798   -0.001398506    0.006051138
     27        6           0.001632422   -0.008378360   -0.011917887
     28        6          -0.002006955    0.010420905    0.007857485
     29        1          -0.000733666    0.003981849   -0.017399748
     30        6          -0.000213808    0.001232606   -0.012164014
     31        1          -0.006064875    0.031587901    0.017251194
     32        6          -0.002523804    0.013137483   -0.001817012
     33        1           0.002196907   -0.011470448   -0.011912052
     34        1           0.000763815   -0.004105130    0.016209252
     35        1           0.003074368   -0.015937166    0.004354827
 -------------------------------------------------------------------
 Cartesian Forces:  Max     0.031587901 RMS     0.010606507

 GradGradGradGradGradGradGradGradGradGradGradGradGradGradGradGradGradGrad
 Berny optimization.
 Internal  Forces:  Max     0.035525399 RMS     0.010642175
 Search for a local minimum.
 Step number   1 out of a maximum of  197
 All quantities printed in internal units (Hartrees-Bohrs-Radians)
 Mixed Optimization -- RFO/linear search
 Second derivative matrix not updated -- first step.
     Eigenvalues ---    0.00647   0.00647   0.00647   0.01535   0.01535
     Eigenvalues ---    0.01535   0.02145   0.02145   0.02145   0.02171
     Eigenvalues ---    0.02171   0.02171   0.02188   0.02188   0.02188
     Eigenvalues ---    0.02204   0.02204   0.02204   0.02213   0.02213
     Eigenvalues ---    0.02213   0.02216   0.02216   0.02216   0.02217
     Eigenvalues ---    0.02217   0.02217   0.02222   0.02222   0.02222
     Eigenvalues ---    0.04562   0.06515   0.06515   0.16000   0.16000
     Eigenvalues ---    0.16000   0.16000   0.16000   0.16000   0.16000
     Eigenvalues ---    0.16000   0.16000   0.16000   0.16000   0.16000
     Eigenvalues ---    0.16000   0.16000   0.16000   0.19114   0.19114
     Eigenvalues ---    0.22000   0.22000   0.22000   0.22000   0.22000
     Eigenvalues ---    0.22000   0.23477   0.23477   0.23477   0.25000
     Eigenvalues ---    0.25000   0.25000   0.31095   0.31450   0.31450
     Eigenvalues ---    0.31450   0.33168   0.33168   0.33168   0.34068
     Eigenvalues ---    0.34068   0.34068   0.34257   0.34257   0.34257
     Eigenvalues ---    0.34267   0.34267   0.34267   0.34289   0.34289
     Eigenvalues ---    0.34289   0.42480   0.42480   0.42480   0.42596
     Eigenvalues ---    0.42596   0.42596   0.46423   0.46423   0.46423
     Eigenvalues ---    0.46775   0.46775   0.46775   0.47236   0.47236
     Eigenvalues ---    0.47236   0.47375   0.47375   0.473751000.00000
     Eigenvalues --- 1000.000001000.000001000.000001000.000001000.00000
     Eigenvalues --- 1000.000001000.000001000.000001000.000001000.00000
     Eigenvalues --- 1000.000001000.000001000.000001000.000001000.00000
     Eigenvalues --- 1000.000001000.000001000.000001000.000001000.00000
     Eigenvalues --- 1000.000001000.000001000.000001000.000001000.00000
     Eigenvalues --- 1000.000001000.000001000.000001000.000001000.00000
     Eigenvalues --- 1000.000001000.000001000.000001000.000001000.00000
     Eigenvalues --- 1000.000001000.000001000.000001000.000001000.00000
     Eigenvalues --- 1000.000001000.000001000.000001000.000001000.00000
     Eigenvalues --- 1000.000001000.000001000.000001000.000001000.00000
     Eigenvalues --- 1000.000001000.000001000.000001000.000001000.00000
     Eigenvalues --- 1000.000001000.000001000.000001000.000001000.00000
     Eigenvalues --- 1000.000001000.000001000.000001000.000001000.00000
     Eigenvalues --- 1000.000001000.000001000.000001000.000001000.00000
     Eigenvalues --- 1000.000001000.000001000.000001000.000001000.00000
     Eigenvalues --- 1000.000001000.000001000.000001000.000001000.00000
     Eigenvalues --- 1000.000001000.000001000.000001000.000001000.00000
     Eigenvalues --- 1000.000001000.00000
 RFO step:  Lambda=-7.28850142D-02 EMin= 6.46773252D-03
 Linear search not attempted -- first point.
 Maximum step size (   0.300) exceeded in Quadratic search.
    -- Step size scaled by   0.524
 Iteration  1 RMS(Cart)=  0.16595270 RMS(Int)=  0.00451881
 Iteration  2 RMS(Cart)=  0.00947277 RMS(Int)=  0.00043894
 Iteration  3 RMS(Cart)=  0.00000965 RMS(Int)=  0.00043892
 Iteration  4 RMS(Cart)=  0.00000000 RMS(Int)=  0.00043892
 ClnCor:  largest displacement from symmetrization is 7.95D-09 for atom    35.
 Variable       Old X    -DE/DX   Delta X   Delta X   Delta X     New X
                                 (Linear)    (Quad)   (Total)
    R1        2.12532  -0.02889   0.00000  -0.03947  -0.03947   2.08585
    R2        2.85161   0.03118   0.00000   0.04220   0.04220   2.89382
    R3        2.85161   0.03118   0.00000   0.04220   0.04220   2.89382
    R4        2.85161   0.03118   0.00000   0.04220   0.04220   2.89382
    R5        2.64041  -0.00281   0.00000  -0.00263  -0.00261   2.63780
    R6        2.63754   0.00352   0.00000   0.00370   0.00371   2.64125
    R7        2.62713  -0.00329   0.00000  -0.00328  -0.00327   2.62386
    R8        2.07215  -0.01786   0.00000  -0.02264  -0.02264   2.04951
    R9        2.62538  -0.00398   0.00000  -0.00370  -0.00370   2.62167
   R10        2.08758  -0.03505   0.00000  -0.04543  -0.04543   2.04215
   R11        2.62774  -0.01024   0.00000  -0.01009  -0.01011   2.61763
   R12        2.06899  -0.01668   0.00000  -0.02106  -0.02106   2.04793
   R13        2.62793  -0.00715   0.00000  -0.00701  -0.00704   2.62090
   R14        2.06882  -0.01674   0.00000  -0.02112  -0.02112   2.04770
   R15        2.06845  -0.01681   0.00000  -0.02119  -0.02119   2.04726
   R16        2.63754   0.00352   0.00000   0.00370   0.00371   2.64125
   R17        2.64041  -0.00281   0.00000  -0.00263  -0.00261   2.63780
   R18        2.62538  -0.00398   0.00000  -0.00370  -0.00370   2.62167
   R19        2.08758  -0.03505   0.00000  -0.04543  -0.04543   2.04215
   R20        2.62713  -0.00329   0.00000  -0.00328  -0.00327   2.62386
   R21        2.07215  -0.01786   0.00000  -0.02264  -0.02264   2.04951
   R22        2.62793  -0.00715   0.00000  -0.00701  -0.00704   2.62090
   R23        2.06882  -0.01674   0.00000  -0.02112  -0.02112   2.04770
   R24        2.62774  -0.01024   0.00000  -0.01009  -0.01011   2.61763
   R25        2.06899  -0.01668   0.00000  -0.02106  -0.02106   2.04793
   R26        2.06845  -0.01681   0.00000  -0.02119  -0.02119   2.04726
   R27        2.64041  -0.00281   0.00000  -0.00263  -0.00261   2.63780
   R28        2.63754   0.00352   0.00000   0.00370   0.00371   2.64125
   R29        2.62713  -0.00329   0.00000  -0.00328  -0.00327   2.62386
   R30        2.07215  -0.01786   0.00000  -0.02264  -0.02264   2.04951
   R31        2.62538  -0.00398   0.00000  -0.00370  -0.00370   2.62167
   R32        2.08758  -0.03505   0.00000  -0.04543  -0.04543   2.04215
   R33        2.62774  -0.01024   0.00000  -0.01009  -0.01011   2.61763
   R34        2.06899  -0.01668   0.00000  -0.02106  -0.02106   2.04793
   R35        2.62793  -0.00715   0.00000  -0.00701  -0.00704   2.62090
   R36        2.06882  -0.01674   0.00000  -0.02112  -0.02112   2.04770
   R37        2.06845  -0.01681   0.00000  -0.02119  -0.02119   2.04726
    A1        1.86235  -0.00980   0.00000  -0.04338  -0.04239   1.81996
    A2        1.86235  -0.00980   0.00000  -0.04338  -0.04239   1.81996
    A3        1.86235  -0.00980   0.00000  -0.04338  -0.04239   1.81996
    A4        1.95634   0.00874   0.00000   0.03867   0.03558   1.99192
    A5        1.95634   0.00874   0.00000   0.03867   0.03558   1.99192
    A6        1.95634   0.00874   0.00000   0.03867   0.03558   1.99192
    A7        2.07337  -0.02017   0.00000  -0.03289  -0.03291   2.04046
    A8        2.13353   0.03553   0.00000   0.05756   0.05754   2.19108
    A9        2.07628  -0.01536   0.00000  -0.02467  -0.02464   2.05165
   A10        2.10142   0.01029   0.00000   0.01804   0.01807   2.11949
   A11        2.09380  -0.00561   0.00000  -0.01006  -0.01008   2.08373
   A12        2.08796  -0.00468   0.00000  -0.00797  -0.00799   2.07997
   A13        2.10509   0.00515   0.00000   0.00947   0.00948   2.11457
   A14        2.07431   0.00804   0.00000   0.01917   0.01917   2.09348
   A15        2.10378  -0.01319   0.00000  -0.02864  -0.02864   2.07514
   A16        2.09795   0.00006   0.00000  -0.00100  -0.00101   2.09694
   A17        2.09105   0.00011   0.00000   0.00082   0.00082   2.09188
   A18        2.09418  -0.00017   0.00000   0.00018   0.00018   2.09437
   A19        2.09565   0.00343   0.00000   0.00568   0.00565   2.10130
   A20        2.09165  -0.00162   0.00000  -0.00262  -0.00261   2.08904
   A21        2.09589  -0.00181   0.00000  -0.00306  -0.00304   2.09285
   A22        2.08998  -0.00356   0.00000  -0.00751  -0.00755   2.08243
   A23        2.09664   0.00178   0.00000   0.00376   0.00378   2.10042
   A24        2.09657   0.00178   0.00000   0.00375   0.00377   2.10034
   A25        2.13353   0.03553   0.00000   0.05756   0.05754   2.19108
   A26        2.07337  -0.02017   0.00000  -0.03289  -0.03291   2.04046
   A27        2.07628  -0.01536   0.00000  -0.02467  -0.02464   2.05165
   A28        2.10509   0.00515   0.00000   0.00947   0.00948   2.11457
   A29        2.07431   0.00804   0.00000   0.01917   0.01917   2.09348
   A30        2.10378  -0.01319   0.00000  -0.02864  -0.02864   2.07514
   A31        2.10142   0.01029   0.00000   0.01804   0.01807   2.11949
   A32        2.09380  -0.00561   0.00000  -0.01006  -0.01008   2.08373
   A33        2.08796  -0.00468   0.00000  -0.00797  -0.00799   2.07997
   A34        2.09565   0.00343   0.00000   0.00568   0.00565   2.10130
   A35        2.09165  -0.00162   0.00000  -0.00262  -0.00261   2.08904
   A36        2.09589  -0.00181   0.00000  -0.00306  -0.00304   2.09285
   A37        2.09795   0.00006   0.00000  -0.00100  -0.00101   2.09694
   A38        2.09105   0.00011   0.00000   0.00082   0.00082   2.09188
   A39        2.09418  -0.00017   0.00000   0.00018   0.00018   2.09437
   A40        2.08998  -0.00356   0.00000  -0.00751  -0.00755   2.08243
   A41        2.09657   0.00178   0.00000   0.00375   0.00377   2.10034
   A42        2.09664   0.00178   0.00000   0.00376   0.00378   2.10042
   A43        2.07337  -0.02017   0.00000  -0.03289  -0.03291   2.04046
   A44        2.13353   0.03553   0.00000   0.05756   0.05754   2.19108
   A45        2.07628  -0.01536   0.00000  -0.02467  -0.02464   2.05165
   A46        2.10142   0.01029   0.00000   0.01804   0.01807   2.11949
   A47        2.09380  -0.00561   0.00000  -0.01006  -0.01008   2.08373
   A48        2.08796  -0.00468   0.00000  -0.00797  -0.00799   2.07997
   A49        2.10509   0.00515   0.00000   0.00947   0.00948   2.11457
   A50        2.07431   0.00804   0.00000   0.01917   0.01917   2.09348
   A51        2.10378  -0.01319   0.00000  -0.02864  -0.02864   2.07514
   A52        2.09795   0.00006   0.00000  -0.00100  -0.00101   2.09694
   A53        2.09105   0.00011   0.00000   0.00082   0.00082   2.09188
[...]
 0054064,-0.00090244,0.00043396,-0.00031224,-0.00001508,-0.00007515,0.0
 0008542,-0.00012618,0.00023275,0.00009166,-0.00004375,-0.00014624,-0.0
 0001421,0.00003578,0.00000473,-0.00025558,0.00003493,0.00009002,0.0000
 4409,0.00012341,-0.00000671,0.00003997,0.00012371,0.00010781,0.0000204
 7,-0.00000639,0.00003089,-0.00000106,-0.00000750,-0.00001996,0.0000345
 5,-0.00001710,0.00000112,-0.00017250,0.00063346,-0.00081196,-0.0000924
 6,0.00023849,-0.00019942,0.00027992,0.00025423,0.00013888,0.00004884,-
 0.00002947,0.00009002,0.00010144,0.00001844,0.00008471,-0.00003094,-0.
 00000274,-0.00006549,0.00001798,-0.00002723,0.00004891,-0.00001123,-0.
 00005281,0.00003964,0.00001698,0.00001397,-0.00000133,0.00001004,0.000
 00119,0.00001417,-0.00001061,-0.00002181,0.00000949,-0.01222442,0.0374
 0468,0.00680352,0.00728939,-0.01695417,-0.00731831,0.01281018,0.093894
 66,-0.14796748,0.03295536,0.00074344,-0.03407171,-0.00071797,-0.000599
 16,0.00029771,-0.28806340,-0.12300719,0.61515097,-0.00278221,-0.000393
 10,-0.00247813,0.00001504,0.00044373,-0.00017930,0.00034548,0.00077641
 ,-0.00105278,0.00053285,0.00018975,0.00001173,-0.00003797,0.00068086,-
 0.00030954,-0.00033708,0.00003278,0.00015135,0.00000035,-0.00002264,-0
 .00005989,0.00041325,0.00007729,-0.00003475,-0.00012615,-0.00036610,0.
 00001608,-0.00025856,-0.00020936,-0.00018011,-0.00002469,0.00002100,-0
 .00001604,0.00000883,-0.00001320,0.00000298,-0.00001943,0.00000439,-0.
 00001435,0.00028796,-0.00059999,0.00051523,0.00014639,-0.00039985,0.00
 017818,-0.00017706,-0.00015106,-0.00014104,-0.00002441,0.00004322,-0.0
 0012892,-0.00030255,0.00026425,0.00002813,0.00001956,0.00001824,0.0000
 5125,-0.00000297,0.00001636,-0.00001770,-0.00001264,0.00002234,-0.0000
 1610,-0.00002021,-0.00000995,0.00000473,-0.00001650,0.00000366,-0.0000
 0787,0.00000723,0.00002392,-0.00000513,-0.00504836,0.01127240,0.007627
 32,0.00436591,-0.00022390,0.00523085,-0.18477357,0.10917794,0.11812201
 ,-0.00020567,-0.00061972,-0.00069213,-0.00043848,0.00042192,0.00035147
 ,0.00191992,-0.00005310,0.00467333,0.18421276,-0.00069581,-0.00018000,
 -0.00117104,0.00014435,0.00040241,-0.00020366,0.00008318,-0.00183926,0
 .00170614,0.00000763,-0.00036288,0.00022963,0.00019064,-0.00087763,0.0
 0051977,-0.00025791,0.00007455,0.00012758,-0.00000674,0.00005659,-0.00
 015908,0.00026370,-0.00014693,-0.00009708,-0.00006685,-0.00011138,-0.0
 0001404,-0.00004730,-0.00006202,-0.00015791,-0.00003706,0.00001074,-0.
 00003508,-0.00000174,0.00002895,0.00000950,-0.00003900,0.00002628,-0.0
 0001989,-0.00003931,-0.00023417,0.00009615,0.00003702,0.00002858,0.000
 02965,-0.00002934,-0.00002866,-0.00001645,-0.00002281,-0.00002104,-0.0
 0002352,-0.00003499,0.00006502,0.00000969,0.00001391,0.00000438,0.0000
 3315,-0.00000274,-0.00000514,0.00000049,-0.00000017,0.00001727,-0.0000
 1493,0.00000939,0.00000373,0.00000931,-0.00000097,0.00000620,-0.000003
 28,0.00000683,0.00000724,0.00000049,-0.01036370,0.01321714,0.00946027,
 0.00019051,-0.00015994,0.00441271,0.10911277,-0.15674440,-0.08560585,-
 0.00073824,-0.00051879,0.00068571,-0.00060375,0.00043632,0.00049829,0.
 02334640,-0.01215752,-0.02130783,-0.12155894,0.16383106,-0.00166385,-0
 .00171482,-0.00116987,-0.00004413,0.00021966,0.00005911,0.00026893,0.0
 0045886,-0.00002320,-0.00059113,-0.00038295,-0.00016875,-0.00011354,0.
 00000972,0.00063132,-0.00017146,-0.00008206,-0.00010816,0.00006782,0.0
 0005934,-0.00006027,-0.00022993,0.00011985,0.00008471,-0.00000568,-0.0
 0002921,-0.00004285,0.00017016,0.00013157,0.00006609,0.00003207,0.0000
 1987,-0.00000066,0.00002154,-0.00006124,-0.00003665,0.00003904,-0.0000
 2142,-0.00000778,0.00005535,-0.00027075,0.00032615,-0.00000578,-0.0000
 6830,0.00009849,-0.00008537,-0.00004783,-0.00005988,-0.00000489,0.0000
 5808,-0.00000671,0.00000412,0.00002094,-0.00004285,-0.00001509,0.00001
 295,0.00000224,0.00001355,-0.00000379,-0.00003722,-0.00000263,-0.00001
 974,0.00000273,-0.00001287,-0.00000862,-0.00001108,-0.00000548,-0.0000
 0402,-0.00000327,0.00000330,-0.00000036,-0.00000887,0.01859283,-0.0175
 0078,-0.00935525,0.00563534,0.00442040,-0.00088712,0.11643160,-0.08443
 175,-0.15560532,-0.00067307,0.00085295,-0.00057618,0.00079285,-0.00085
 645,-0.00074787,-0.00678366,0.00823269,0.00992611,-0.13122201,0.088746
 29,0.15556505,-0.00133120,-0.00146059,0.00035349,-0.00009110,0.0000254
 3,-0.00078267,0.00032510,0.00012096,0.00035021,-0.00025379,0.00022341,
 -0.00006496,0.00022375,-0.00007310,-0.00018941,0.00023635,-0.00012441,
 -0.00018815,-0.00003299,-0.00002006,0.00004961,-0.00025901,-0.00000945
 ,-0.00004012,0.00000019,-0.00002975,-0.00001578,0.00007545,0.00012762,
 0.00023295,-0.00000182,-0.00000506,-0.00000992,-0.00000662,0.00000167,
 0.00001318,-0.00001016,0.00000486,0.00000200,0.00061767,-0.00074238,-0
 .00021907,0.00008619,-0.00011969,-0.00004752,0.00026001,0.00010149,-0.
 00011702,0.00012736,0.00031396,-0.00012712,-0.00022229,0.00023030,-0.0
 0019903,-0.00021849,-0.00000190,-0.00012118,0.00000761,-0.00000686,-0.
 00000372,0.00005859,-0.00013735,0.00019297,0.00002744,0.00000829,0.000
 00139,-0.00002258,0.00001530,0.00002182,0.00000494,0.00001334,-0.00000
 728,-0.04798547,0.00548469,0.05124118,0.04328214,-0.05979839,-0.011649
 37,0.01009527,0.06843836,-0.03575004,-0.15684912,0.00724782,0.09279201
 ,0.00539110,0.00382175,0.00283796,-0.19902354,0.06366205,0.11846700,0.
 00555536,0.00225745,0.00299930,0.41569060,-0.00086602,0.00028202,-0.00
 008092,0.00014003,-0.00021634,-0.00001659,-0.00023968,-0.00012040,0.00
 008454,0.00008512,-0.00011589,-0.00007253,0.00002780,0.00002279,0.0001
 5771,-0.00008235,0.00005973,0.00001310,-0.00005469,-0.00000666,-0.0000
 1333,0.00006208,0.00001921,0.00003613,-0.00000724,0.00000444,0.0000121
 5,0.00005073,-0.00004999,-0.00010616,0.00004054,-0.00001952,0.00002354
 ,0.00001887,-0.00002140,-0.00001601,0.00001844,-0.00001493,-0.00000121
 ,0.00063559,-0.00012726,0.00019984,-0.00012725,-0.00013984,0.00015624,
 -0.00024063,-0.00013774,-0.00019240,-0.00002647,-0.00002456,-0.0000272
 4,0.00006824,-0.00009829,0.00008158,0.00000520,0.00000166,0.00007471,0
 .00002718,0.00002103,-0.00000703,-0.00006046,-0.00003314,-0.00003789,-
 0.00003966,-0.00003353,-0.00003592,-0.00002880,-0.00003044,-0.00000520
 ,-0.00001370,-0.00000548,-0.00000577,0.00499554,-0.00103015,-0.0089858
 9,-0.01954222,-0.01350662,0.03720772,0.02785031,-0.03663114,-0.0125843
 6,-0.04451826,-0.18904509,0.11167414,0.00347667,-0.00508133,0.00271844
 ,0.11601962,-0.22116975,-0.08307068,0.00230654,-0.00462641,0.00370727,
 -0.14537965,0.78909162,0.00101916,0.00144660,-0.00115376,-0.00002689,0
 .00037711,0.00096790,-0.00026782,0.00000633,-0.00051959,0.00024526,-0.
 00032217,0.00010564,-0.00037616,0.00012868,0.00023174,-0.00031377,0.00
 013439,0.00024543,0.00002624,0.00003932,-0.00008399,0.00034343,0.00000
 577,0.00003964,-0.00000488,0.00002141,0.00000273,-0.00012930,-0.000148
 17,-0.00027662,0.00000118,0.00000680,0.00000988,-0.00000077,0.00000768
 ,-0.00000761,0.00000634,-0.00000362,-0.00000720,-0.00092474,0.00074296
 ,0.00037598,-0.00001658,0.00042441,0.00007338,-0.00033654,-0.00017548,
 0.00028453,-0.00023417,-0.00040499,0.00010781,0.00022681,-0.00007703,0
 .00006609,0.00033551,0.00001273,0.00018606,-0.00001052,-0.00000391,0.0
 0000555,-0.00002453,0.00025482,-0.00027662,0.00000402,0.00002968,0.000
 04703,0.00004097,-0.00000919,-0.00002643,0.00000694,-0.00000396,0.0000
 0406,0.05111058,-0.01087984,-0.07028132,-0.03396487,0.09067982,0.00647
 944,-0.01432789,-0.06605576,0.06269974,0.11884100,0.04318541,-0.262234
 84,0.00303194,0.00204278,0.00406179,0.09281505,-0.01478100,-0.19713532
 ,0.00289276,0.00414028,0.00329559,-0.24304001,-0.11855599,0.55403858,-
 0.00022531,-0.00011255,0.00024516,0.00000122,0.00006956,-0.00005321,0.
 00008203,-0.00001569,-0.00011885,0.00000583,0.00002855,0.00005920,-0.0
 0007020,0.00001611,-0.00000447,-0.00001778,0.00001920,0.00002420,0.000
 01311,0.00000024,0.00000100,0.00003822,-0.00001021,-0.00000399,-0.0000
 0064,-0.00001282,-0.00000074,-0.00002263,-0.00001527,-0.00002845,-0.00
 001816,-0.00000112,-0.00000092,-0.00000395,0.00000486,0.00000570,-0.00
 000889,0.00000263,0.00000212,-0.00007704,-0.00004185,-0.00004225,0.000
 01610,-0.00000661,0.00002872,0.00005567,0.00001093,0.00000830,-0.00001
 721,0.00000584,-0.00000470,-0.00000507,-0.00000967,-0.00003324,0.00000
 501,0.00001032,-0.00000511,-0.00000848,-0.00000222,-0.00000226,0.00000
 027,0.00000627,-0.00000648,0.00000330,-0.00000255,0.00000215,0.0000037
 5,0.00001377,-0.00000248,0.00000828,0.00000674,0.00000030,0.00582771,0
 .00251173,0.00296311,0.00149121,0.00040948,0.00522853,-0.00016379,-0.0
 0061326,-0.00068638,-0.17687167,0.10821247,0.11462379,-0.00247532,-0.0
 0101632,-0.00305835,0.00448279,-0.00029971,0.00567340,-0.00075006,-0.0
 0025007,-0.00053998,-0.00409955,0.01168932,0.00673777,0.17559053,0.001
 01074,-0.00029697,-0.00107738,-0.00000068,0.00006586,0.00003549,-0.000
 20894,-0.00043358,0.00015170,0.00007807,-0.00003767,-0.00002137,0.0001
 0068,-0.00000410,0.00000679,-0.00003651,0.00002429,-0.00001092,-0.0000
 1540,0.00000088,-0.00000115,0.00002779,0.00003008,-0.00000929,-0.00000
 818,-0.00000966,0.00000675,0.00002883,-0.00003040,-0.00003089,0.000018
 41,0.00000108,0.00000580,0.00001296,-0.00001051,-0.00001441,0.00001150
 ,-0.00000705,-0.00000174,0.00021094,0.00000735,0.00008771,-0.00007128,
 -0.00001553,-0.00002445,-0.00009210,-0.00005469,-0.00003169,-0.0000100
 5,-0.00000512,0.00002092,0.00004839,-0.00000888,0.00001784,-0.00001585
 ,-0.00000252,0.00002093,0.00001698,0.00000608,-0.00001344,-0.00003934,
 -0.00002160,-0.00000238,-0.00000908,-0.00001256,-0.00002532,-0.0000057
 5,-0.00002084,-0.00000215,-0.00000496,-0.00001486,-0.00000668,0.001960
 72,-0.00453405,0.00408220,0.02342647,-0.01203487,-0.02207094,-0.000744
 38,-0.00059595,0.00082130,0.10811889,-0.16033107,-0.08637798,-0.001798
 30,0.00073818,-0.00059170,0.00005541,0.00017848,0.00419981,-0.00019355
 ,-0.00008790,-0.00032152,-0.01118979,0.01288213,0.01100787,-0.11932152
 ,0.16360460,-0.00037514,0.00024630,0.00021810,-0.00000003,-0.00003568,
 -0.00004028,-0.00000731,-0.00000722,-0.00008316,0.00001811,-0.00001493
 ,0.00003060,-0.00001774,-0.00000070,0.00003699,-0.00003782,0.00000822,
 0.00001374,-0.00000350,0.00000788,-0.00001780,0.00002619,-0.00000516,0
 .00001417,0.00000109,0.00000845,-0.00000327,-0.00001542,-0.00001630,-0
 .00002643,-0.00000062,0.00000323,0.00000195,0.00000189,0.00000193,-0.0
 0000640,0.00000437,0.00000023,-0.00000373,0.00005556,-0.00010028,0.000
 02031,-0.00002728,-0.00000980,-0.00001368,0.00000548,-0.00000368,-0.00
 004490,0.00000756,0.00001098,0.00003089,0.00003841,0.00000365,-0.00000
 066,-0.00001781,0.00000150,-0.00000619,0.00000076,0.00000554,-0.000003
 58,-0.00001543,-0.00002036,0.00000988,-0.00000368,-0.00000863,-0.00001
 894,-0.00000457,-0.00000370,0.00000195,-0.00000252,-0.00000907,-0.0000
 0264,0.00302740,0.00376716,0.00329925,-0.00625551,0.00836103,0.0097553
 2,-0.00069131,0.00080248,-0.00044168,0.11470963,-0.08659294,-0.1567949
 2,-0.00264040,-0.00155754,-0.00090541,0.00549971,0.00460405,-0.0009386
 2,-0.00052169,-0.00029278,-0.00042465,0.01816926,-0.01921329,-0.008868
 14,-0.12886682,0.09135932,0.15670033,0.00014676,-0.00003097,-0.0003000
 0,-0.00000421,-0.00001940,-0.00006202,-0.00004790,-0.00001491,0.000016
 09,-0.00001893,0.00002076,0.00000647,0.00006299,-0.00002433,0.00000110
 ,0.00000499,-0.00002462,-0.00001463,-0.00000113,0.00000489,-0.00001968
 ,-0.00003671,0.00000258,0.00000361,-0.00000201,-0.00000056,-0.00000103
 ,-0.00000470,0.00001027,0.00002369,-0.00000356,0.00000651,-0.00000563,
 0.00000375,-0.00000348,-0.00000700,0.00000368,0.00000292,-0.00000268,0
 .00003664,0.00006043,0.00004682,-0.00001121,-0.00007564,0.00001199,-0.
 00003973,0.00000075,-0.00002008,0.00001674,-0.00000218,0.00000703,0.00
 001745,0.00001818,0.00004226,0.00001076,0.00000051,-0.00000228,-0.0000
 0537,0.00000917,-0.00000190,-0.00000881,-0.00000294,-0.00000627,-0.000
 01666,-0.00000831,-0.00000749,-0.00000116,-0.00000324,-0.00000261,-0.0
 0000510,-0.00000113,0.00000138,0.00523929,0.00367140,0.00266900,-0.000
 66959,0.00055843,-0.00069432,0.00791669,0.00523342,-0.00577612,0.00283
 537,0.00494616,0.00550949,-0.00072297,-0.00033869,-0.00052176,-0.12221
 094,-0.04875039,0.12009197,-0.00227170,-0.00185264,-0.00261566,-0.0039
 3673,-0.01186773,0.01834970,-0.00050096,-0.00050864,0.00082726,0.11658
 990,-0.00080700,-0.00000150,0.00112160,0.00002817,-0.00041608,0.000149
 17,-0.00026682,0.00016359,0.00001891,0.00005063,0.00001506,-0.00001042
 ,0.00008356,0.00000691,-0.00003943,0.00000120,0.00000163,-0.00001450,-
 0.00001923,-0.00001171,-0.00001394,-0.00000109,0.00001041,-0.00002169,
 -0.00001990,-0.00001447,0.00001546,0.00005821,-0.00000139,-0.00001832,
 0.00001304,-0.00000570,0.00000750,0.00001202,-0.00002840,-0.00000755,0
 .00001074,-0.00001264,0.00000230,0.00021528,-0.00004615,0.00016067,-0.
 00003758,-0.00008656,-0.00003230,-0.00010380,-0.00007519,-0.00006247,0
 .00001013,0.00000202,0.00000283,0.00000672,0.00002033,0.00004927,-0.00
 000984,-0.00000779,0.00000776,0.00000110,0.00002071,-0.00001433,-0.000
 02013,-0.00001921,-0.00000451,-0.00002381,-0.00000798,-0.00001255,-0.0
 0001134,-0.00001330,0.00000067,-0.00000907,-0.00000581,-0.00000171,0.0
 0366590,-0.00508974,0.00203658,0.00053867,-0.00092522,-0.00069629,-0.0
 1774243,-0.00730013,0.02956322,0.00468385,-0.00109718,-0.00109191,-0.0
 0035299,-0.00005208,-0.00014136,-0.04877344,-0.11736270,0.09813029,-0.
 00101256,0.00073215,-0.00155625,0.01128660,0.01302746,-0.01839521,0.00
 044486,0.00038015,-0.00084091,0.04995526,0.11754093,0.00028520,-0.0003
 8366,-0.00029407,0.00000479,0.00009569,-0.00006466,0.00011277,0.000039
 55,-0.00001650,-0.00006028,0.00003813,0.00001640,-0.00001354,-0.000012
 72,-0.00003750,0.00003006,-0.00003025,0.00000235,0.00002671,0.00000691
 ,-0.00000283,-0.00003291,-0.00001329,-0.00000133,0.00000570,-0.0000087
 5,-0.00001108,-0.00003180,0.00001675,0.00004703,-0.00002300,0.00001080
 ,-0.00001894,-0.00000712,0.00001276,0.00000612,-0.00001296,0.00001420,
 0.00000003,-0.00012978,0.00008926,-0.00003222,0.00003503,-0.00000008,0
 .00004328,0.00003427,0.00003257,0.00004703,-0.00002037,0.00000324,-0.0
 0001996,-0.00000972,-0.00000217,-0.00003665,0.00002012,0.00000605,-0.0
 0000189,-0.00000710,-0.00000784,-0.00000059,0.00000728,0.00001941,-0.0
 0000761,0.00001004,-0.00000229,0.00000612,0.00000963,0.00001214,-0.000
 00640,0.00000923,0.00001016,0.00000119,0.00266711,0.00266144,0.0038420
 2,-0.00078405,-0.00059907,0.00036803,0.00568874,-0.00056653,-0.0016162
 3,0.00565544,-0.00152931,0.00233815,-0.00052342,-0.00015006,-0.0005115
 1,0.11984529,0.09815811,-0.25415796,-0.00288857,-0.00068927,-0.0008981
 4,0.00691319,0.01176222,-0.00925852,0.00031462,0.00043602,-0.00072499,
 -0.13455988,-0.10783976,0.26191498,-0.00059748,-0.00040070,-0.00048130
 ,0.00004498,0.00008102,-0.00016979,0.00003193,-0.00001043,-0.00002433,
 0.00001420,0.00000107,0.00003374,-0.00002365,0.00002277,-0.00001621,-0
 .00000358,0.00000040,0.00001076,0.00000790,-0.00000152,-0.00000560,0.0
 0002203,-0.00000188,-0.00001358,-0.00000608,-0.00001624,-0.00000196,-0
 .00000271,-0.00000892,-0.00000690,-0.00000985,0.00000373,-0.00000659,-
 0.00000121,-0.00000111,0.00000419,-0.00000599,0.00000358,0.00000040,0.
 00002546,-0.00011257,0.00006095,0.00000149,-0.00002591,0.00002358,-0.0
 0002387,-0.00001395,-0.00001280,-0.00000061,0.00001041,-0.00000246,-0.
 00000013,0.00000675,-0.00000097,-0.00000134,-0.00000132,0.00000504,-0.
 00000222,0.00000226,-0.00000332,-0.00000364,-0.00000110,-0.00000003,-0
 .00000265,-0.00000658,-0.00000582,-0.00000139,0.00000169,-0.00000238,0
 .00000225,0.00000118,-0.00000074,-0.00108609,-0.00017676,0.00026056,0.
 00368764,0.00058443,0.00630276,0.00250839,0.00370077,0.00661902,0.0080
 3063,-0.01732902,0.00475284,0.00008953,-0.00075513,0.00016650,0.001851
 43,0.02307734,-0.00713871,-0.00020063,0.00098632,-0.00034156,-0.067720
 62,0.05557703,-0.00203520,-0.00228832,-0.00085249,-0.00288807,-0.00236
 495,-0.00185492,-0.00257073,0.05802915,-0.00023277,-0.00006582,-0.0001
 8344,0.00000186,-0.00000657,-0.00003913,-0.00007676,-0.00005086,0.0000
 1665,0.00000274,-0.00004543,-0.00000525,0.00005238,-0.00001782,0.00004
 976,-0.00002507,-0.00000890,-0.00001714,-0.00001502,0.00000654,-0.0000
 1704,-0.00002219,0.00001311,0.00002009,0.00000085,0.00002055,-0.000002
 67,0.00001812,0.00000218,-0.00000403,0.00001542,0.00000326,0.00000671,
 0.00000682,-0.00000969,-0.00001308,0.00001553,-0.00000604,-0.00000441,
 0.00011027,-0.00004102,0.00006659,-0.00004717,-0.00001947,-0.00003641,
 -0.00005148,-0.00002076,-0.00004366,0.00002955,0.00000132,0.00003847,0
 .00005014,0.00000699,0.00004452,-0.00001615,-0.00000437,-0.00000339,0.
 00000356,0.00001062,-0.00000372,-0.00001468,-0.00002145,0.00000730,-0.
 00001439,-0.00000631,-0.00001833,-0.00000718,-0.00001455,0.00000366,-0
 .00001077,-0.00001428,-0.00000194,-0.00027632,0.00088268,-0.00051790,0
 .00020722,0.00159591,0.00328771,0.00413934,0.00065566,-0.00125285,0.00
 562501,-0.00778328,-0.00098035,0.00016192,-0.00059268,0.00006479,-0.00
 018041,-0.01253613,0.00908965,0.00003002,-0.00078455,0.00031140,0.0557
 1308,-0.34312616,0.07512148,-0.00173141,0.00065122,-0.00045897,-0.0009
 7186,0.00065958,-0.00159041,-0.06249022,0.36066648,-0.00053911,-0.0002
 3104,-0.00029665,0.00007141,-0.00002179,-0.00003241,0.00005816,0.00000
 538,0.00000971,-0.00003906,-0.00002340,0.00001034,-0.00003572,0.000000
 13,0.00003941,-0.00000033,-0.00000617,0.00000013,0.00001434,0.00000518
 ,-0.00000195,-0.00001790,0.00000649,0.00000949,0.00000299,0.00000420,-
 0.00000887,-0.00000136,0.00000919,0.00000406,-0.00000593,0.00000308,-0
 .00000264,-0.00000217,-0.00000034,0.00000119,-0.00000131,0.00000161,0.
 00000083,-0.00002483,-0.00008112,0.00006367,-0.00001325,0.00001177,0.0
 0001435,-0.00002820,-0.00001640,0.00000367,-0.00000695,-0.00000397,0.0
 0000112,0.00002440,-0.00000249,-0.00000778,0.00000132,-0.00000541,0.00
 001223,0.00000260,-0.00000529,-0.00000368,0.00000005,0.00000233,-0.000
 00720,-0.00000066,-0.00000347,0.00000003,0.00000045,0.00000271,-0.0000
 0373,0.00000362,0.00000256,0.00000083,0.00027608,-0.00042032,-0.001137
 38,0.00653104,0.00278139,-0.00136160,0.00637728,-0.00075437,0.00107983
 ,-0.00668055,0.02935539,-0.00083785,-0.00031890,0.00133058,-0.00036588
 ,0.00426650,-0.02115152,0.01021283,0.00010864,-0.00090342,0.00022499,-
 0.00206515,0.07511911,-0.08319858,-0.00245943,-0.00162507,-0.00076345,
 -0.00298683,-0.00045084,-0.00091313,-0.00251127,-0.08293469,0.07725410
 ||0.,0.,-0.00000980,0.,0.,-0.00000571,0.00000219,-0.00000662,0.0000147
 2,-0.00000098,0.00000380,-0.00000063,0.00001117,-0.00000078,-0.0000120
 1,0.00000367,0.00000059,0.00000068,0.00000131,-0.00000033,-0.00000074,
 -0.00001264,-0.00000168,-0.00000292,0.00000055,0.00000033,0.00000080,0
 .00000224,0.00000167,0.00000626,-0.00000199,-0.00000036,0.00000009,0.0
 0000071,0.00000042,0.00000086,-0.00000186,0.00000016,-0.00000194,-0.00
 000683,0.00000141,0.00001472,-0.00000627,-0.00000929,-0.00001201,0.000
 00378,-0.00000105,-0.00000063,0.00000487,0.00001179,-0.00000292,0.,-0.
 00000064,0.00000080,-0.00000132,-0.00000348,0.00000068,-0.00000094,-0.
 00000097,-0.00000074,0.00000033,-0.00000278,0.00000626,0.,-0.00000082,
 0.00000086,0.00000069,0.00000190,0.00000009,0.00000107,0.00000153,-0.0
 0000194,0.00000463,0.00000521,0.00001472,-0.00000280,-0.00000275,-0.00
 000063,-0.00000491,0.00001007,-0.00001201,-0.00000235,0.00000288,0.000
 00068,-0.00000037,0.00000130,-0.00000074,0.00000778,-0.00001011,-0.000
 00292,-0.00000056,0.00000031,0.00000080,-0.00000257,0.00000110,0.00000
 626,0.00000130,-0.00000155,0.00000009,-0.00000072,0.00000040,0.0000008
 6,0.00000079,-0.00000169,-0.00000194|||@


 IF AT FIRST YOU DON'T SUCCEED, TRY, TRY AGAIN.
 THEN GIVE UP;
 THERE'S NO USE BEING A DAMN FOOL ABOUT IT.

                                 -- W. C. FIELDS
 Job cpu time:  0 days  0 hours  3 minutes 18.0 seconds.
 File lengths (MBytes):  RWF=    178 Int=      0 D2E=      0 Chk=      7 Scr=      1
 Normal termination of Gaussian 09 at Mon Sep 06 20:21:14 2021.
