 Entering Link 1 = b:\programy\g09w\l1.exe PID=     19940.
  
 Copyright (c) 1988,1990,1992,1993,1995,1998,2003,2009, Gaussian, Inc.
                  All Rights Reserved.
  
 This is part of the Gaussian(R) 09 program.  It is based on
 the Gaussian(R) 03 system (copyright 2003, Gaussian, Inc.),
 the Gaussian(R) 98 system (copyright 1998, Gaussian, Inc.),
 the Gaussian(R) 94 system (copyright 1995, Gaussian, Inc.),
 the Gaussian 92(TM) system (copyright 1992, Gaussian, Inc.),
 the Gaussian 90(TM) system (copyright 1990, Gaussian, Inc.),
 the Gaussian 88(TM) system (copyright 1988, Gaussian, Inc.),
 the Gaussian 86(TM) system (copyright 1986, Carnegie Mellon
 University), and the Gaussian 82(TM) system (copyright 1983,
 Carnegie Mellon University). Gaussian is a federally registered
 trademark of Gaussian, Inc.
  
 This software contains proprietary and confidential information,
 including trade secrets, belonging to Gaussian, Inc.
  
 This software is provided under written license and may be
 used, copied, transmitted, or stored only in accord with that
 written license.
  
 The following legend is applicable only to US Government
 contracts under FAR:
  
                    RESTRICTED RIGHTS LEGEND
  
 Use, reproduction and disclosure by the US Government is
 subject to restrictions as set forth in subparagraphs (a)
 and (c) of the Commercial Computer Software - Restricted
 Rights clause in FAR 52.227-19.
  
 Gaussian, Inc.
 340 Quinnipiac St., Bldg. 40, Wallingford CT 06492
  
  
 ---------------------------------------------------------------
 Warning -- This program may not be used in any manner that
 competes with the business of Gaussian, Inc. or will provide
 assistance to any competitor of Gaussian, Inc.  The licensee
 of this program is prohibited from giving any competitor of
 Gaussian, Inc. access to this program.  By using this program,
 the user acknowledges that Gaussian, Inc. is engaged in the
 business of creating and licensing software in the field of
 computational chemistry and represents and warrants to the
 licensee that it is not a competitor of Gaussian, Inc. and that
 it will not use this program in any manner prohibited above.
 ---------------------------------------------------------------
  

 Cite this work as:
 Gaussian 09, Revision A.02,
 M. J. Frisch, G. W. Trucks, H. B. Schlegel, G. E. Scuseria, 
 M. A. Robb, J. R. Cheeseman, G. Scalmani, V. Barone, B. Mennucci, 
 G. A. Petersson, H. Nakatsuji, M. Caricato, X. Li, H. P. Hratchian, 
 A. F. Izmaylov, J. Bloino, G. Zheng, J. L. Sonnenberg, M. Hada, 
 M. Ehara, K. Toyota, R. Fukuda, J. Hasegawa, M. Ishida, T. Nakajima, 
 Y. Honda, O. Kitao, H. Nakai, T. Vreven, J. A. Montgomery, Jr., 
 J. E. Peralta, F. Ogliaro, M. Bearpark, J. J. Heyd, E. Brothers, 
 K. N. Kudin, V. N. Staroverov, R. Kobayashi, J. Normand, 
 K. Raghavachari, A. Rendell, J. C. Burant, S. S. Iyengar, J. Tomasi, 
 M. Cossi, N. Rega, J. M. Millam, M. Klene, J. E. Knox, J. B. Cross, 
 V. Bakken, C. Adamo, J. Jaramillo, R. Gomperts, R. E. Stratmann, 
 O. Yazyev, A. J. Austin, R. Cammi, C. Pomelli, J. W. Ochterski, 
 R. L. Martin, K. Morokuma, V. G. Zakrzewski, G. A. Voth, 
 P. Salvador, J. J. Dannenberg, S. Dapprich, A. D. Daniels, 
 O. Farkas, J. B. Foresman, J. V. Ortiz, J. Cioslowski, 
 and D. J. Fox, Gaussian, Inc., Wallingford CT, 2009.
 
 ******************************************
 Gaussian 09:  IA32W-G09RevA.02 11-Jun-2009
                06-Sep-2021 
 ******************************************
 %nprocshared=12
 Will use up to   12 processors via shared memory.
 ----------------------------------------------
 # opt freq=noraman hf/6-311g geom=connectivity
 ----------------------------------------------
 1/18=20,19=15,38=1,57=2/1,3;
 2/9=110,12=2,17=6,18=5,40=1/2;
 3/5=4,6=6,11=9,16=1,25=1,30=1,71=1/1,2,3;
 4//1;
 5/5=2,38=5/2;
 6/7=2,8=2,9=2,10=2,28=1/1;
 7//1,2,3,16;
 1/18=20,19=15/3(2);
 2/9=110/2;
 99//99;
 2/9=110/2;
 3/5=4,6=6,11=9,16=1,25=1,30=1,71=1/1,2,3;
 4/5=5,16=3/1;
 5/5=2,38=5/2;
 7//1,2,3,16;
 1/18=20,19=15/3(-5);
 2/9=110/2;
 6/7=2,8=2,9=2,10=2,19=2,28=1/1;
 99/9=1/99;
 -----
 M0001
 -----
 Symbolic Z-matrix:
 Charge =  0 Multiplicity = 1
 C                    -0.09054  -0.10511   0.75623 
 H                    -0.28754  -0.24843   1.85348 
 C                     1.40052   0.07267   0.61292 
 C                     2.14059   0.41606   1.74848 
 C                     2.06649  -0.08763  -0.60332 
 C                     3.51663   0.59297   1.66673 
 H                     1.63475   0.54931   2.7121 
 C                     3.44342   0.08718  -0.68291 
 H                     1.49343  -0.36262  -1.50349 
 C                     4.17162   0.42825   0.451 
 H                     4.08551   0.86171   2.56281 
 H                     3.95345  -0.0456   -1.6425 
 H                     5.2557    0.56602   0.38769 
 C                    -0.61314  -1.33196   0.04957 
 C                    -1.08849  -2.40262   0.81074 
 C                    -0.65487  -1.41847  -1.34299 
 C                    -1.60154  -3.53448   0.18727 
 H                    -1.05877  -2.35298   1.90562 
 C                    -1.17188  -2.54853  -1.96484 
 H                    -0.25233  -0.58644  -1.94062 
 C                    -1.6483   -3.60822  -1.2005 
 H                    -1.97011  -4.36927   0.79194 
 H                    -1.20246  -2.60292  -3.05784 
 H                    -2.05706  -4.49805  -1.68972 
 C                    -0.87519   1.11467   0.33612 
 C                    -2.07224   1.39536   1.00285 
 C                    -0.45761   1.96121  -0.69029 
 C                    -2.83439   2.50066   0.64619 
 H                    -2.41547   0.73795   1.81018 
 C                    -1.22112   3.06889  -1.04393 
 H                     0.48353   1.75906  -1.21723 
 C                    -2.41033   3.34069  -0.37829 
 H                    -3.77054   2.7105    1.17371 
 H                    -0.88112   3.72789  -1.84932 
 H                    -3.0106    4.21228  -0.65783 
 

 GradGradGradGradGradGradGradGradGradGradGradGradGradGradGradGradGradGrad
 Berny optimization.
 Initialization pass.
                           ----------------------------
                           !    Initial Parameters    !
                           ! (Angstroms and Degrees)  !
 --------------------------                            --------------------------
 ! Name  Definition              Value          Derivative Info.                !
 --------------------------------------------------------------------------------
 ! R1    R(1,2)                  1.124          estimate D2E/DX2                !
 ! R2    R(1,3)                  1.5085         estimate D2E/DX2                !
 ! R3    R(1,14)                 1.5092         estimate D2E/DX2                !
 ! R4    R(1,25)                 1.51           estimate D2E/DX2                !
 ! R5    R(3,4)                  1.3983         estimate D2E/DX2                !
 ! R6    R(3,5)                  1.3959         estimate D2E/DX2                !
 ! R7    R(4,6)                  1.3898         estimate D2E/DX2                !
 ! R8    R(4,7)                  1.0964         estimate D2E/DX2                !
 ! R9    R(5,8)                  1.3903         estimate D2E/DX2                !
 ! R10   R(5,9)                  1.102          estimate D2E/DX2                !
 ! R11   R(6,10)                 1.3907         estimate D2E/DX2                !
 ! R12   R(6,11)                 1.0949         estimate D2E/DX2                !
 ! R13   R(8,10)                 1.3901         estimate D2E/DX2                !
 ! R14   R(8,12)                 1.0948         estimate D2E/DX2                !
 ! R15   R(10,13)                1.0946         estimate D2E/DX2                !
 ! R16   R(14,15)                1.397          estimate D2E/DX2                !
 ! R17   R(14,16)                1.3959         estimate D2E/DX2                !
 ! R18   R(15,17)                1.3903         estimate D2E/DX2                !
 ! R19   R(15,18)                1.0964         estimate D2E/DX2                !
 ! R20   R(16,19)                1.3896         estimate D2E/DX2                !
 ! R21   R(16,20)                1.1007         estimate D2E/DX2                !
 ! R22   R(17,21)                1.3905         estimate D2E/DX2                !
 ! R23   R(17,22)                1.0947         estimate D2E/DX2                !
 ! R24   R(19,21)                1.3907         estimate D2E/DX2                !
 ! R25   R(19,23)                1.0948         estimate D2E/DX2                !
 ! R26   R(21,24)                1.0946         estimate D2E/DX2                !
 ! R27   R(25,26)                1.3987         estimate D2E/DX2                !
 ! R28   R(25,27)                1.3945         estimate D2E/DX2                !
 ! R29   R(26,28)                1.3892         estimate D2E/DX2                !
 ! R30   R(26,29)                1.0963         estimate D2E/DX2                !
 ! R31   R(27,30)                1.391          estimate D2E/DX2                !
 ! R32   R(27,31)                1.0974         estimate D2E/DX2                !
 ! R33   R(28,32)                1.3911         estimate D2E/DX2                !
 ! R34   R(28,33)                1.0948         estimate D2E/DX2                !
 ! R35   R(30,32)                1.3897         estimate D2E/DX2                !
 ! R36   R(30,34)                1.0948         estimate D2E/DX2                !
 ! R37   R(32,35)                1.0946         estimate D2E/DX2                !
 ! A1    A(2,1,3)              106.3214         estimate D2E/DX2                !
 ! A2    A(2,1,14)             107.0235         estimate D2E/DX2                !
 ! A3    A(2,1,25)             106.4717         estimate D2E/DX2                !
 ! A4    A(3,1,14)             113.1795         estimate D2E/DX2                !
 ! A5    A(3,1,25)             113.0795         estimate D2E/DX2                !
 ! A6    A(14,1,25)            110.2716         estimate D2E/DX2                !
 ! A7    A(1,3,4)              118.3572         estimate D2E/DX2                !
 ! A8    A(1,3,5)              122.7415         estimate D2E/DX2                !
 ! A9    A(4,3,5)              118.9011         estimate D2E/DX2                !
 ! A10   A(3,4,6)              120.5001         estimate D2E/DX2                !
 ! A11   A(3,4,7)              119.9607         estimate D2E/DX2                !
 ! A12   A(6,4,7)              119.5392         estimate D2E/DX2                !
 ! A13   A(3,5,8)              120.5285         estimate D2E/DX2                !
 ! A14   A(3,5,9)              119.492          estimate D2E/DX2                !
 ! A15   A(8,5,9)              119.9777         estimate D2E/DX2                !
 ! A16   A(4,6,10)             120.1759         estimate D2E/DX2                !
 ! A17   A(4,6,11)             119.8372         estimate D2E/DX2                !
 ! A18   A(10,6,11)            119.9868         estimate D2E/DX2                !
 ! A19   A(5,8,10)             120.1973         estimate D2E/DX2                !
 ! A20   A(5,8,12)             119.7574         estimate D2E/DX2                !
 ! A21   A(10,8,12)            120.0454         estimate D2E/DX2                !
 ! A22   A(6,10,8)             119.6967         estimate D2E/DX2                !
 ! A23   A(6,10,13)            120.1374         estimate D2E/DX2                !
 ! A24   A(8,10,13)            120.1659         estimate D2E/DX2                !
 ! A25   A(1,14,15)            119.0597         estimate D2E/DX2                !
 ! A26   A(1,14,16)            121.8611         estimate D2E/DX2                !
 ! A27   A(15,14,16)           119.071          estimate D2E/DX2                !
 ! A28   A(14,15,17)           120.3409         estimate D2E/DX2                !
 ! A29   A(14,15,18)           120.0113         estimate D2E/DX2                !
 ! A30   A(17,15,18)           119.6478         estimate D2E/DX2                !
 ! A31   A(14,16,19)           120.5279         estimate D2E/DX2                !
 ! A32   A(14,16,20)           118.9409         estimate D2E/DX2                !
 ! A33   A(19,16,20)           120.5188         estimate D2E/DX2                !
 ! A34   A(15,17,21)           120.2071         estimate D2E/DX2                !
 ! A35   A(15,17,22)           119.8251         estimate D2E/DX2                !
 ! A36   A(21,17,22)           119.9678         estimate D2E/DX2                !
 ! A37   A(16,19,21)           120.0765         estimate D2E/DX2                !
 ! A38   A(16,19,23)           119.8387         estimate D2E/DX2                !
 ! A39   A(21,19,23)           120.0848         estimate D2E/DX2                !
 ! A40   A(17,21,19)           119.7742         estimate D2E/DX2                !
 ! A41   A(17,21,24)           120.1129         estimate D2E/DX2                !
 ! A42   A(19,21,24)           120.1128         estimate D2E/DX2                !
 ! A43   A(1,25,26)            118.309          estimate D2E/DX2                !
 ! A44   A(1,25,27)            122.6555         estimate D2E/DX2                !
 ! A45   A(26,25,27)           119.0343         estimate D2E/DX2                !
 ! A46   A(25,26,28)           120.4539         estimate D2E/DX2                !
 ! A47   A(25,26,29)           119.912          estimate D2E/DX2                !
 ! A48   A(28,26,29)           119.6337         estimate D2E/DX2                !
 ! A49   A(25,27,30)           120.4098         estimate D2E/DX2                !
 ! A50   A(25,27,31)           119.8955         estimate D2E/DX2                !
 ! A51   A(30,27,31)           119.6923         estimate D2E/DX2                !
 ! A52   A(26,28,32)           120.1537         estimate D2E/DX2                !
 ! A53   A(26,28,33)           119.8616         estimate D2E/DX2                !
 ! A54   A(32,28,33)           119.9846         estimate D2E/DX2                !
 ! A55   A(27,30,32)           120.2435         estimate D2E/DX2                !
 ! A56   A(27,30,34)           119.7292         estimate D2E/DX2                !
 ! A57   A(32,30,34)           120.0273         estimate D2E/DX2                !
 ! A58   A(28,32,30)           119.7046         estimate D2E/DX2                !
 ! A59   A(28,32,35)           120.1165         estimate D2E/DX2                !
 ! A60   A(30,32,35)           120.1788         estimate D2E/DX2                !
 ! D1    D(2,1,3,4)            -18.215          estimate D2E/DX2                !
 ! D2    D(2,1,3,5)            161.97           estimate D2E/DX2                !
 ! D3    D(14,1,3,4)          -135.4232         estimate D2E/DX2                !
 ! D4    D(14,1,3,5)            44.7617         estimate D2E/DX2                !
 ! D5    D(25,1,3,4)            98.2679         estimate D2E/DX2                !
 ! D6    D(25,1,3,5)           -81.5471         estimate D2E/DX2                !
 ! D7    D(2,1,14,15)           -5.8507         estimate D2E/DX2                !
 ! D8    D(2,1,14,16)          173.1001         estimate D2E/DX2                !
 ! D9    D(3,1,14,15)          110.9449         estimate D2E/DX2                !
 ! D10   D(3,1,14,16)          -70.1043         estimate D2E/DX2                !
 ! D11   D(25,1,14,15)        -121.2676         estimate D2E/DX2                !
 ! D12   D(25,1,14,16)          57.6832         estimate D2E/DX2                !
 ! D13   D(2,1,25,26)          -30.9263         estimate D2E/DX2                !
 ! D14   D(2,1,25,27)          149.4722         estimate D2E/DX2                !
 ! D15   D(3,1,25,26)         -147.3202         estimate D2E/DX2                !
 ! D16   D(3,1,25,27)           33.0783         estimate D2E/DX2                !
 ! D17   D(14,1,25,26)          84.8373         estimate D2E/DX2                !
 ! D18   D(14,1,25,27)         -94.7642         estimate D2E/DX2                !
 ! D19   D(1,3,4,6)           -179.9            estimate D2E/DX2                !
 ! D20   D(1,3,4,7)             -0.0059         estimate D2E/DX2                !
 ! D21   D(5,3,4,6)             -0.0777         estimate D2E/DX2                !
 ! D22   D(5,3,4,7)            179.8164         estimate D2E/DX2                !
 ! D23   D(1,3,5,8)           -179.9844         estimate D2E/DX2                !
 ! D24   D(1,3,5,9)             -0.4592         estimate D2E/DX2                !
 ! D25   D(4,3,5,8)              0.2015         estimate D2E/DX2                !
 ! D26   D(4,3,5,9)            179.7268         estimate D2E/DX2                !
 ! D27   D(3,4,6,10)            -0.058          estimate D2E/DX2                !
 ! D28   D(3,4,6,11)          -179.9947         estimate D2E/DX2                !
 ! D29   D(7,4,6,10)          -179.9526         estimate D2E/DX2                !
 ! D30   D(7,4,6,11)             0.1107         estimate D2E/DX2                !
 ! D31   D(3,5,8,10)            -0.1904         estimate D2E/DX2                !
 ! D32   D(3,5,8,12)           179.7568         estimate D2E/DX2                !
 ! D33   D(9,5,8,10)          -179.7133         estimate D2E/DX2                !
 ! D34   D(9,5,8,12)             0.2339         estimate D2E/DX2                !
 ! D35   D(4,6,10,8)             0.0713         estimate D2E/DX2                !
 ! D36   D(4,6,10,13)         -179.8919         estimate D2E/DX2                !
 ! D37   D(11,6,10,8)         -179.9921         estimate D2E/DX2                !
 ! D38   D(11,6,10,13)           0.0447         estimate D2E/DX2                !
 ! D39   D(5,8,10,6)             0.0522         estimate D2E/DX2                !
 ! D40   D(5,8,10,13)         -179.9846         estimate D2E/DX2                !
 ! D41   D(12,8,10,6)         -179.8948         estimate D2E/DX2                !
 ! D42   D(12,8,10,13)           0.0683         estimate D2E/DX2                !
 ! D43   D(1,14,15,17)         178.663          estimate D2E/DX2                !
 ! D44   D(1,14,15,18)          -1.3006         estimate D2E/DX2                !
 ! D45   D(16,14,15,17)         -0.3174         estimate D2E/DX2                !
 ! D46   D(16,14,15,18)        179.719          estimate D2E/DX2                !
 ! D47   D(1,14,16,19)        -178.4244         estimate D2E/DX2                !
 ! D48   D(1,14,16,20)           2.8511         estimate D2E/DX2                !
 ! D49   D(15,14,16,19)          0.5263         estimate D2E/DX2                !
 ! D50   D(15,14,16,20)       -178.1982         estimate D2E/DX2                !
 ! D51   D(14,15,17,21)         -0.1475         estimate D2E/DX2                !
 ! D52   D(14,15,17,22)        179.8912         estimate D2E/DX2                !
 ! D53   D(18,15,17,21)        179.8163         estimate D2E/DX2                !
 ! D54   D(18,15,17,22)         -0.145          estimate D2E/DX2                !
 ! D55   D(14,16,19,21)         -0.2703         estimate D2E/DX2                !
 ! D56   D(14,16,19,23)        179.7809         estimate D2E/DX2                !
 ! D57   D(20,16,19,21)        178.434          estimate D2E/DX2                !
 ! D58   D(20,16,19,23)         -1.5148         estimate D2E/DX2                !
 ! D59   D(15,17,21,19)          0.4081         estimate D2E/DX2                !
 ! D60   D(15,17,21,24)       -179.7005         estimate D2E/DX2                !
 ! D61   D(22,17,21,19)       -179.6307         estimate D2E/DX2                !
 ! D62   D(22,17,21,24)          0.2607         estimate D2E/DX2                !
 ! D63   D(16,19,21,17)         -0.2001         estimate D2E/DX2                !
 ! D64   D(16,19,21,24)        179.9085         estimate D2E/DX2                !
 ! D65   D(23,19,21,17)        179.7487         estimate D2E/DX2                !
 ! D66   D(23,19,21,24)         -0.1427         estimate D2E/DX2                !
 ! D67   D(1,25,26,28)        -179.5409         estimate D2E/DX2                !
 ! D68   D(1,25,26,29)           0.2218         estimate D2E/DX2                !
 ! D69   D(27,25,26,28)          0.0754         estimate D2E/DX2                !
 ! D70   D(27,25,26,29)        179.8381         estimate D2E/DX2                !
 ! D71   D(1,25,27,30)         179.6503         estimate D2E/DX2                !
 ! D72   D(1,25,27,31)          -0.914          estimate D2E/DX2                !
 ! D73   D(26,25,27,30)          0.0515         estimate D2E/DX2                !
 ! D74   D(26,25,27,31)        179.4872         estimate D2E/DX2                !
 ! D75   D(25,26,28,32)         -0.1182         estimate D2E/DX2                !
 ! D76   D(25,26,28,33)        179.9178         estimate D2E/DX2                !
 ! D77   D(29,26,28,32)       -179.8815         estimate D2E/DX2                !
 ! D78   D(29,26,28,33)          0.1545         estimate D2E/DX2                !
 ! D79   D(25,27,30,32)         -0.1364         estimate D2E/DX2                !
 ! D80   D(25,27,30,34)        179.8043         estimate D2E/DX2                !
 ! D81   D(31,27,30,32)       -179.5732         estimate D2E/DX2                !
 ! D82   D(31,27,30,34)          0.3675         estimate D2E/DX2                !
 ! D83   D(26,28,32,30)          0.0333         estimate D2E/DX2                !
 ! D84   D(26,28,32,35)       -179.9091         estimate D2E/DX2                !
 ! D85   D(33,28,32,30)        179.9972         estimate D2E/DX2                !
 ! D86   D(33,28,32,35)          0.0548         estimate D2E/DX2                !
 ! D87   D(27,30,32,28)          0.0935         estimate D2E/DX2                !
 ! D88   D(27,30,32,35)       -179.9641         estimate D2E/DX2                !
 ! D89   D(34,30,32,28)       -179.847          estimate D2E/DX2                !
 ! D90   D(34,30,32,35)          0.0954         estimate D2E/DX2                !
 --------------------------------------------------------------------------------
 Trust Radius=3.00D-01 FncErr=1.00D-07 GrdErr=1.00D-07
 Number of steps in this run= 197 maximum allowed number of steps= 210.
 GradGradGradGradGradGradGradGradGradGradGradGradGradGradGradGradGradGrad

                          Input orientation:                          
 ---------------------------------------------------------------------
 Center     Atomic      Atomic             Coordinates (Angstroms)
 Number     Number       Type             X           Y           Z
 ---------------------------------------------------------------------
      1          6           0       -0.090544   -0.105115    0.756234
      2          1           0       -0.287537   -0.248432    1.853482
      3          6           0        1.400522    0.072674    0.612919
      4          6           0        2.140593    0.416060    1.748481
      5          6           0        2.066493   -0.087634   -0.603319
      6          6           0        3.516632    0.592969    1.666729
      7          1           0        1.634751    0.549311    2.712096
      8          6           0        3.443418    0.087183   -0.682912
      9          1           0        1.493428   -0.362624   -1.503492
     10          6           0        4.171618    0.428252    0.450999
     11          1           0        4.085507    0.861713    2.562809
     12          1           0        3.953447   -0.045598   -1.642504
     13          1           0        5.255704    0.566017    0.387693
     14          6           0       -0.613140   -1.331960    0.049574
     15          6           0       -1.088488   -2.402624    0.810739
     16          6           0       -0.654869   -1.418467   -1.342987
     17          6           0       -1.601542   -3.534478    0.187268
     18          1           0       -1.058770   -2.352985    1.905618
     19          6           0       -1.171882   -2.548531   -1.964840
     20          1           0       -0.252330   -0.586444   -1.940621
     21          6           0       -1.648301   -3.608217   -1.200505
     22          1           0       -1.970111   -4.369273    0.791938
     23          1           0       -1.202457   -2.602918   -3.057840
     24          1           0       -2.057063   -4.498049   -1.689720
     25          6           0       -0.875193    1.114667    0.336117
     26          6           0       -2.072241    1.395364    1.002854
     27          6           0       -0.457614    1.961213   -0.690290
     28          6           0       -2.834389    2.500662    0.646189
     29          1           0       -2.415473    0.737949    1.810184
     30          6           0       -1.221118    3.068892   -1.043930
     31          1           0        0.483533    1.759058   -1.217230
     32          6           0       -2.410332    3.340691   -0.378290
     33          1           0       -3.770536    2.710503    1.173708
     34          1           0       -0.881120    3.727891   -1.849322
     35          1           0       -3.010596    4.212281   -0.657829
 ---------------------------------------------------------------------
                    Distance matrix (angstroms):
                    1          2          3          4          5
     1  C    0.000000
     2  H    1.123966   0.000000
     3  C    1.508451   2.119352   0.000000
     4  C    2.496828   2.519601   1.398257   0.000000
     5  C    2.549804   3.406346   1.395869   2.406276   0.000000
     6  C    3.785239   3.900581   2.420567   1.389771   2.778353
     7  H    2.688923   2.251400   2.165315   1.096442   3.403539
     8  C    3.820603   4.523932   2.419259   2.777982   1.390258
     9  H    2.771577   3.801862   2.162709   3.405951   1.101968
    10  C    4.306236   4.723232   2.798504   2.410118   2.410244
    11  H    4.651652   4.567174   3.410836   2.155093   3.873248
    12  H    4.702271   5.499910   3.408570   3.872770   2.154592
    13  H    5.400797   5.791320   3.893140   3.402668   3.403003
    14  C    1.509181   2.129351   2.518966   3.677623   3.025732
    15  C    2.505477   2.523763   3.515879   4.387631   4.160847
    16  C    2.539702   3.423643   3.205261   4.553820   3.118338
    17  C    3.790432   3.911647   4.712230   5.661070   5.095120
    18  H    2.703972   2.242021   3.688226   4.234173   4.603678
    19  C    3.813636   4.544459   4.486961   5.792240   4.289152
    20  H    2.744245   3.809293   3.112381   4.510052   2.722889
    21  C    4.304319   4.739902   5.112024   6.264746   5.152750
    22  H    4.660160   4.575944   5.578898   6.380617   6.047590
    23  H    4.692817   5.522841   5.235337   6.587179   4.799724
    24  H    5.398867   5.809023   6.176451   7.320520   6.134798
    25  C    1.509980   2.122681   2.518183   3.402615   3.313848
    26  C    2.497875   2.571148   3.736528   4.388960   4.680619
    27  C    2.548899   3.373757   2.952559   3.884042   3.252146
    28  C    3.785614   3.937199   4.881670   5.505549   5.681478
    29  H    2.688282   2.345833   4.054362   4.567839   5.156995
    30  C    3.820093   4.502356   4.312246   5.112356   4.578885
    31  H    2.774755   3.748845   2.652207   3.653072   2.508569
    32  C    4.306059   4.729575   5.117132   5.812706   5.643228
    33  H    4.652347   4.620462   5.832021   6.366811   6.712549
    34  H    4.701688   5.465734   4.962775   5.748319   4.979878
    35  H    5.400572   5.798249   6.181351   6.836400   6.653501
                    6          7          8          9         10
     6  C    0.000000
     7  H    2.153177   0.000000
     8  C    2.404578   3.874392   0.000000
     9  H    3.880311   4.315411   2.162901   0.000000
    10  C    1.390733   3.400427   1.390093   3.408552   0.000000
    11  H    1.094898   2.475093   3.398070   4.975207   2.157555
    12  H    3.398471   4.969186   1.094796   2.484256   2.157519
    13  H    2.158942   4.302839   2.158670   4.312039   1.094637
    14  C    4.834828   3.959952   4.359607   2.790923   5.114040
    15  C    5.559984   4.443547   5.382222   4.022879   5.984312
    16  C    5.523195   5.055512   4.415726   2.399113   5.470259
    17  C    6.739461   5.790137   6.270987   4.743223   7.007294
    18  H    5.447018   4.040888   5.737997   4.700774   6.099849
    19  C    6.711146   6.272762   5.467296   3.477773   6.576512
    20  H    5.348744   5.147697   3.961585   1.813517   5.130377
    21  C    7.248967   6.585736   6.312645   4.527266   7.272689
    22  H    7.449393   6.393317   7.165297   5.772203   7.800854
    23  H    7.403043   7.160897   5.870356   3.834410   7.097931
    24  H    8.261373   7.647308   7.231411   5.453659   8.224816
    25  C    4.618530   3.502102   4.554618   3.343190   5.094572
    26  C    5.685074   4.168825   5.914020   4.699605   6.342367
    27  C    4.818948   4.236471   4.327828   3.141350   5.008223
    28  C    6.709416   5.296127   6.855819   5.616897   7.308702
    29  H    5.935610   4.153714   6.400439   5.241298   6.732983
    30  C    5.993675   5.349019   5.547866   4.399462   6.187842
    31  H    4.344729   4.269472   3.441159   2.367143   4.260986
    32  C    6.845509   5.805600   6.704066   5.497269   7.245143
    33  H    7.604593   6.021172   7.897467   6.657389   8.295106
    34  H    6.444423   6.102419   5.772079   4.742404   6.458270
    35  H    7.817141   6.808302   7.659723   6.475425   8.193446
                   11         12         13         14         15
    11  H    0.000000
    12  H    4.304104   0.000000
    13  H    2.487555   2.488302   0.000000
    14  C    5.762451   5.037021   6.177376   0.000000
    15  C    6.363637   6.082359   7.017163   1.397014   0.000000
    16  C    6.551765   4.817785   6.470572   1.395869   2.407308
    17  C    7.570484   6.810159   7.992250   2.418054   1.390336
    18  H    6.101620   6.560147   7.120200   2.164712   1.096406
    19  C    7.731075   5.712930   7.519886   2.418698   2.780663
    20  H    6.418323   4.250876   6.089963   2.155656   3.401125
    21  C    8.186536   6.653361   8.222645   2.795640   2.410798
    22  H    8.195713   7.727174   8.759732   3.408481   2.155300
    23  H    8.459192   5.926753   7.976320   3.408614   3.875437
    24  H    9.194685   7.480159   9.134384   3.890267   3.403122
    25  C    5.443408   5.345739   6.155613   2.477250   3.555573
    26  C    6.374645   6.736706   7.400339   3.236667   3.928026
    27  C    5.694867   4.938771   5.979183   3.378843   4.657700
    28  C    7.365090   7.602386   8.322216   4.469775   5.207443
    29  H    6.545571   7.286847   7.803845   3.260778   3.552883
    30  C    6.785313   6.069140   7.089651   4.575247   5.778830
    31  H    5.297937   3.934201   5.174238   3.515946   4.889122
    32  C    7.549260   7.318667   8.188630   5.024604   6.012216
    33  H    8.189325   8.671047   9.310728   5.251127   5.785257
    34  H    7.235279   6.136370   7.256879   5.411074   6.685967
    35  H    8.482540   8.221740   9.095057   6.081679   7.043306
                   16         17         18         19         20
    16  C    0.000000
    17  C    2.777657   0.000000
    18  H    3.404394   2.154822   0.000000
    19  C    1.389622   2.405882   3.877045   0.000000
    20  H    1.100665   3.878039   4.308661   2.167013   0.000000
    21  C    2.408779   1.390517   3.401640   1.390726   3.409929
    22  H    3.872341   1.094692   2.477144   3.398838   4.972669
    23  H    2.154877   3.399677   4.971824   1.094779   2.493408
    24  H    3.401499   2.158484   4.303992   2.158670   4.315166
    25  C    3.047081   4.707897   3.810728   4.336064   2.909515
    26  C    3.928047   5.018972   3.986505   5.017187   3.987942
    27  C    3.447776   5.681664   5.070743   4.740512   2.845352
    28  C    4.905783   6.176847   5.319481   5.922479   4.784228
    29  H    4.206226   4.642194   3.376925   5.157351   4.527884
    30  C    4.532821   6.727932   6.174378   5.692622   3.886398
    31  H    3.377638   5.860178   5.388857   4.674895   2.562454
    32  C    5.163514   6.945643   6.281792   6.223652   4.745550
    33  H    5.752350   6.684115   5.790361   6.652889   5.739920
    34  H    5.176154   7.576854   7.148999   6.284216   4.360872
    35  H    6.142004   7.919084   7.313248   7.127252   5.681668
                   21         22         23         24         25
    21  C    0.000000
    22  H    2.156988   0.000000
    23  H    2.158495   4.304660   0.000000
    24  H    1.094631   2.486518   2.488700   0.000000
    25  C    5.026385   5.610724   5.044451   6.083043   0.000000
    26  C    5.483643   5.769398   5.764721   6.479390   1.398661
    27  C    5.718095   6.675305   5.195322   6.728979   1.394462
    28  C    6.491185   6.925621   6.513797   7.419074   2.419830
    29  H    5.342467   5.226747   6.027475   6.308205   2.165006
    30  C    6.692592   7.697902   6.018771   7.640317   2.417269
    31  H    5.775175   6.900258   5.025658   6.769731   2.162005
    32  C    7.038754   7.810684   6.630644   7.955532   2.796822
    33  H    7.075804   7.315088   7.261782   7.943452   3.410464
    34  H    7.404595   8.586398   6.453132   8.311101   3.406629
    35  H    7.956792   8.765130   7.448245   8.822917   3.891411
                   26         27         28         29         30
    26  C    0.000000
    27  C    2.407061   0.000000
    28  C    1.389160   2.779612   0.000000
    29  H    1.096259   3.403227   2.153493   0.000000
    30  C    2.777486   1.391026   2.404585   3.873725   0.000000
    31  H    3.404854   1.097402   3.876973   4.314178   2.156742
    32  C    2.409598   2.411102   1.391054   3.400546   1.389670
    33  H    2.154760   3.874452   1.094843   2.476342   3.397924
    34  H    3.872256   2.154963   3.398372   4.968499   1.094777
    35  H    3.401970   3.403832   2.158970   4.303050   2.158388
                   31         32         33         34         35
    31  H    0.000000
    32  C    3.402917   0.000000
    33  H    4.971815   2.157774   0.000000
    34  H    2.477524   2.156931   4.303779   0.000000
    35  H    4.305830   1.094589   2.487443   2.487761   0.000000
 Stoichiometry    C19H16
 Framework group  C1[X(C19H16)]
 Deg. of freedom    99
 Full point group                 C1      NOp   1
 Largest Abelian subgroup         C1      NOp   1
 Largest concise Abelian subgroup C1      NOp   1
                         Standard orientation:                         
 ---------------------------------------------------------------------
 Center     Atomic      Atomic             Coordinates (Angstroms)
 Number     Number       Type             X           Y           Z
 ---------------------------------------------------------------------
      1          6           0       -0.023843   -0.013254   -0.754397
      2          1           0       -0.001241   -0.007401   -1.878120
      3          6           0       -1.459381   -0.257244   -0.360538
      4          6           0       -2.456895   -0.034466   -1.314718
      5          6           0       -1.829399   -0.690825    0.913646
      6          6           0       -3.794162   -0.243172   -0.999089
      7          1           0       -2.186023    0.309154   -2.320073
      8          6           0       -3.167376   -0.901599    1.227030
      9          1           0       -1.050879   -0.873767    1.671784
     10          6           0       -4.152722   -0.677973    0.272335
     11          1           0       -4.566377   -0.065425   -1.754662
     12          1           0       -3.443081   -1.245569    2.229152
     13          1           0       -5.206058   -0.843852    0.519714
     14          6           0        0.911115   -1.107063   -0.299360
     15          6           0        1.493336   -1.943243   -1.255117
     16          6           0        1.227287   -1.293162    1.047435
     17          6           0        2.380079   -2.941671   -0.867994
     18          1           0        1.252317   -1.813719   -2.316832
     19          6           0        2.117045   -2.288670    1.432587
     20          1           0        0.744463   -0.652814    1.801292
     21          6           0        2.696939   -3.113769    0.474958
     22          1           0        2.830032   -3.593276   -1.623840
     23          1           0        2.359730   -2.422362    2.491725
     24          1           0        3.399043   -3.897165    0.777545
     25          6           0        0.491364    1.334347   -0.308780
     26          6           0        1.436250    1.981740   -1.111479
     27          6           0        0.069020    1.949345    0.869323
     28          6           0        1.947309    3.218649   -0.739135
     29          1           0        1.780368    1.510101   -2.039338
     30          6           0        0.580214    3.189153    1.238796
     31          1           0       -0.678041    1.457906    1.505466
     32          6           0        1.520098    3.825805    0.437250
     33          1           0        2.687575    3.716159   -1.374093
     34          1           0        0.238415    3.663345    2.164458
     35          1           0        1.922086    4.801119    0.729300
 ---------------------------------------------------------------------
 Rotational constants (GHZ):      0.4004910      0.3717716      0.2368833
 Standard basis: 6-311G (5D, 7F)
 There are   295 symmetry adapted basis functions of A   symmetry.
 Integral buffers will be    262144 words long.
 Raffenetti 1 integral format.
 Two-electron integral symmetry is turned on.
   295 basis functions,   574 primitive gaussians,   295 cartesian basis functions
    65 alpha electrons       65 beta electrons
       nuclear repulsion energy      1288.4042689704 Hartrees.
 NAtoms=   35 NActive=   35 NUniq=   35 SFac= 7.50D-01 NAtFMM=   80 NAOKFM=F Big=F
 One-electron integrals computed using PRISM.
 PrsmSu:  requested number of processors reduced to:  10 ShMem   1 Linda.
 NBasis=   295 RedAO= T  NBF=   295
 NBsUse=   295 1.00D-06 NBFU=   295
 Harris functional with IExCor=  205 diagonalized for initial guess.
 ExpMin= 1.03D-01 ExpMax= 4.56D+03 ExpMxC= 6.82D+02 IAcc=1 IRadAn=         1 AccDes= 0.00D+00
 HarFok:  IExCor=  205 AccDes= 0.00D+00 IRadAn=         1 IDoV= 1
 ScaDFX=  1.000000  1.000000  1.000000  1.000000
 FoFCou: FMM=F IPFlag=           0 FMFlag=      100000 FMFlg1=           0
         NFxFlg=           0 DoJE=T BraDBF=F KetDBF=T FulRan=T
         Omega=  0.000000  0.000000  1.000000  0.000000  0.000000 ICntrl=     500 IOpCl=  0
         NMat0=    1 NMatS0=    1 NMatT0=    0 NMatD0=    1 NMtDS0=    0 NMtDT0=    0
         I1Cent=           4 NGrid=           0.
 Petite list used in FoFCou.
 Initial guess orbital symmetries:
       Occupied  (A) (A) (A) (A) (A) (A) (A) (A) (A) (A) (A) (A)
                 (A) (A) (A) (A) (A) (A) (A) (A) (A) (A) (A) (A)
                 (A) (A) (A) (A) (A) (A) (A) (A) (A) (A) (A) (A)
                 (A) (A) (A) (A) (A) (A) (A) (A) (A) (A) (A) (A)
                 (A) (A) (A) (A) (A) (A) (A) (A) (A) (A) (A) (A)
                 (A) (A) (A) (A) (A)
       Virtual   (A) (A) (A) (A) (A) (A) (A) (A) (A) (A) (A) (A)
                 (A) (A) (A) (A) (A) (A) (A) (A) (A) (A) (A) (A)
                 (A) (A) (A) (A) (A) (A) (A) (A) (A) (A) (A) (A)
                 (A) (A) (A) (A) (A) (A) (A) (A) (A) (A) (A) (A)
                 (A) (A) (A) (A) (A) (A) (A) (A) (A) (A) (A) (A)
                 (A) (A) (A) (A) (A) (A) (A) (A) (A) (A) (A) (A)
                 (A) (A) (A) (A) (A) (A) (A) (A) (A) (A) (A) (A)
                 (A) (A) (A) (A) (A) (A) (A) (A) (A) (A) (A) (A)
                 (A) (A) (A) (A) (A) (A) (A) (A) (A) (A) (A) (A)
                 (A) (A) (A) (A) (A) (A) (A) (A) (A) (A) (A) (A)
                 (A) (A) (A) (A) (A) (A) (A) (A) (A) (A) (A) (A)
                 (A) (A) (A) (A) (A) (A) (A) (A) (A) (A) (A) (A)
                 (A) (A) (A) (A) (A) (A) (A) (A) (A) (A) (A) (A)
                 (A) (A) (A) (A) (A) (A) (A) (A) (A) (A) (A) (A)
                 (A) (A) (A) (A) (A) (A) (A) (A) (A) (A) (A) (A)
                 (A) (A) (A) (A) (A) (A) (A) (A) (A) (A) (A) (A)
                 (A) (A) (A) (A) (A) (A) (A) (A) (A) (A) (A) (A)
                 (A) (A) (A) (A) (A) (A) (A) (A) (A) (A) (A) (A)
                 (A) (A) (A) (A) (A) (A) (A) (A) (A) (A) (A) (A)
                 (A) (A)
 The electronic state of the initial guess is 1-A.
 Requested convergence on RMS density matrix=1.00D-08 within 128 cycles.
 Requested convergence on MAX density matrix=1.00D-06.
 Requested convergence on             energy=1.00D-06.
 No special actions if energy rises.
 Integral accuracy reduced to 1.0D-05 until final iterations.
 Initial convergence to 1.0D-05 achieved.  Increase integral accuracy.
 SCF Done:  E(RHF) =  -728.671729530     A.U. after   14 cycles
             Convg  =    0.6147D-08             -V/T =  2.0001

 **********************************************************************

            Population analysis using the SCF density.

 **********************************************************************

 Orbital symmetries:
       Occupied  (A) (A) (A) (A) (A) (A) (A) (A) (A) (A) (A) (A)
                 (A) (A) (A) (A) (A) (A) (A) (A) (A) (A) (A) (A)
                 (A) (A) (A) (A) (A) (A) (A) (A) (A) (A) (A) (A)
                 (A) (A) (A) (A) (A) (A) (A) (A) (A) (A) (A) (A)
                 (A) (A) (A) (A) (A) (A) (A) (A) (A) (A) (A) (A)
                 (A) (A) (A) (A) (A)
       Virtual   (A) (A) (A) (A) (A) (A) (A) (A) (A) (A) (A) (A)
                 (A) (A) (A) (A) (A) (A) (A) (A) (A) (A) (A) (A)
                 (A) (A) (A) (A) (A) (A) (A) (A) (A) (A) (A) (A)
                 (A) (A) (A) (A) (A) (A) (A) (A) (A) (A) (A) (A)
                 (A) (A) (A) (A) (A) (A) (A) (A) (A) (A) (A) (A)
                 (A) (A) (A) (A) (A) (A) (A) (A) (A) (A) (A) (A)
                 (A) (A) (A) (A) (A) (A) (A) (A) (A) (A) (A) (A)
                 (A) (A) (A) (A) (A) (A) (A) (A) (A) (A) (A) (A)
                 (A) (A) (A) (A) (A) (A) (A) (A) (A) (A) (A) (A)
                 (A) (A) (A) (A) (A) (A) (A) (A) (A) (A) (A) (A)
                 (A) (A) (A) (A) (A) (A) (A) (A) (A) (A) (A) (A)
                 (A) (A) (A) (A) (A) (A) (A) (A) (A) (A) (A) (A)
                 (A) (A) (A) (A) (A) (A) (A) (A) (A) (A) (A) (A)
                 (A) (A) (A) (A) (A) (A) (A) (A) (A) (A) (A) (A)
                 (A) (A) (A) (A) (A) (A) (A) (A) (A) (A) (A) (A)
                 (A) (A) (A) (A) (A) (A) (A) (A) (A) (A) (A) (A)
                 (A) (A) (A) (A) (A) (A) (A) (A) (A) (A) (A) (A)
                 (A) (A) (A) (A) (A) (A) (A) (A) (A) (A) (A) (A)
                 (A) (A) (A) (A) (A) (A) (A) (A) (A) (A) (A) (A)
                 (A) (A)
 The electronic state is 1-A.
 Alpha  occ. eigenvalues --  -11.25831 -11.25274 -11.25263 -11.25129 -11.24448
 Alpha  occ. eigenvalues --  -11.24434 -11.24358 -11.24347 -11.24206 -11.24186
 Alpha  occ. eigenvalues --  -11.24127 -11.24118 -11.24111 -11.24056 -11.24029
 Alpha  occ. eigenvalues --  -11.24018 -11.23910 -11.23830 -11.23733  -1.18591
 Alpha  occ. eigenvalues --   -1.15826  -1.15680  -1.09038  -1.02410  -1.02116
 Alpha  occ. eigenvalues --   -1.01888  -1.01497  -1.01388  -0.92962  -0.84536
 Alpha  occ. eigenvalues --   -0.82946  -0.82540  -0.81708  -0.81562  -0.77733
 Alpha  occ. eigenvalues --   -0.70733  -0.70448  -0.69107  -0.65996  -0.63620
 Alpha  occ. eigenvalues --   -0.63503  -0.62371  -0.62031  -0.61900  -0.59570
 Alpha  occ. eigenvalues --   -0.58774  -0.58517  -0.58430  -0.57612  -0.53923
 Alpha  occ. eigenvalues --   -0.51741  -0.51082  -0.50848  -0.49674  -0.49168
 Alpha  occ. eigenvalues --   -0.48682  -0.47791  -0.47476  -0.46757  -0.34696
 Alpha  occ. eigenvalues --   -0.34243  -0.33699  -0.33586  -0.33277  -0.31180
 Alpha virt. eigenvalues --    0.11650   0.12015   0.13582   0.13744   0.14057
 Alpha virt. eigenvalues --    0.14932   0.15135   0.16273   0.16376   0.16883
 Alpha virt. eigenvalues --    0.18809   0.19132   0.19285   0.21284   0.21420
 Alpha virt. eigenvalues --    0.21511   0.23636   0.24246   0.24984   0.27139
 Alpha virt. eigenvalues --    0.28518   0.29492   0.34026   0.34194   0.35873
 Alpha virt. eigenvalues --    0.37466   0.38509   0.39680   0.40962   0.43679
 Alpha virt. eigenvalues --    0.44102   0.44378   0.45029   0.45395   0.45579
 Alpha virt. eigenvalues --    0.45871   0.46408   0.48406   0.49883   0.50380
 Alpha virt. eigenvalues --    0.50805   0.51023   0.51447   0.54970   0.55778
 Alpha virt. eigenvalues --    0.56809   0.57909   0.58955   0.59049   0.59608
 Alpha virt. eigenvalues --    0.59691   0.60664   0.61074   0.61501   0.61704
 Alpha virt. eigenvalues --    0.61851   0.62384   0.62466   0.63293   0.63465
 Alpha virt. eigenvalues --    0.64142   0.64996   0.65166   0.65416   0.66902
 Alpha virt. eigenvalues --    0.67404   0.68228   0.68439   0.70108   0.71414
 Alpha virt. eigenvalues --    0.72348   0.73796   0.74459   0.75063   0.76228
 Alpha virt. eigenvalues --    0.77296   0.78316   0.78602   0.80475   0.81181
 Alpha virt. eigenvalues --    0.81857   0.82197   0.82339   0.82825   0.82919
 Alpha virt. eigenvalues --    0.83510   0.83932   0.84057   0.84781   0.85603
 Alpha virt. eigenvalues --    0.86039   0.86375   0.86900   0.87452   0.88070
 Alpha virt. eigenvalues --    0.89692   0.90541   0.91271   0.92977   0.94400
 Alpha virt. eigenvalues --    0.96100   0.96849   0.97684   0.98160   0.98947
 Alpha virt. eigenvalues --    0.99328   1.00315   1.02795   1.05757   1.06224
 Alpha virt. eigenvalues --    1.06795   1.07136   1.08019   1.08373   1.10522
 Alpha virt. eigenvalues --    1.11108   1.12215   1.12485   1.13009   1.14254
 Alpha virt. eigenvalues --    1.14636   1.15393   1.18578   1.19487   1.21711
 Alpha virt. eigenvalues --    1.25323   1.26759   1.27696   1.28192   1.28826
 Alpha virt. eigenvalues --    1.30323   1.35107   1.39463   1.45243   1.46631
 Alpha virt. eigenvalues --    1.51683   1.52285   1.56521   2.54611   2.55621
 Alpha virt. eigenvalues --    2.56175   2.59165   2.61975   2.62498   2.64450
 Alpha virt. eigenvalues --    2.66985   2.67733   2.68462   2.72312   2.76767
 Alpha virt. eigenvalues --    2.77761   2.83497   2.87956   2.88603   2.94129
 Alpha virt. eigenvalues --    2.94280   2.94427   2.97081   2.97454   2.98029
 Alpha virt. eigenvalues --    3.00375   3.00781   3.04045   3.05738   3.07147
 Alpha virt. eigenvalues --    3.08141   3.08428   3.08960   3.09979   3.14326
 Alpha virt. eigenvalues --    3.14791   3.16343   3.16830   3.17565   3.18843
 Alpha virt. eigenvalues --    3.22641   3.25645   3.25823   3.28297   3.28874
 Alpha virt. eigenvalues --    3.30933   3.33378   3.34268   3.35161   3.42629
 Alpha virt. eigenvalues --    3.43060   3.44416   3.46924   3.49500   3.52252
 Alpha virt. eigenvalues --    3.53420   3.54465   3.59202   3.60644   3.60670
 Alpha virt. eigenvalues --    3.63119   3.63526   3.63783   3.65965   3.66670
 Alpha virt. eigenvalues --    3.68348   3.70274   3.70475   3.71417   3.73472
 Alpha virt. eigenvalues --    3.74196   3.75542   3.80863   3.85854   3.86665
 Alpha virt. eigenvalues --    3.93002  24.24846  24.30693  24.31561  24.50536
 Alpha virt. eigenvalues --   24.50841  24.51121  24.53999  24.54663  24.56115
 Alpha virt. eigenvalues --   24.77294  24.78593  24.79145  24.79613  24.80641
 Alpha virt. eigenvalues --   24.81839  24.83257  25.05547  25.05813  25.06127
          Condensed to atoms (all electrons):
              1          2          3          4          5          6
     1  C    5.830830   0.463941   0.170567  -0.045207  -0.045941   0.008276
     2  H    0.463941   0.512410  -0.073861   0.002858   0.005102   0.001517
     3  C    0.170567  -0.073861   5.366414   0.495319   0.450115  -0.071610
     4  C   -0.045207   0.002858   0.495319   5.040806  -0.061437   0.471750
     5  C   -0.045941   0.005102   0.450115  -0.061437   5.122052  -0.031253
     6  C    0.008276   0.001517  -0.071610   0.471750  -0.031253   5.044526
     7  H   -0.000739   0.002688  -0.045647   0.394449   0.004759  -0.034682
     8  C    0.003562  -0.000275  -0.064482  -0.036131   0.473332  -0.075102
     9  H   -0.000287  -0.000140  -0.053051   0.004508   0.386609  -0.000213
    10  C    0.001142  -0.000016  -0.017721  -0.086768  -0.094824   0.494650
    11  H   -0.000389  -0.000029   0.007145  -0.039660  -0.000598   0.396646
    12  H   -0.000295   0.000014   0.006029  -0.000392  -0.036771   0.005898
    13  H   -0.000019  -0.000001  -0.001594   0.007489   0.008119  -0.042951
    14  C    0.185246  -0.074318  -0.112250   0.001923  -0.004605  -0.000680
    15  C   -0.026127   0.002052  -0.000338   0.000197   0.001480  -0.000004
    16  C   -0.054413   0.005553  -0.006267   0.000225  -0.017178   0.000029
    17  C    0.007668   0.001757  -0.000600  -0.000009   0.000125   0.000001
    18  H   -0.000478   0.002411   0.000557   0.000136   0.000002   0.000003
    19  C    0.001396  -0.000282   0.001775   0.000028  -0.001721  -0.000001
    20  H    0.003091   0.000067  -0.003183  -0.000196   0.000287   0.000016
    21  C    0.001274  -0.000013  -0.000036  -0.000001   0.000044   0.000000
    22  H   -0.000368  -0.000037   0.000020   0.000000  -0.000001   0.000000
    23  H   -0.000319   0.000012   0.000009   0.000000   0.000016   0.000000
    24  H   -0.000013  -0.000001  -0.000001   0.000000   0.000001   0.000000
    25  C    0.157283  -0.059824  -0.103600  -0.001488  -0.005723  -0.000717
    26  C   -0.050358  -0.003307   0.006439   0.000440  -0.000173   0.000003
    27  C   -0.039931   0.004900  -0.014406   0.001913  -0.007424   0.000226
    28  C    0.006247   0.001544  -0.000760  -0.000016   0.000025   0.000001
    29  H    0.001790   0.001049   0.000696   0.000013  -0.000038   0.000001
    30  C    0.004868  -0.000248   0.000512  -0.000089   0.000014  -0.000003
    31  H   -0.001710  -0.000069  -0.003190  -0.000895   0.001036  -0.000135
    32  C    0.000988   0.000009   0.000045  -0.000013  -0.000019   0.000000
    33  H   -0.000351  -0.000026   0.000011   0.000001   0.000000   0.000000
    34  H   -0.000325   0.000013   0.000037   0.000007   0.000029   0.000001
    35  H   -0.000012  -0.000002  -0.000001   0.000000   0.000001   0.000000
              7          8          9         10         11         12
     1  C   -0.000739   0.003562  -0.000287   0.001142  -0.000389  -0.000295
     2  H    0.002688  -0.000275  -0.000140  -0.000016  -0.000029   0.000014
     3  C   -0.045647  -0.064482  -0.053051  -0.017721   0.007145   0.006029
     4  C    0.394449  -0.036131   0.004508  -0.086768  -0.039660  -0.000392
     5  C    0.004759   0.473332   0.386609  -0.094824  -0.000598  -0.036771
     6  C   -0.034682  -0.075102  -0.000213   0.494650   0.396646   0.005898
     7  H    0.507653  -0.000402  -0.000243   0.005351  -0.004214   0.000022
     8  C   -0.000402   5.056522  -0.025349   0.495801   0.006227   0.395586
     9  H   -0.000243  -0.025349   0.498401   0.004793   0.000020  -0.003439
    10  C    0.005351   0.495801   0.004793   5.030359  -0.041054  -0.039653
    11  H   -0.004214   0.006227   0.000020  -0.041054   0.517914  -0.000212
    12  H    0.000022   0.395586  -0.003439  -0.039653  -0.000212   0.515469
    13  H   -0.000183  -0.042539  -0.000183   0.399167  -0.004547  -0.004354
    14  C    0.000361   0.001541  -0.002997   0.000021   0.000014   0.000011
    15  C   -0.000021   0.000042  -0.000257  -0.000011   0.000001   0.000002
    16  C   -0.000025  -0.000015   0.002888  -0.000005   0.000000   0.000031
    17  C    0.000001   0.000000  -0.000138   0.000000   0.000000   0.000000
    18  H   -0.000025   0.000003  -0.000004  -0.000001   0.000000   0.000000
    19  C    0.000002  -0.000089   0.001158   0.000001   0.000000   0.000000
    20  H   -0.000007   0.000861   0.003442  -0.000011   0.000000  -0.000053
    21  C    0.000000   0.000003   0.000078   0.000000   0.000000  -0.000001
    22  H    0.000000   0.000000   0.000000   0.000000   0.000000   0.000000
    23  H    0.000000   0.000001  -0.000105   0.000000   0.000000   0.000001
    24  H    0.000000   0.000000   0.000000   0.000000   0.000000   0.000000
    25  C    0.000481   0.000884  -0.000489   0.000023   0.000021  -0.000007
    26  C    0.000114   0.000023  -0.000028  -0.000001   0.000000  -0.000001
    27  C    0.000188  -0.001491   0.000349   0.000081  -0.000001   0.000014
    28  C   -0.000008   0.000000   0.000006   0.000000   0.000000   0.000000
    29  H    0.000003   0.000000   0.000007   0.000000   0.000000   0.000000
    30  C    0.000009  -0.000031   0.000051   0.000004   0.000000   0.000001
    31  H   -0.000036   0.000966   0.000139   0.000048   0.000001  -0.000002
    32  C   -0.000004   0.000000   0.000001   0.000000   0.000000   0.000000
    33  H    0.000000   0.000000   0.000000   0.000000   0.000000   0.000000
    34  H    0.000000  -0.000001  -0.000017  -0.000001   0.000000   0.000000
    35  H    0.000000   0.000000   0.000000   0.000000   0.000000   0.000000
             13         14         15         16         17         18
     1  C   -0.000019   0.185246  -0.026127  -0.054413   0.007668  -0.000478
     2  H   -0.000001  -0.074318   0.002052   0.005553   0.001757   0.002411
     3  C   -0.001594  -0.112250  -0.000338  -0.006267  -0.000600   0.000557
     4  C    0.007489   0.001923   0.000197   0.000225  -0.000009   0.000136
     5  C    0.008119  -0.004605   0.001480  -0.017178   0.000125   0.000002
     6  C   -0.042951  -0.000680  -0.000004   0.000029   0.000001   0.000003
     7  H   -0.000183   0.000361  -0.000021  -0.000025   0.000001  -0.000025
     8  C   -0.042539   0.001541   0.000042  -0.000015   0.000000   0.000003
     9  H   -0.000183  -0.002997  -0.000257   0.002888  -0.000138  -0.000004
    10  C    0.399167   0.000021  -0.000011  -0.000005   0.000000  -0.000001
    11  H   -0.004547   0.000014   0.000001   0.000000   0.000000   0.000000
    12  H   -0.004354   0.000011   0.000002   0.000031   0.000000   0.000000
    13  H    0.517630  -0.000002   0.000000   0.000001   0.000000   0.000000
    14  C   -0.000002   5.374495   0.503634   0.439029  -0.072763  -0.046670
    15  C    0.000000   0.503634   5.070306  -0.065491   0.459624   0.395792
    16  C    0.000001   0.439029  -0.065491   5.095113  -0.029583   0.004624
    17  C    0.000000  -0.072763   0.459624  -0.029583   5.055011  -0.035057
    18  H    0.000000  -0.046670   0.395792   0.004624  -0.035057   0.510831
    19  C    0.000000  -0.061699  -0.033405   0.479340  -0.076837  -0.000239
    20  H    0.000000  -0.048409   0.004047   0.388544  -0.000167  -0.000260
    21  C    0.000000  -0.017866  -0.086323  -0.092104   0.497020   0.005164
    22  H    0.000000   0.007059  -0.039711  -0.000618   0.396802  -0.004174
    23  H    0.000000   0.006069  -0.000449  -0.039056   0.005996   0.000024
    24  H    0.000000  -0.001592   0.007534   0.008015  -0.042746  -0.000186
    25  C    0.000001  -0.154392  -0.005720  -0.007767  -0.000461   0.000153
    26  C    0.000000   0.000696   0.002057   0.000777  -0.000100   0.000254
    27  C   -0.000001  -0.014046  -0.000321  -0.000029   0.000048  -0.000048
    28  C    0.000000  -0.000426  -0.000036   0.000195   0.000007  -0.000006
    29  H    0.000000   0.000563   0.001451  -0.000051   0.000030   0.000257
    30  C    0.000000   0.000621   0.000027  -0.000653  -0.000001   0.000000
    31  H    0.000001  -0.001007  -0.000081   0.000488   0.000002   0.000000
    32  C    0.000000   0.000076  -0.000003   0.000029   0.000000   0.000000
    33  H    0.000000   0.000012  -0.000001   0.000003   0.000000  -0.000001
    34  H    0.000000   0.000005   0.000000   0.000014   0.000000   0.000000
    35  H    0.000000  -0.000001   0.000000  -0.000001   0.000000   0.000000
             19         20         21         22         23         24
     1  C    0.001396   0.003091   0.001274  -0.000368  -0.000319  -0.000013
     2  H   -0.000282   0.000067  -0.000013  -0.000037   0.000012  -0.000001
     3  C    0.001775  -0.003183  -0.000036   0.000020   0.000009  -0.000001
     4  C    0.000028  -0.000196  -0.000001   0.000000   0.000000   0.000000
     5  C   -0.001721   0.000287   0.000044  -0.000001   0.000016   0.000001
     6  C   -0.000001   0.000016   0.000000   0.000000   0.000000   0.000000
     7  H    0.000002  -0.000007   0.000000   0.000000   0.000000   0.000000
     8  C   -0.000089   0.000861   0.000003   0.000000   0.000001   0.000000
     9  H    0.001158   0.003442   0.000078   0.000000  -0.000105   0.000000
    10  C    0.000001  -0.000011   0.000000   0.000000   0.000000   0.000000
    11  H    0.000000   0.000000   0.000000   0.000000   0.000000   0.000000
    12  H    0.000000  -0.000053  -0.000001   0.000000   0.000001   0.000000
    13  H    0.000000   0.000000   0.000000   0.000000   0.000000   0.000000
    14  C   -0.061699  -0.048409  -0.017866   0.007059   0.006069  -0.001592
    15  C   -0.033405   0.004047  -0.086323  -0.039711  -0.000449   0.007534
    16  C    0.479340   0.388544  -0.092104  -0.000618  -0.039056   0.008015
    17  C   -0.076837  -0.000167   0.497020   0.396802   0.005996  -0.042746
    18  H   -0.000239  -0.000260   0.005164  -0.004174   0.000024  -0.000186
    19  C    5.035813  -0.027231   0.494298   0.006227   0.396668  -0.042918
    20  H   -0.027231   0.495188   0.004558   0.000021  -0.003430  -0.000169
    21  C    0.494298   0.004558   5.031069  -0.040785  -0.039541   0.399619
    22  H    0.006227   0.000021  -0.040785   0.518296  -0.000211  -0.004585
    23  H    0.396668  -0.003430  -0.039541  -0.000211   0.515352  -0.004452
    24  H   -0.042918  -0.000169   0.399619  -0.004585  -0.004452   0.517488
    25  C    0.000730  -0.001864   0.000098   0.000010   0.000018  -0.000002
    26  C   -0.000068  -0.000269  -0.000013   0.000003   0.000006   0.000000
    27  C   -0.000030   0.004707  -0.000004   0.000000  -0.000002   0.000000
    28  C    0.000002  -0.000099   0.000000   0.000000   0.000001   0.000000
    29  H   -0.000018  -0.000037  -0.000012  -0.000003   0.000000   0.000000
    30  C   -0.000016   0.000443   0.000000   0.000000  -0.000001   0.000000
    31  H    0.000060   0.000999   0.000002   0.000000  -0.000009   0.000000
    32  C    0.000003  -0.000012   0.000000   0.000000   0.000000   0.000000
    33  H    0.000000   0.000001   0.000000   0.000000   0.000000   0.000000
    34  H    0.000000   0.000000   0.000000   0.000000   0.000000   0.000000
    35  H    0.000000  -0.000001   0.000000   0.000000   0.000000   0.000000
             25         26         27         28         29         30
     1  C    0.157283  -0.050358  -0.039931   0.006247   0.001790   0.004868
     2  H   -0.059824  -0.003307   0.004900   0.001544   0.001049  -0.000248
     3  C   -0.103600   0.006439  -0.014406  -0.000760   0.000696   0.000512
     4  C   -0.001488   0.000440   0.001913  -0.000016   0.000013  -0.000089
     5  C   -0.005723  -0.000173  -0.007424   0.000025  -0.000038   0.000014
     6  C   -0.000717   0.000003   0.000226   0.000001   0.000001  -0.000003
     7  H    0.000481   0.000114   0.000188  -0.000008   0.000003   0.000009
     8  C    0.000884   0.000023  -0.001491   0.000000   0.000000  -0.000031
     9  H   -0.000489  -0.000028   0.000349   0.000006   0.000007   0.000051
    10  C    0.000023  -0.000001   0.000081   0.000000   0.000000   0.000004
    11  H    0.000021   0.000000  -0.000001   0.000000   0.000000   0.000000
    12  H   -0.000007  -0.000001   0.000014   0.000000   0.000000   0.000001
    13  H    0.000001   0.000000  -0.000001   0.000000   0.000000   0.000000
    14  C   -0.154392   0.000696  -0.014046  -0.000426   0.000563   0.000621
    15  C   -0.005720   0.002057  -0.000321  -0.000036   0.001451   0.000027
    16  C   -0.007767   0.000777  -0.000029   0.000195  -0.000051  -0.000653
    17  C   -0.000461  -0.000100   0.000048   0.000007   0.000030  -0.000001
    18  H    0.000153   0.000254  -0.000048  -0.000006   0.000257   0.000000
    19  C    0.000730  -0.000068  -0.000030   0.000002  -0.000018  -0.000016
    20  H   -0.001864  -0.000269   0.004707  -0.000099  -0.000037   0.000443
    21  C    0.000098  -0.000013  -0.000004   0.000000  -0.000012   0.000000
    22  H    0.000010   0.000003   0.000000   0.000000  -0.000003   0.000000
    23  H    0.000018   0.000006  -0.000002   0.000001   0.000000  -0.000001
    24  H   -0.000002   0.000000   0.000000   0.000000   0.000000   0.000000
    25  C    5.366470   0.472960   0.486224  -0.065206  -0.050654  -0.064612
    26  C    0.472960   5.071675  -0.072057   0.466370   0.399597  -0.031576
    27  C    0.486224  -0.072057   5.087620  -0.027895   0.004144   0.471459
    28  C   -0.065206   0.466370  -0.027895   5.050212  -0.035588  -0.076907
    29  H   -0.050654   0.399597   0.004144  -0.035588   0.509897  -0.000336
    30  C   -0.064612  -0.031576   0.471459  -0.076907  -0.000336   5.050575
    31  H   -0.042584   0.004193   0.390209  -0.000182  -0.000249  -0.029972
    32  C   -0.018550  -0.086087  -0.093458   0.488810   0.005344   0.499316
    33  H    0.006702  -0.039645  -0.000523   0.397097  -0.004289   0.006129
    34  H    0.006185  -0.000424  -0.037581   0.006004   0.000024   0.395910
    35  H   -0.001479   0.007372   0.007821  -0.042955  -0.000185  -0.042198
             31         32         33         34         35
     1  C   -0.001710   0.000988  -0.000351  -0.000325  -0.000012
     2  H   -0.000069   0.000009  -0.000026   0.000013  -0.000002
     3  C   -0.003190   0.000045   0.000011   0.000037  -0.000001
     4  C   -0.000895  -0.000013   0.000001   0.000007   0.000000
     5  C    0.001036  -0.000019   0.000000   0.000029   0.000001
     6  C   -0.000135   0.000000   0.000000   0.000001   0.000000
     7  H   -0.000036  -0.000004   0.000000   0.000000   0.000000
     8  C    0.000966   0.000000   0.000000  -0.000001   0.000000
     9  H    0.000139   0.000001   0.000000  -0.000017   0.000000
    10  C    0.000048   0.000000   0.000000  -0.000001   0.000000
    11  H    0.000001   0.000000   0.000000   0.000000   0.000000
    12  H   -0.000002   0.000000   0.000000   0.000000   0.000000
    13  H    0.000001   0.000000   0.000000   0.000000   0.000000
    14  C   -0.001007   0.000076   0.000012   0.000005  -0.000001
    15  C   -0.000081  -0.000003  -0.000001   0.000000   0.000000
    16  C    0.000488   0.000029   0.000003   0.000014  -0.000001
    17  C    0.000002   0.000000   0.000000   0.000000   0.000000
    18  H    0.000000   0.000000  -0.000001   0.000000   0.000000
    19  C    0.000060   0.000003   0.000000   0.000000   0.000000
    20  H    0.000999  -0.000012   0.000001   0.000000  -0.000001
    21  C    0.000002   0.000000   0.000000   0.000000   0.000000
    22  H    0.000000   0.000000   0.000000   0.000000   0.000000
    23  H   -0.000009   0.000000   0.000000   0.000000   0.000000
    24  H    0.000000   0.000000   0.000000   0.000000   0.000000
    25  C   -0.042584  -0.018550   0.006702   0.006185  -0.001479
    26  C    0.004193  -0.086087  -0.039645  -0.000424   0.007372
    27  C    0.390209  -0.093458  -0.000523  -0.037581   0.007821
    28  C   -0.000182   0.488810   0.397097   0.006004  -0.042955
    29  H   -0.000249   0.005344  -0.004289   0.000024  -0.000185
    30  C   -0.029972   0.499316   0.006129   0.395910  -0.042198
    31  H    0.481362   0.004709   0.000020  -0.003332  -0.000182
    32  C    0.004709   5.033487  -0.040739  -0.040272   0.399202
    33  H    0.000020  -0.040739   0.518605  -0.000213  -0.004490
    34  H   -0.003332  -0.040272  -0.000213   0.516850  -0.004445
    35  H   -0.000182   0.399202  -0.004490  -0.004445   0.518521
 Mulliken atomic charges:
              1
     1  C   -0.580887
     2  H    0.204552
     3  C    0.066904
     4  C   -0.149756
     5  C   -0.145442
     6  C   -0.166193
     7  H    0.170155
     8  C   -0.189447
     9  H    0.184488
    10  C   -0.151374
    11  H    0.162716
    12  H    0.162103
    13  H    0.163967
    14  C    0.092348
    15  C   -0.189946
    16  C   -0.111642
    17  C   -0.165630
    18  H    0.166937
    19  C   -0.172950
    20  H    0.179127
    21  C   -0.156526
    22  H    0.162054
    23  H    0.163402
    24  H    0.164008
    25  C    0.086896
    26  C   -0.148871
    27  C   -0.150656
    28  C   -0.166436
    29  H    0.166592
    30  C   -0.183296
    31  H    0.199400
    32  C   -0.152863
    33  H    0.161695
    34  H    0.161535
    35  H    0.163035
 Sum of Mulliken atomic charges =   0.00000
 Mulliken charges with hydrogens summed into heavy atoms:
              1
     1  C   -0.376334
     3  C    0.066904
     4  C    0.020399
     5  C    0.039046
     6  C   -0.003477
     8  C   -0.027344
    10  C    0.012593
    14  C    0.092348
    15  C   -0.023008
    16  C    0.067484
    17  C   -0.003576
    19  C   -0.009547
    21  C    0.007482
    25  C    0.086896
    26  C    0.017721
    27  C    0.048744
    28  C   -0.004741
    30  C   -0.021762
    32  C    0.010172
 Sum of Mulliken charges with hydrogens summed into heavy atoms =   0.00000
 Electronic spatial extent (au):  <R**2>=           4939.5220
 Charge=              0.0000 electrons
 Dipole moment (field-independent basis, Debye):
    X=              0.0119    Y=             -0.0674    Z=             -0.0424  Tot=              0.0805
 Quadrupole moment (field-independent basis, Debye-Ang):
   XX=           -110.5681   YY=           -114.0844   ZZ=           -102.8738
   XY=             -0.8102   XZ=             -2.2806   YZ=             -0.1167
 Traceless Quadrupole moment (field-independent basis, Debye-Ang):
   XX=             -1.3927   YY=             -4.9090   ZZ=              6.3016
   XY=             -0.8102   XZ=             -2.2806   YZ=             -0.1167
 Octapole moment (field-independent basis, Debye-Ang**2):
  XXX=            -39.9166  YYY=             17.9595  ZZZ=             -0.1841  XYY=             44.7304
  XXY=            -13.8968  XXZ=             -6.4943  XZZ=             -0.7981  YZZ=             -4.9053
  YYZ=             10.4157  XYZ=             -0.1210
 Hexadecapole moment (field-independent basis, Debye-Ang**3):
 XXXX=          -3094.3999 YYYY=          -2905.2274 ZZZZ=           -786.3293 XXXY=              6.6768
 XXXZ=             -1.4033 YYYX=             -3.2910 YYYZ=             59.2965 ZZZX=             -6.1961
 ZZZY=             -3.9859 XXYY=           -972.9082 XXZZ=           -631.6828 YYZZ=           -601.0022
 XXYZ=            -49.9219 YYXZ=            -21.8999 ZZXY=            -15.7699
 N-N= 1.288404268970D+03 E-N=-4.272818767967D+03  KE= 7.285920399004D+02
 PrsmSu:  requested number of processors reduced to:  10 ShMem   1 Linda.
 Calling FoFJK, ICntrl=      2127 FMM=F ISym2X=0 I1Cent= 0 IOpClX= 0 NMat=1 NMatS=1 NMatT=0.
 ***** Axes restored to original set *****
 -------------------------------------------------------------------
 Center     Atomic                   Forces (Hartrees/Bohr)
 Number     Number              X              Y              Z
 -------------------------------------------------------------------
      1        6          -0.003217525   -0.003897398    0.023385830
      2        1           0.004444683    0.002745031   -0.026979130
      3        6           0.011698178    0.000058992    0.006519750
      4        6          -0.002117428    0.001280870    0.005778456
      5        6          -0.004609950   -0.004539521   -0.011804528
      6        6           0.007536008    0.003561701    0.010039109
      7        1           0.007567215   -0.002457796   -0.015809898
      8        6           0.005236642   -0.001011633   -0.010888836
      9        1           0.020939321    0.006028289    0.021382667
     10        6           0.013347281    0.001885336   -0.000023373
     11        1          -0.008622487   -0.004223438   -0.013693734
     12        1          -0.007720348    0.002041779    0.014642532
     13        1          -0.016621952   -0.002261355    0.000994091
     14        6          -0.005743203   -0.012657170    0.002870158
     15        6           0.000141900    0.000065750    0.005994130
     16        6           0.003077291    0.007957903   -0.008018765
     17        6          -0.004778042   -0.011063250    0.005522060
     18        1          -0.000226365   -0.000280549   -0.017700794
     19        6           0.001105060    0.001237603   -0.012277063
     20        1          -0.017390033   -0.018863809    0.008924569
     21        6          -0.005296409   -0.011684502   -0.004394861
     22        1           0.005399205    0.012626074   -0.009239990
     23        1           0.000479174    0.000717305    0.016701005
     24        1           0.006252307    0.013689863    0.007519666
     25        6          -0.007447189    0.012360459    0.002219469
     26        6          -0.003423209   -0.002735291    0.004702409
     27        6           0.009516245   -0.001050607   -0.005619517
     28        6          -0.011128208    0.001735463    0.006253125
     29        1           0.005982228    0.010163629   -0.012751970
     30        6           0.002403953    0.007252953   -0.009387249
     31        1          -0.018177547    0.006609230    0.010359882
     32        6          -0.007006517    0.010973409   -0.003940619
     33        1           0.014305928   -0.003072870   -0.007936340
     34        1          -0.005188004   -0.009971107    0.012280507
     35        1           0.009281796   -0.013221345    0.004377250
 -------------------------------------------------------------------
 Cartesian Forces:  Max     0.026979130 RMS     0.009552105

 GradGradGradGradGradGradGradGradGradGradGradGradGradGradGradGradGradGrad
 Berny optimization.
 Internal  Forces:  Max     0.029860579 RMS     0.007834308
 Search for a local minimum.
 Step number   1 out of a maximum of  197
 All quantities printed in internal units (Hartrees-Bohrs-Radians)
 Mixed Optimization -- RFO/linear search
 Second derivative matrix not updated -- first step.
     Eigenvalues ---    0.00634   0.00645   0.00654   0.01530   0.01533
     Eigenvalues ---    0.01536   0.02137   0.02140   0.02145   0.02167
     Eigenvalues ---    0.02171   0.02171   0.02181   0.02185   0.02186
     Eigenvalues ---    0.02201   0.02202   0.02203   0.02213   0.02213
     Eigenvalues ---    0.02215   0.02215   0.02215   0.02217   0.02217
     Eigenvalues ---    0.02218   0.02219   0.02219   0.02220   0.02223
     Eigenvalues ---    0.04519   0.06370   0.06677   0.15996   0.15999
     Eigenvalues ---    0.15999   0.16000   0.16000   0.16000   0.16000
     Eigenvalues ---    0.16000   0.16000   0.16000   0.16000   0.16000
     Eigenvalues ---    0.16000   0.16000   0.16000   0.18934   0.19367
     Eigenvalues ---    0.22000   0.22000   0.22000   0.22000   0.22000
     Eigenvalues ---    0.22000   0.23476   0.23476   0.23477   0.24996
     Eigenvalues ---    0.24999   0.25000   0.31165   0.31352   0.31433
     Eigenvalues ---    0.31507   0.33465   0.33609   0.33971   0.34079
     Eigenvalues ---    0.34083   0.34099   0.34253   0.34259   0.34264
     Eigenvalues ---    0.34266   0.34266   0.34276   0.34282   0.34283
     Eigenvalues ---    0.34288   0.42416   0.42426   0.42481   0.42569
     Eigenvalues ---    0.42580   0.42622   0.46338   0.46357   0.46426
     Eigenvalues ---    0.46762   0.46769   0.46841   0.47221   0.47226
     Eigenvalues ---    0.47258   0.47323   0.47332   0.473721000.00000
     Eigenvalues --- 1000.000001000.000001000.000001000.000001000.00000
     Eigenvalues --- 1000.000001000.000001000.000001000.000001000.00000
     Eigenvalues --- 1000.000001000.000001000.000001000.000001000.00000
     Eigenvalues --- 1000.000001000.000001000.000001000.000001000.00000
     Eigenvalues --- 1000.000001000.000001000.000001000.000001000.00000
     Eigenvalues --- 1000.000001000.000001000.000001000.000001000.00000
     Eigenvalues --- 1000.000001000.000001000.000001000.000001000.00000
     Eigenvalues --- 1000.000001000.000001000.000001000.000001000.00000
     Eigenvalues --- 1000.000001000.000001000.000001000.000001000.00000
     Eigenvalues --- 1000.000001000.000001000.000001000.000001000.00000
     Eigenvalues --- 1000.000001000.000001000.000001000.000001000.00000
     Eigenvalues --- 1000.000001000.000001000.000001000.000001000.00000
     Eigenvalues --- 1000.000001000.000001000.000001000.000001000.00000
     Eigenvalues --- 1000.000001000.000001000.000001000.000001000.00000
     Eigenvalues --- 1000.000001000.000001000.000001000.000001000.00000
     Eigenvalues --- 1000.000001000.000001000.000001000.000001000.00000
     Eigenvalues --- 1000.000001000.000001000.000001000.000001000.00000
     Eigenvalues --- 1000.000001000.00000
 RFO step:  Lambda=-4.28920051D-02 EMin= 6.33925349D-03
 Linear search not attempted -- first point.
 Maximum step size (   0.300) exceeded in Quadratic search.
    -- Step size scaled by   0.575
 Iteration  1 RMS(Cart)=  0.12587180 RMS(Int)=  0.00284222
 Iteration  2 RMS(Cart)=  0.00584941 RMS(Int)=  0.00028908
 Iteration  3 RMS(Cart)=  0.00000907 RMS(Int)=  0.00028903
 Iteration  4 RMS(Cart)=  0.00000000 RMS(Int)=  0.00028903
 Variable       Old X    -DE/DX   Delta X   Delta X   Delta X     New X
                                 (Linear)    (Quad)   (Total)
    R1        2.12399  -0.02747   0.00000  -0.04453  -0.04453   2.07946
    R2        2.85056   0.02569   0.00000   0.04125   0.04125   2.89181
    R3        2.85194   0.02264   0.00000   0.03643   0.03643   2.88836
    R4        2.85345   0.02088   0.00000   0.03368   0.03368   2.88713
    R5        2.64232  -0.00356   0.00000  -0.00401  -0.00399   2.63833
    R6        2.63781   0.00075   0.00000   0.00104   0.00105   2.63886
    R7        2.62629  -0.00362   0.00000  -0.00415  -0.00414   2.62214
    R8        2.07197  -0.01768   0.00000  -0.02649  -0.02649   2.04548
    R9        2.62721  -0.00322   0.00000  -0.00347  -0.00348   2.62373
   R10        2.08242  -0.02986   0.00000  -0.04546  -0.04546   2.03696
   R11        2.62810  -0.00842   0.00000  -0.00959  -0.00960   2.61850
   R12        2.06906  -0.01672   0.00000  -0.02494  -0.02494   2.04412
   R13        2.62689  -0.00675   0.00000  -0.00759  -0.00761   2.61929
   R14        2.06886  -0.01668   0.00000  -0.02487  -0.02487   2.04400
   R15        2.06856  -0.01680   0.00000  -0.02504  -0.02504   2.04352
   R16        2.63997  -0.00426   0.00000  -0.00478  -0.00477   2.63521
   R17        2.63781   0.00070   0.00000   0.00094   0.00096   2.63877
   R18        2.62735  -0.00280   0.00000  -0.00319  -0.00320   2.62416
   R19        2.07191  -0.01769   0.00000  -0.02651  -0.02651   2.04540
   R20        2.62600  -0.00458   0.00000  -0.00503  -0.00502   2.62098
   R21        2.07996  -0.02547   0.00000  -0.03862  -0.03862   2.04133
   R22        2.62770  -0.00837   0.00000  -0.00948  -0.00950   2.61820
   R23        2.06867  -0.01655   0.00000  -0.02467  -0.02467   2.04400
   R24        2.62809  -0.00553   0.00000  -0.00625  -0.00627   2.62183
   R25        2.06883  -0.01672   0.00000  -0.02493  -0.02493   2.04390
   R26        2.06855  -0.01682   0.00000  -0.02507  -0.02507   2.04348
   R27        2.64309  -0.00425   0.00000  -0.00490  -0.00489   2.63820
   R28        2.63515  -0.00246   0.00000  -0.00272  -0.00272   2.63243
   R29        2.62513  -0.00415   0.00000  -0.00468  -0.00467   2.62046
   R30        2.07163  -0.01736   0.00000  -0.02599  -0.02599   2.04564
   R31        2.62866  -0.00276   0.00000  -0.00301  -0.00302   2.62564
   R32        2.07379  -0.02178   0.00000  -0.03272  -0.03272   2.04107
   R33        2.62871  -0.00587   0.00000  -0.00662  -0.00663   2.62208
   R34        2.06895  -0.01665   0.00000  -0.02482  -0.02482   2.04413
   R35        2.62610  -0.00628   0.00000  -0.00696  -0.00697   2.61912
   R36        2.06883  -0.01665   0.00000  -0.02482  -0.02482   2.04401
   R37        2.06847  -0.01674   0.00000  -0.02494  -0.02494   2.04354
    A1        1.85566  -0.00922   0.00000  -0.04552  -0.04458   1.81108
    A2        1.86791  -0.00593   0.00000  -0.03547  -0.03472   1.83319
    A3        1.85828  -0.00029   0.00000  -0.01897  -0.01879   1.83949
    A4        1.97535   0.01469   0.00000   0.05364   0.05246   2.02781
    A5        1.97361   0.00303   0.00000   0.02548   0.02358   1.99719
    A6        1.92460  -0.00401   0.00000   0.00970   0.00736   1.93196
    A7        2.06572  -0.01294   0.00000  -0.02542  -0.02543   2.04029
    A8        2.14224   0.02506   0.00000   0.04916   0.04914   2.19138
    A9        2.07522  -0.01212   0.00000  -0.02373  -0.02370   2.05151
   A10        2.10312   0.00828   0.00000   0.01754   0.01756   2.12069
   A11        2.09371  -0.00486   0.00000  -0.01082  -0.01084   2.08287
   A12        2.08635  -0.00341   0.00000  -0.00672  -0.00673   2.07962
   A13        2.10362   0.00442   0.00000   0.00982   0.00982   2.11344
   A14        2.08553   0.00421   0.00000   0.01328   0.01328   2.09881
   A15        2.09401  -0.00864   0.00000  -0.02313  -0.02313   2.07088
   A16        2.09747   0.00005   0.00000  -0.00094  -0.00094   2.09652
   A17        2.09155   0.00003   0.00000   0.00064   0.00064   2.09220
   A18        2.09417  -0.00009   0.00000   0.00029   0.00030   2.09446
   A19        2.09784   0.00242   0.00000   0.00495   0.00492   2.10276
   A20        2.09016  -0.00115   0.00000  -0.00231  -0.00229   2.08787
   A21        2.09519  -0.00127   0.00000  -0.00265  -0.00263   2.09255
   A22        2.08910  -0.00306   0.00000  -0.00763  -0.00766   2.08144
   A23        2.09679   0.00154   0.00000   0.00384   0.00385   2.10065
   A24        2.09729   0.00152   0.00000   0.00379   0.00380   2.10109
   A25        2.07798  -0.00631   0.00000  -0.01250  -0.01257   2.06542
   A26        2.12688   0.01651   0.00000   0.03230   0.03222   2.15910
   A27        2.07818  -0.01023   0.00000  -0.02010  -0.02010   2.05808
   A28        2.10034   0.00698   0.00000   0.01491   0.01491   2.11526
   A29        2.09459  -0.00409   0.00000  -0.00915  -0.00917   2.08543
   A30        2.08825  -0.00289   0.00000  -0.00575  -0.00576   2.08248
   A31        2.10361   0.00378   0.00000   0.00841   0.00835   2.11196
   A32        2.07591   0.00413   0.00000   0.01302   0.01290   2.08881
   A33        2.10345  -0.00785   0.00000  -0.02092  -0.02104   2.08241
   A34        2.09801  -0.00012   0.00000  -0.00105  -0.00107   2.09693
   A35        2.09134   0.00018   0.00000   0.00088   0.00089   2.09223
   A36        2.09383  -0.00006   0.00000   0.00017   0.00019   2.09402
   A37        2.09573   0.00214   0.00000   0.00431   0.00430   2.10003
   A38        2.09158  -0.00097   0.00000  -0.00186  -0.00187   2.08971
   A39        2.09588  -0.00117   0.00000  -0.00244  -0.00244   2.09343
   A40        2.09045  -0.00254   0.00000  -0.00635  -0.00639   2.08406
   A41        2.09637   0.00127   0.00000   0.00318   0.00319   2.09955
   A42        2.09636   0.00127   0.00000   0.00318   0.00319   2.09955
   A43        2.06488  -0.00206   0.00000  -0.00395  -0.00395   2.06093
   A44        2.14074   0.00961   0.00000   0.01895   0.01894   2.15968
   A45        2.07754  -0.00755   0.00000  -0.01500  -0.01499   2.06255
   A46        2.10232   0.00529   0.00000   0.01110   0.01111   2.11343
   A47        2.09286  -0.00325   0.00000  -0.00725  -0.00726   2.08560
   A48        2.08800  -0.00205   0.00000  -0.00385  -0.00386   2.08414
   A49        2.10155   0.00317   0.00000   0.00690   0.00690   2.10844
   A50        2.09257   0.00057   0.00000   0.00265   0.00265   2.09522
   A51        2.08902  -0.00374   0.00000  -0.00958  -0.00958   2.07945
   A52        2.09708   0.00008   0.00000  -0.00037  -0.00038   2.09670
   A53        2.09198   0.00000   0.00000   0.00029   0.00030   2.09228
   A54        2.09413  -0.00008   0.00000   0.00008   0.00008   2.09421
   A55        2.09865   0.00129   0.00000   0.00272   0.00271   2.10136
   A56        2.08967  -0.00060   0.00000  -0.00122  -0.00122   2.08845
   A57        2.09487  -0.00070   0.00000  -0.00150  -0.00150   2.09337
[...]
 00057907,-0.00054367,0.00037069,-0.00016053,-0.00004501,-0.00011386,0.
 00004691,-0.00006673,0.00015467,0.00008117,0.00002889,-0.00008394,-0.0
 0002787,0.00000953,0.00000890,-0.00015828,-0.00005990,0.00003245,-0.00
 001643,0.00011192,0.00001850,-0.00003368,0.00007319,0.00006480,0.00001
 372,-0.00000567,0.00003416,0.00000458,-0.00000170,-0.00001523,0.000031
 74,-0.00000326,0.00000795,-0.00051164,0.00094637,-0.00091487,0.0001136
 4,0.00031231,0.00028521,-0.00019141,0.00026212,-0.00022909,0.00002088,
 0.00002226,-0.00006248,0.00000160,-0.00001738,0.00004384,0.00002306,-0
 .00007662,0.00010084,0.00010397,0.00000445,0.00010173,-0.00000465,-0.0
 0002717,-0.00000055,0.00001172,0.00001036,0.00001692,0.00000650,0.0000
 2175,0.00000972,-0.00000009,-0.00002471,0.00000609,-0.01635991,0.02566
 991,0.00141825,0.00615455,-0.00647181,-0.00575949,-0.02230878,0.088980
 73,-0.12886380,0.03023163,0.01062666,-0.01381345,-0.00053026,-0.000803
 64,-0.00014322,-0.20902556,-0.25144788,0.45351928,-0.00131092,-0.00044
 234,-0.00182676,-0.00008986,0.00014946,-0.00008399,-0.00005104,0.00155
 371,-0.00149466,0.00035628,0.00061241,0.00011202,-0.00036062,0.0009266
 5,-0.00059750,-0.00015802,-0.00006175,0.00006078,0.00000839,-0.0000597
 8,0.00002263,0.00021871,0.00021728,0.00007218,0.00003733,-0.00027842,-
 0.00000126,-0.00011189,-0.00025156,-0.00016849,-0.00001546,0.00000337,
 -0.00000181,0.00000674,-0.00000915,0.00000674,-0.00000589,-0.00000573,
 -0.00000464,0.00031167,-0.00027595,0.00038264,-0.00004019,-0.00013583,
 -0.00013603,0.00022348,-0.00028577,0.00013506,0.00000135,0.00001194,0.
 00003342,-0.00000958,0.00001503,-0.00000804,-0.00000248,0.00004101,-0.
 00009988,-0.00031301,0.00007412,-0.00002757,-0.00001448,0.00001177,-0.
 00001014,-0.00001091,-0.00000330,-0.00000786,-0.00001361,-0.00001577,-
 0.00000265,-0.00000472,0.00001775,-0.00000140,-0.00787915,0.00494539,0
 .00377381,0.00208282,-0.00033096,0.00340363,-0.31979003,0.04428234,0.1
 1533110,0.00062677,-0.00023394,-0.00070037,-0.00047077,0.00017531,0.00
 018494,-0.00985244,-0.00125880,0.00913602,0.33588945,-0.00090123,-0.00
 043351,-0.00222814,-0.00003805,0.00055819,-0.00020217,0.00052211,-0.00
 135485,0.00107460,0.00030302,-0.00008668,0.00029835,0.00031758,-0.0004
 3181,0.00027245,-0.00038452,-0.00008427,0.00010162,0.00000615,0.000046
 32,-0.00015717,0.00045959,0.00008756,-0.00000351,0.00000770,-0.0002662
 5,-0.00003663,-0.00003438,-0.00018257,-0.00026647,-0.00004064,-0.00000
 025,-0.00004840,-0.00001655,0.00002393,0.00001517,-0.00004996,0.000009
 14,-0.00003321,0.00019035,-0.00038232,0.00024674,-0.00002789,-0.000099
 31,-0.00008652,0.00011857,-0.00008862,0.00010179,0.00000500,0.00001083
 ,0.00005489,-0.00000563,0.00000025,-0.00000285,-0.00000665,-0.00001065
 ,-0.00007821,-0.00021179,0.00008075,-0.00000798,-0.00001174,0.00002561
 ,-0.00002004,-0.00000806,0.00000492,-0.00000697,-0.00000095,-0.0000003
 5,0.00001201,0.00000069,0.00001831,0.00000236,-0.02315834,0.00962651,0
 .00966103,0.00005826,-0.00115820,0.00629283,0.04457682,-0.07314011,-0.
 00861433,-0.00030689,-0.00108290,0.00020939,-0.00117342,0.00018266,0.0
 0048827,0.02921405,0.00090357,-0.01278856,-0.05264226,0.07034965,-0.00
 091283,-0.00229296,-0.00238910,-0.00017568,0.00029112,0.00000807,0.000
 10991,0.00069313,-0.00011164,-0.00020736,-0.00045921,-0.00026901,-0.00
 028119,0.00001314,0.00050947,-0.00018614,-0.00015902,-0.00012751,0.000
 05139,0.00008609,-0.00005811,-0.00016597,0.00006387,0.00004469,0.00002
 659,-0.00012313,-0.00005100,0.00005207,0.00010311,0.00003934,0.0000112
 2,0.00003286,0.00000106,0.00005385,-0.00004146,-0.00002959,0.00003820,
 -0.00000243,-0.00000416,0.00019426,-0.00039225,0.00045049,-0.00005594,
 -0.00011610,-0.00012633,0.00006962,-0.00015611,0.00013886,-0.00001896,
 0.00000960,0.00001399,0.00001926,0.00001087,-0.00003603,-0.00003018,0.
 00006072,-0.00003908,-0.00009554,0.00005542,-0.00004823,0.00000091,-0.
 00001367,-0.00000375,-0.00000605,-0.00000560,-0.00000757,-0.00000857,-
 0.00001539,-0.00001361,0.00000417,0.00000886,-0.00000800,0.02163307,-0
 .00471072,-0.00293286,0.00382361,0.00638497,0.00239683,0.11331549,-0.0
 0829262,-0.10417679,-0.00076738,0.00038841,-0.00084433,0.00099146,-0.0
 0029432,-0.00046200,-0.00996998,0.00326299,0.00863570,-0.12625839,0.00
 386677,0.09735406,-0.00028581,-0.00204087,0.00025473,0.00005597,0.0000
 9996,-0.00088986,0.00024235,0.00026975,0.00048765,-0.00039839,0.000163
 99,-0.00011451,0.00033649,0.00005535,-0.00021110,0.00038983,0.00000927
 ,-0.00014371,-0.00001429,-0.00003473,0.00006143,-0.00026738,-0.0001410
 3,-0.00014030,0.00002192,-0.00002493,-0.00001896,-0.00007330,0.0001357
 3,0.00032301,-0.00001347,-0.00000268,-0.00002498,-0.00002018,-0.000000
 27,0.00001626,-0.00002167,0.00000239,-0.00000049,0.00081067,-0.0004425
 6,-0.00025561,0.00029174,0.00034253,0.00002979,0.00020210,-0.00005041,
 -0.00009101,-0.00019301,-0.00008776,-0.00023918,0.00000403,-0.00001372
 ,-0.00000257,0.00001853,0.00042370,-0.00006211,-0.00030358,0.00015596,
 -0.00027605,0.00008919,-0.00014546,0.00025156,-0.00003221,0.00001531,0
 .00002306,0.00002736,0.00002927,0.00001706,0.00000230,0.00001768,-0.00
 000190,-0.06529639,-0.02444659,0.04809918,0.08123269,-0.03403589,-0.01
 546356,-0.03008317,0.08661104,-0.03490793,-0.17897386,-0.00041210,0.05
 307161,0.00000365,0.00559499,0.00128254,-0.31913990,0.01436251,0.11959
 789,0.00148318,0.00406584,0.00126716,0.66917446,-0.00110420,-0.0011145
 2,-0.00016547,0.00028286,-0.00011137,-0.00043677,-0.00007756,-0.000114
 09,0.00026742,-0.00004360,0.00001810,-0.00011719,0.00015217,0.00003941
 ,0.00007360,0.00008492,0.00002641,-0.00007962,-0.00005420,-0.00004750,
 0.00000169,-0.00009286,-0.00002940,-0.00001347,-0.00000123,-0.00001291
 ,0.00000222,0.00006333,0.00005793,0.00006073,0.00003682,-0.00000630,0.
 00002362,0.00002285,-0.00001080,-0.00000482,0.00001478,-0.00000529,0.0
 0000325,0.00105131,-0.00008713,0.00025994,0.00002370,-0.00004328,-0.00
 027070,0.00000838,-0.00025805,0.00008019,-0.00011262,-0.00005302,-0.00
 004027,0.00002023,0.00002815,-0.00000041,0.00000321,0.00018316,-0.0000
 6732,-0.00005608,-0.00000807,-0.00003054,0.00001024,-0.00013192,0.0000
 6864,-0.00002900,-0.00003577,-0.00000343,-0.00000067,-0.00003292,-0.00
 004457,-0.00000853,-0.00000246,-0.00001126,-0.02538974,-0.00956220,0.0
 1626763,0.01915054,-0.04631460,0.02648884,0.03313880,0.02103362,-0.025
 45367,-0.06864298,-0.23010329,0.13269507,0.00508470,-0.00142230,0.0040
 6412,0.08310091,-0.15073907,-0.00281047,0.00422553,-0.00243273,0.00483
 128,-0.16388340,0.67317477,0.00031837,0.00133510,-0.00080223,-0.000351
 31,0.00020759,0.00071572,-0.00008903,0.00001072,-0.00044382,0.00024852
 ,-0.00017411,0.00011597,-0.00035380,-0.00005337,0.00010273,-0.00030073
 ,-0.00003581,0.00012568,0.00001408,0.00004527,-0.00006205,0.00022857,0
 .00010889,0.00009651,-0.00000985,0.00001020,-0.00000170,0.00000215,-0.
 00011505,-0.00023601,-0.00000180,0.00000393,0.00000833,-0.00000358,0.0
 0000635,-0.00000466,0.00000630,0.00000009,-0.00000533,-0.00092211,0.00
 014059,0.00014337,-0.00022281,-0.00027676,0.00015814,-0.00017354,0.000
 33016,0.00007579,0.00019919,0.00009917,0.00021529,-0.00000529,-0.00000
 786,0.00000203,-0.00005240,-0.00037223,0.00000862,0.00015061,0.0000469
 8,0.00005722,-0.00005304,0.00021624,-0.00020819,0.00003585,0.00001069,
 -0.00001150,-0.00001392,0.00002435,0.00004650,0.00000645,0.00000217,0.
 00000368,0.04868259,0.01465345,-0.04443735,-0.05176319,0.05531711,0.00
 133711,0.00053943,-0.05459706,0.04521416,0.09724927,0.09472515,-0.1989
 3416,0.00168595,0.00362803,0.00579319,0.07594417,0.03502726,-0.1475721
 1,0.00100014,0.00515451,0.00517063,-0.16640332,-0.23177223,0.41646877,
 -0.00060746,-0.00033321,0.00046985,-0.00000474,0.00004451,-0.00004982,
 0.00010131,0.00024391,-0.00009932,-0.00005884,0.00001943,0.00004625,-0
 .00009247,-0.00002455,-0.00003911,0.00000015,0.00000439,0.00002444,0.0
 0001625,0.00000529,0.00000970,0.00002357,-0.00001184,0.00000089,0.0000
 0680,-0.00000654,-0.00000239,-0.00002541,-0.00000816,-0.00001312,-0.00
 001911,-0.00001105,-0.00000963,-0.00001453,0.00000198,0.00001005,-0.00
 001499,-0.00000126,0.00000003,-0.00012431,-0.00007473,-0.00011987,0.00
 005559,0.00006171,0.00005260,0.00003483,0.00001780,0.00005015,0.000011
 52,0.00001665,-0.00000760,-0.00001157,-0.00001186,0.00000042,-0.000008
 86,0.00000219,-0.00002198,-0.00001914,-0.00001342,-0.00004408,0.000011
 14,0.00002646,-0.00000074,-0.00000307,0.00002266,0.00000085,0.00000095
 ,0.00000524,0.00001830,0.00000185,0.00001636,0.00000657,0.00172757,0.0
 0447606,0.00118105,-0.01063009,-0.00129475,0.00984015,0.00066061,-0.00
 015953,-0.00076721,-0.31295064,0.04884654,0.11492052,0.00011290,-0.000
 82324,-0.00240950,0.00225148,-0.00054830,0.00391697,-0.00030446,-0.000
 26278,-0.00035929,-0.00680220,0.00646782,0.00262995,0.32714951,0.00110
 835,0.00016601,-0.00066622,-0.00004322,0.00008143,0.00001871,0.0000131
 1,-0.00043509,0.00004398,0.00007034,0.00001017,0.00001754,0.00005591,0
 .00002915,0.00001566,-0.00004252,0.00001185,-0.00000966,-0.00000741,-0
 .00000372,-0.00000028,0.00002487,0.00003814,-0.00000145,-0.00000171,-0
 .00001768,0.00000356,0.00003773,-0.00001567,-0.00003093,0.00000717,0.0
 0000322,0.00000680,0.00001406,-0.00000167,-0.00000728,0.00000774,-0.00
 000228,0.00000118,0.00011893,0.00005649,0.00009564,-0.00003074,-0.0000
 6241,-0.00003544,-0.00003909,-0.00003466,-0.00002239,-0.00001311,-0.00
 000490,0.00001469,0.00001138,0.00000998,-0.00000904,-0.00001611,-0.000
 01213,0.00000783,0.00003666,0.00000313,0.00001129,-0.00002184,-0.00002
 543,-0.00001484,0.00000346,-0.00001226,-0.00000433,0.00000334,-0.00000
 998,-0.00002072,0.00000454,-0.00000805,-0.00000589,0.00386108,-0.00235
 040,0.00509855,0.02903543,0.00114557,-0.01324981,-0.00029148,-0.001144
 95,0.00031269,0.04869825,-0.07484603,-0.00999523,-0.00183796,-0.000267
 32,-0.00215155,-0.00009657,-0.00095563,0.00628206,-0.00020143,-0.00022
 974,-0.00054366,-0.02367218,0.00946224,0.01052620,-0.05509129,0.069493
 72,-0.00047257,-0.00000866,0.00013735,0.00001742,-0.00000607,-0.000049
 88,0.00003915,-0.00000658,-0.00010084,0.00001346,-0.00000496,0.0000474
 9,-0.00003635,-0.00001463,0.00002598,-0.00004710,-0.00000753,0.0000081
 9,-0.00000022,0.00000907,-0.00001633,0.00003172,0.00000703,0.00002080,
 -0.00000078,0.00000483,-0.00000270,-0.00000113,-0.00002197,-0.00003837
 ,-0.00000560,0.00000050,0.00000076,0.00000109,0.00000370,-0.00000467,0
 .00000249,0.00000198,-0.00000241,0.00008006,-0.00008150,0.00001844,0.0
 0002433,0.00000995,-0.00003709,-0.00001537,-0.00001970,-0.00001331,-0.
 00001481,-0.00000223,-0.00001034,-0.00000188,0.00000482,-0.00000437,-0
 .00000907,0.00000773,0.00002954,0.00003445,0.00001714,0.00000138,-0.00
 000784,-0.00002473,0.00000281,-0.00000312,-0.00000242,0.00000019,0.000
 00534,-0.00000715,-0.00001915,0.00000337,-0.00000669,-0.00000302,0.001
 28898,0.00496552,0.00521827,-0.00970517,0.00365591,0.00869914,-0.00078
 240,0.00032363,-0.00071706,0.11507069,-0.01012531,-0.10619528,-0.00174
 795,-0.00265443,-0.00248993,0.00364544,0.00648696,0.00242353,-0.000346
 47,-0.00052247,-0.00072830,0.02206372,-0.00624866,-0.00274896,-0.12780
 737,0.00649605,0.09924744,0.00048477,0.00031264,-0.00055248,-0.0000527
 5,0.00013481,-0.00010038,0.00007946,-0.00006445,0.00001813,-0.00002532
 ,-0.00000795,0.00000015,0.00002341,-0.00001395,0.00002989,0.00000608,-
 0.00001438,-0.00000809,0.00000029,0.00000919,-0.00000971,-0.00002471,-
 0.00001124,0.00000610,0.00000272,0.00000979,-0.00000334,-0.00002612,-0
 .00000619,0.00001261,-0.00000497,0.00000431,-0.00000475,-0.00000212,0.
 00000621,-0.00000394,-0.00000018,0.00000550,-0.00000271,-0.00004698,0.
 00003829,-0.00002634,-0.00000895,0.00002442,0.00000061,0.00000828,-0.0
 0002912,0.00001328,0.00000820,0.00000674,-0.00000231,-0.00000456,-0.00
 000136,0.00000354,0.00001243,0.00000156,0.00001251,0.00000436,0.000009
 55,0.00002699,-0.00000081,0.00000136,-0.00000200,0.00000172,0.00000113
 ,-0.00000072,-0.00000379,-0.00000539,-0.00000421,-0.00000232,-0.000001
 89,0.00000097,-0.00004593,0.00527797,0.00142179,-0.00092409,0.00070547
 ,-0.00050544,0.01205973,0.01491406,-0.01317662,-0.00385670,0.00368099,
 0.00465003,-0.00016136,-0.00033088,-0.00038149,-0.11765666,-0.07403447
 ,0.08507776,0.00024416,-0.00180393,-0.00169315,-0.00618248,-0.02428432
 ,0.02199869,-0.00057625,-0.00108998,0.00100009,0.11649962,-0.00083777,
 -0.00038207,0.00072388,0.00016491,-0.00036553,0.00010637,-0.00030632,0
 .00000712,-0.00003968,0.00003542,0.00003526,0.00000352,0.00009761,0.00
 004429,-0.00000315,0.00000508,-0.00000168,-0.00001914,-0.00001051,-0.0
 0001458,-0.00002530,-0.00001141,0.00000897,-0.00001978,-0.00001522,-0.
 00002095,0.00000922,0.00005096,0.00002481,0.00000090,0.00001207,0.0000
 0090,0.00001015,0.00002632,-0.00001913,-0.00000780,0.00001642,-0.00000
 587,0.00000381,0.00017625,0.00004236,0.00021928,-0.00005463,-0.0001018
 2,-0.00010022,0.00001504,-0.00011180,-0.00004411,-0.00000448,-0.000010
 78,0.00000402,-0.00000735,0.00002305,-0.00001240,0.00001454,0.00000694
 ,0.00001267,-0.00001266,0.00002015,0.00006918,-0.00000971,-0.00002766,
 -0.00001188,-0.00000424,-0.00001852,-0.00000316,-0.00001841,-0.0000192
 2,-0.00002257,-0.00000685,-0.00001096,-0.00000427,0.00543097,-0.001407
 74,0.00346575,0.00071293,-0.00020878,-0.00086771,-0.01529717,-0.012899
 38,0.02018661,0.00331240,0.00285292,0.00210106,-0.00034688,-0.00033023
 ,-0.00040170,-0.07404352,-0.19472652,0.13431364,-0.00076349,-0.0002550
 0,-0.00262808,0.00610845,0.00898802,-0.00549910,0.00017172,0.00017601,
 -0.00027030,0.07726389,0.19904683,0.00048023,-0.00018201,-0.00025175,-
 0.00001177,0.00007791,-0.00006678,0.00006208,0.00007355,0.00001267,-0.
 00007573,0.00001122,0.00000258,0.00002076,-0.00000892,-0.00003536,0.00
 004225,-0.00001934,0.00000456,0.00002038,0.00001803,-0.00000138,-0.000
 03081,-0.00002726,-0.00001188,0.00000990,-0.00000504,-0.00000932,-0.00
 004512,-0.00000227,0.00004227,-0.00002087,0.00000420,-0.00002414,-0.00
 001016,0.00000667,0.00000273,-0.00001575,0.00000818,-0.00000289,-0.000
 13530,0.00004789,-0.00003712,-0.00000347,0.00002881,0.00004292,0.00002
 632,-0.00001404,0.00004901,0.00001716,0.00001434,0.00000365,-0.0000049
 0,-0.00000721,-0.00000373,-0.00001071,-0.00000133,-0.00002058,-0.00000
 065,0.00000415,-0.00002339,-0.00000190,0.00001861,-0.00000715,0.000004
 54,0.00001390,-0.00000405,0.00000530,-0.00000274,0.00000448,0.00000213
 ,0.00001121,0.00000356,0.00116725,0.00401579,0.00544242,-0.00063025,-0
 .00081531,-0.00009383,0.00623526,0.00352735,-0.00016191,0.00492307,0.0
 0183416,0.00508322,-0.00038164,-0.00040700,-0.00079499,0.08483990,0.13
 423903,-0.18134499,-0.00217518,-0.00216232,-0.00242504,0.00262661,0.01
 115594,-0.00297052,0.00015004,0.00042832,-0.00044562,-0.09541963,-0.14
 924456,0.18049500,-0.00009509,-0.00033504,-0.00035961,0.00001371,0.000
 09797,-0.00011264,0.00004421,0.00003436,-0.00001691,0.00000004,0.00002
 679,0.00003452,-0.00003369,0.00001649,-0.00005050,0.00000082,0.0000057
 5,0.00001833,0.00001071,-0.00000092,0.00000513,0.00003718,0.00000858,-
 0.00001388,0.00000441,-0.00002436,-0.00000116,-0.00000296,-0.00001297,
 -0.00000787,-0.00001108,-0.00000347,-0.00001132,-0.00000641,0.00000025
 ,0.00000795,-0.00001296,-0.00000015,-0.00000074,0.00000784,-0.00006738
 ,0.00000387,0.00000476,0.00000206,0.00000823,0.00002155,-0.00001002,0.
 00003767,0.00000329,0.00000346,0.00000461,-0.00000281,-0.00000286,-0.0
 0000159,-0.00001029,0.00000637,-0.00002088,-0.00002113,-0.00000522,-0.
 00002429,-0.00000027,0.00000845,-0.00000052,-0.00000091,0.00000756,-0.
 00000208,0.00000391,-0.00000087,0.00000356,0.00000228,0.00000833,0.000
 00170,-0.00074315,-0.00086017,0.00042911,0.00092939,-0.00058717,0.0046
 8800,-0.00345837,0.00159965,0.00579528,0.01207787,-0.01457728,0.005503
 52,0.00032259,-0.00062157,0.00018494,-0.00957692,0.02925351,-0.0106678
 4,-0.00068082,0.00123994,-0.00046963,-0.14628518,0.13083791,-0.0302205
 5,0.00010211,-0.00061570,-0.00231656,0.00017182,-0.00186440,-0.0016593
 4,0.14718358,-0.00018262,-0.00028121,-0.00041167,0.00001728,0.00004507
 ,-0.00009297,-0.00003559,-0.00007270,-0.00001433,0.00002642,-0.0000291
 8,0.00000947,0.00003333,0.00000660,0.00004231,-0.00001578,-0.00001459,
 -0.00001704,-0.00000909,0.00000152,-0.00001979,-0.00001428,0.00000415,
 0.00000914,-0.00000630,0.00000966,-0.00000206,0.00001633,0.00000459,-0
 .00000302,0.00000691,0.00000749,0.00000647,0.00001135,-0.00000442,-0.0
 0000875,0.00001298,0.00000153,-0.00000099,0.00011404,-0.00002911,0.000
 09962,-0.00002681,-0.00003497,-0.00005763,-0.00001715,-0.00003969,-0.0
 0003563,-0.00001128,-0.00000923,-0.00000661,-0.00000221,0.00001153,-0.
 00000318,0.00001434,0.00001188,0.00003960,0.00002402,0.00001982,0.0000
 5044,-0.00000593,-0.00002524,0.00000290,-0.00000135,-0.00001487,0.0000
 0051,-0.00000486,-0.00001018,-0.00002211,-0.00000225,-0.00001502,-0.00
 000490,-0.00093250,0.00043937,-0.00035323,-0.00108715,0.00068984,0.005
 77364,0.00215816,0.00336687,0.00241737,0.01566380,-0.01278102,0.002819
 17,0.00060111,-0.00085958,0.00019201,-0.00125844,0.00036119,0.00379503
 ,-0.00000683,-0.00020808,0.00008354,0.13097083,-0.27033282,0.07127338,
 -0.00177419,-0.00024711,-0.00195883,-0.00070839,-0.00033943,-0.0026399
 0,-0.14356789,0.28036735,-0.00036918,-0.00051399,-0.00058389,0.0000871
 5,0.00004231,-0.00005270,0.00005287,0.00002519,0.00001934,-0.00002350,
 -0.00003802,0.00000830,-0.00004389,-0.00001597,0.00002508,0.00000026,-
 0.00000674,0.00000143,0.00001222,0.00001118,0.00000026,-0.00001504,-0.
 00000031,0.00000333,0.00000288,0.00000245,-0.00000849,-0.00000449,0.00
 000520,0.00000182,-0.00000762,0.00000107,-0.00000564,-0.00000186,-0.00
 000199,0.00000110,-0.00000308,0.00000102,0.00000024,0.00001754,-0.0001
 1440,0.00006939,-0.00002195,-0.00003226,-0.00001078,-0.00001812,-0.000
 00459,0.00001452,0.,-0.00000682,0.00001244,0.00000458,-0.00000229,-0.0
 0000400,-0.00000499,-0.00000367,0.00000026,0.00002377,0.00001075,0.000
 00040,-0.00000031,0.00000146,-0.00000680,-0.00000037,0.00000278,-0.000
 00390,0.00000109,-0.00000517,-0.00000267,0.00000215,0.00000346,0.00000
 154,0.00039011,-0.00023976,-0.00103696,0.00504836,0.00550679,0.0022998
 4,0.00543483,0.00265717,0.00433840,-0.01396813,0.01967781,0.00010900,-
 0.00064067,0.00090069,-0.00033202,0.00869558,-0.01292407,0.00874731,0.
 00029796,-0.00058683,0.00012886,-0.03022609,0.07122671,-0.07742083,-0.
 00157774,-0.00261203,-0.00225370,-0.00237583,-0.00200516,-0.00245266,0
 .02923147,-0.08096198,0.06839217||0.00001701,0.00001160,0.00000129,-0.
 00000679,-0.00000205,-0.00000205,-0.00001301,-0.00001762,-0.00004334,0
 .00003760,0.00001428,0.00001928,-0.00005297,0.00001247,0.00003141,-0.0
 0004024,0.00000199,0.00001998,-0.00000536,-0.00000087,-0.00000118,0.00
 004869,0.00001659,0.00002381,-0.00000123,-0.00000592,-0.00000559,0.000
 00452,-0.00002000,-0.00004642,0.00000285,0.00000006,-0.00000142,-0.000
 00328,-0.00000145,-0.00000320,0.00000157,0.00000152,0.00000318,0.00000
 389,-0.00000466,-0.00000599,-0.00000418,-0.00000107,0.00000120,0.00000
 529,0.00001008,0.00001798,0.00000532,0.00000327,0.00000069,0.00000129,
 0.00000057,0.00000097,-0.00000593,-0.00001563,0.00000151,-0.00000101,0
 .00000168,-0.00000390,0.00000025,0.00000268,-0.00001155,-0.00000170,-0
 .00000027,0.00000140,0.00000223,0.00000194,-0.00000248,-0.00000102,-0.
 00000150,0.00000094,0.00001968,0.00000541,-0.00002743,-0.00002485,0.00
 001938,0.00000898,0.00000288,-0.00004298,0.00002459,0.00000701,-0.0000
 2924,0.00002540,0.00000347,-0.00000282,0.00000028,-0.00003361,0.000030
 13,0.00000768,0.00000670,0.00000174,-0.00000007,0.00002740,0.00000810,
 -0.00003409,-0.00000074,0.00000414,-0.00000280,0.00000277,-0.00000176,
 -0.00000134,-0.00000451,0.00000021,0.00000226|||@


  DISAPPOINTMENT IS THE NURSE OF WISDOM.               
                              SIR BOYLE ROCHE                 
 Job cpu time:  0 days  0 hours  6 minutes 26.0 seconds.
 File lengths (MBytes):  RWF=    350 Int=      0 D2E=      0 Chk=      7 Scr=      1
 Normal termination of Gaussian 09 at Mon Sep 06 18:13:57 2021.
