 Entering Link 1 = b:\programy\g09w\l1.exe PID=     16556.
  
 Copyright (c) 1988,1990,1992,1993,1995,1998,2003,2009, Gaussian, Inc.
                  All Rights Reserved.
  
 This is part of the Gaussian(R) 09 program.  It is based on
 the Gaussian(R) 03 system (copyright 2003, Gaussian, Inc.),
 the Gaussian(R) 98 system (copyright 1998, Gaussian, Inc.),
 the Gaussian(R) 94 system (copyright 1995, Gaussian, Inc.),
 the Gaussian 92(TM) system (copyright 1992, Gaussian, Inc.),
 the Gaussian 90(TM) system (copyright 1990, Gaussian, Inc.),
 the Gaussian 88(TM) system (copyright 1988, Gaussian, Inc.),
 the Gaussian 86(TM) system (copyright 1986, Carnegie Mellon
 University), and the Gaussian 82(TM) system (copyright 1983,
 Carnegie Mellon University). Gaussian is a federally registered
 trademark of Gaussian, Inc.
  
 This software contains proprietary and confidential information,
 including trade secrets, belonging to Gaussian, Inc.
  
 This software is provided under written license and may be
 used, copied, transmitted, or stored only in accord with that
 written license.
  
 The following legend is applicable only to US Government
 contracts under FAR:
  
                    RESTRICTED RIGHTS LEGEND
  
 Use, reproduction and disclosure by the US Government is
 subject to restrictions as set forth in subparagraphs (a)
 and (c) of the Commercial Computer Software - Restricted
 Rights clause in FAR 52.227-19.
  
 Gaussian, Inc.
 340 Quinnipiac St., Bldg. 40, Wallingford CT 06492
  
  
 ---------------------------------------------------------------
 Warning -- This program may not be used in any manner that
 competes with the business of Gaussian, Inc. or will provide
 assistance to any competitor of Gaussian, Inc.  The licensee
 of this program is prohibited from giving any competitor of
 Gaussian, Inc. access to this program.  By using this program,
 the user acknowledges that Gaussian, Inc. is engaged in the
 business of creating and licensing software in the field of
 computational chemistry and represents and warrants to the
 licensee that it is not a competitor of Gaussian, Inc. and that
 it will not use this program in any manner prohibited above.
 ---------------------------------------------------------------
  

 Cite this work as:
 Gaussian 09, Revision A.02,
 M. J. Frisch, G. W. Trucks, H. B. Schlegel, G. E. Scuseria, 
 M. A. Robb, J. R. Cheeseman, G. Scalmani, V. Barone, B. Mennucci, 
 G. A. Petersson, H. Nakatsuji, M. Caricato, X. Li, H. P. Hratchian, 
 A. F. Izmaylov, J. Bloino, G. Zheng, J. L. Sonnenberg, M. Hada, 
 M. Ehara, K. Toyota, R. Fukuda, J. Hasegawa, M. Ishida, T. Nakajima, 
 Y. Honda, O. Kitao, H. Nakai, T. Vreven, J. A. Montgomery, Jr., 
 J. E. Peralta, F. Ogliaro, M. Bearpark, J. J. Heyd, E. Brothers, 
 K. N. Kudin, V. N. Staroverov, R. Kobayashi, J. Normand, 
 K. Raghavachari, A. Rendell, J. C. Burant, S. S. Iyengar, J. Tomasi, 
 M. Cossi, N. Rega, J. M. Millam, M. Klene, J. E. Knox, J. B. Cross, 
 V. Bakken, C. Adamo, J. Jaramillo, R. Gomperts, R. E. Stratmann, 
 O. Yazyev, A. J. Austin, R. Cammi, C. Pomelli, J. W. Ochterski, 
 R. L. Martin, K. Morokuma, V. G. Zakrzewski, G. A. Voth, 
 P. Salvador, J. J. Dannenberg, S. Dapprich, A. D. Daniels, 
 O. Farkas, J. B. Foresman, J. V. Ortiz, J. Cioslowski, 
 and D. J. Fox, Gaussian, Inc., Wallingford CT, 2009.
 
 ******************************************
 Gaussian 09:  IA32W-G09RevA.02 11-Jun-2009
                07-Sep-2021 
 ******************************************
 %nprocshared=12
 Will use up to   12 processors via shared memory.
 ----------------------------------------------
 # opt freq=noraman hf/6-311g geom=connectivity
 ----------------------------------------------
 1/18=20,19=15,38=1,57=2/1,3;
 2/9=110,12=2,17=6,18=5,40=1/2;
 3/5=4,6=6,11=9,16=1,25=1,30=1,71=1/1,2,3;
 4//1;
 5/5=2,38=5/2;
 6/7=2,8=2,9=2,10=2,28=1/1;
 7//1,2,3,16;
 1/18=20,19=15/3(2);
 2/9=110/2;
 99//99;
 2/9=110/2;
 3/5=4,6=6,11=9,16=1,25=1,30=1,71=1/1,2,3;
 4/5=5,16=3/1;
 5/5=2,38=5/2;
 7//1,2,3,16;
 1/18=20,19=15/3(-5);
 2/9=110/2;
 6/7=2,8=2,9=2,10=2,19=2,28=1/1;
 99/9=1/99;
 -----
 M0001
 -----
 Symbolic Z-matrix:
 Charge =  0 Multiplicity = 1
 C                    -0.00547   0.2343   -0.74073 
 H                    -0.0462    0.60323  -1.80062 
 C                    -1.40844   0.26391  -0.18342 
 C                    -2.47672   0.57011  -1.02892 
 C                    -1.66041  -0.00667   1.1631 
 C                    -3.77494   0.60878  -0.53187 
 H                    -2.2948    0.78033  -2.08942 
 C                    -2.95803   0.03515   1.65786 
 H                    -0.81885  -0.27062   1.82174 
 C                    -4.01765   0.34433   0.81131 
 H                    -4.60721   0.84868  -1.20157 
 H                    -3.14507  -0.17706   2.71548 
 H                    -5.03994   0.37747   1.20129 
 C                     0.51888  -1.17965  -0.7714 
 C                     0.83992  -1.76052  -2.00033 
 C                     0.68345  -1.92663   0.39744 
 C                     1.31814  -3.06521  -2.05655 
 H                     0.71504  -1.18801  -2.92707 
 C                     1.16183  -3.22978   0.33885 
 H                     0.41455  -1.47268   1.36436 
 C                     1.48097  -3.80141  -0.8885 
 H                     1.5661   -3.51256  -3.02459 
 H                     1.28539  -3.8066    1.26117 
 H                     1.85748  -4.82825  -0.93444 
 C                     0.89599   1.21207  -0.02833 
 C                     2.19203   0.87945   0.36489 
 C                     0.43511   2.51493   0.18902 
 C                     3.01025   1.82879   0.96874 
 H                     2.56985  -0.13737   0.19846 
 C                     1.25298   3.46062   0.79312 
 H                    -0.58277   2.7847   -0.11732 
 C                     2.54392   3.11963   1.18482 
 H                     4.02565   1.55475   1.27305 
 H                     0.8802    4.4763    0.96024 
 H                     3.18876   3.86551   1.66014 
 

 GradGradGradGradGradGradGradGradGradGradGradGradGradGradGradGradGradGrad
 Berny optimization.
 Initialization pass.
                           ----------------------------
                           !    Initial Parameters    !
                           ! (Angstroms and Degrees)  !
 --------------------------                            --------------------------
 ! Name  Definition              Value          Derivative Info.                !
 --------------------------------------------------------------------------------
 ! R1    R(1,2)                  1.123          estimate D2E/DX2                !
 ! R2    R(1,3)                  1.5099         estimate D2E/DX2                !
 ! R3    R(1,14)                 1.5084         estimate D2E/DX2                !
 ! R4    R(1,25)                 1.5087         estimate D2E/DX2                !
 ! R5    R(3,4)                  1.3964         estimate D2E/DX2                !
 ! R6    R(3,5)                  1.3964         estimate D2E/DX2                !
 ! R7    R(4,6)                  1.3907         estimate D2E/DX2                !
 ! R8    R(4,7)                  1.0963         estimate D2E/DX2                !
 ! R9    R(5,8)                  1.3894         estimate D2E/DX2                !
 ! R10   R(5,9)                  1.1008         estimate D2E/DX2                !
 ! R11   R(6,10)                 1.3903         estimate D2E/DX2                !
 ! R12   R(6,11)                 1.0949         estimate D2E/DX2                !
 ! R13   R(8,10)                 1.3911         estimate D2E/DX2                !
 ! R14   R(8,12)                 1.0948         estimate D2E/DX2                !
 ! R15   R(10,13)                1.0947         estimate D2E/DX2                !
 ! R16   R(14,15)                1.3967         estimate D2E/DX2                !
 ! R17   R(14,16)                1.3969         estimate D2E/DX2                !
 ! R18   R(15,17)                1.3907         estimate D2E/DX2                !
 ! R19   R(15,18)                1.0965         estimate D2E/DX2                !
 ! R20   R(16,19)                1.3894         estimate D2E/DX2                !
 ! R21   R(16,20)                1.1015         estimate D2E/DX2                !
 ! R22   R(17,21)                1.3903         estimate D2E/DX2                !
 ! R23   R(17,22)                1.0949         estimate D2E/DX2                !
 ! R24   R(19,21)                1.391          estimate D2E/DX2                !
 ! R25   R(19,23)                1.0948         estimate D2E/DX2                !
 ! R26   R(21,24)                1.0947         estimate D2E/DX2                !
 ! R27   R(25,26)                1.3946         estimate D2E/DX2                !
 ! R28   R(25,27)                1.399          estimate D2E/DX2                !
 ! R29   R(26,28)                1.3912         estimate D2E/DX2                !
 ! R30   R(26,29)                1.0974         estimate D2E/DX2                !
 ! R31   R(27,30)                1.3886         estimate D2E/DX2                !
 ! R32   R(27,31)                1.0967         estimate D2E/DX2                !
 ! R33   R(28,32)                1.3894         estimate D2E/DX2                !
 ! R34   R(28,33)                1.0949         estimate D2E/DX2                !
 ! R35   R(30,32)                1.3915         estimate D2E/DX2                !
 ! R36   R(30,34)                1.0948         estimate D2E/DX2                !
 ! R37   R(32,35)                1.0946         estimate D2E/DX2                !
 ! A1    A(2,1,3)              107.9518         estimate D2E/DX2                !
 ! A2    A(2,1,14)             107.5402         estimate D2E/DX2                !
 ! A3    A(2,1,25)             104.7387         estimate D2E/DX2                !
 ! A4    A(3,1,14)             110.4204         estimate D2E/DX2                !
 ! A5    A(3,1,25)             111.6042         estimate D2E/DX2                !
 ! A6    A(14,1,25)            114.1682         estimate D2E/DX2                !
 ! A7    A(1,3,4)              119.4506         estimate D2E/DX2                !
 ! A8    A(1,3,5)              121.3189         estimate D2E/DX2                !
 ! A9    A(4,3,5)              119.2305         estimate D2E/DX2                !
 ! A10   A(3,4,6)              120.2564         estimate D2E/DX2                !
 ! A11   A(3,4,7)              120.0532         estimate D2E/DX2                !
 ! A12   A(6,4,7)              119.6904         estimate D2E/DX2                !
 ! A13   A(3,5,8)              120.4044         estimate D2E/DX2                !
 ! A14   A(3,5,9)              119.0449         estimate D2E/DX2                !
 ! A15   A(8,5,9)              120.542          estimate D2E/DX2                !
 ! A16   A(4,6,10)             120.1974         estimate D2E/DX2                !
 ! A17   A(4,6,11)             119.8087         estimate D2E/DX2                !
 ! A18   A(10,6,11)            119.9939         estimate D2E/DX2                !
 ! A19   A(5,8,10)             120.0929         estimate D2E/DX2                !
 ! A20   A(5,8,12)             119.8505         estimate D2E/DX2                !
 ! A21   A(10,8,12)            120.0565         estimate D2E/DX2                !
 ! A22   A(6,10,8)             119.8174         estimate D2E/DX2                !
 ! A23   A(6,10,13)            120.0965         estimate D2E/DX2                !
 ! A24   A(8,10,13)            120.086          estimate D2E/DX2                !
 ! A25   A(1,14,15)            119.187          estimate D2E/DX2                !
 ! A26   A(1,14,16)            121.6831         estimate D2E/DX2                !
 ! A27   A(15,14,16)           119.1285         estimate D2E/DX2                !
 ! A28   A(14,15,17)           120.3169         estimate D2E/DX2                !
 ! A29   A(14,15,18)           120.0237         estimate D2E/DX2                !
 ! A30   A(17,15,18)           119.6594         estimate D2E/DX2                !
 ! A31   A(14,16,19)           120.4531         estimate D2E/DX2                !
 ! A32   A(14,16,20)           119.0375         estimate D2E/DX2                !
 ! A33   A(19,16,20)           120.5034         estimate D2E/DX2                !
 ! A34   A(15,17,21)           120.2046         estimate D2E/DX2                !
 ! A35   A(15,17,22)           119.7978         estimate D2E/DX2                !
 ! A36   A(21,17,22)           119.9975         estimate D2E/DX2                !
 ! A37   A(16,19,21)           120.1067         estimate D2E/DX2                !
 ! A38   A(16,19,23)           119.8337         estimate D2E/DX2                !
 ! A39   A(21,19,23)           120.0595         estimate D2E/DX2                !
 ! A40   A(17,21,19)           119.7901         estimate D2E/DX2                !
 ! A41   A(17,21,24)           120.1163         estimate D2E/DX2                !
 ! A42   A(19,21,24)           120.0936         estimate D2E/DX2                !
 ! A43   A(1,25,26)            122.2647         estimate D2E/DX2                !
 ! A44   A(1,25,27)            118.6909         estimate D2E/DX2                !
 ! A45   A(26,25,27)           118.978          estimate D2E/DX2                !
 ! A46   A(25,26,28)           120.4111         estimate D2E/DX2                !
 ! A47   A(25,26,29)           119.8789         estimate D2E/DX2                !
 ! A48   A(28,26,29)           119.71           estimate D2E/DX2                !
 ! A49   A(25,27,30)           120.5178         estimate D2E/DX2                !
 ! A50   A(25,27,31)           119.437          estimate D2E/DX2                !
 ! A51   A(30,27,31)           120.0444         estimate D2E/DX2                !
 ! A52   A(26,28,32)           120.2715         estimate D2E/DX2                !
 ! A53   A(26,28,33)           119.69           estimate D2E/DX2                !
 ! A54   A(32,28,33)           120.0384         estimate D2E/DX2                !
 ! A55   A(27,30,32)           120.1331         estimate D2E/DX2                !
 ! A56   A(27,30,34)           119.8478         estimate D2E/DX2                !
 ! A57   A(32,30,34)           120.0191         estimate D2E/DX2                !
 ! A58   A(28,32,30)           119.6877         estimate D2E/DX2                !
 ! A59   A(28,32,35)           120.1922         estimate D2E/DX2                !
 ! A60   A(30,32,35)           120.1201         estimate D2E/DX2                !
 ! D1    D(2,1,3,4)              6.6615         estimate D2E/DX2                !
 ! D2    D(2,1,3,5)           -173.2217         estimate D2E/DX2                !
 ! D3    D(14,1,3,4)          -110.6394         estimate D2E/DX2                !
 ! D4    D(14,1,3,5)            69.4774         estimate D2E/DX2                !
 ! D5    D(25,1,3,4)           121.2402         estimate D2E/DX2                !
 ! D6    D(25,1,3,5)           -58.643          estimate D2E/DX2                !
 ! D7    D(2,1,14,15)           -0.1675         estimate D2E/DX2                !
 ! D8    D(2,1,14,16)         -179.7382         estimate D2E/DX2                !
 ! D9    D(3,1,14,15)          117.3872         estimate D2E/DX2                !
 ! D10   D(3,1,14,16)          -62.1835         estimate D2E/DX2                !
 ! D11   D(25,1,14,15)        -115.9075         estimate D2E/DX2                !
 ! D12   D(25,1,14,16)          64.5218         estimate D2E/DX2                !
 ! D13   D(2,1,25,26)         -107.239          estimate D2E/DX2                !
 ! D14   D(2,1,25,27)           69.7663         estimate D2E/DX2                !
 ! D15   D(3,1,25,26)          136.2121         estimate D2E/DX2                !
 ! D16   D(3,1,25,27)          -46.7827         estimate D2E/DX2                !
 ! D17   D(14,1,25,26)          10.1236         estimate D2E/DX2                !
 ! D18   D(14,1,25,27)        -172.8711         estimate D2E/DX2                !
 ! D19   D(1,3,4,6)           -179.6714         estimate D2E/DX2                !
 ! D20   D(1,3,4,7)              0.3916         estimate D2E/DX2                !
 ! D21   D(5,3,4,6)              0.2142         estimate D2E/DX2                !
 ! D22   D(5,3,4,7)           -179.7228         estimate D2E/DX2                !
 ! D23   D(1,3,5,8)            179.5428         estimate D2E/DX2                !
 ! D24   D(1,3,5,9)             -1.5253         estimate D2E/DX2                !
 ! D25   D(4,3,5,8)             -0.3406         estimate D2E/DX2                !
 ! D26   D(4,3,5,9)            178.5913         estimate D2E/DX2                !
 ! D27   D(3,4,6,10)             0.0816         estimate D2E/DX2                !
 ! D28   D(3,4,6,11)          -179.9377         estimate D2E/DX2                !
 ! D29   D(7,4,6,10)          -179.9811         estimate D2E/DX2                !
 ! D30   D(7,4,6,11)            -0.0004         estimate D2E/DX2                !
 ! D31   D(3,5,8,10)             0.1711         estimate D2E/DX2                !
 ! D32   D(3,5,8,12)          -179.9066         estimate D2E/DX2                !
 ! D33   D(9,5,8,10)          -178.7446         estimate D2E/DX2                !
 ! D34   D(9,5,8,12)             1.1776         estimate D2E/DX2                !
 ! D35   D(4,6,10,8)            -0.2536         estimate D2E/DX2                !
 ! D36   D(4,6,10,13)          179.8604         estimate D2E/DX2                !
 ! D37   D(11,6,10,8)          179.7657         estimate D2E/DX2                !
 ! D38   D(11,6,10,13)          -0.1203         estimate D2E/DX2                !
 ! D39   D(5,8,10,6)             0.1276         estimate D2E/DX2                !
 ! D40   D(5,8,10,13)         -179.9864         estimate D2E/DX2                !
 ! D41   D(12,8,10,6)         -179.7945         estimate D2E/DX2                !
 ! D42   D(12,8,10,13)           0.0915         estimate D2E/DX2                !
 ! D43   D(1,14,15,17)        -179.6414         estimate D2E/DX2                !
 ! D44   D(1,14,15,18)           0.3314         estimate D2E/DX2                !
 ! D45   D(16,14,15,17)         -0.0596         estimate D2E/DX2                !
 ! D46   D(16,14,15,18)        179.9132         estimate D2E/DX2                !
 ! D47   D(1,14,16,19)         179.653          estimate D2E/DX2                !
 ! D48   D(1,14,16,20)           0.542          estimate D2E/DX2                !
 ! D49   D(15,14,16,19)          0.0821         estimate D2E/DX2                !
 ! D50   D(15,14,16,20)       -179.0289         estimate D2E/DX2                !
 ! D51   D(14,15,17,21)         -0.0329         estimate D2E/DX2                !
 ! D52   D(14,15,17,22)        179.9304         estimate D2E/DX2                !
 ! D53   D(18,15,17,21)        179.9942         estimate D2E/DX2                !
 ! D54   D(18,15,17,22)         -0.0425         estimate D2E/DX2                !
 ! D55   D(14,16,19,21)         -0.0121         estimate D2E/DX2                !
 ! D56   D(14,16,19,23)       -179.9025         estimate D2E/DX2                !
 ! D57   D(20,16,19,21)        179.0858         estimate D2E/DX2                !
 ! D58   D(20,16,19,23)         -0.8046         estimate D2E/DX2                !
 ! D59   D(15,17,21,19)          0.1035         estimate D2E/DX2                !
 ! D60   D(15,17,21,24)        179.9988         estimate D2E/DX2                !
 ! D61   D(22,17,21,19)       -179.8597         estimate D2E/DX2                !
 ! D62   D(22,17,21,24)          0.0356         estimate D2E/DX2                !
 ! D63   D(16,19,21,17)         -0.081          estimate D2E/DX2                !
 ! D64   D(16,19,21,24)       -179.9764         estimate D2E/DX2                !
 ! D65   D(23,19,21,17)        179.8091         estimate D2E/DX2                !
 ! D66   D(23,19,21,24)         -0.0863         estimate D2E/DX2                !
 ! D67   D(1,25,26,28)         177.256          estimate D2E/DX2                !
 ! D68   D(1,25,26,29)          -2.8034         estimate D2E/DX2                !
 ! D69   D(27,25,26,28)          0.259          estimate D2E/DX2                !
 ! D70   D(27,25,26,29)       -179.8004         estimate D2E/DX2                !
 ! D71   D(1,25,27,30)        -177.4287         estimate D2E/DX2                !
 ! D72   D(1,25,27,31)           2.8896         estimate D2E/DX2                !
 ! D73   D(26,25,27,30)         -0.3233         estimate D2E/DX2                !
 ! D74   D(26,25,27,31)        179.9949         estimate D2E/DX2                !
 ! D75   D(25,26,28,32)         -0.0714         estimate D2E/DX2                !
 ! D76   D(25,26,28,33)        179.9805         estimate D2E/DX2                !
 ! D77   D(29,26,28,32)        179.9878         estimate D2E/DX2                !
 ! D78   D(29,26,28,33)          0.0397         estimate D2E/DX2                !
 ! D79   D(25,27,30,32)          0.1995         estimate D2E/DX2                !
 ! D80   D(25,27,30,34)       -179.8427         estimate D2E/DX2                !
 ! D81   D(31,27,30,32)        179.8793         estimate D2E/DX2                !
 ! D82   D(31,27,30,34)         -0.1629         estimate D2E/DX2                !
 ! D83   D(26,28,32,30)         -0.0565         estimate D2E/DX2                !
 ! D84   D(26,28,32,35)        179.9932         estimate D2E/DX2                !
 ! D85   D(33,28,32,30)        179.8914         estimate D2E/DX2                !
 ! D86   D(33,28,32,35)         -0.0589         estimate D2E/DX2                !
 ! D87   D(27,30,32,28)         -0.0074         estimate D2E/DX2                !
 ! D88   D(27,30,32,35)        179.9429         estimate D2E/DX2                !
 ! D89   D(34,30,32,28)       -179.9651         estimate D2E/DX2                !
 ! D90   D(34,30,32,35)         -0.0148         estimate D2E/DX2                !
 --------------------------------------------------------------------------------
 Trust Radius=3.00D-01 FncErr=1.00D-07 GrdErr=1.00D-07
 Number of steps in this run= 197 maximum allowed number of steps= 210.
 GradGradGradGradGradGradGradGradGradGradGradGradGradGradGradGradGradGrad

                          Input orientation:                          
 ---------------------------------------------------------------------
 Center     Atomic      Atomic             Coordinates (Angstroms)
 Number     Number       Type             X           Y           Z
 ---------------------------------------------------------------------
      1          6           0       -0.005471    0.234297   -0.740729
      2          1           0       -0.046199    0.603230   -1.800623
      3          6           0       -1.408437    0.263914   -0.183422
      4          6           0       -2.476719    0.570113   -1.028921
      5          6           0       -1.660413   -0.006674    1.163096
      6          6           0       -3.774938    0.608784   -0.531874
      7          1           0       -2.294796    0.780330   -2.089421
      8          6           0       -2.958030    0.035148    1.657863
      9          1           0       -0.818850   -0.270620    1.821741
     10          6           0       -4.017648    0.344330    0.811308
     11          1           0       -4.607210    0.848675   -1.201568
     12          1           0       -3.145065   -0.177064    2.715484
     13          1           0       -5.039937    0.377466    1.201290
     14          6           0        0.518880   -1.179651   -0.771404
     15          6           0        0.839921   -1.760522   -2.000327
     16          6           0        0.683453   -1.926630    0.397437
     17          6           0        1.318144   -3.065209   -2.056552
     18          1           0        0.715043   -1.188012   -2.927067
     19          6           0        1.161830   -3.229777    0.338854
     20          1           0        0.414554   -1.472684    1.364360
     21          6           0        1.480969   -3.801405   -0.888504
     22          1           0        1.566096   -3.512556   -3.024593
     23          1           0        1.285390   -3.806601    1.261174
     24          1           0        1.857478   -4.828246   -0.934442
     25          6           0        0.895992    1.212073   -0.028331
     26          6           0        2.192028    0.879446    0.364885
     27          6           0        0.435108    2.514929    0.189023
     28          6           0        3.010247    1.828785    0.968739
     29          1           0        2.569848   -0.137373    0.198465
     30          6           0        1.252982    3.460618    0.793119
     31          1           0       -0.582771    2.784701   -0.117321
     32          6           0        2.543915    3.119633    1.184822
     33          1           0        4.025655    1.554750    1.273054
     34          1           0        0.880197    4.476296    0.960245
     35          1           0        3.188756    3.865509    1.660142
 ---------------------------------------------------------------------
                    Distance matrix (angstroms):
                    1          2          3          4          5
     1  C    0.000000
     2  H    1.123008   0.000000
     3  C    1.509894   2.141534   0.000000
     4  C    2.510557   2.550304   1.396372   0.000000
     5  C    2.534057   3.429475   1.396359   2.409145   0.000000
     6  C    3.793776   3.938686   2.416750   1.390655   2.779015
     7  H    2.712588   2.273974   2.164521   1.096334   3.405978
     8  C    3.809266   4.556600   2.417417   2.781485   1.389372
     9  H    2.735467   3.805539   2.157317   3.403180   1.100776
    10  C    4.303311   4.760422   2.793552   2.410784   2.409049
    11  H    4.665387   4.606727   3.407451   2.155550   3.873871
    12  H    4.687396   5.532364   3.407931   3.876278   2.154794
    13  H    5.397942   5.830941   3.888202   3.403092   3.401501
    14  C    1.508355   2.134778   2.478740   3.478737   3.141255
    15  C    2.506107   2.532275   3.529107   4.168404   4.397146
    16  C    2.537645   3.429877   3.084134   4.272577   3.125088
    17  C    3.790789   3.922293   4.693177   5.354678   5.347202
    18  H    2.705952   2.248759   3.760963   4.108687   4.875221
    19  C    3.811548   4.552872   4.368629   5.435901   4.362662
    20  H    2.742555   3.812983   2.955452   4.273205   2.548564
    21  C    4.303281   4.750265   5.037124   5.898575   5.336415
    22  H    4.660983   4.586643   5.584069   6.082372   6.343367
    23  H    4.690714   5.531216   5.090447   6.209157   4.809035
    24  H    5.397911   5.820240   6.095926   6.923617   6.326356
    25  C    1.508706   2.097482   2.496688   3.576097   3.072465
    26  C    2.543149   3.126561   3.693626   4.882170   4.032821
    27  C    2.501966   2.800882   2.933333   3.707349   3.420308
    28  C    3.815656   4.302698   4.827118   5.973416   5.022125
    29  H    2.766314   3.374692   4.016667   5.241646   4.340818
    30  C    3.787552   4.071859   4.272669   5.058213   4.543882
    31  H    2.688210   2.807174   2.653387   3.053270   3.254620
    32  C    4.304914   4.685495   5.064416   6.050412   5.239336
    33  H    4.695625   5.189689   5.772082   6.967745   5.897584
    34  H    4.655350   4.845745   4.928487   5.521226   5.156827
    35  H    5.399350   5.751895   6.124084   7.084371   6.225375
                    6          7          8          9         10
     6  C    0.000000
     7  H    2.155505   0.000000
     8  C    2.406521   3.877797   0.000000
     9  H    3.879601   4.310464   2.167128   0.000000
    10  C    1.390317   3.401844   1.391056   3.410490   0.000000
    11  H    1.094859   2.477945   3.399701   4.974424   2.157224
    12  H    3.399945   4.972592   1.094796   2.493753   2.158504
    13  H    2.158144   4.304285   2.158698   4.315385   1.094651
    14  C    4.657547   3.673619   4.412027   3.056184   5.040593
    15  C    5.391371   4.036127   5.570567   4.424876   5.994302
    16  C    5.212407   4.730969   4.324078   2.651024   5.237260
    17  C    6.462379   5.276608   6.457148   5.236184   6.951276
    18  H    5.396791   3.692581   6.000764   5.074013   6.222690
    19  C    6.313826   5.824581   5.419665   3.857286   6.310661
    20  H    5.047777   4.934092   3.705945   1.781977   4.822014
    21  C    6.870335   6.057302   6.395923   5.010094   7.093043
    22  H    7.192060   5.848924   7.414804   6.299609   7.795376
    23  H    6.951083   6.714474   5.737858   4.152737   6.749431
    24  H    7.838843   7.073294   7.318590   5.960808   8.019992
    25  C    4.736570   3.823038   4.368282   2.926060   5.059824
    26  C    6.040043   5.115177   5.376591   3.537014   6.248657
    27  C    4.677346   3.956327   4.451988   3.463735   4.992572
    28  C    7.055421   6.212494   6.269957   4.449393   7.184685
    29  H    6.430120   5.453564   5.719881   3.759794   6.633454
    30  C    5.930307   5.299029   5.496749   4.390067   6.122999
    31  H    3.885408   3.292068   4.043906   3.626386   4.314643
    32  C    7.012796   6.293341   6.325284   4.817434   7.134138
    33  H    8.062373   7.200976   7.157452   5.205983   8.146965
    34  H    6.233326   5.748148   5.911215   5.114895   6.409697
    35  H    7.994012   7.324404   7.242559   5.761474   8.065450
                   11         12         13         14         15
    11  H    0.000000
    12  H    4.305033   0.000000
    13  H    2.486567   2.488137   0.000000
    14  C    5.529553   5.156362   6.100540   0.000000
    15  C    6.092386   6.373878   7.028091   1.396685   0.000000
    16  C    6.184679   4.805401   6.221915   1.396872   2.408598
    17  C    7.152573   7.143804   7.930368   2.417800   1.390708
    18  H    5.954143   6.910921   7.253540   2.164586   1.096453
    19  C    7.231079   5.789367   7.226196   2.418486   2.781026
    20  H    6.098427   4.021822   5.762041   2.158296   3.403661
    21  C    7.667280   6.893821   8.021995   2.795160   2.410871
    22  H    7.775183   8.140579   8.753858   3.408220   2.155476
    23  H    7.903128   5.909102   7.584179   3.408779   3.875857
    24  H    8.607612   7.744733   8.901411   3.889816   3.403302
    25  C    5.638597   5.078224   6.119133   2.532729   3.567664
    26  C    6.977418   5.926727   7.297457   2.886253   3.793659
    27  C    5.489547   5.142710   5.964021   3.818293   4.820436
    28  C    7.981009   6.705402   8.183268   4.276178   5.138948
    29  H    7.378519   6.244773   7.692824   2.496689   3.234492
    30  C    6.718845   6.022544   7.019491   4.951640   5.935845
    31  H    4.595640   4.833444   5.234486   4.166239   5.121407
    32  C    7.873418   6.750973   8.064401   5.139205   6.071629
    33  H    9.008255   7.516582   9.141997   4.894305   5.644018
    34  H    6.924212   6.398231   7.204617   5.926120   6.903948
    35  H    8.835597   7.587716   8.949212   6.204377   7.111138
                   16         17         18         19         20
    16  C    0.000000
    17  C    2.778715   0.000000
    18  H    3.405713   2.155318   0.000000
    19  C    1.389413   2.406135   3.877456   0.000000
    20  H    1.101506   3.880110   4.311343   2.167362   0.000000
    21  C    2.409244   1.390264   3.401795   1.391048   3.411096
    22  H    3.873565   1.094853   2.477359   3.399437   4.974941
    23  H    2.154683   3.399712   4.972290   1.094836   2.493225
    24  H    3.401707   2.158312   4.304302   2.158775   4.315821
    25  C    3.174572   4.752582   3.767734   4.464921   3.062563
    26  C    3.186051   4.710344   4.158464   4.236472   3.113018
    27  C    4.453376   6.079499   4.847696   5.792428   4.157271
    28  C    4.454605   5.997231   5.435654   5.422403   4.218275
    29  H    2.607588   3.901805   3.783265   3.400762   2.790638
    30  C    5.431701   7.121186   5.978205   6.706419   5.036542
    31  H    4.905603   6.449460   5.036015   6.278986   4.616856
    32  C    5.435629   7.089520   6.229624   6.552925   5.065155
    33  H    4.904796   6.305625   6.010317   5.653841   4.713146
    34  H    6.430624   8.134320   6.871889   7.736214   5.980845
    35  H    6.435825   8.083802   7.259465   7.496487   6.023288
                   21         22         23         24         25
    21  C    0.000000
    22  H    2.157211   0.000000
    23  H    2.158562   4.305004   0.000000
    24  H    1.094656   2.486901   2.488327   0.000000
    25  C    5.120260   5.634602   5.196301   6.183117   0.000000
    26  C    4.897648   5.583014   4.856373   5.863269   1.394622
    27  C    6.492378   6.923658   6.467939   7.563566   1.398961
    28  C    6.122670   6.823650   5.900697   7.019048   2.417552
    29  H    3.973952   4.773623   4.030188   4.878036   2.161998
    30  C    7.457669   7.956012   7.282349   8.488530   2.420368
    31  H    6.944821   7.261219   6.988242   8.036134   2.160513
    32  C    7.302692   7.915885   7.040059   8.254165   2.797531
    33  H    6.311589   7.084969   6.021069   7.093424   3.406732
    34  H    8.502890   8.953835   8.298261   9.545649   3.410673
    35  H    8.257949   8.889073   7.914749   9.169817   3.892099
                   26         27         28         29         30
    26  C    0.000000
    27  C    2.406761   0.000000
    28  C    1.391174   2.776705   0.000000
    29  H    1.097435   3.404689   2.157094   0.000000
    30  C    2.779864   1.388588   2.404517   3.877279   0.000000
    31  H    3.400298   1.096677   3.873380   4.310132   2.157719
    32  C    2.411339   2.409222   1.389404   3.403184   1.391478
    33  H    2.154760   3.871575   1.094877   2.477377   3.398586
    34  H    3.874621   2.154031   3.398014   4.972039   1.094761
    35  H    3.404076   3.401593   2.158274   4.306114   2.159372
                   31         32         33         34         35
    31  H    0.000000
    32  C    3.403516   0.000000
    33  H    4.968249   2.156894   0.000000
    34  H    2.482523   2.158455   4.304321   0.000000
    35  H    4.307196   1.094569   2.487940   2.488445   0.000000
 Stoichiometry    C19H16
 Framework group  C1[X(C19H16)]
 Deg. of freedom    99
 Full point group                 C1      NOp   1
 Largest Abelian subgroup         C1      NOp   1
 Largest concise Abelian subgroup C1      NOp   1
                         Standard orientation:                         
 ---------------------------------------------------------------------
 Center     Atomic      Atomic             Coordinates (Angstroms)
 Number     Number       Type             X           Y           Z
 ---------------------------------------------------------------------
      1          6           0        0.009410    0.013490   -0.762332
      2          1           0       -0.018231    0.018452   -1.884989
      3          6           0       -0.763586   -1.191749   -0.283106
      4          6           0       -1.228534   -2.123549   -1.213389
      5          6           0       -1.025942   -1.393377    1.073483
      6          6           0       -1.948115   -3.236126   -0.791135
      7          1           0       -1.026318   -1.980935   -2.281433
      8          6           0       -1.747325   -2.504361    1.492622
      9          1           0       -0.637947   -0.669320    1.806223
     10          6           0       -2.210915   -3.427189    0.560683
     11          1           0       -2.308314   -3.962644   -1.526760
     12          1           0       -1.949124   -2.652720    2.558382
     13          1           0       -2.779454   -4.302348    0.891017
     14          6           0        1.454945   -0.087843   -0.343649
     15          6           0        2.445313   -0.157398   -1.326024
     16          6           0        1.828306   -0.122817    1.001947
     17          6           0        3.784892   -0.258838   -0.966433
     18          1           0        2.168635   -0.132599   -2.386704
     19          6           0        3.167306   -0.223731    1.358828
     20          1           0        1.044927   -0.084149    1.775340
     21          6           0        4.148468   -0.291100    0.375061
     22          1           0        4.554163   -0.313962   -1.743535
     23          1           0        3.448430   -0.251930    2.416581
     24          1           0        5.203312   -0.370992    0.656471
     25          6           0       -0.662458    1.301821   -0.356143
     26          6           0        0.051420    2.383655    0.158623
     27          6           0       -2.039901    1.434669   -0.561311
     28          6           0       -0.599283    3.573789    0.467705
     29          1           0        1.133088    2.296756    0.322349
     30          6           0       -2.687674    2.623032   -0.250892
     31          1           0       -2.608632    0.588739   -0.965845
     32          6           0       -1.968292    3.696682    0.264835
     33          1           0       -0.027325    4.415536    0.871538
     34          1           0       -3.766461    2.714111   -0.413448
     35          1           0       -2.478964    4.633638    0.508576
 ---------------------------------------------------------------------
 Rotational constants (GHZ):      0.4036011      0.3828845      0.2325141
 Standard basis: 6-311G (5D, 7F)
 There are   295 symmetry adapted basis functions of A   symmetry.
 Integral buffers will be    262144 words long.
 Raffenetti 1 integral format.
 Two-electron integral symmetry is turned on.
   295 basis functions,   574 primitive gaussians,   295 cartesian basis functions
    65 alpha electrons       65 beta electrons
       nuclear repulsion energy      1290.8198041773 Hartrees.
 NAtoms=   35 NActive=   35 NUniq=   35 SFac= 7.50D-01 NAtFMM=   80 NAOKFM=F Big=F
 One-electron integrals computed using PRISM.
 PrsmSu:  requested number of processors reduced to:  10 ShMem   1 Linda.
 NBasis=   295 RedAO= T  NBF=   295
 NBsUse=   295 1.00D-06 NBFU=   295
 Harris functional with IExCor=  205 diagonalized for initial guess.
 ExpMin= 1.03D-01 ExpMax= 4.56D+03 ExpMxC= 6.82D+02 IAcc=1 IRadAn=         1 AccDes= 0.00D+00
 HarFok:  IExCor=  205 AccDes= 0.00D+00 IRadAn=         1 IDoV= 1
 ScaDFX=  1.000000  1.000000  1.000000  1.000000
 FoFCou: FMM=F IPFlag=           0 FMFlag=      100000 FMFlg1=           0
         NFxFlg=           0 DoJE=T BraDBF=F KetDBF=T FulRan=T
         Omega=  0.000000  0.000000  1.000000  0.000000  0.000000 ICntrl=     500 IOpCl=  0
         NMat0=    1 NMatS0=    1 NMatT0=    0 NMatD0=    1 NMtDS0=    0 NMtDT0=    0
         I1Cent=           4 NGrid=           0.
 Petite list used in FoFCou.
 Initial guess orbital symmetries:
       Occupied  (A) (A) (A) (A) (A) (A) (A) (A) (A) (A) (A) (A)
                 (A) (A) (A) (A) (A) (A) (A) (A) (A) (A) (A) (A)
                 (A) (A) (A) (A) (A) (A) (A) (A) (A) (A) (A) (A)
                 (A) (A) (A) (A) (A) (A) (A) (A) (A) (A) (A) (A)
                 (A) (A) (A) (A) (A) (A) (A) (A) (A) (A) (A) (A)
                 (A) (A) (A) (A) (A)
       Virtual   (A) (A) (A) (A) (A) (A) (A) (A) (A) (A) (A) (A)
                 (A) (A) (A) (A) (A) (A) (A) (A) (A) (A) (A) (A)
                 (A) (A) (A) (A) (A) (A) (A) (A) (A) (A) (A) (A)
                 (A) (A) (A) (A) (A) (A) (A) (A) (A) (A) (A) (A)
                 (A) (A) (A) (A) (A) (A) (A) (A) (A) (A) (A) (A)
                 (A) (A) (A) (A) (A) (A) (A) (A) (A) (A) (A) (A)
                 (A) (A) (A) (A) (A) (A) (A) (A) (A) (A) (A) (A)
                 (A) (A) (A) (A) (A) (A) (A) (A) (A) (A) (A) (A)
                 (A) (A) (A) (A) (A) (A) (A) (A) (A) (A) (A) (A)
                 (A) (A) (A) (A) (A) (A) (A) (A) (A) (A) (A) (A)
                 (A) (A) (A) (A) (A) (A) (A) (A) (A) (A) (A) (A)
                 (A) (A) (A) (A) (A) (A) (A) (A) (A) (A) (A) (A)
                 (A) (A) (A) (A) (A) (A) (A) (A) (A) (A) (A) (A)
                 (A) (A) (A) (A) (A) (A) (A) (A) (A) (A) (A) (A)
                 (A) (A) (A) (A) (A) (A) (A) (A) (A) (A) (A) (A)
                 (A) (A) (A) (A) (A) (A) (A) (A) (A) (A) (A) (A)
                 (A) (A) (A) (A) (A) (A) (A) (A) (A) (A) (A) (A)
                 (A) (A) (A) (A) (A) (A) (A) (A) (A) (A) (A) (A)
                 (A) (A) (A) (A) (A) (A) (A) (A) (A) (A) (A) (A)
                 (A) (A)
 The electronic state of the initial guess is 1-A.
 Requested convergence on RMS density matrix=1.00D-08 within 128 cycles.
 Requested convergence on MAX density matrix=1.00D-06.
 Requested convergence on             energy=1.00D-06.
 No special actions if energy rises.
 Integral accuracy reduced to 1.0D-05 until final iterations.
 Initial convergence to 1.0D-05 achieved.  Increase integral accuracy.
 SCF Done:  E(RHF) =  -728.672456895     A.U. after   14 cycles
             Convg  =    0.8849D-08             -V/T =  2.0001

 **********************************************************************

            Population analysis using the SCF density.

 **********************************************************************

 Orbital symmetries:
       Occupied  (A) (A) (A) (A) (A) (A) (A) (A) (A) (A) (A) (A)
                 (A) (A) (A) (A) (A) (A) (A) (A) (A) (A) (A) (A)
                 (A) (A) (A) (A) (A) (A) (A) (A) (A) (A) (A) (A)
                 (A) (A) (A) (A) (A) (A) (A) (A) (A) (A) (A) (A)
                 (A) (A) (A) (A) (A) (A) (A) (A) (A) (A) (A) (A)
                 (A) (A) (A) (A) (A)
       Virtual   (A) (A) (A) (A) (A) (A) (A) (A) (A) (A) (A) (A)
                 (A) (A) (A) (A) (A) (A) (A) (A) (A) (A) (A) (A)
                 (A) (A) (A) (A) (A) (A) (A) (A) (A) (A) (A) (A)
                 (A) (A) (A) (A) (A) (A) (A) (A) (A) (A) (A) (A)
                 (A) (A) (A) (A) (A) (A) (A) (A) (A) (A) (A) (A)
                 (A) (A) (A) (A) (A) (A) (A) (A) (A) (A) (A) (A)
                 (A) (A) (A) (A) (A) (A) (A) (A) (A) (A) (A) (A)
                 (A) (A) (A) (A) (A) (A) (A) (A) (A) (A) (A) (A)
                 (A) (A) (A) (A) (A) (A) (A) (A) (A) (A) (A) (A)
                 (A) (A) (A) (A) (A) (A) (A) (A) (A) (A) (A) (A)
                 (A) (A) (A) (A) (A) (A) (A) (A) (A) (A) (A) (A)
                 (A) (A) (A) (A) (A) (A) (A) (A) (A) (A) (A) (A)
                 (A) (A) (A) (A) (A) (A) (A) (A) (A) (A) (A) (A)
                 (A) (A) (A) (A) (A) (A) (A) (A) (A) (A) (A) (A)
                 (A) (A) (A) (A) (A) (A) (A) (A) (A) (A) (A) (A)
                 (A) (A) (A) (A) (A) (A) (A) (A) (A) (A) (A) (A)
                 (A) (A) (A) (A) (A) (A) (A) (A) (A) (A) (A) (A)
                 (A) (A) (A) (A) (A) (A) (A) (A) (A) (A) (A) (A)
                 (A) (A) (A) (A) (A) (A) (A) (A) (A) (A) (A) (A)
                 (A) (A)
 The electronic state is 1-A.
 Alpha  occ. eigenvalues --  -11.25758 -11.25228 -11.25183 -11.24911 -11.24519
 Alpha  occ. eigenvalues --  -11.24433 -11.24423 -11.24375 -11.24220 -11.24165
 Alpha  occ. eigenvalues --  -11.24140 -11.24125 -11.24076 -11.24039 -11.24023
 Alpha  occ. eigenvalues --  -11.23966 -11.23730 -11.23621 -11.23503  -1.18617
 Alpha  occ. eigenvalues --   -1.15872  -1.15569  -1.09027  -1.02373  -1.02241
 Alpha  occ. eigenvalues --   -1.01877  -1.01487  -1.01078  -0.92918  -0.84271
 Alpha  occ. eigenvalues --   -0.83372  -0.82315  -0.81934  -0.81118  -0.77580
 Alpha  occ. eigenvalues --   -0.70873  -0.70363  -0.68983  -0.65669  -0.63906
 Alpha  occ. eigenvalues --   -0.63617  -0.62518  -0.61697  -0.61567  -0.59727
 Alpha  occ. eigenvalues --   -0.58847  -0.58495  -0.58312  -0.56721  -0.55133
 Alpha  occ. eigenvalues --   -0.51723  -0.50907  -0.50208  -0.49870  -0.49376
 Alpha  occ. eigenvalues --   -0.48409  -0.47973  -0.47496  -0.46308  -0.35034
 Alpha  occ. eigenvalues --   -0.34319  -0.33980  -0.33321  -0.32486  -0.31487
 Alpha virt. eigenvalues --    0.11554   0.12298   0.12709   0.13469   0.15015
 Alpha virt. eigenvalues --    0.15153   0.15676   0.16238   0.16487   0.16909
 Alpha virt. eigenvalues --    0.18904   0.19186   0.19238   0.21228   0.21290
 Alpha virt. eigenvalues --    0.21600   0.23551   0.24028   0.24906   0.25398
 Alpha virt. eigenvalues --    0.26721   0.31608   0.33101   0.34225   0.35778
 Alpha virt. eigenvalues --    0.37625   0.39737   0.40597   0.41480   0.43076
 Alpha virt. eigenvalues --    0.44095   0.44429   0.44964   0.45433   0.45588
 Alpha virt. eigenvalues --    0.45883   0.46752   0.47252   0.47892   0.50607
 Alpha virt. eigenvalues --    0.51046   0.51406   0.52277   0.54985   0.56115
 Alpha virt. eigenvalues --    0.57285   0.57829   0.58527   0.58834   0.59348
 Alpha virt. eigenvalues --    0.60274   0.60469   0.60640   0.61124   0.61486
 Alpha virt. eigenvalues --    0.62032   0.62180   0.62953   0.63281   0.63645
 Alpha virt. eigenvalues --    0.64244   0.64611   0.65221   0.65953   0.66384
 Alpha virt. eigenvalues --    0.67264   0.67832   0.68590   0.69816   0.72345
 Alpha virt. eigenvalues --    0.73091   0.73892   0.74598   0.75353   0.75740
 Alpha virt. eigenvalues --    0.76834   0.78834   0.79455   0.79995   0.81200
 Alpha virt. eigenvalues --    0.81500   0.82239   0.82489   0.82879   0.83349
 Alpha virt. eigenvalues --    0.83841   0.84379   0.84888   0.85035   0.85476
 Alpha virt. eigenvalues --    0.85890   0.86176   0.86536   0.87801   0.88126
 Alpha virt. eigenvalues --    0.90141   0.90888   0.92134   0.93538   0.95090
 Alpha virt. eigenvalues --    0.95898   0.96321   0.96993   0.98287   0.99765
 Alpha virt. eigenvalues --    1.00145   1.02368   1.03101   1.04934   1.06224
 Alpha virt. eigenvalues --    1.07143   1.08071   1.09421   1.10048   1.11004
 Alpha virt. eigenvalues --    1.11589   1.11738   1.12372   1.12839   1.13788
 Alpha virt. eigenvalues --    1.15019   1.16476   1.19887   1.20514   1.21389
 Alpha virt. eigenvalues --    1.23605   1.25477   1.27417   1.27928   1.29129
 Alpha virt. eigenvalues --    1.29465   1.31884   1.32736   1.47016   1.47808
 Alpha virt. eigenvalues --    1.51885   1.54291   1.56777   2.53502   2.55714
 Alpha virt. eigenvalues --    2.56001   2.57748   2.62085   2.62389   2.63864
 Alpha virt. eigenvalues --    2.66490   2.67045   2.68435   2.72185   2.74266
 Alpha virt. eigenvalues --    2.78347   2.83365   2.86761   2.91851   2.94348
 Alpha virt. eigenvalues --    2.94627   2.94745   2.96019   2.98176   2.98592
 Alpha virt. eigenvalues --    2.99907   3.02291   3.03939   3.04363   3.06585
 Alpha virt. eigenvalues --    3.08467   3.09319   3.09878   3.10034   3.13210
 Alpha virt. eigenvalues --    3.15089   3.16099   3.17769   3.18379   3.19466
 Alpha virt. eigenvalues --    3.21630   3.24065   3.24952   3.27713   3.28785
 Alpha virt. eigenvalues --    3.31507   3.33879   3.34398   3.35742   3.40758
 Alpha virt. eigenvalues --    3.41211   3.44155   3.44999   3.49974   3.52636
 Alpha virt. eigenvalues --    3.53539   3.56006   3.57698   3.58415   3.59479
 Alpha virt. eigenvalues --    3.62447   3.63985   3.65121   3.66254   3.66912
 Alpha virt. eigenvalues --    3.67706   3.69219   3.71265   3.72135   3.74449
 Alpha virt. eigenvalues --    3.76569   3.77567   3.78407   3.85670   3.88167
 Alpha virt. eigenvalues --    3.90993  24.26122  24.30011  24.31700  24.50547
 Alpha virt. eigenvalues --   24.50773  24.51049  24.52984  24.54623  24.56469
 Alpha virt. eigenvalues --   24.76127  24.77052  24.79107  24.80212  24.80779
 Alpha virt. eigenvalues --   24.82884  24.87562  25.04642  25.05787  25.07117
          Condensed to atoms (all electrons):
              1          2          3          4          5          6
     1  C    6.118111   0.472023   0.146924  -0.024602  -0.057043   0.006852
     2  H    0.472023   0.501776  -0.070230   0.001914   0.005361   0.001540
     3  C    0.146924  -0.070230   5.394254   0.492028   0.448893  -0.074089
     4  C   -0.024602   0.001914   0.492028   5.091007  -0.072171   0.454834
     5  C   -0.057043   0.005361   0.448893  -0.072171   5.067599  -0.026380
     6  C    0.006852   0.001540  -0.074089   0.454834  -0.026380   5.058723
     7  H   -0.000162   0.002407  -0.050593   0.400322   0.004345  -0.034735
     8  C    0.003391  -0.000258  -0.058075  -0.030689   0.478715  -0.078750
     9  H    0.000018   0.000099  -0.044413   0.004119   0.388484   0.000029
    10  C    0.001278   0.000000  -0.018751  -0.086568  -0.091426   0.498086
    11  H   -0.000340  -0.000039   0.006918  -0.039650  -0.000687   0.396915
    12  H   -0.000351   0.000011   0.006020  -0.000473  -0.038873   0.005963
    13  H   -0.000013  -0.000001  -0.001553   0.007495   0.007899  -0.042560
    14  C    0.116929  -0.074675  -0.143325  -0.002317  -0.003147  -0.000518
    15  C   -0.023811   0.006310  -0.004623   0.000633   0.000758  -0.000018
    16  C   -0.072980   0.004440  -0.003123   0.000521  -0.011612   0.000124
    17  C    0.008154   0.001448  -0.000580  -0.000013   0.000058   0.000002
    18  H   -0.002005   0.002836   0.000149   0.000227  -0.000025  -0.000002
    19  C    0.002839  -0.000224   0.001966   0.000041  -0.000103   0.000001
    20  H    0.000524  -0.000013  -0.003778  -0.000211   0.001753  -0.000054
    21  C    0.001668   0.000006  -0.000066  -0.000013  -0.000007   0.000000
    22  H   -0.000405  -0.000034   0.000021   0.000001  -0.000001   0.000000
    23  H   -0.000372   0.000011   0.000029   0.000002   0.000039   0.000000
    24  H   -0.000026  -0.000002  -0.000002   0.000000   0.000001   0.000000
    25  C    0.031249  -0.062164  -0.091580  -0.001270  -0.006338  -0.000433
    26  C   -0.032865   0.000525   0.002181  -0.000446   0.001629   0.000019
    27  C   -0.085258  -0.004613  -0.007718   0.000558  -0.009698  -0.000086
    28  C    0.012347  -0.000104  -0.000831   0.000007   0.000050   0.000000
    29  H   -0.011464  -0.000268   0.000446  -0.000016   0.000047   0.000000
    30  C    0.008690   0.000559  -0.001705  -0.000050  -0.000350   0.000013
    31  H   -0.003749  -0.000134   0.004194   0.001457  -0.000639   0.000116
    32  C    0.000345   0.000037   0.000131  -0.000003   0.000032   0.000000
    33  H   -0.000363   0.000014   0.000012   0.000000   0.000000   0.000000
    34  H   -0.000356   0.000006   0.000017  -0.000004   0.000014   0.000000
    35  H   -0.000014  -0.000002   0.000002   0.000000   0.000000   0.000000
              7          8          9         10         11         12
     1  C   -0.000162   0.003391   0.000018   0.001278  -0.000340  -0.000351
     2  H    0.002407  -0.000258   0.000099   0.000000  -0.000039   0.000011
     3  C   -0.050593  -0.058075  -0.044413  -0.018751   0.006918   0.006020
     4  C    0.400322  -0.030689   0.004119  -0.086568  -0.039650  -0.000473
     5  C    0.004345   0.478715   0.388484  -0.091426  -0.000687  -0.038873
     6  C   -0.034735  -0.078750   0.000029   0.498086   0.396915   0.005963
     7  H    0.509442  -0.000281  -0.000273   0.005229  -0.004198   0.000025
     8  C   -0.000281   5.041177  -0.028594   0.491089   0.006244   0.397240
     9  H   -0.000273  -0.028594   0.497403   0.004555   0.000014  -0.003321
    10  C    0.005229   0.491089   0.004555   5.034105  -0.040689  -0.039846
    11  H   -0.004198   0.006244   0.000014  -0.040689   0.518079  -0.000205
    12  H    0.000025   0.397240  -0.003321  -0.039846  -0.000205   0.514752
    13  H   -0.000184  -0.042925  -0.000173   0.399652  -0.004587  -0.004466
    14  C    0.000335   0.001897  -0.002914  -0.000088   0.000025   0.000028
    15  C    0.000279   0.000028  -0.000199  -0.000009   0.000001   0.000001
    16  C   -0.000008  -0.000357  -0.000806  -0.000026   0.000000   0.000056
    17  C    0.000006   0.000000  -0.000002   0.000000   0.000000   0.000000
    18  H    0.000071   0.000001  -0.000001  -0.000001   0.000000   0.000000
    19  C   -0.000001  -0.000101   0.000895   0.000001   0.000000   0.000002
    20  H    0.000001   0.001126   0.001442   0.000001   0.000001  -0.000055
    21  C   -0.000002   0.000002  -0.000015   0.000000   0.000000   0.000000
    22  H    0.000000   0.000000   0.000000   0.000000   0.000000   0.000000
    23  H    0.000000   0.000000  -0.000032   0.000000   0.000000   0.000001
    24  H    0.000000   0.000000   0.000000   0.000000   0.000000   0.000000
    25  C    0.000162  -0.000525   0.001204   0.000034   0.000011   0.000025
    26  C   -0.000032   0.000017  -0.000228  -0.000002   0.000000   0.000000
    27  C    0.000281  -0.000367   0.000435   0.000122  -0.000003   0.000015
    28  C    0.000000   0.000004  -0.000122   0.000000   0.000000   0.000000
    29  H    0.000001   0.000000   0.000028   0.000000   0.000000   0.000000
    30  C   -0.000008  -0.000012   0.000089   0.000002   0.000000   0.000001
    31  H    0.000197  -0.000278  -0.000045  -0.000080   0.000007   0.000005
    32  C    0.000001   0.000002  -0.000037   0.000000   0.000000   0.000000
    33  H    0.000000   0.000000  -0.000001   0.000000   0.000000   0.000000
    34  H    0.000000   0.000002   0.000005   0.000000   0.000000   0.000000
    35  H    0.000000   0.000000   0.000001   0.000000   0.000000   0.000000
             13         14         15         16         17         18
     1  C   -0.000013   0.116929  -0.023811  -0.072980   0.008154  -0.002005
     2  H   -0.000001  -0.074675   0.006310   0.004440   0.001448   0.002836
     3  C   -0.001553  -0.143325  -0.004623  -0.003123  -0.000580   0.000149
     4  C    0.007495  -0.002317   0.000633   0.000521  -0.000013   0.000227
     5  C    0.007899  -0.003147   0.000758  -0.011612   0.000058  -0.000025
     6  C   -0.042560  -0.000518  -0.000018   0.000124   0.000002  -0.000002
     7  H   -0.000184   0.000335   0.000279  -0.000008   0.000006   0.000071
     8  C   -0.042925   0.001897   0.000028  -0.000357   0.000000   0.000001
     9  H   -0.000173  -0.002914  -0.000199  -0.000806  -0.000002  -0.000001
    10  C    0.399652  -0.000088  -0.000009  -0.000026   0.000000  -0.000001
    11  H   -0.004587   0.000025   0.000001   0.000000   0.000000   0.000000
    12  H   -0.004466   0.000028   0.000001   0.000056   0.000000   0.000000
    13  H    0.517388  -0.000003   0.000000   0.000000   0.000000   0.000000
    14  C   -0.000003   5.396864   0.497511   0.451250  -0.076612  -0.045968
    15  C    0.000000   0.497511   5.051090  -0.063883   0.467512   0.394851
    16  C    0.000000   0.451250  -0.063883   5.095236  -0.029426   0.004755
    17  C    0.000000  -0.076612   0.467512  -0.029426   5.047980  -0.033775
    18  H    0.000000  -0.045968   0.394851   0.004755  -0.033775   0.506661
    19  C    0.000000  -0.063197  -0.033752   0.480244  -0.077449  -0.000286
    20  H    0.000000  -0.047100   0.004595   0.386325  -0.000116  -0.000271
    21  C    0.000000  -0.016255  -0.088955  -0.093488   0.499851   0.005067
    22  H    0.000000   0.006997  -0.039428  -0.000634   0.396354  -0.004074
    23  H    0.000000   0.005978  -0.000382  -0.038561   0.005900   0.000025
    24  H    0.000000  -0.001683   0.007571   0.007989  -0.042546  -0.000178
    25  C    0.000001  -0.064726  -0.000322   0.006700  -0.000753   0.000488
    26  C    0.000000  -0.012730   0.000894  -0.018680   0.000330   0.000130
    27  C    0.000000   0.011451  -0.000297   0.000915   0.000006   0.000012
    28  C    0.000000  -0.001694  -0.000110  -0.000997   0.000005   0.000003
    29  H    0.000000   0.001271  -0.000980  -0.000898  -0.000127   0.000098
    30  C    0.000000  -0.000882   0.000009  -0.000023   0.000000   0.000000
    31  H    0.000001   0.000794  -0.000006  -0.000040   0.000000  -0.000001
    32  C    0.000000   0.000125  -0.000004  -0.000014   0.000000   0.000000
    33  H    0.000000   0.000058   0.000003   0.000024   0.000000   0.000000
    34  H    0.000000   0.000012   0.000000   0.000000   0.000000   0.000000
    35  H    0.000000   0.000001   0.000000   0.000001   0.000000   0.000000
             19         20         21         22         23         24
     1  C    0.002839   0.000524   0.001668  -0.000405  -0.000372  -0.000026
     2  H   -0.000224  -0.000013   0.000006  -0.000034   0.000011  -0.000002
     3  C    0.001966  -0.003778  -0.000066   0.000021   0.000029  -0.000002
     4  C    0.000041  -0.000211  -0.000013   0.000001   0.000002   0.000000
     5  C   -0.000103   0.001753  -0.000007  -0.000001   0.000039   0.000001
     6  C    0.000001  -0.000054   0.000000   0.000000   0.000000   0.000000
     7  H   -0.000001   0.000001  -0.000002   0.000000   0.000000   0.000000
     8  C   -0.000101   0.001126   0.000002   0.000000   0.000000   0.000000
     9  H    0.000895   0.001442  -0.000015   0.000000  -0.000032   0.000000
    10  C    0.000001   0.000001   0.000000   0.000000   0.000000   0.000000
    11  H    0.000000   0.000001   0.000000   0.000000   0.000000   0.000000
    12  H    0.000002  -0.000055   0.000000   0.000000   0.000001   0.000000
    13  H    0.000000   0.000000   0.000000   0.000000   0.000000   0.000000
    14  C   -0.063197  -0.047100  -0.016255   0.006997   0.005978  -0.001683
    15  C   -0.033752   0.004595  -0.088955  -0.039428  -0.000382   0.007571
    16  C    0.480244   0.386325  -0.093488  -0.000634  -0.038561   0.007989
    17  C   -0.077449  -0.000116   0.499851   0.396354   0.005900  -0.042546
    18  H   -0.000286  -0.000271   0.005067  -0.004074   0.000025  -0.000178
    19  C    5.046155  -0.027297   0.490263   0.006266   0.397013  -0.042990
    20  H   -0.027297   0.497232   0.004624   0.000016  -0.003384  -0.000169
    21  C    0.490263   0.004624   5.033524  -0.040998  -0.039789   0.399461
    22  H    0.006266   0.000016  -0.040998   0.517965  -0.000206  -0.004555
    23  H    0.397013  -0.003384  -0.039789  -0.000206   0.514354  -0.004373
    24  H   -0.042990  -0.000169   0.399461  -0.004555  -0.004373   0.516938
    25  C    0.000670   0.001555  -0.000065   0.000023   0.000020   0.000002
    26  C   -0.001427   0.001763   0.000151  -0.000008   0.000001  -0.000003
    27  C    0.000014  -0.000005   0.000000   0.000000   0.000000   0.000000
    28  C   -0.000040   0.000136   0.000004   0.000000  -0.000002   0.000000
    29  H    0.000174   0.000074   0.000115   0.000011   0.000035   0.000010
    30  C    0.000000  -0.000064   0.000000   0.000000   0.000000   0.000000
    31  H    0.000000   0.000022   0.000000   0.000000   0.000000   0.000000
    32  C    0.000000   0.000000   0.000000   0.000000   0.000000   0.000000
    33  H   -0.000001   0.000001  -0.000001   0.000000   0.000000   0.000000
    34  H    0.000000  -0.000001   0.000000   0.000000   0.000000   0.000000
    35  H    0.000000   0.000000   0.000000   0.000000   0.000000   0.000000
             25         26         27         28         29         30
     1  C    0.031249  -0.032865  -0.085258   0.012347  -0.011464   0.008690
     2  H   -0.062164   0.000525  -0.004613  -0.000104  -0.000268   0.000559
     3  C   -0.091580   0.002181  -0.007718  -0.000831   0.000446  -0.001705
     4  C   -0.001270  -0.000446   0.000558   0.000007  -0.000016  -0.000050
     5  C   -0.006338   0.001629  -0.009698   0.000050   0.000047  -0.000350
     6  C   -0.000433   0.000019  -0.000086   0.000000   0.000000   0.000013
     7  H    0.000162  -0.000032   0.000281   0.000000   0.000001  -0.000008
     8  C   -0.000525   0.000017  -0.000367   0.000004   0.000000  -0.000012
     9  H    0.001204  -0.000228   0.000435  -0.000122   0.000028   0.000089
    10  C    0.000034  -0.000002   0.000122   0.000000   0.000000   0.000002
    11  H    0.000011   0.000000  -0.000003   0.000000   0.000000   0.000000
    12  H    0.000025   0.000000   0.000015   0.000000   0.000000   0.000001
    13  H    0.000001   0.000000   0.000000   0.000000   0.000000   0.000000
    14  C   -0.064726  -0.012730   0.011451  -0.001694   0.001271  -0.000882
    15  C   -0.000322   0.000894  -0.000297  -0.000110  -0.000980   0.000009
    16  C    0.006700  -0.018680   0.000915  -0.000997  -0.000898  -0.000023
    17  C   -0.000753   0.000330   0.000006   0.000005  -0.000127   0.000000
    18  H    0.000488   0.000130   0.000012   0.000003   0.000098   0.000000
    19  C    0.000670  -0.001427   0.000014  -0.000040   0.000174   0.000000
    20  H    0.001555   0.001763  -0.000005   0.000136   0.000074  -0.000064
    21  C   -0.000065   0.000151   0.000000   0.000004   0.000115   0.000000
    22  H    0.000023  -0.000008   0.000000   0.000000   0.000011   0.000000
    23  H    0.000020   0.000001   0.000000  -0.000002   0.000035   0.000000
    24  H    0.000002  -0.000003   0.000000   0.000000   0.000010   0.000000
    25  C    5.350868   0.498982   0.472365  -0.068261  -0.034992  -0.056947
    26  C    0.498982   5.099464  -0.084421   0.454175   0.394271  -0.030377
    27  C    0.472365  -0.084421   5.126353  -0.033328   0.004986   0.462726
    28  C   -0.068261   0.454175  -0.033328   5.078846  -0.036491  -0.073699
    29  H   -0.034992   0.394271   0.004986  -0.036491   0.477791  -0.000450
    30  C   -0.056947  -0.030377   0.462726  -0.073699  -0.000450   5.063446
    31  H   -0.044405   0.004527   0.397392  -0.000476  -0.000194  -0.035194
    32  C   -0.020786  -0.089600  -0.085171   0.494749   0.005063   0.480876
    33  H    0.006471  -0.036861  -0.000404   0.395663  -0.003545   0.006007
    34  H    0.006141  -0.000430  -0.038208   0.005991   0.000017   0.397023
    35  H   -0.001452   0.007649   0.007453  -0.042179  -0.000170  -0.043169
             31         32         33         34         35
     1  C   -0.003749   0.000345  -0.000363  -0.000356  -0.000014
     2  H   -0.000134   0.000037   0.000014   0.000006  -0.000002
     3  C    0.004194   0.000131   0.000012   0.000017   0.000002
     4  C    0.001457  -0.000003   0.000000  -0.000004   0.000000
     5  C   -0.000639   0.000032   0.000000   0.000014   0.000000
     6  C    0.000116   0.000000   0.000000   0.000000   0.000000
     7  H    0.000197   0.000001   0.000000   0.000000   0.000000
     8  C   -0.000278   0.000002   0.000000   0.000002   0.000000
     9  H   -0.000045  -0.000037  -0.000001   0.000005   0.000001
    10  C   -0.000080   0.000000   0.000000   0.000000   0.000000
    11  H    0.000007   0.000000   0.000000   0.000000   0.000000
    12  H    0.000005   0.000000   0.000000   0.000000   0.000000
    13  H    0.000001   0.000000   0.000000   0.000000   0.000000
    14  C    0.000794   0.000125   0.000058   0.000012   0.000001
    15  C   -0.000006  -0.000004   0.000003   0.000000   0.000000
    16  C   -0.000040  -0.000014   0.000024   0.000000   0.000001
    17  C    0.000000   0.000000   0.000000   0.000000   0.000000
    18  H   -0.000001   0.000000   0.000000   0.000000   0.000000
    19  C    0.000000   0.000000  -0.000001   0.000000   0.000000
    20  H    0.000022   0.000000   0.000001  -0.000001   0.000000
    21  C    0.000000   0.000000  -0.000001   0.000000   0.000000
    22  H    0.000000   0.000000   0.000000   0.000000   0.000000
    23  H    0.000000   0.000000   0.000000   0.000000   0.000000
    24  H    0.000000   0.000000   0.000000   0.000000   0.000000
    25  C   -0.044405  -0.020786   0.006471   0.006141  -0.001452
    26  C    0.004527  -0.089600  -0.036861  -0.000430   0.007649
    27  C    0.397392  -0.085171  -0.000404  -0.038208   0.007453
    28  C   -0.000476   0.494749   0.395663   0.005991  -0.042179
    29  H   -0.000194   0.005063  -0.003545   0.000017  -0.000170
    30  C   -0.035194   0.480876   0.006007   0.397023  -0.043169
    31  H    0.488753   0.005225   0.000017  -0.003843  -0.000173
    32  C    0.005225   5.042983  -0.041254  -0.040855   0.399483
    33  H    0.000017  -0.041254   0.517797  -0.000213  -0.004461
    34  H   -0.003843  -0.040855  -0.000213   0.517533  -0.004406
    35  H   -0.000173   0.399483  -0.004461  -0.004406   0.519393
 Mulliken atomic charges:
              1
     1  C   -0.615165
     2  H    0.211438
     3  C    0.070852
     4  C   -0.196667
     5  C   -0.087178
     6  C   -0.165592
     7  H    0.167371
     8  C   -0.179724
     9  H    0.182355
    10  C   -0.156670
    11  H    0.162182
    12  H    0.163445
    13  H    0.164029
    14  C    0.066308
    15  C   -0.175268
    16  C   -0.103026
    17  C   -0.166206
    18  H    0.171214
    19  C   -0.179677
    20  H    0.181326
    21  C   -0.155081
    22  H    0.162688
    23  H    0.163695
    24  H    0.164557
    25  C    0.078046
    26  C   -0.158601
    27  C   -0.135506
    28  C   -0.183645
    29  H    0.205157
    30  C   -0.176511
    31  H    0.186548
    32  C   -0.151327
    33  H    0.161037
    34  H    0.161553
    35  H    0.162043
 Sum of Mulliken atomic charges =   0.00000
 Mulliken charges with hydrogens summed into heavy atoms:
              1
     1  C   -0.403727
     3  C    0.070852
     4  C   -0.029296
     5  C    0.095178
     6  C   -0.003410
     8  C   -0.016279
    10  C    0.007360
    14  C    0.066308
    15  C   -0.004054
    16  C    0.078300
    17  C   -0.003518
    19  C   -0.015982
    21  C    0.009476
    25  C    0.078046
    26  C    0.046556
    27  C    0.051042
    28  C   -0.022609
    30  C   -0.014957
    32  C    0.010716
 Sum of Mulliken charges with hydrogens summed into heavy atoms =   0.00000
 Electronic spatial extent (au):  <R**2>=           4930.8006
 Charge=              0.0000 electrons
 Dipole moment (field-independent basis, Debye):
    X=              0.0938    Y=             -0.1703    Z=             -0.0176  Tot=              0.1952
 Quadrupole moment (field-independent basis, Debye-Ang):
   XX=           -107.5605   YY=           -113.2181   ZZ=           -106.9996
   XY=              2.7905   XZ=              0.7712   YZ=              2.6426
 Traceless Quadrupole moment (field-independent basis, Debye-Ang):
   XX=              1.6989   YY=             -3.9587   ZZ=              2.2598
   XY=              2.7905   XZ=              0.7712   YZ=              2.6426
 Octapole moment (field-independent basis, Debye-Ang**2):
  XXX=             27.4228  YYY=             11.1684  ZZZ=              0.8668  XYY=            -36.2262
  XXY=              0.1210  XXZ=             -2.2537  XZZ=             10.0509  YZZ=            -19.1782
  YYZ=             11.4166  XYZ=              1.4625
 Hexadecapole moment (field-independent basis, Debye-Ang**3):
 XXXX=          -3050.9195 YYYY=          -2920.7913 ZZZZ=           -660.3955 XXXY=            -64.6525
 XXXZ=             13.0612 YYYX=             68.5915 YYYZ=             72.4489 ZZZX=             -6.4639
 ZZZY=             -1.9980 XXYY=          -1016.6589 XXZZ=           -626.9271 YYZZ=           -638.9265
 XXYZ=             -6.3791 YYXZ=            -10.7220 ZZXY=             32.9002
 N-N= 1.290819804177D+03 E-N=-4.277718203029D+03  KE= 7.286019045455D+02
 PrsmSu:  requested number of processors reduced to:  10 ShMem   1 Linda.
 Calling FoFJK, ICntrl=      2127 FMM=F ISym2X=0 I1Cent= 0 IOpClX= 0 NMat=1 NMatS=1 NMatT=0.
 ***** Axes restored to original set *****
 -------------------------------------------------------------------
 Center     Atomic                   Forces (Hartrees/Bohr)
 Number     Number              X              Y              Z
 -------------------------------------------------------------------
      1        6          -0.001114349    0.006327196   -0.022219029
      2        1          -0.002257095   -0.011430294    0.022378751
      3        6          -0.013131976    0.003440658   -0.004814204
      4        6           0.001311997    0.000718023   -0.005691326
      5        6           0.007251870   -0.002511544    0.008487754
      6        6          -0.011898776    0.002575020   -0.006343839
      7        1          -0.002242988   -0.003364968    0.017089680
      8        6           0.000542625   -0.003100207    0.012052175
      9        1          -0.023160165    0.011978917   -0.010200792
     10        6          -0.013456531    0.000895389    0.002809184
     11        1           0.012519960   -0.003590294    0.010338551
     12        1           0.002767467    0.003236731   -0.016181554
     13        1           0.015691041   -0.000450639   -0.005999740
     14        6           0.004250060   -0.008485583   -0.010034651
     15        6          -0.000548424    0.003727698   -0.004602306
     16        6          -0.003706658    0.002208110    0.011525990
     17        6           0.003645693   -0.007669887   -0.010761904
     18        1           0.001944721   -0.008756275    0.015385022
     19        6           0.000541171   -0.004425627    0.011740379
     20        1           0.012080909   -0.015877275   -0.021769415
     21        6           0.004825248   -0.012483811   -0.002876321
     22        1          -0.003738504    0.006652514    0.014827025
     23        1          -0.001865018    0.008749109   -0.014145802
     24        1          -0.005802621    0.015760957    0.000664210
     25        6           0.010475031    0.008639927    0.006363992
     26        6           0.004639615   -0.010887840   -0.002365246
     27        6          -0.007390162    0.004607694   -0.001682108
     28        6           0.011951235   -0.000205734    0.004520991
     29        1          -0.005840795    0.020891117    0.003156277
     30        6          -0.005752298    0.011242381    0.000701221
     31        1           0.017607560   -0.003659947    0.005798703
     32        6           0.009461261    0.007798253    0.006168636
     33        1          -0.015460766    0.004233533   -0.004625306
     34        1           0.005673063   -0.015395657   -0.002585318
     35        1          -0.009813401   -0.011387644   -0.007109681
 -------------------------------------------------------------------
 Cartesian Forces:  Max     0.023160165 RMS     0.009551312

 GradGradGradGradGradGradGradGradGradGradGradGradGradGradGradGradGradGrad
 Berny optimization.
 Internal  Forces:  Max     0.028602060 RMS     0.007783497
 Search for a local minimum.
 Step number   1 out of a maximum of  197
 All quantities printed in internal units (Hartrees-Bohrs-Radians)
 Mixed Optimization -- RFO/linear search
 Second derivative matrix not updated -- first step.
     Eigenvalues ---    0.00635   0.00651   0.00655   0.01533   0.01537
     Eigenvalues ---    0.01540   0.02138   0.02142   0.02146   0.02170
     Eigenvalues ---    0.02172   0.02173   0.02181   0.02183   0.02185
     Eigenvalues ---    0.02200   0.02202   0.02202   0.02211   0.02211
     Eigenvalues ---    0.02212   0.02215   0.02215   0.02215   0.02215
     Eigenvalues ---    0.02217   0.02219   0.02220   0.02220   0.02225
     Eigenvalues ---    0.04565   0.06404   0.06619   0.15997   0.15998
     Eigenvalues ---    0.16000   0.16000   0.16000   0.16000   0.16000
     Eigenvalues ---    0.16000   0.16000   0.16000   0.16000   0.16000
     Eigenvalues ---    0.16000   0.16000   0.16000   0.18858   0.19330
     Eigenvalues ---    0.22000   0.22000   0.22000   0.22000   0.22000
     Eigenvalues ---    0.22000   0.23465   0.23477   0.23478   0.24965
     Eigenvalues ---    0.24999   0.25000   0.31261   0.31361   0.31481
     Eigenvalues ---    0.31516   0.33516   0.33596   0.33967   0.34052
     Eigenvalues ---    0.34077   0.34091   0.34255   0.34257   0.34258
     Eigenvalues ---    0.34260   0.34264   0.34268   0.34280   0.34281
     Eigenvalues ---    0.34290   0.42402   0.42460   0.42488   0.42553
     Eigenvalues ---    0.42576   0.42610   0.46335   0.46387   0.46439
     Eigenvalues ---    0.46729   0.46755   0.46799   0.47205   0.47206
     Eigenvalues ---    0.47218   0.47338   0.47343   0.474331000.00000
     Eigenvalues --- 1000.000001000.000001000.000001000.000001000.00000
     Eigenvalues --- 1000.000001000.000001000.000001000.000001000.00000
     Eigenvalues --- 1000.000001000.000001000.000001000.000001000.00000
     Eigenvalues --- 1000.000001000.000001000.000001000.000001000.00000
     Eigenvalues --- 1000.000001000.000001000.000001000.000001000.00000
     Eigenvalues --- 1000.000001000.000001000.000001000.000001000.00000
     Eigenvalues --- 1000.000001000.000001000.000001000.000001000.00000
     Eigenvalues --- 1000.000001000.000001000.000001000.000001000.00000
     Eigenvalues --- 1000.000001000.000001000.000001000.000001000.00000
     Eigenvalues --- 1000.000001000.000001000.000001000.000001000.00000
     Eigenvalues --- 1000.000001000.000001000.000001000.000001000.00000
     Eigenvalues --- 1000.000001000.000001000.000001000.000001000.00000
     Eigenvalues --- 1000.000001000.000001000.000001000.000001000.00000
     Eigenvalues --- 1000.000001000.000001000.000001000.000001000.00000
     Eigenvalues --- 1000.000001000.000001000.000001000.000001000.00000
     Eigenvalues --- 1000.000001000.000001000.000001000.000001000.00000
     Eigenvalues --- 1000.000001000.000001000.000001000.000001000.00000
     Eigenvalues --- 1000.000001000.00000
 RFO step:  Lambda=-4.18103211D-02 EMin= 6.35063758D-03
 Linear search not attempted -- first point.
 Maximum step size (   0.300) exceeded in Quadratic search.
    -- Step size scaled by   0.593
 Iteration  1 RMS(Cart)=  0.12557360 RMS(Int)=  0.00303822
 Iteration  2 RMS(Cart)=  0.00614987 RMS(Int)=  0.00028235
 Iteration  3 RMS(Cart)=  0.00001073 RMS(Int)=  0.00028228
 Iteration  4 RMS(Cart)=  0.00000000 RMS(Int)=  0.00028228
 Variable       Old X    -DE/DX   Delta X   Delta X   Delta X     New X
                                 (Linear)    (Quad)   (Total)
    R1        2.12218  -0.02479   0.00000  -0.04147  -0.04147   2.08071
    R2        2.85329   0.02288   0.00000   0.03816   0.03816   2.89145
    R3        2.85038   0.02356   0.00000   0.03911   0.03911   2.88949
    R4        2.85104   0.02352   0.00000   0.03909   0.03909   2.89013
    R5        2.63876  -0.00427   0.00000  -0.00497  -0.00495   2.63381
    R6        2.63874  -0.00006   0.00000   0.00004   0.00006   2.63880
    R7        2.62796  -0.00229   0.00000  -0.00268  -0.00269   2.62527
    R8        2.07177  -0.01755   0.00000  -0.02718  -0.02718   2.04459
    R9        2.62553  -0.00468   0.00000  -0.00532  -0.00532   2.62022
   R10        2.08017  -0.02668   0.00000  -0.04186  -0.04186   2.03830
   R11        2.62732  -0.00874   0.00000  -0.01018  -0.01020   2.61712
   R12        2.06898  -0.01663   0.00000  -0.02564  -0.02564   2.04334
   R13        2.62872  -0.00530   0.00000  -0.00618  -0.00620   2.62252
   R14        2.06886  -0.01673   0.00000  -0.02580  -0.02580   2.04307
   R15        2.06859  -0.01680   0.00000  -0.02590  -0.02590   2.04269
   R16        2.63935  -0.00434   0.00000  -0.00505  -0.00504   2.63432
   R17        2.63970   0.00068   0.00000   0.00094   0.00096   2.64066
   R18        2.62806  -0.00246   0.00000  -0.00292  -0.00292   2.62514
   R19        2.07200  -0.01780   0.00000  -0.02757  -0.02757   2.04442
   R20        2.62561  -0.00452   0.00000  -0.00511  -0.00512   2.62049
   R21        2.08154  -0.02860   0.00000  -0.04497  -0.04497   2.03657
   R22        2.62722  -0.00916   0.00000  -0.01069  -0.01071   2.61651
   R23        2.06897  -0.01667   0.00000  -0.02571  -0.02571   2.04326
   R24        2.62870  -0.00557   0.00000  -0.00649  -0.00650   2.62220
   R25        2.06894  -0.01674   0.00000  -0.02581  -0.02581   2.04313
   R26        2.06860  -0.01681   0.00000  -0.02590  -0.02590   2.04270
   R27        2.63545  -0.00225   0.00000  -0.00250  -0.00249   2.63296
   R28        2.64365  -0.00198   0.00000  -0.00229  -0.00228   2.64137
   R29        2.62894  -0.00143   0.00000  -0.00158  -0.00158   2.62735
   R30        2.07385  -0.02185   0.00000  -0.03394  -0.03394   2.03991
   R31        2.62405  -0.00470   0.00000  -0.00545  -0.00545   2.61860
   R32        2.07242  -0.01886   0.00000  -0.02924  -0.02924   2.04318
   R33        2.62559  -0.00738   0.00000  -0.00854  -0.00854   2.61705
   R34        2.06902  -0.01668   0.00000  -0.02573  -0.02573   2.04329
   R35        2.62951  -0.00503   0.00000  -0.00594  -0.00595   2.62356
   R36        2.06880  -0.01661   0.00000  -0.02561  -0.02561   2.04319
   R37        2.06843  -0.01663   0.00000  -0.02562  -0.02562   2.04281
    A1        1.88411  -0.00880   0.00000  -0.04893  -0.04811   1.83600
    A2        1.87693  -0.00997   0.00000  -0.05159  -0.05068   1.82625
    A3        1.82804   0.00390   0.00000   0.00059   0.00084   1.82888
    A4        1.92720   0.01535   0.00000   0.05447   0.05330   1.98050
    A5        1.94786  -0.00305   0.00000   0.01261   0.01045   1.95831
    A6        1.99261   0.00066   0.00000   0.02128   0.01936   2.01197
    A7        2.08481  -0.00806   0.00000  -0.01633  -0.01639   2.06842
    A8        2.11741   0.01882   0.00000   0.03826   0.03820   2.15562
    A9        2.08096  -0.01076   0.00000  -0.02196  -0.02195   2.05901
   A10        2.09887   0.00741   0.00000   0.01638   0.01639   2.11526
   A11        2.09532  -0.00440   0.00000  -0.01024  -0.01025   2.08508
   A12        2.08899  -0.00301   0.00000  -0.00615  -0.00616   2.08283
   A13        2.10145   0.00421   0.00000   0.00947   0.00941   2.11087
   A14        2.07773   0.00378   0.00000   0.01268   0.01258   2.09031
   A15        2.10385  -0.00794   0.00000  -0.02176  -0.02186   2.08200
   A16        2.09784  -0.00031   0.00000  -0.00142  -0.00144   2.09640
   A17        2.09106   0.00036   0.00000   0.00132   0.00133   2.09238
   A18        2.09429  -0.00005   0.00000   0.00010   0.00011   2.09440
   A19        2.09602   0.00226   0.00000   0.00468   0.00467   2.10069
   A20        2.09179  -0.00104   0.00000  -0.00207  -0.00207   2.08972
   A21        2.09538  -0.00122   0.00000  -0.00261  -0.00261   2.09277
   A22        2.09121  -0.00280   0.00000  -0.00708  -0.00711   2.08409
   A23        2.09608   0.00137   0.00000   0.00347   0.00347   2.09955
   A24        2.09590   0.00143   0.00000   0.00362   0.00363   2.09953
   A25        2.08021  -0.01090   0.00000  -0.02209  -0.02212   2.05809
   A26        2.12377   0.02266   0.00000   0.04608   0.04605   2.16982
   A27        2.07918  -0.01176   0.00000  -0.02394  -0.02391   2.05527
   A28        2.09993   0.00812   0.00000   0.01788   0.01790   2.11783
   A29        2.09481  -0.00471   0.00000  -0.01085  -0.01086   2.08395
   A30        2.08845  -0.00341   0.00000  -0.00703  -0.00704   2.08141
   A31        2.10230   0.00448   0.00000   0.01015   0.01014   2.11244
   A32        2.07760   0.00439   0.00000   0.01446   0.01442   2.09201
   A33        2.10318  -0.00885   0.00000  -0.02441  -0.02445   2.07873
   A34        2.09797  -0.00026   0.00000  -0.00147  -0.00148   2.09648
   A35        2.09087   0.00032   0.00000   0.00130   0.00130   2.09217
   A36        2.09435  -0.00006   0.00000   0.00018   0.00018   2.09453
   A37        2.09626   0.00238   0.00000   0.00496   0.00494   2.10120
   A38        2.09149  -0.00110   0.00000  -0.00222  -0.00221   2.08928
   A39        2.09543  -0.00128   0.00000  -0.00274  -0.00273   2.09270
   A40        2.09073  -0.00297   0.00000  -0.00757  -0.00760   2.08313
   A41        2.09642   0.00144   0.00000   0.00367   0.00368   2.10011
   A42        2.09603   0.00152   0.00000   0.00390   0.00392   2.09995
   A43        2.13392   0.00703   0.00000   0.01418   0.01417   2.14809
   A44        2.07155   0.00089   0.00000   0.00170   0.00168   2.07323
   A45        2.07656  -0.00795   0.00000  -0.01616  -0.01615   2.06041
   A46        2.10157   0.00355   0.00000   0.00814   0.00815   2.10971
   A47        2.09228  -0.00014   0.00000   0.00071   0.00071   2.09299
   A48        2.08933  -0.00340   0.00000  -0.00885  -0.00886   2.08048
   A49        2.10343   0.00465   0.00000   0.01021   0.01022   2.11365
   A50        2.08457  -0.00118   0.00000  -0.00174  -0.00175   2.08282
   A51        2.09517  -0.00347   0.00000  -0.00847  -0.00847   2.08670
   A52        2.09913   0.00111   0.00000   0.00225   0.00224   2.10137
   A53        2.08898  -0.00049   0.00000  -0.00094  -0.00094   2.08805
   A54        2.09507  -0.00062   0.00000  -0.00131  -0.00130   2.09376
   A55        2.09672   0.00085   0.00000   0.00123   0.00122   2.09794
   A56        2.09174  -0.00043   0.00000  -0.00062  -0.00062   2.09112
   A57        2.09473  -0.00042   0.00000  -0.00061  -0.00061   2.09412
[...]
 0007133,0.00014371,0.00029985,-0.00004833,0.00018164,-0.00010752,-0.00
 032112,0.00000660,0.00002393,-0.00000231,-0.00046943,-0.00002829,-0.00
 009199,0.00008614,-0.00023951,-0.00013815,0.00013127,0.00008455,0.0003
 1748,-0.00000882,-0.00002671,0.00001473,-0.00001032,0.00001079,0.00000
 718,-0.00000887,-0.00000896,0.00000005,0.00069400,0.00047055,0.0010643
 3,-0.00008941,-0.00007776,-0.00022741,-0.00016329,0.00027659,-0.000008
 09,-0.00011647,0.00018391,-0.00008976,0.00002362,-0.00003237,0.0000877
 1,0.00003824,-0.00013716,-0.00012361,0.00004616,0.00003802,0.00001541,
 -0.00008182,-0.00001434,0.00017246,-0.00000554,0.00001869,0.00000407,-
 0.00000375,0.00000412,0.00000120,0.00000627,-0.00000542,0.00000669,0.0
 3309989,-0.04998123,0.04211022,-0.04736228,-0.01343275,-0.04329833,-0.
 08844917,-0.02091200,-0.14937094,0.00811347,0.07449601,0.00633095,-0.0
 0004088,-0.00038579,-0.00110400,0.27341573,-0.06616161,0.40443365,-0.0
 0153870,-0.00080328,0.00150636,0.00079618,-0.00009130,0.00096199,0.000
 01376,-0.00016546,0.00006473,-0.00007908,0.00005334,-0.00003651,-0.000
 05529,-0.00000383,-0.00008519,-0.00001403,-0.00002584,-0.00000924,0.00
 000593,0.00000954,0.00000790,-0.00000251,0.00002467,0.00005198,0.00004
 121,0.00001214,0.00002411,0.00001076,-0.00000706,0.00001170,0.00000718
 ,0.00000005,0.00000484,-0.00000765,0.00000098,-0.00000084,0.00000908,0
 .00000237,-0.00000063,0.00015707,0.00005937,0.00032511,0.00003821,0.00
 014379,-0.00010736,0.00007458,-0.00005212,0.00003818,-0.00000949,-0.00
 003343,0.00000787,-0.00002433,0.00000046,0.00003048,-0.00004503,-0.000
 03803,0.00002650,-0.00000708,-0.00000636,0.00000731,0.00000235,0.00002
 398,-0.00000042,-0.00001058,0.00001015,0.00000476,-0.00000689,-0.00000
 464,-0.00000647,-0.00000270,-0.00000113,0.00000325,0.00194496,-0.00206
 392,-0.00252542,0.00401833,-0.00022798,-0.00320113,-0.21667577,0.06761
 491,-0.14237070,0.00002489,-0.00049651,0.00084710,-0.00013402,-0.00007
 814,-0.00001271,-0.01019755,0.01118597,-0.01377943,0.22214790,0.001322
 81,0.00108908,0.00116031,-0.00035093,-0.00041022,-0.00111272,-0.000294
 37,0.00004336,0.00003307,-0.00010266,-0.00001926,-0.00001161,0.0001335
 2,0.00006113,0.00015498,-0.00007883,0.00000013,-0.00004530,-0.00002302
 ,-0.00004885,-0.00002361,-0.00003110,-0.00001356,0.00000296,0.00002873
 ,-0.00001641,-0.00007021,0.00004626,-0.00002766,-0.00002242,0.00001826
 ,0.00000497,0.00000695,0.00001739,-0.00000344,-0.00003129,0.00001620,0
 .00000477,-0.00001568,0.00011810,0.00012628,-0.00039598,-0.00006135,0.
 00001192,0.00002766,-0.00013720,0.00016896,0.00000119,-0.00000842,0.00
 000534,-0.00000793,0.00005148,-0.00001403,-0.00000444,0.00001323,0.000
 05661,-0.00002134,0.00002286,-0.00000466,0.00000840,-0.00000974,0.0000
 2747,0.00000355,-0.00000493,0.00000990,0.00001169,0.00000129,0.0000266
 2,0.00000071,-0.00000017,0.00001229,0.00000168,0.02677195,-0.00565956,
 0.02282083,-0.00058940,-0.00660211,0.00151814,0.06722277,-0.10315885,0
 .06020977,-0.00059090,-0.00096605,-0.00046815,0.00131113,-0.00036767,0
 .00110092,-0.02010296,0.01236864,-0.01668775,-0.07134637,0.10447885,0.
 00255684,-0.00093961,-0.00170654,-0.00002531,0.00030826,-0.00000456,0.
 00024055,0.00030369,0.00046074,0.00041329,-0.00007741,0.00001010,-0.00
 003499,-0.00022151,-0.00009073,-0.00000308,0.00003385,0.00014593,-0.00
 002757,0.00001848,-0.00002904,0.00020717,-0.00007208,-0.00006479,-0.00
 014797,0.00011522,-0.00002809,-0.00002920,-0.00002220,-0.00010678,0.00
 000116,0.00000810,-0.00001597,0.00000009,0.00002255,-0.00000458,-0.000
 01110,0.00001213,-0.00000135,-0.00017846,-0.00014704,0.00013910,0.0000
 2704,-0.00006177,0.00008233,0.00004239,-0.00008342,-0.00001466,0.00002
 989,0.00001530,-0.00003615,-0.00000632,0.00000698,-0.00003359,0.000021
 13,-0.00002313,0.00002351,-0.00001517,0.00000948,-0.00003360,-0.000005
 61,-0.00000362,0.00000439,-0.00000019,-0.00001036,-0.00000529,0.000002
 66,-0.00000325,-0.00000498,-0.00000294,0.00000182,-0.00000488,-0.00712
 115,-0.00103179,-0.00001196,-0.00292305,0.00177350,0.00555352,-0.14162
 227,0.06080351,-0.16934904,0.00089629,-0.00038609,-0.00021388,-0.00025
 175,0.00005444,-0.00024835,-0.01015228,0.00804746,-0.00336453,0.160170
 84,-0.06587843,0.16771578,-0.00187655,0.00058537,0.00016614,-0.0000097
 0,-0.00040836,0.00058267,0.00016063,-0.00115811,-0.00041374,0.00006767
 ,-0.00012932,0.00022573,-0.00021959,-0.00011649,-0.00008532,-0.0001190
 6,0.00010704,0.00012077,0.00002753,-0.00001296,-0.00000056,0.00027246,
 0.00005708,0.00010532,-0.00000619,0.00011800,0.00013390,-0.00013954,-0
 .00005049,-0.00015009,-0.00003841,0.00002611,0.00000085,-0.00002038,-0
 .00001983,0.00003202,0.00000024,0.00000538,0.00001254,-0.00001741,0.00
 007399,-0.00037587,0.00000814,0.00012826,0.00017086,0.00011768,-0.0002
 0030,-0.00004941,0.00007541,-0.00018842,0.00008020,-0.00006714,0.00004
 045,-0.00001190,-0.00011066,0.00012072,0.00007232,-0.00001714,-0.00001
 068,0.00000082,0.00010331,0.00001737,-0.00013994,0.00000326,-0.0000280
 5,-0.00002151,-0.00000511,-0.00001772,-0.00000377,-0.00000173,-0.00000
 820,-0.00000456,-0.02624973,0.04031161,-0.02133066,0.04711379,-0.01595
 546,0.03206094,-0.03751249,-0.04820799,-0.03248299,-0.13484686,-0.0229
 5609,-0.03713584,0.00057954,-0.00346527,-0.00596636,-0.23605588,0.0740
 9308,-0.13164204,0.00197106,-0.00361477,-0.00522390,0.56251271,0.00178
 036,0.00041243,0.00060356,-0.00006259,0.00018976,-0.00083844,0.0002227
 5,0.00079749,-0.00017694,-0.00046563,0.00016990,0.00009153,-0.00002052
 ,0.00024503,-0.00007648,0.00014804,-0.00010238,-0.00027772,0.00001867,
 0.00000510,-0.00000106,-0.00040937,-0.00008398,-0.00007395,-0.00003643
 ,-0.00026759,-0.00032372,0.00010108,0.00007411,0.00028321,-0.00001358,
 -0.00003871,0.00001703,-0.00003942,0.00001421,0.00002105,-0.00001708,-
 0.00000177,-0.00000034,-0.00036436,0.00007772,0.00048456,-0.00005232,-
 0.00041789,-0.00018711,-0.00014150,0.00035644,-0.00017626,-0.00012068,
 0.00040286,-0.00006259,0.00002507,-0.00000689,0.00007047,0.00022347,-0
 .00018398,-0.00018002,0.00001485,0.00003126,-0.00001167,-0.00011434,-0
 .00018569,0.00029843,0.00000915,-0.00001442,-0.00003499,0.00000511,-0.
 00002705,0.00001256,0.00000397,-0.00002515,-0.00000530,0.03914421,-0.0
 6349796,0.03897701,-0.07038464,-0.05251916,-0.04869439,0.00580289,0.08
 919568,-0.00421675,0.04724957,-0.35941305,0.07377396,-0.00327380,-0.00
 071748,-0.00148465,0.00440892,-0.18120697,0.01684883,-0.00415772,-0.00
 280672,-0.00183606,0.08209474,0.78176443,-0.00107190,0.00019315,-0.000
 73891,-0.00013668,-0.00051859,0.00048037,0.00018336,-0.00083168,-0.000
 09190,0.00023831,-0.00013696,0.00016931,-0.00028564,-0.00023030,-0.000
 00566,-0.00013791,0.00010163,0.00019066,0.00001396,-0.00000262,0.00000
 156,0.00030488,0.00003897,0.00002222,-0.00010049,0.00006877,0.00001931
 ,-0.00017226,-0.00005659,-0.00018580,-0.00002483,0.00002669,-0.0000023
 3,-0.00003008,-0.00002761,0.00004710,-0.00000766,0.00000463,0.00000505
 ,-0.00004344,0.00002045,-0.00037518,0.00008155,0.00018309,0.00014578,0
 .00012911,-0.00027919,0.00000412,0.00009806,-0.00022795,0.00006321,-0.
 00004349,0.00001319,-0.00004961,-0.00013596,0.00013495,0.00009445,-0.0
 0000452,-0.00000602,-0.00000678,0.00010015,0.00004563,-0.00016875,-0.0
 0000160,-0.00000850,-0.00000030,-0.00000408,-0.00001046,-0.00000346,-0
 .00000103,0.00000167,-0.00000542,-0.02016635,0.04003993,-0.02955037,0.
 03880989,-0.00444886,0.04157085,-0.03876262,-0.04917819,-0.01542703,-0
 .04669890,0.01861246,-0.12296746,-0.00616497,-0.00183876,0.00436527,-0
 .12199852,0.07252997,-0.19098109,-0.00502855,-0.00130691,0.00520438,0.
 29795125,-0.01577042,0.41455541,-0.00043715,0.00062966,-0.00041992,-0.
 00024987,-0.00020507,-0.00012235,0.00010180,-0.00008591,-0.00021882,-0
 .00010460,0.00000785,0.00009399,-0.00010680,-0.00005626,0.00002202,-0.
 00000775,-0.00000031,-0.00000371,0.00001757,0.00001178,0.00001422,0.00
 001227,-0.00001114,-0.00001720,0.00002061,0.00003102,-0.00006763,-0.00
 002749,-0.00000051,0.00001135,-0.00001725,-0.00000220,0.00000237,-0.00
 002534,0.00000726,0.00002370,-0.00001238,0.00000300,0.00000393,-0.0000
 8816,0.00024204,0.00007923,0.00003744,-0.00001289,-0.00000486,0.000065
 88,-0.00008321,-0.00001930,-0.00000452,-0.00001349,0.00001803,-0.00001
 380,0.00000032,0.00002720,-0.00000206,0.00001573,0.00002104,-0.0000202
 3,0.00000927,-0.00000651,0.00003260,-0.00002983,-0.00001108,0.00000516
 ,-0.00000667,-0.00000882,-0.00000877,-0.00002896,0.00000248,0.00000094
 ,-0.00001467,-0.00000576,0.00198027,-0.00402107,-0.00475417,-0.0101451
 9,0.01111861,-0.01385798,0.00005803,-0.00056959,0.00088655,-0.21883850
 ,0.06858404,-0.14378835,-0.00113097,-0.00016555,0.00308395,0.00446135,
 -0.00028680,-0.00351579,-0.00054002,0.00014412,0.00054433,0.00304583,-
 0.00313177,-0.00161638,0.22327880,-0.00056718,0.00056932,-0.00058873,-
 0.00017260,-0.00012494,-0.00014463,0.00000817,-0.00005063,-0.00009035,
 -0.00004653,-0.00000962,0.00001678,-0.00000644,-0.00000647,0.00001376,
 -0.00000766,0.00000419,-0.00000352,0.00000610,-0.00000094,0.00000773,-
 0.00000307,0.00000676,0.00001384,-0.00000504,0.00000444,0.00001165,-0.
 00000583,0.00000014,0.00000275,-0.00000389,0.00000061,0.00000102,-0.00
 000103,-0.00000004,0.00000145,0.00000107,-0.00000067,0.00000132,0.0000
 2979,0.00015522,0.00005893,0.00002418,-0.00001169,-0.00000293,0.000024
 19,-0.00000940,0.00003570,0.00001007,-0.00000070,-0.00000302,-0.000008
 38,-0.00000300,-0.00000271,0.00001087,-0.00001363,0.00001153,-0.000016
 64,0.00000082,-0.00000434,0.00002031,-0.00002513,-0.00000121,-0.000001
 61,-0.00000397,-0.00000338,-0.00000721,-0.00000922,-0.00000425,-0.0000
 0437,-0.00000235,-0.00000372,-0.00379589,-0.00281054,-0.00144750,-0.01
 972322,0.01235297,-0.01654048,-0.00056329,-0.00108757,-0.00046060,0.06
 854177,-0.10426973,0.06143202,0.00089409,0.00123135,-0.00009455,-0.000
 67154,-0.00639055,0.00149072,0.00012749,0.00007614,-0.00006862,0.02788
 839,-0.00441315,0.02336098,-0.07300992,0.10412005,-0.00008794,0.000702
 73,-0.00028079,-0.00011432,-0.00005261,-0.00011008,0.00000009,-0.00014
 929,-0.00009289,-0.00004185,-0.00002202,0.00004634,-0.00000100,0.00001
 587,0.00005879,-0.00002108,0.00001249,0.00000464,0.00001050,-0.0000016
 7,-0.00000188,0.00000504,-0.00000469,-0.00002022,-0.00000334,0.0000050
 0,-0.00002391,-0.00001952,-0.00000565,-0.00000827,-0.00001618,0.000001
 27,-0.00000421,-0.00000017,0.00000520,0.00000685,-0.00001192,-0.000001
 92,0.00000332,-0.00008776,0.00007628,0.00003212,0.00001780,-0.00007922
 ,-0.00001323,0.00001105,0.00002484,-0.00002405,0.00000804,0.00004449,0
 .00001419,-0.00002582,0.00001407,0.00000112,0.00003835,-0.00002158,-0.
 00001195,-0.00000183,0.00001333,-0.00000814,0.00001947,-0.00005743,0.0
 0003348,0.00000282,-0.00001732,-0.00002938,-0.00000537,-0.00001511,-0.
 00000055,-0.00000405,-0.00001785,-0.00000753,-0.00516782,-0.00185820,0
 .00482418,-0.00969190,0.00792519,-0.00320613,0.00087493,-0.00059346,-0
 .00019724,-0.14365046,0.06122681,-0.17062088,0.00298989,-0.00072735,-0
 .00253965,-0.00341649,0.00184205,0.00600264,0.00054617,-0.00006644,-0.
 00082264,-0.00575761,-0.00107239,0.00119728,0.16072834,-0.06710275,0.1
 6864562,0.00029390,-0.00089494,0.00033285,0.00007442,0.00006517,0.0000
 1431,0.00005345,-0.00005561,-0.00006767,-0.00004375,-0.00000391,0.0000
 1784,-0.00003568,0.00001658,0.00000949,-0.00000233,0.00001142,-0.00000
 945,0.00000784,-0.00000698,0.00000771,-0.00001548,0.00001463,0.0000002
 9,0.00000857,-0.00002927,-0.00000363,-0.00002241,0.00000908,0.00001566
 ,-0.00000442,-0.00000439,0.00000291,-0.00000736,-0.00000877,0.00001340
 ,-0.00000169,-0.00000634,0.00000254,-0.00031665,-0.00013519,-0.0000486
 9,0.00003041,-0.00003686,-0.00003902,0.00002679,-0.00001708,-0.0000070
 8,-0.00000057,0.00004276,0.00001057,-0.00000225,0.00000213,-0.00000169
 ,0.00004102,-0.00002062,-0.00000236,-0.00001764,-0.00000499,-0.0000043
 0,-0.00001018,-0.00003887,0.00002717,0.00000032,-0.00000032,-0.0000038
 4,0.00000170,-0.00000976,0.00000234,-0.00000142,-0.00000340,-0.0000018
 2,0.00069033,-0.00311529,-0.00612434,-0.00111186,-0.00019995,-0.000131
 98,0.00757383,-0.02449264,0.00495170,-0.00035682,0.00056170,-0.0072852
 0,-0.00040880,0.00005762,0.00066089,-0.06630162,0.02630599,-0.01772155
 ,-0.00118038,0.00094056,0.00305605,0.00365567,0.02753785,-0.00520124,-
 0.00012795,0.00124993,-0.00019627,0.05858960,0.00055017,-0.00075797,0.
 00047719,-0.00001911,0.00000659,-0.00004225,0.00012007,-0.00010783,-0.
 00016372,-0.00008881,0.00001866,0.00006876,-0.00004459,0.00002416,0.00
 006057,-0.00002145,0.00001337,-0.00000740,0.00001809,-0.00000945,0.000
 00260,-0.00000213,0.00000280,-0.00002886,0.00002795,-0.00001926,-0.000
 04873,-0.00004068,0.00000616,0.00000275,-0.00002320,-0.00001046,-0.000
 00096,-0.00000936,-0.00000897,0.00002521,-0.00001835,-0.00000718,0.000
 00647,-0.00035783,-0.00000270,-0.00010060,0.00000599,-0.00008334,0.000
 01288,0.00005636,-0.00007216,-0.00006002,-0.00000926,0.00001473,0.0000
 2721,-0.00000951,0.00001266,0.00001493,0.00001968,0.00001534,0.0000008
 1,0.00000014,0.00000775,-0.00000116,0.00000875,-0.00003323,-0.00000238
 ,0.00001675,-0.00001229,-0.00001325,0.00000325,-0.00001962,0.00000878,
 0.00000578,-0.00001549,-0.00000277,-0.00373087,-0.00054132,-0.00163361
 ,-0.00032841,0.00090982,-0.00050400,0.00649482,-0.01678110,0.00823942,
 0.00101630,0.00147048,0.00180396,0.00012258,-0.00012075,-0.00006081,0.
 02615300,-0.35602672,0.06291176,-0.00008346,0.00119031,-0.00094661,-0.
 00325344,-0.00525520,-0.00111062,-0.00003522,-0.00047864,0.00001366,-0
 .02749253,0.37558712,0.00026727,-0.00066553,0.00015977,0.00000121,0.00
 003226,-0.00005422,0.00008157,0.00007223,0.00000501,-0.00003537,0.0000
 3175,-0.00001882,0.00001390,-0.00000085,-0.00000161,0.00000250,-0.0000
 0832,-0.00001474,-0.00000002,-0.00000447,-0.00000437,-0.00000690,-0.00
 001586,0.00002126,-0.00002104,0.00002289,-0.00000390,0.00001728,0.0000
 0053,0.00000479,-0.00000162,-0.00000463,-0.00000025,0.00000391,0.00000
 894,-0.00001187,0.00000183,0.00000407,-0.00000036,-0.00008604,0.000054
 60,-0.00011538,0.00000150,-0.00001373,0.00005168,0.00003666,-0.0000513
 0,0.00000809,0.00001918,-0.00004015,0.00000610,-0.00001023,0.00000319,
 -0.00001423,-0.00001156,0.00002656,0.00002609,-0.00000500,-0.00000017,
 -0.00000367,0.00002456,0.00000483,-0.00003606,0.00000459,-0.00000819,-
 0.00000317,-0.00000305,-0.00000342,-0.00000293,-0.00000146,-0.00000097
 ,-0.00000276,-0.00615441,-0.00146893,0.00444143,-0.00016285,-0.0005160
 2,-0.00099942,0.00061264,-0.01643242,0.00841640,-0.00731125,0.00146873
 ,0.00261174,0.00064988,-0.00005688,-0.00073308,-0.01767041,0.06310217,
 -0.07166845,0.00314030,-0.00013252,-0.00265089,-0.00091697,0.02340487,
 0.00151643,-0.00003013,0.00107354,-0.00023919,0.02470957,-0.06889791,0
 .06171781,-0.00044816,-0.00000937,0.00051183,0.00007248,-0.00002639,0.
 00012339,-0.00001307,-0.00009960,-0.00012168,-0.00004159,0.00000338,0.
 00005337,-0.00004310,-0.00000590,0.00002029,-0.00001070,0.00000606,0.0
 0000549,0.00000873,0.00000470,0.00000499,0.00001668,0.00000012,-0.0000
 3182,0.00002357,-0.00000333,-0.00004183,-0.00002224,-0.00000014,-0.000
 00326,-0.00001185,-0.00000190,-0.00000056,-0.00001143,-0.00000362,0.00
 001946,-0.00001184,-0.00000280,0.00000322,-0.00006224,-0.00000187,0.00
 001579,-0.00001269,-0.00002504,-0.00002534,0.00001703,-0.00001103,-0.0
 0002878,-0.00001663,0.00000822,0.00001223,-0.00000060,0.00000179,0.000
 01810,0.00000534,0.00000590,-0.00000349,0.00000068,0.00000446,0.000003
 58,0.00000484,-0.00001448,0.00000240,0.00000691,-0.00000065,-0.0000026
 3,-0.00000164,-0.00001075,0.00000388,0.00000383,-0.00000783,-0.0000002
 8,-0.00017475,0.00102331,0.00045662,0.00411632,0.00072050,-0.00394529,
 0.00071946,0.00214202,-0.00665287,0.00700920,0.00598972,0.00063852,0.0
 0007745,0.00021221,0.00010002,-0.00968283,-0.02046544,-0.00892649,-0.0
 0073235,-0.00083355,-0.00042739,-0.18240135,-0.12598493,-0.09007143,-0
 .00120976,-0.00021508,0.00307023,-0.00107858,0.00094853,0.00283995,0.1
 8390489,0.00012050,0.00009184,-0.00008487,-0.00006262,-0.00001478,-0.0
 0007594,0.00004030,-0.00000967,-0.00003942,-0.00002304,0.00000507,0.00
 002675,-0.00001231,0.00001767,0.00004650,-0.00000881,0.00000312,0.0000
 0408,0.00000605,-0.00000128,0.00000016,0.00000152,-0.00000670,-0.00003
 268,0.00002246,-0.00001847,-0.00004073,-0.00001447,-0.00000273,-0.0000
 0101,-0.00001006,-0.00000310,-0.00000234,-0.00000468,0.00000165,0.0000
 1043,-0.00001160,-0.00000150,0.00000200,-0.00005675,0.00002824,-0.0000
 1234,-0.00003934,-0.00001951,0.00002336,-0.00000453,-0.00002212,-0.000
 07029,-0.00001256,-0.00000257,0.00002119,0.00000006,0.00000846,0.00001
 222,-0.00001836,0.00004069,-0.00000894,0.00002336,0.00001206,0.0000044
 9,0.00001599,-0.00000059,-0.00000665,0.00000886,-0.00000634,-0.0000125
 3,0.00000045,-0.00001074,0.00000772,0.00000519,-0.00001395,-0.00000314
 ,0.00096959,-0.00037930,0.00068137,0.00127795,-0.00542792,0.00291644,0
 .00163619,0.00020585,0.00247794,-0.02515874,-0.01555444,-0.01717697,-0
 .00106029,-0.00093098,-0.00072862,0.01043656,0.01222401,0.00732084,0.0
 0041734,0.00035628,0.00027824,-0.12586563,-0.20255122,-0.07938594,0.00
 096635,0.00120059,-0.00005636,-0.00023771,0.00108371,-0.00098889,0.136
 65277,0.20969867,0.00064119,-0.00006941,-0.00060357,-0.00007572,0.0000
 7829,-0.00005174,0.00011174,0.00002958,0.00007085,0.00003221,-0.000008
 51,-0.00000442,0.00000526,-0.00001564,0.00002181,0.00000402,0.00000027
 ,0.00001411,0.00000257,0.00000577,-0.00000273,0.00000599,-0.00000517,-
 0.00000815,-0.00001215,0.00001576,-0.00000604,-0.00000487,0.00000011,-
 0.00000732,-0.00000496,-0.00000105,-0.00000472,0.00000345,0.00000328,0
 .00000085,-0.00000688,0.00000035,0.00000214,-0.00005492,0.00004536,0.0
 0002475,0.00003540,-0.00001836,0.00001131,0.00002743,-0.00004749,0.000
 00302,0.00000328,0.00000173,0.00000686,-0.00001456,0.00001027,0.000004
 63,0.00000116,-0.00000652,-0.00000141,0.00000184,0.00000642,-0.0000071
 4,-0.00000039,-0.00000684,-0.00000071,0.00000348,-0.00000778,-0.000009
 81,0.00000249,-0.00000403,0.00000266,0.00000111,-0.00000643,-0.0000010
 8,0.00034661,0.00061254,-0.00078684,-0.00395991,0.00248265,0.00555294,
 -0.00660335,0.00291658,0.00299952,0.00481902,0.00727318,0.00807133,0.0
 0026545,0.00024414,0.00009330,-0.01325652,-0.01725929,-0.00312909,-0.0
 0061687,-0.00076011,-0.00049294,-0.09000328,-0.07938580,-0.10909273,0.
 00290604,-0.00096642,-0.00260775,0.00301486,-0.00005133,-0.00240726,0.
 10237979,0.08489392,0.10234537||-0.00000880,0.00000083,0.00000265,-0.0
 0000231,-0.00000014,0.00000496,-0.00000254,0.00001434,-0.00000781,0.00
 000003,-0.00000556,-0.00000022,0.00000482,-0.00000642,-0.00000073,-0.0
 0000008,-0.00000606,-0.00000031,-0.00000011,0.00000117,0.00000098,0.00
 000106,-0.00000382,0.00000207,0.00000106,-0.00000018,-0.00000008,-0.00
 000188,0.00000989,-0.00000175,0.00000019,0.00000138,0.00000069,0.00000
 028,0.,-0.00000124,0.00000071,-0.00000172,-0.00000023,0.00001249,0.000
 00542,-0.00003383,-0.00001551,0.00002018,0.00002221,0.00000675,-0.0000
 3041,0.00001465,0.00000922,-0.00002923,0.00001141,-0.00000062,-0.00000
 316,-0.00000202,-0.00001468,0.00002056,0.00001976,-0.00000078,0.000002
 52,-0.00000199,0.00000643,0.00000745,-0.00003302,-0.00000163,0.0000013
 6,-0.00000059,0.00000175,-0.00000131,-0.00000241,0.00000064,0.00000033
 ,0.00000311,-0.00001629,0.00002755,-0.00002100,0.00003394,0.00001341,0
 .00003489,-0.00001377,-0.00004330,-0.00000808,-0.00001875,-0.00004453,
 -0.00000196,-0.00000084,0.00000114,-0.00000455,0.00003048,0.00001327,0
 .00003745,0.00000223,0.00000301,0.00000008,-0.00001332,0.00003469,-0.0
 0003350,0.00000150,0.00000461,0.00000014,-0.00000298,-0.00000238,-0.00
 000361,0.00000132,-0.00000488,0.00000388|||@


 ALMOST ANYTHING IS EASIER TO GET INTO THAN OUT OF.

                         -- AGNES ALLEN'S LAW FROM
                PAUL DICKSON'S "THE OFFICIAL RULES"
 Job cpu time:  0 days  0 hours  6 minutes 28.0 seconds.
 File lengths (MBytes):  RWF=    350 Int=      0 D2E=      0 Chk=      7 Scr=      1
 Normal termination of Gaussian 09 at Tue Sep 07 04:32:07 2021.
