 Entering Link 1 = b:\programy\g09w\l1.exe PID=     10236.
  
 Copyright (c) 1988,1990,1992,1993,1995,1998,2003,2009, Gaussian, Inc.
                  All Rights Reserved.
  
 This is part of the Gaussian(R) 09 program.  It is based on
 the Gaussian(R) 03 system (copyright 2003, Gaussian, Inc.),
 the Gaussian(R) 98 system (copyright 1998, Gaussian, Inc.),
 the Gaussian(R) 94 system (copyright 1995, Gaussian, Inc.),
 the Gaussian 92(TM) system (copyright 1992, Gaussian, Inc.),
 the Gaussian 90(TM) system (copyright 1990, Gaussian, Inc.),
 the Gaussian 88(TM) system (copyright 1988, Gaussian, Inc.),
 the Gaussian 86(TM) system (copyright 1986, Carnegie Mellon
 University), and the Gaussian 82(TM) system (copyright 1983,
 Carnegie Mellon University). Gaussian is a federally registered
 trademark of Gaussian, Inc.
  
 This software contains proprietary and confidential information,
 including trade secrets, belonging to Gaussian, Inc.
  
 This software is provided under written license and may be
 used, copied, transmitted, or stored only in accord with that
 written license.
  
 The following legend is applicable only to US Government
 contracts under FAR:
  
                    RESTRICTED RIGHTS LEGEND
  
 Use, reproduction and disclosure by the US Government is
 subject to restrictions as set forth in subparagraphs (a)
 and (c) of the Commercial Computer Software - Restricted
 Rights clause in FAR 52.227-19.
  
 Gaussian, Inc.
 340 Quinnipiac St., Bldg. 40, Wallingford CT 06492
  
  
 ---------------------------------------------------------------
 Warning -- This program may not be used in any manner that
 competes with the business of Gaussian, Inc. or will provide
 assistance to any competitor of Gaussian, Inc.  The licensee
 of this program is prohibited from giving any competitor of
 Gaussian, Inc. access to this program.  By using this program,
 the user acknowledges that Gaussian, Inc. is engaged in the
 business of creating and licensing software in the field of
 computational chemistry and represents and warrants to the
 licensee that it is not a competitor of Gaussian, Inc. and that
 it will not use this program in any manner prohibited above.
 ---------------------------------------------------------------
  

 Cite this work as:
 Gaussian 09, Revision A.02,
 M. J. Frisch, G. W. Trucks, H. B. Schlegel, G. E. Scuseria, 
 M. A. Robb, J. R. Cheeseman, G. Scalmani, V. Barone, B. Mennucci, 
 G. A. Petersson, H. Nakatsuji, M. Caricato, X. Li, H. P. Hratchian, 
 A. F. Izmaylov, J. Bloino, G. Zheng, J. L. Sonnenberg, M. Hada, 
 M. Ehara, K. Toyota, R. Fukuda, J. Hasegawa, M. Ishida, T. Nakajima, 
 Y. Honda, O. Kitao, H. Nakai, T. Vreven, J. A. Montgomery, Jr., 
 J. E. Peralta, F. Ogliaro, M. Bearpark, J. J. Heyd, E. Brothers, 
 K. N. Kudin, V. N. Staroverov, R. Kobayashi, J. Normand, 
 K. Raghavachari, A. Rendell, J. C. Burant, S. S. Iyengar, J. Tomasi, 
 M. Cossi, N. Rega, J. M. Millam, M. Klene, J. E. Knox, J. B. Cross, 
 V. Bakken, C. Adamo, J. Jaramillo, R. Gomperts, R. E. Stratmann, 
 O. Yazyev, A. J. Austin, R. Cammi, C. Pomelli, J. W. Ochterski, 
 R. L. Martin, K. Morokuma, V. G. Zakrzewski, G. A. Voth, 
 P. Salvador, J. J. Dannenberg, S. Dapprich, A. D. Daniels, 
 O. Farkas, J. B. Foresman, J. V. Ortiz, J. Cioslowski, 
 and D. J. Fox, Gaussian, Inc., Wallingford CT, 2009.
 
 ******************************************
 Gaussian 09:  IA32W-G09RevA.02 11-Jun-2009
                06-Sep-2021 
 ******************************************
 %nprocshared=12
 Will use up to   12 processors via shared memory.
 ----------------------------------------------
 # opt freq=noraman hf/6-311g geom=connectivity
 ----------------------------------------------
 1/18=20,19=15,38=1,57=2/1,3;
 2/9=110,12=2,17=6,18=5,40=1/2;
 3/5=4,6=6,11=9,16=1,25=1,30=1,71=1/1,2,3;
 4//1;
 5/5=2,38=5/2;
 6/7=2,8=2,9=2,10=2,28=1/1;
 7//1,2,3,16;
 1/18=20,19=15/3(2);
 2/9=110/2;
 99//99;
 2/9=110/2;
 3/5=4,6=6,11=9,16=1,25=1,30=1,71=1/1,2,3;
 4/5=5,16=3/1;
 5/5=2,38=5/2;
 7//1,2,3,16;
 1/18=20,19=15/3(-5);
 2/9=110/2;
 6/7=2,8=2,9=2,10=2,19=2,28=1/1;
 99/9=1/99;
 -----
 M0001
 -----
 Symbolic Z-matrix:
 Charge =  0 Multiplicity = 1
 C                    -0.09002  -0.10985   0.76285 
 H                    -0.26822  -0.25484   1.86215 
 C                     1.38346   0.15018   0.57319 
 C                     1.92986   0.39521  -0.68878 
 C                     2.2226    0.15497   1.68969 
 C                     3.29012   0.63934  -0.83195 
 H                     1.26471   0.40621  -1.56677 
 C                     3.58375   0.39956   1.54406 
 H                     1.80907  -0.0344    2.68738 
 C                     4.12003   0.64116   0.28436 
 H                     3.70717   0.83209  -1.82568 
 H                     4.23353   0.40201   2.42524 
 H                     5.19165   0.83379   0.17134 
 C                    -0.58219  -1.38389   0.12181 
 C                    -1.95334  -1.66069   0.15222 
 C                     0.28322  -2.31812  -0.44604 
 C                    -2.44578  -2.8444   -0.38084 
 H                    -2.64055  -0.93095   0.59703 
 C                    -0.21213  -3.50435  -0.97823 
 H                     1.3619   -2.11806  -0.47466 
 C                    -1.57544  -3.77026  -0.94799 
 H                    -3.521    -3.04864  -0.35361 
 H                     0.47807  -4.22969  -1.42122 
 H                    -1.96372  -4.70375  -1.36742 
 C                    -0.89981   1.08297   0.31419 
 C                    -0.99884   1.42716  -1.03545 
 C                    -1.56671   1.857     1.266 
 C                    -1.75748   2.523    -1.42789 
 H                    -0.45297   0.82916  -1.78103 
 C                    -2.32299   2.95511   0.87105 
 H                    -1.49506   1.60107   2.32968 
 C                    -2.42186   3.28847  -0.47516 
 H                    -1.83004   2.78382  -2.48871 
 H                    -2.84158   3.55776   1.62367 
 H                    -3.01941   4.15187  -0.78449 
 

 GradGradGradGradGradGradGradGradGradGradGradGradGradGradGradGradGradGrad
 Berny optimization.
 Initialization pass.
                           ----------------------------
                           !    Initial Parameters    !
                           ! (Angstroms and Degrees)  !
 --------------------------                            --------------------------
 ! Name  Definition              Value          Derivative Info.                !
 --------------------------------------------------------------------------------
 ! R1    R(1,2)                  1.123          estimate D2E/DX2                !
 ! R2    R(1,3)                  1.5082         estimate D2E/DX2                !
 ! R3    R(1,14)                 1.5088         estimate D2E/DX2                !
 ! R4    R(1,25)                 1.5099         estimate D2E/DX2                !
 ! R5    R(3,4)                  1.3968         estimate D2E/DX2                !
 ! R6    R(3,5)                  1.3967         estimate D2E/DX2                !
 ! R7    R(4,6)                  1.3894         estimate D2E/DX2                !
 ! R8    R(4,7)                  1.1016         estimate D2E/DX2                !
 ! R9    R(5,8)                  1.3906         estimate D2E/DX2                !
 ! R10   R(5,9)                  1.0965         estimate D2E/DX2                !
 ! R11   R(6,10)                 1.391          estimate D2E/DX2                !
 ! R12   R(6,11)                 1.0948         estimate D2E/DX2                !
 ! R13   R(8,10)                 1.3903         estimate D2E/DX2                !
 ! R14   R(8,12)                 1.0949         estimate D2E/DX2                !
 ! R15   R(10,13)                1.0946         estimate D2E/DX2                !
 ! R16   R(14,15)                1.3991         estimate D2E/DX2                !
 ! R17   R(14,16)                1.3943         estimate D2E/DX2                !
 ! R18   R(15,17)                1.3885         estimate D2E/DX2                !
 ! R19   R(15,18)                1.0966         estimate D2E/DX2                !
 ! R20   R(16,19)                1.3913         estimate D2E/DX2                !
 ! R21   R(16,20)                1.0974         estimate D2E/DX2                !
 ! R22   R(17,21)                1.3915         estimate D2E/DX2                !
 ! R23   R(17,22)                1.0948         estimate D2E/DX2                !
 ! R24   R(19,21)                1.3893         estimate D2E/DX2                !
 ! R25   R(19,23)                1.0949         estimate D2E/DX2                !
 ! R26   R(21,24)                1.0946         estimate D2E/DX2                !
 ! R27   R(25,26)                1.3964         estimate D2E/DX2                !
 ! R28   R(25,27)                1.3964         estimate D2E/DX2                !
 ! R29   R(26,28)                1.3894         estimate D2E/DX2                !
 ! R30   R(26,29)                1.1007         estimate D2E/DX2                !
 ! R31   R(27,30)                1.3906         estimate D2E/DX2                !
 ! R32   R(27,31)                1.0964         estimate D2E/DX2                !
 ! R33   R(28,32)                1.3911         estimate D2E/DX2                !
 ! R34   R(28,33)                1.0948         estimate D2E/DX2                !
 ! R35   R(30,32)                1.3904         estimate D2E/DX2                !
 ! R36   R(30,34)                1.0948         estimate D2E/DX2                !
 ! R37   R(32,35)                1.0946         estimate D2E/DX2                !
 ! A1    A(2,1,3)              107.4796         estimate D2E/DX2                !
 ! A2    A(2,1,14)             104.78           estimate D2E/DX2                !
 ! A3    A(2,1,25)             107.9239         estimate D2E/DX2                !
 ! A4    A(3,1,14)             114.2581         estimate D2E/DX2                !
 ! A5    A(3,1,25)             110.5115         estimate D2E/DX2                !
 ! A6    A(14,1,25)            111.4628         estimate D2E/DX2                !
 ! A7    A(1,3,4)              121.7362         estimate D2E/DX2                !
 ! A8    A(1,3,5)              119.1458         estimate D2E/DX2                !
 ! A9    A(4,3,5)              119.1165         estimate D2E/DX2                !
 ! A10   A(3,4,6)              120.4566         estimate D2E/DX2                !
 ! A11   A(3,4,7)              119.0546         estimate D2E/DX2                !
 ! A12   A(6,4,7)              120.4832         estimate D2E/DX2                !
 ! A13   A(3,5,8)              120.3292         estimate D2E/DX2                !
 ! A14   A(3,5,9)              120.0121         estimate D2E/DX2                !
 ! A15   A(8,5,9)              119.6587         estimate D2E/DX2                !
 ! A16   A(4,6,10)             120.1092         estimate D2E/DX2                !
 ! A17   A(4,6,11)             119.8295         estimate D2E/DX2                !
 ! A18   A(10,6,11)            120.0612         estimate D2E/DX2                !
 ! A19   A(5,8,10)             120.2007         estimate D2E/DX2                !
 ! A20   A(5,8,12)             119.803          estimate D2E/DX2                !
 ! A21   A(10,8,12)            119.9962         estimate D2E/DX2                !
 ! A22   A(6,10,8)             119.7877         estimate D2E/DX2                !
 ! A23   A(6,10,13)            120.096          estimate D2E/DX2                !
 ! A24   A(8,10,13)            120.1163         estimate D2E/DX2                !
 ! A25   A(1,14,15)            118.5223         estimate D2E/DX2                !
 ! A26   A(1,14,16)            122.4359         estimate D2E/DX2                !
 ! A27   A(15,14,16)           118.9827         estimate D2E/DX2                !
 ! A28   A(14,15,17)           120.5229         estimate D2E/DX2                !
 ! A29   A(14,15,18)           119.4252         estimate D2E/DX2                !
 ! A30   A(17,15,18)           120.051          estimate D2E/DX2                !
 ! A31   A(14,16,19)           120.4017         estimate D2E/DX2                !
 ! A32   A(14,16,20)           119.9025         estimate D2E/DX2                !
 ! A33   A(19,16,20)           119.6958         estimate D2E/DX2                !
 ! A34   A(15,17,21)           120.125          estimate D2E/DX2                !
 ! A35   A(15,17,22)           119.8564         estimate D2E/DX2                !
 ! A36   A(21,17,22)           120.0186         estimate D2E/DX2                !
 ! A37   A(16,19,21)           120.2797         estimate D2E/DX2                !
 ! A38   A(16,19,23)           119.6807         estimate D2E/DX2                !
 ! A39   A(21,19,23)           120.0396         estimate D2E/DX2                !
 ! A40   A(17,21,19)           119.6873         estimate D2E/DX2                !
 ! A41   A(17,21,24)           120.1156         estimate D2E/DX2                !
 ! A42   A(19,21,24)           120.1971         estimate D2E/DX2                !
 ! A43   A(1,25,26)            121.3295         estimate D2E/DX2                !
 ! A44   A(1,25,27)            119.4397         estimate D2E/DX2                !
 ! A45   A(26,25,27)           119.2306         estimate D2E/DX2                !
 ! A46   A(25,26,28)           120.4073         estimate D2E/DX2                !
 ! A47   A(25,26,29)           119.054          estimate D2E/DX2                !
 ! A48   A(28,26,29)           120.5295         estimate D2E/DX2                !
 ! A49   A(25,27,30)           120.2565         estimate D2E/DX2                !
 ! A50   A(25,27,31)           120.0458         estimate D2E/DX2                !
 ! A51   A(30,27,31)           119.6977         estimate D2E/DX2                !
 ! A52   A(26,28,32)           120.089          estimate D2E/DX2                !
 ! A53   A(26,28,33)           119.853          estimate D2E/DX2                !
 ! A54   A(32,28,33)           120.058          estimate D2E/DX2                !
 ! A55   A(27,30,32)           120.1983         estimate D2E/DX2                !
 ! A56   A(27,30,34)           119.8055         estimate D2E/DX2                !
 ! A57   A(32,30,34)           119.9961         estimate D2E/DX2                !
 ! A58   A(28,32,30)           119.8174         estimate D2E/DX2                !
 ! A59   A(28,32,35)           120.0804         estimate D2E/DX2                !
 ! A60   A(30,32,35)           120.1022         estimate D2E/DX2                !
 ! D1    D(2,1,3,4)           -178.916          estimate D2E/DX2                !
 ! D2    D(2,1,3,5)              0.6507         estimate D2E/DX2                !
 ! D3    D(14,1,3,4)            65.2815         estimate D2E/DX2                !
 ! D4    D(14,1,3,5)          -115.1518         estimate D2E/DX2                !
 ! D5    D(25,1,3,4)           -61.3801         estimate D2E/DX2                !
 ! D6    D(25,1,3,5)           118.1865         estimate D2E/DX2                !
 ! D7    D(2,1,14,15)           67.5718         estimate D2E/DX2                !
 ! D8    D(2,1,14,16)         -109.6028         estimate D2E/DX2                !
 ! D9    D(3,1,14,15)         -175.0652         estimate D2E/DX2                !
 ! D10   D(3,1,14,16)            7.7601         estimate D2E/DX2                !
 ! D11   D(25,1,14,15)         -48.8983         estimate D2E/DX2                !
 ! D12   D(25,1,14,16)         133.9271         estimate D2E/DX2                !
 ! D13   D(2,1,25,26)         -172.9906         estimate D2E/DX2                !
 ! D14   D(2,1,25,27)            6.8467         estimate D2E/DX2                !
 ! D15   D(3,1,25,26)           69.7471         estimate D2E/DX2                !
 ! D16   D(3,1,25,27)         -110.4156         estimate D2E/DX2                !
 ! D17   D(14,1,25,26)         -58.4545         estimate D2E/DX2                !
 ! D18   D(14,1,25,27)         121.3829         estimate D2E/DX2                !
 ! D19   D(1,3,4,6)            179.6216         estimate D2E/DX2                !
 ! D20   D(1,3,4,7)              0.4788         estimate D2E/DX2                !
 ! D21   D(5,3,4,6)              0.0549         estimate D2E/DX2                !
 ! D22   D(5,3,4,7)           -179.0879         estimate D2E/DX2                !
 ! D23   D(1,3,5,8)           -179.6325         estimate D2E/DX2                !
 ! D24   D(1,3,5,9)              0.3479         estimate D2E/DX2                !
 ! D25   D(4,3,5,8)             -0.0544         estimate D2E/DX2                !
 ! D26   D(4,3,5,9)            179.926          estimate D2E/DX2                !
 ! D27   D(3,4,6,10)             0.0123         estimate D2E/DX2                !
 ! D28   D(3,4,6,11)          -179.8816         estimate D2E/DX2                !
 ! D29   D(7,4,6,10)           179.1428         estimate D2E/DX2                !
 ! D30   D(7,4,6,11)            -0.7511         estimate D2E/DX2                !
 ! D31   D(3,5,8,10)            -0.0132         estimate D2E/DX2                !
 ! D32   D(3,5,8,12)           179.9553         estimate D2E/DX2                !
 ! D33   D(9,5,8,10)          -179.9937         estimate D2E/DX2                !
 ! D34   D(9,5,8,12)            -0.0252         estimate D2E/DX2                !
 ! D35   D(4,6,10,8)            -0.0804         estimate D2E/DX2                !
 ! D36   D(4,6,10,13)         -179.984          estimate D2E/DX2                !
 ! D37   D(11,6,10,8)          179.8133         estimate D2E/DX2                !
 ! D38   D(11,6,10,13)          -0.0903         estimate D2E/DX2                !
 ! D39   D(5,8,10,6)             0.0809         estimate D2E/DX2                !
 ! D40   D(5,8,10,13)          179.9844         estimate D2E/DX2                !
 ! D41   D(12,8,10,6)         -179.8876         estimate D2E/DX2                !
 ! D42   D(12,8,10,13)           0.016          estimate D2E/DX2                !
 ! D43   D(1,14,15,17)        -177.5949         estimate D2E/DX2                !
 ! D44   D(1,14,15,18)           2.732          estimate D2E/DX2                !
 ! D45   D(16,14,15,17)         -0.3207         estimate D2E/DX2                !
 ! D46   D(16,14,15,18)       -179.9938         estimate D2E/DX2                !
 ! D47   D(1,14,16,19)         177.4068         estimate D2E/DX2                !
 ! D48   D(1,14,16,20)          -2.6205         estimate D2E/DX2                !
 ! D49   D(15,14,16,19)          0.2446         estimate D2E/DX2                !
 ! D50   D(15,14,16,20)       -179.7827         estimate D2E/DX2                !
 ! D51   D(14,15,17,21)          0.2028         estimate D2E/DX2                !
 ! D52   D(14,15,17,22)       -179.8372         estimate D2E/DX2                !
 ! D53   D(18,15,17,21)        179.8739         estimate D2E/DX2                !
 ! D54   D(18,15,17,22)         -0.1661         estimate D2E/DX2                !
 ! D55   D(14,16,19,21)         -0.0512         estimate D2E/DX2                !
 ! D56   D(14,16,19,23)       -179.9973         estimate D2E/DX2                !
 ! D57   D(20,16,19,21)        179.9761         estimate D2E/DX2                !
 ! D58   D(20,16,19,23)          0.03           estimate D2E/DX2                !
 ! D59   D(15,17,21,19)         -0.005          estimate D2E/DX2                !
 ! D60   D(15,17,21,24)        179.9484         estimate D2E/DX2                !
 ! D61   D(22,17,21,19)       -179.9649         estimate D2E/DX2                !
 ! D62   D(22,17,21,24)         -0.0116         estimate D2E/DX2                !
 ! D63   D(16,19,21,17)         -0.0707         estimate D2E/DX2                !
 ! D64   D(16,19,21,24)        179.976          estimate D2E/DX2                !
 ! D65   D(23,19,21,17)        179.8752         estimate D2E/DX2                !
 ! D66   D(23,19,21,24)         -0.0781         estimate D2E/DX2                !
 ! D67   D(1,25,26,28)         179.5164         estimate D2E/DX2                !
 ! D68   D(1,25,26,29)          -1.5788         estimate D2E/DX2                !
 ! D69   D(27,25,26,28)         -0.3212         estimate D2E/DX2                !
 ! D70   D(27,25,26,29)        178.5836         estimate D2E/DX2                !
 ! D71   D(1,25,27,30)        -179.6636         estimate D2E/DX2                !
 ! D72   D(1,25,27,31)           0.3887         estimate D2E/DX2                !
 ! D73   D(26,25,27,30)          0.1771         estimate D2E/DX2                !
 ! D74   D(26,25,27,31)       -179.7705         estimate D2E/DX2                !
 ! D75   D(25,26,28,32)          0.1854         estimate D2E/DX2                !
 ! D76   D(25,26,28,33)       -179.9105         estimate D2E/DX2                !
 ! D77   D(29,26,28,32)       -178.7031         estimate D2E/DX2                !
 ! D78   D(29,26,28,33)          1.201          estimate D2E/DX2                !
 ! D79   D(25,27,30,32)          0.1028         estimate D2E/DX2                !
 ! D80   D(25,27,30,34)       -179.9074         estimate D2E/DX2                !
 ! D81   D(31,27,30,32)       -179.9493         estimate D2E/DX2                !
 ! D82   D(31,27,30,34)          0.0404         estimate D2E/DX2                !
 ! D83   D(26,28,32,30)          0.0972         estimate D2E/DX2                !
 ! D84   D(26,28,32,35)        179.9918         estimate D2E/DX2                !
 ! D85   D(33,28,32,30)       -179.8067         estimate D2E/DX2                !
 ! D86   D(33,28,32,35)          0.0879         estimate D2E/DX2                !
 ! D87   D(27,30,32,28)         -0.241          estimate D2E/DX2                !
 ! D88   D(27,30,32,35)        179.8645         estimate D2E/DX2                !
 ! D89   D(34,30,32,28)        179.7693         estimate D2E/DX2                !
 ! D90   D(34,30,32,35)         -0.1252         estimate D2E/DX2                !
 --------------------------------------------------------------------------------
 Trust Radius=3.00D-01 FncErr=1.00D-07 GrdErr=1.00D-07
 Number of steps in this run= 197 maximum allowed number of steps= 210.
 GradGradGradGradGradGradGradGradGradGradGradGradGradGradGradGradGradGrad

                          Input orientation:                          
 ---------------------------------------------------------------------
 Center     Atomic      Atomic             Coordinates (Angstroms)
 Number     Number       Type             X           Y           Z
 ---------------------------------------------------------------------
      1          6           0       -0.090022   -0.109846    0.762848
      2          1           0       -0.268217   -0.254842    1.862146
      3          6           0        1.383463    0.150178    0.573189
      4          6           0        1.929861    0.395206   -0.688779
      5          6           0        2.222604    0.154970    1.689690
      6          6           0        3.290118    0.639340   -0.831948
      7          1           0        1.264708    0.406208   -1.566770
      8          6           0        3.583750    0.399560    1.544056
      9          1           0        1.809071   -0.034403    2.687377
     10          6           0        4.120026    0.641159    0.284360
     11          1           0        3.707169    0.832089   -1.825677
     12          1           0        4.233528    0.402013    2.425243
     13          1           0        5.191645    0.833788    0.171344
     14          6           0       -0.582187   -1.383893    0.121812
     15          6           0       -1.953342   -1.660688    0.152221
     16          6           0        0.283223   -2.318123   -0.446037
     17          6           0       -2.445779   -2.844396   -0.380842
     18          1           0       -2.640555   -0.930950    0.597030
     19          6           0       -0.212129   -3.504352   -0.978228
     20          1           0        1.361901   -2.118061   -0.474662
     21          6           0       -1.575440   -3.770258   -0.947991
     22          1           0       -3.521004   -3.048645   -0.353609
     23          1           0        0.478067   -4.229689   -1.421222
     24          1           0       -1.963723   -4.703751   -1.367423
     25          6           0       -0.899806    1.082969    0.314193
     26          6           0       -0.998836    1.427160   -1.035452
     27          6           0       -1.566708    1.857002    1.266005
     28          6           0       -1.757476    2.522998   -1.427894
     29          1           0       -0.452973    0.829158   -1.781029
     30          6           0       -2.322986    2.955106    0.871052
     31          1           0       -1.495056    1.601068    2.329677
     32          6           0       -2.421861    3.288466   -0.475157
     33          1           0       -1.830043    2.783821   -2.488708
     34          1           0       -2.841581    3.557762    1.623671
     35          1           0       -3.019410    4.151875   -0.784489
 ---------------------------------------------------------------------
                    Distance matrix (angstroms):
                    1          2          3          4          5
     1  C    0.000000
     2  H    1.123046   0.000000
     3  C    1.508224   2.133893   0.000000
     4  C    2.538154   3.429479   1.396836   0.000000
     5  C    2.505474   2.530193   1.396695   2.408428   0.000000
     6  C    3.811824   4.551862   2.418475   1.389387   2.780802
     7  H    2.743852   3.813700   2.158489   1.101553   3.403706
     8  C    3.790300   3.920085   2.417858   2.778654   1.390594
     9  H    2.704821   2.246047   2.164487   3.405522   1.096472
    10  C    4.303192   4.748568   2.795221   2.409214   2.410714
    11  H    4.691095   5.530385   3.408691   2.154584   3.875595
    12  H    4.660326   4.584129   3.408283   3.873507   2.155431
    13  H    5.397808   5.818421   3.889866   3.401676   3.403142
    14  C    1.508758   2.098117   2.533948   3.183180   3.562751
    15  C    2.499987   2.782065   3.819779   4.473616   4.806136
    16  C    2.545035   3.144666   2.888228   3.183158   3.799831
    17  C    3.786209   4.059379   4.953861   5.453079   5.922592
    18  H    2.684572   2.772296   4.166788   4.929573   5.101317
    19  C    3.816926   4.316269   4.278831   4.458526   5.141629
    20  H    2.769916   3.404341   2.498672   2.585524   3.254520
    21  C    4.304887   4.686561   5.141879   5.450268   6.065469
    22  H    4.653456   4.826544   5.928340   6.456344   6.886744
    23  H    4.697445   5.209304   4.897004   4.902431   5.652116
    24  H    5.399331   5.753055   6.207274   6.451350   7.104818
    25  C    1.509917   2.141215   2.480019   3.079933   3.535904
    26  C    2.534210   3.429142   3.145435   3.124481   4.407102
    27  C    2.510431   2.549775   3.478039   4.264273   4.175561
    28  C    3.809413   4.556167   4.415893   4.320908   5.582824
    29  H    2.735832   3.805511   3.062001   2.656920   4.433862
    30  C    3.793649   3.938034   4.657693   5.203159   5.401233
    31  H    2.712250   2.273351   3.670995   4.721783   4.040021
    32  C    4.303331   4.759853   5.042655   5.230112   6.006364
    33  H    4.687601   5.531971   5.161193   4.804385   6.387004
    34  H    4.665131   4.605977   5.528665   6.173803   6.101583
    35  H    5.397947   5.830343   6.102635   6.214258   7.040988
                    6          7          8          9         10
     6  C    0.000000
     7  H    2.167164   0.000000
     8  C    2.406058   3.880108   0.000000
     9  H    3.877252   4.311407   2.155224   0.000000
    10  C    1.391005   3.410971   1.390251   3.401674   0.000000
    11  H    1.094797   2.492795   3.399620   4.972046   2.158509
    12  H    3.399359   4.974944   1.094855   2.477330   2.157186
    13  H    2.158753   4.315635   2.158291   4.304183   1.094645
    14  C    4.471898   3.076815   4.749580   3.757840   5.122311
    15  C    5.809697   4.193188   6.069696   4.819498   6.496288
    16  C    4.235201   3.105049   4.715904   4.166758   4.900193
    17  C    6.726100   5.073515   7.112221   5.950947   7.463336
    18  H    6.299259   4.660590   6.434989   4.997251   6.948002
    19  C    5.427459   4.221362   6.000928   5.437136   6.127557
    20  H    3.383627   2.752104   3.917939   3.813146   3.974501
    21  C    6.567471   5.088437   7.086249   6.215097   7.308736
    22  H    7.760246   6.025844   8.122116   6.836881   8.509230
    23  H    5.653522   4.704415   6.314117   6.021011   6.316489
    24  H    7.512536   6.047659   8.080529   7.244183   8.264893
    25  C    4.366453   2.946379   4.699137   3.770748   5.039326
    26  C    4.365455   2.539345   5.358164   4.886714   5.344385
    27  C    5.428892   4.259852   5.359913   4.122330   5.897529
    28  C    5.420473   3.692382   6.470717   6.016313   6.404542
    29  H    3.866201   1.781915   5.247464   5.082247   5.021304
    30  C    6.306339   5.031044   6.470956   5.413880   6.871023
    31  H    5.815383   4.922020   5.277792   3.704048   6.052593
    32  C    6.306494   4.805187   6.963502   6.240502   7.097985
    33  H    5.793074   4.010050   7.159403   6.926572   6.905377
    34  H    7.221148   6.080528   7.159990   5.971908   7.665787
    35  H    7.221516   5.744184   7.943784   7.272758   8.027397
                   11         12         13         14         15
    11  H    0.000000
    12  H    4.304920   0.000000
    13  H    2.488326   2.486861   0.000000
    14  C    5.205946   5.629064   6.185281   0.000000
    15  C    6.493644   6.906425   7.567933   1.399144   0.000000
    16  C    4.852902   5.590017   5.865860   1.394336   2.406732
    17  C    7.311830   7.938918   8.494951   2.420476   1.388458
    18  H    7.019360   7.236861   8.039830   2.160525   1.096646
    19  C    5.906250   6.826943   7.024368   2.417307   2.776479
    20  H    4.003612   4.796505   4.878286   2.162004   3.404851
    21  C    7.061013   7.907633   8.260968   2.797458   2.409059
    22  H    8.335081   8.930947   9.552964   3.410875   2.154032
    23  H    6.017664   7.095874   7.098794   3.406412   3.871336
    24  H    7.938170   8.880262   9.177768   3.892033   3.401421
    25  C    5.085884   5.592079   6.098220   2.494654   2.943437
    26  C    4.808852   6.356490   6.334865   3.068368   3.443320
    27  C    6.198607   6.091269   6.922470   3.575173   3.710005
    28  C    5.734087   7.432185   7.328116   4.364252   4.476422
    29  H    4.160383   6.311772   5.972729   2.921489   3.491117
    30  C    6.938467   7.205669   7.839596   4.734834   4.686033
    31  H    6.702346   5.853506   7.068174   3.823348   3.948467
    32  C    6.739637   7.812690   8.025515   5.056848   5.010712
    33  H    5.908434   8.160074   7.757746   5.073638   5.171399
    34  H    7.887549   7.788352   8.605929   5.637411   5.494211
    35  H    7.573105   8.773194   8.907567   6.116058   5.983294
                   16         17         18         19         20
    16  C    0.000000
    17  C    2.780048   0.000000
    18  H    3.400105   2.157648   0.000000
    19  C    1.391308   2.404497   3.873123   0.000000
    20  H    1.097447   3.877472   4.310152   2.157070   0.000000
    21  C    2.411490   1.391535   3.403414   1.389330   3.403200
    22  H    3.874835   1.094792   2.482647   3.398010   4.972263
    23  H    2.154770   3.398574   4.967979   1.094865   2.477118
    24  H    3.404253   2.159381   4.307111   2.158266   4.306111
    25  C    3.680344   4.277534   2.676952   4.815263   3.998025
    26  C    4.002279   4.557230   3.304682   4.994196   4.296063
    27  C    4.876988   5.058459   3.061593   5.967879   5.235246
    28  C    5.344619   5.511714   4.099989   6.238529   5.672618
    29  H    3.497080   4.407584   3.679492   4.413820   3.699522
    30  C    6.027769   5.934352   3.908628   7.042737   6.412984
    31  H    5.121223   5.292725   3.274958   6.217190   5.464288
    32  C    6.225124   6.133633   4.359000   7.160892   6.599044
    33  H    5.887974   6.041445   4.896758   6.666357   6.186545
    34  H    6.969514   6.720294   4.609007   7.972286   7.367987
    35  H    7.272057   7.031343   5.280837   8.156971   7.655323
                   21         22         23         24         25
    21  C    0.000000
    22  H    2.158526   0.000000
    23  H    2.156830   4.304327   0.000000
    24  H    1.094575   2.488438   2.487964   0.000000
    25  C    5.059980   4.938306   5.756260   6.119304   0.000000
    26  C    5.230037   5.182574   5.859181   6.215247   1.396359
    27  C    6.047141   5.523386   6.960611   7.080681   1.396364
    28  C    6.314152   5.941997   7.113120   7.229945   2.417468
    29  H    4.807132   5.146620   5.156378   5.750350   2.157322
    30  C    7.007016   6.243402   8.044980   7.987361   2.416698
    31  H    6.292910   5.737972   7.208341   7.323861   2.164468
    32  C    7.124997   6.432873   8.113401   8.054909   2.793554
    33  H    6.737551   6.437053   7.460310   7.572245   3.408005
    34  H    7.868700   6.929348   8.996434   8.830056   3.407319
    35  H    8.054314   7.230818   9.104306   8.937360   3.888188
                   26         27         28         29         30
    26  C    0.000000
    27  C    2.409138   0.000000
    28  C    1.389390   2.781553   0.000000
    29  H    1.100663   3.403129   2.166917   0.000000
    30  C    2.778983   1.390603   2.406589   3.879451   0.000000
    31  H    3.405961   1.096373   3.877907   4.310416   2.155568
    32  C    2.409023   2.410813   1.391063   3.410282   1.390389
    33  H    2.154852   3.876365   1.094815   2.493560   3.400046
    34  H    3.873772   2.155414   3.399716   4.974205   1.094793
    35  H    3.401437   3.403132   2.158631   4.315106   2.158257
                   31         32         33         34         35
    31  H    0.000000
    32  C    3.401966   0.000000
    33  H    4.972721   2.158542   0.000000
    34  H    2.477948   2.157258   4.305096   0.000000
    35  H    4.304451   1.094635   2.488077   2.486730   0.000000
 Stoichiometry    C19H16
 Framework group  C1[X(C19H16)]
 Deg. of freedom    99
 Full point group                 C1      NOp   1
 Largest Abelian subgroup         C1      NOp   1
 Largest concise Abelian subgroup C1      NOp   1
                         Standard orientation:                         
 ---------------------------------------------------------------------
 Center     Atomic      Atomic             Coordinates (Angstroms)
 Number     Number       Type             X           Y           Z
 ---------------------------------------------------------------------
      1          6           0        0.010666    0.013724   -0.761396
      2          1           0       -0.018647    0.016972   -1.884055
      3          6           0        1.458721   -0.060603   -0.346244
      4          6           0        1.836405   -0.104427    0.997849
      5          6           0        2.447939   -0.095522   -1.331630
      6          6           0        3.178206   -0.180580    1.350223
      7          1           0        1.054693   -0.092138    1.773860
      8          6           0        3.790300   -0.171758   -0.976658
      9          1           0        2.167917   -0.063139   -2.391248
     10          6           0        4.158023   -0.213555    0.363428
     11          1           0        3.462584   -0.216345    2.406836
     12          1           0        4.558588   -0.199378   -1.756195
     13          1           0        5.215098   -0.273819    0.641290
     14          6           0       -0.686186    1.288546   -0.354484
     15          6           0       -2.058155    1.408121   -0.601479
     16          6           0       -0.003506    2.368692    0.203553
     17          6           0       -2.731152    2.581838   -0.289583
     18          1           0       -2.602284    0.563036   -1.040099
     19          6           0       -0.679482    3.544484    0.513890
     20          1           0        1.073479    2.292614    0.400295
     21          6           0       -2.042735    3.654183    0.269459
     22          1           0       -3.805328    2.662583   -0.485014
     23          1           0       -0.131740    4.385351    0.951668
     24          1           0       -2.573272    4.579700    0.514498
     25          6           0       -0.740794   -1.204412   -0.280458
     26          6           0       -1.002323   -1.407456    1.076080
     27          6           0       -1.187110   -2.146570   -1.209421
     28          6           0       -1.704292   -2.530332    1.496551
     29          1           0       -0.628827   -0.675081    1.807917
     30          6           0       -1.886904   -3.271150   -0.785884
     31          1           0       -0.985862   -2.002393   -2.277478
     32          6           0       -2.148793   -3.463853    0.565952
     33          1           0       -1.905568   -2.679753    2.562282
     34          1           0       -2.232084   -4.005900   -1.520435
     35          1           0       -2.701712   -4.348531    0.897391
 ---------------------------------------------------------------------
 Rotational constants (GHZ):      0.4040332      0.3818442      0.2326939
 Standard basis: 6-311G (5D, 7F)
 There are   295 symmetry adapted basis functions of A   symmetry.
 Integral buffers will be    262144 words long.
 Raffenetti 1 integral format.
 Two-electron integral symmetry is turned on.
   295 basis functions,   574 primitive gaussians,   295 cartesian basis functions
    65 alpha electrons       65 beta electrons
       nuclear repulsion energy      1290.7002672931 Hartrees.
 NAtoms=   35 NActive=   35 NUniq=   35 SFac= 7.50D-01 NAtFMM=   80 NAOKFM=F Big=F
 One-electron integrals computed using PRISM.
 PrsmSu:  requested number of processors reduced to:  10 ShMem   1 Linda.
 NBasis=   295 RedAO= T  NBF=   295
 NBsUse=   295 1.00D-06 NBFU=   295
 Harris functional with IExCor=  205 diagonalized for initial guess.
 ExpMin= 1.03D-01 ExpMax= 4.56D+03 ExpMxC= 6.82D+02 IAcc=1 IRadAn=         1 AccDes= 0.00D+00
 HarFok:  IExCor=  205 AccDes= 0.00D+00 IRadAn=         1 IDoV= 1
 ScaDFX=  1.000000  1.000000  1.000000  1.000000
 FoFCou: FMM=F IPFlag=           0 FMFlag=      100000 FMFlg1=           0
         NFxFlg=           0 DoJE=T BraDBF=F KetDBF=T FulRan=T
         Omega=  0.000000  0.000000  1.000000  0.000000  0.000000 ICntrl=     500 IOpCl=  0
         NMat0=    1 NMatS0=    1 NMatT0=    0 NMatD0=    1 NMtDS0=    0 NMtDT0=    0
         I1Cent=           4 NGrid=           0.
 Petite list used in FoFCou.
 Initial guess orbital symmetries:
       Occupied  (A) (A) (A) (A) (A) (A) (A) (A) (A) (A) (A) (A)
                 (A) (A) (A) (A) (A) (A) (A) (A) (A) (A) (A) (A)
                 (A) (A) (A) (A) (A) (A) (A) (A) (A) (A) (A) (A)
                 (A) (A) (A) (A) (A) (A) (A) (A) (A) (A) (A) (A)
                 (A) (A) (A) (A) (A) (A) (A) (A) (A) (A) (A) (A)
                 (A) (A) (A) (A) (A)
       Virtual   (A) (A) (A) (A) (A) (A) (A) (A) (A) (A) (A) (A)
                 (A) (A) (A) (A) (A) (A) (A) (A) (A) (A) (A) (A)
                 (A) (A) (A) (A) (A) (A) (A) (A) (A) (A) (A) (A)
                 (A) (A) (A) (A) (A) (A) (A) (A) (A) (A) (A) (A)
                 (A) (A) (A) (A) (A) (A) (A) (A) (A) (A) (A) (A)
                 (A) (A) (A) (A) (A) (A) (A) (A) (A) (A) (A) (A)
                 (A) (A) (A) (A) (A) (A) (A) (A) (A) (A) (A) (A)
                 (A) (A) (A) (A) (A) (A) (A) (A) (A) (A) (A) (A)
                 (A) (A) (A) (A) (A) (A) (A) (A) (A) (A) (A) (A)
                 (A) (A) (A) (A) (A) (A) (A) (A) (A) (A) (A) (A)
                 (A) (A) (A) (A) (A) (A) (A) (A) (A) (A) (A) (A)
                 (A) (A) (A) (A) (A) (A) (A) (A) (A) (A) (A) (A)
                 (A) (A) (A) (A) (A) (A) (A) (A) (A) (A) (A) (A)
                 (A) (A) (A) (A) (A) (A) (A) (A) (A) (A) (A) (A)
                 (A) (A) (A) (A) (A) (A) (A) (A) (A) (A) (A) (A)
                 (A) (A) (A) (A) (A) (A) (A) (A) (A) (A) (A) (A)
                 (A) (A) (A) (A) (A) (A) (A) (A) (A) (A) (A) (A)
                 (A) (A) (A) (A) (A) (A) (A) (A) (A) (A) (A) (A)
                 (A) (A) (A) (A) (A) (A) (A) (A) (A) (A) (A) (A)
                 (A) (A)
 The electronic state of the initial guess is 1-A.
 Requested convergence on RMS density matrix=1.00D-08 within 128 cycles.
 Requested convergence on MAX density matrix=1.00D-06.
 Requested convergence on             energy=1.00D-06.
 No special actions if energy rises.
 Integral accuracy reduced to 1.0D-05 until final iterations.
 Initial convergence to 1.0D-05 achieved.  Increase integral accuracy.
 SCF Done:  E(RHF) =  -728.672400882     A.U. after   14 cycles
             Convg  =    0.8690D-08             -V/T =  2.0001

 **********************************************************************

            Population analysis using the SCF density.

 **********************************************************************

 Orbital symmetries:
       Occupied  (A) (A) (A) (A) (A) (A) (A) (A) (A) (A) (A) (A)
                 (A) (A) (A) (A) (A) (A) (A) (A) (A) (A) (A) (A)
                 (A) (A) (A) (A) (A) (A) (A) (A) (A) (A) (A) (A)
                 (A) (A) (A) (A) (A) (A) (A) (A) (A) (A) (A) (A)
                 (A) (A) (A) (A) (A) (A) (A) (A) (A) (A) (A) (A)
                 (A) (A) (A) (A) (A)
       Virtual   (A) (A) (A) (A) (A) (A) (A) (A) (A) (A) (A) (A)
                 (A) (A) (A) (A) (A) (A) (A) (A) (A) (A) (A) (A)
                 (A) (A) (A) (A) (A) (A) (A) (A) (A) (A) (A) (A)
                 (A) (A) (A) (A) (A) (A) (A) (A) (A) (A) (A) (A)
                 (A) (A) (A) (A) (A) (A) (A) (A) (A) (A) (A) (A)
                 (A) (A) (A) (A) (A) (A) (A) (A) (A) (A) (A) (A)
                 (A) (A) (A) (A) (A) (A) (A) (A) (A) (A) (A) (A)
                 (A) (A) (A) (A) (A) (A) (A) (A) (A) (A) (A) (A)
                 (A) (A) (A) (A) (A) (A) (A) (A) (A) (A) (A) (A)
                 (A) (A) (A) (A) (A) (A) (A) (A) (A) (A) (A) (A)
                 (A) (A) (A) (A) (A) (A) (A) (A) (A) (A) (A) (A)
                 (A) (A) (A) (A) (A) (A) (A) (A) (A) (A) (A) (A)
                 (A) (A) (A) (A) (A) (A) (A) (A) (A) (A) (A) (A)
                 (A) (A) (A) (A) (A) (A) (A) (A) (A) (A) (A) (A)
                 (A) (A) (A) (A) (A) (A) (A) (A) (A) (A) (A) (A)
                 (A) (A) (A) (A) (A) (A) (A) (A) (A) (A) (A) (A)
                 (A) (A) (A) (A) (A) (A) (A) (A) (A) (A) (A) (A)
                 (A) (A) (A) (A) (A) (A) (A) (A) (A) (A) (A) (A)
                 (A) (A) (A) (A) (A) (A) (A) (A) (A) (A) (A) (A)
                 (A) (A)
 The electronic state is 1-A.
 Alpha  occ. eigenvalues --  -11.25761 -11.25232 -11.25185 -11.24919 -11.24521
 Alpha  occ. eigenvalues --  -11.24433 -11.24420 -11.24371 -11.24221 -11.24167
 Alpha  occ. eigenvalues --  -11.24142 -11.24121 -11.24074 -11.24033 -11.24032
 Alpha  occ. eigenvalues --  -11.23971 -11.23732 -11.23633 -11.23501  -1.18617
 Alpha  occ. eigenvalues --   -1.15873  -1.15574  -1.09028  -1.02379  -1.02237
 Alpha  occ. eigenvalues --   -1.01877  -1.01489  -1.01090  -0.92920  -0.84286
 Alpha  occ. eigenvalues --   -0.83355  -0.82331  -0.81917  -0.81137  -0.77587
 Alpha  occ. eigenvalues --   -0.70869  -0.70366  -0.68985  -0.65687  -0.63898
 Alpha  occ. eigenvalues --   -0.63611  -0.62514  -0.61706  -0.61583  -0.59722
 Alpha  occ. eigenvalues --   -0.58850  -0.58490  -0.58318  -0.56775  -0.55068
 Alpha  occ. eigenvalues --   -0.51725  -0.50920  -0.50225  -0.49862  -0.49379
 Alpha  occ. eigenvalues --   -0.48427  -0.47952  -0.47504  -0.46318  -0.35021
 Alpha  occ. eigenvalues --   -0.34321  -0.33955  -0.33330  -0.32549  -0.31453
 Alpha virt. eigenvalues --    0.11532   0.12291   0.12756   0.13515   0.14988
 Alpha virt. eigenvalues --    0.15119   0.15636   0.16239   0.16483   0.16917
 Alpha virt. eigenvalues --    0.18904   0.19187   0.19231   0.21239   0.21295
 Alpha virt. eigenvalues --    0.21590   0.23565   0.24003   0.24953   0.25414
 Alpha virt. eigenvalues --    0.26824   0.31484   0.33160   0.34243   0.35780
 Alpha virt. eigenvalues --    0.37572   0.39803   0.40535   0.41503   0.43105
 Alpha virt. eigenvalues --    0.44092   0.44428   0.44928   0.45449   0.45612
 Alpha virt. eigenvalues --    0.45862   0.46746   0.47231   0.47971   0.50594
 Alpha virt. eigenvalues --    0.51069   0.51429   0.52180   0.54958   0.56068
 Alpha virt. eigenvalues --    0.57322   0.57839   0.58505   0.58907   0.59352
 Alpha virt. eigenvalues --    0.60212   0.60454   0.60625   0.61137   0.61469
 Alpha virt. eigenvalues --    0.62056   0.62220   0.62958   0.63411   0.63689
 Alpha virt. eigenvalues --    0.64265   0.64568   0.65219   0.65940   0.66405
 Alpha virt. eigenvalues --    0.67225   0.67818   0.68583   0.69849   0.72359
 Alpha virt. eigenvalues --    0.73110   0.73921   0.74450   0.75306   0.75737
 Alpha virt. eigenvalues --    0.76767   0.78863   0.79367   0.79931   0.81270
 Alpha virt. eigenvalues --    0.81509   0.82211   0.82495   0.82905   0.83292
 Alpha virt. eigenvalues --    0.83832   0.84367   0.84830   0.84939   0.85472
 Alpha virt. eigenvalues --    0.85944   0.86211   0.86480   0.87736   0.88152
 Alpha virt. eigenvalues --    0.90242   0.90844   0.92138   0.93472   0.95040
 Alpha virt. eigenvalues --    0.95938   0.96350   0.97035   0.98212   0.99724
 Alpha virt. eigenvalues --    1.00012   1.02336   1.03048   1.04793   1.06216
 Alpha virt. eigenvalues --    1.07126   1.08155   1.09318   1.10149   1.10857
 Alpha virt. eigenvalues --    1.11507   1.11727   1.12424   1.12761   1.13817
 Alpha virt. eigenvalues --    1.15005   1.16522   1.19716   1.20563   1.21116
 Alpha virt. eigenvalues --    1.23785   1.25741   1.27322   1.28100   1.29075
 Alpha virt. eigenvalues --    1.29453   1.31987   1.32892   1.46831   1.47721
 Alpha virt. eigenvalues --    1.52028   1.54197   1.56990   2.53528   2.55702
 Alpha virt. eigenvalues --    2.56064   2.57754   2.62082   2.62325   2.63894
 Alpha virt. eigenvalues --    2.66412   2.67108   2.68474   2.72043   2.74288
 Alpha virt. eigenvalues --    2.78341   2.83410   2.86645   2.91724   2.94354
 Alpha virt. eigenvalues --    2.94608   2.94744   2.96022   2.98101   2.98579
 Alpha virt. eigenvalues --    2.99963   3.02248   3.03915   3.04420   3.06486
 Alpha virt. eigenvalues --    3.08498   3.09254   3.09809   3.10079   3.13198
 Alpha virt. eigenvalues --    3.15144   3.16179   3.17729   3.18409   3.19411
 Alpha virt. eigenvalues --    3.21624   3.24092   3.25063   3.27677   3.28778
 Alpha virt. eigenvalues --    3.31422   3.33873   3.34320   3.35701   3.40907
 Alpha virt. eigenvalues --    3.41334   3.44160   3.45075   3.49927   3.52526
 Alpha virt. eigenvalues --    3.53521   3.55957   3.57577   3.58303   3.59588
 Alpha virt. eigenvalues --    3.62392   3.64079   3.65064   3.66258   3.66769
 Alpha virt. eigenvalues --    3.67685   3.69219   3.71264   3.72334   3.74257
 Alpha virt. eigenvalues --    3.76318   3.77529   3.78509   3.85575   3.88018
 Alpha virt. eigenvalues --    3.91101  24.26053  24.30025  24.31755  24.50530
 Alpha virt. eigenvalues --   24.50782  24.51037  24.53049  24.54605  24.56495
 Alpha virt. eigenvalues --   24.76205  24.77064  24.79109  24.80213  24.80726
 Alpha virt. eigenvalues --   24.82801  24.87421  25.04647  25.05797  25.07127
          Condensed to atoms (all electrons):
              1          2          3          4          5          6
     1  C    6.106568   0.472848   0.118129  -0.071809  -0.024288   0.002591
     2  H    0.472848   0.502748  -0.075416   0.004443   0.006425  -0.000225
     3  C    0.118129  -0.075416   5.393890   0.451001   0.498707  -0.063911
     4  C   -0.071809   0.004443   0.451001   5.097774  -0.063379   0.480249
     5  C   -0.024288   0.006425   0.498707  -0.063379   5.048566  -0.033953
     6  C    0.002591  -0.000225  -0.063911   0.480249  -0.033953   5.046393
     7  H    0.000779  -0.000025  -0.047562   0.386326   0.004597  -0.027099
     8  C    0.008223   0.001458  -0.076761  -0.029545   0.468186  -0.077360
     9  H   -0.002059   0.002823  -0.045690   0.004760   0.394561  -0.000286
    10  C    0.001704   0.000005  -0.016100  -0.093562  -0.088980   0.490247
    11  H   -0.000372   0.000012   0.005974  -0.038557  -0.000377   0.397004
    12  H   -0.000410  -0.000034   0.007019  -0.000633  -0.039454   0.006272
    13  H   -0.000026  -0.000002  -0.001681   0.007988   0.007569  -0.042974
    14  C    0.034207  -0.062437  -0.065485   0.006683  -0.000455   0.000762
    15  C   -0.085719  -0.004785   0.011438   0.000837  -0.000278   0.000015
    16  C   -0.030456   0.000851  -0.012497  -0.018362   0.000884  -0.001446
    17  C    0.008334   0.000630  -0.000881  -0.000022   0.000009   0.000000
    18  H   -0.002979  -0.000141   0.000817  -0.000041  -0.000006   0.000000
    19  C    0.012207  -0.000119  -0.001576  -0.000952  -0.000113  -0.000041
    20  H   -0.011298  -0.000274   0.000986  -0.001039  -0.001074   0.000303
    21  C    0.000391   0.000033   0.000121  -0.000016  -0.000004   0.000000
    22  H   -0.000355   0.000005   0.000012   0.000000   0.000000   0.000000
    23  H   -0.000362   0.000014   0.000059   0.000026   0.000004  -0.000001
    24  H   -0.000014  -0.000002   0.000001   0.000001   0.000000   0.000000
    25  C    0.149382  -0.070453  -0.141365  -0.003248  -0.004491   0.001981
    26  C   -0.055847   0.005473  -0.003392  -0.011823   0.000749  -0.000101
    27  C   -0.024648   0.001666  -0.002116   0.000521   0.000626   0.000043
    28  C    0.003270  -0.000262   0.001905  -0.000405   0.000029  -0.000101
    29  H    0.000170   0.000107  -0.002856  -0.000956  -0.000199   0.000880
    30  C    0.006850   0.001559  -0.000516   0.000128  -0.000018   0.000001
    31  H   -0.000091   0.002365   0.000354  -0.000008   0.000273  -0.000001
    32  C    0.001271  -0.000001  -0.000088  -0.000025  -0.000009   0.000001
    33  H   -0.000349   0.000011   0.000028   0.000056   0.000000   0.000002
    34  H   -0.000340  -0.000039   0.000025   0.000000   0.000001   0.000000
    35  H   -0.000012  -0.000001  -0.000003   0.000000   0.000000   0.000000
              7          8          9         10         11         12
     1  C    0.000779   0.008223  -0.002059   0.001704  -0.000372  -0.000410
     2  H   -0.000025   0.001458   0.002823   0.000005   0.000012  -0.000034
     3  C   -0.047562  -0.076761  -0.045690  -0.016100   0.005974   0.007019
     4  C    0.386326  -0.029545   0.004760  -0.093562  -0.038557  -0.000633
     5  C    0.004597   0.468186   0.394561  -0.088980  -0.000377  -0.039454
     6  C   -0.027099  -0.077360  -0.000286   0.490247   0.397004   0.006272
     7  H    0.497189  -0.000126  -0.000270   0.004630  -0.003388   0.000016
     8  C   -0.000126   5.047355  -0.033769   0.499777   0.005898   0.396366
     9  H   -0.000270  -0.033769   0.506570   0.005067   0.000025  -0.004076
    10  C    0.004630   0.499777   0.005067   5.033619  -0.039791  -0.041038
    11  H   -0.003388   0.005898   0.000025  -0.039791   0.514396  -0.000206
    12  H    0.000016   0.396366  -0.004076  -0.041038  -0.000206   0.517973
    13  H   -0.000170  -0.042550  -0.000178   0.399453  -0.004368  -0.004556
    14  C    0.001404  -0.000767   0.000499  -0.000068   0.000019   0.000024
    15  C    0.000012   0.000005   0.000013   0.000000   0.000000   0.000000
    16  C    0.001648   0.000351   0.000132   0.000137   0.000004  -0.000008
    17  C   -0.000053   0.000000   0.000000   0.000000   0.000000   0.000000
    18  H    0.000022   0.000000  -0.000001   0.000000   0.000000   0.000000
    19  C    0.000115   0.000004   0.000004   0.000004  -0.000002   0.000000
    20  H    0.000027  -0.000125   0.000088   0.000101   0.000038   0.000011
    21  C    0.000000   0.000000   0.000000   0.000000   0.000000   0.000000
    22  H   -0.000001   0.000000   0.000000   0.000000   0.000000   0.000000
    23  H    0.000001   0.000000   0.000000  -0.000001   0.000000   0.000000
    24  H    0.000000   0.000000   0.000000   0.000000   0.000000   0.000000
    25  C   -0.003728  -0.000590   0.000156  -0.000060   0.000027   0.000021
    26  C    0.001929   0.000055  -0.000025  -0.000005   0.000038  -0.000001
    27  C   -0.000214  -0.000012   0.000209  -0.000013   0.000002   0.000001
    28  C    0.001140  -0.000001   0.000001   0.000002   0.000000   0.000000
    29  H    0.001568   0.000000  -0.000002  -0.000014  -0.000033   0.000000
    30  C   -0.000059   0.000002  -0.000002   0.000000   0.000000   0.000000
    31  H    0.000001   0.000006   0.000066  -0.000002   0.000000   0.000000
    32  C    0.000004   0.000000  -0.000001   0.000000   0.000000   0.000000
    33  H   -0.000059   0.000000   0.000000   0.000000   0.000001   0.000000
    34  H    0.000001   0.000000   0.000000   0.000000   0.000000   0.000000
    35  H    0.000000   0.000000   0.000000   0.000000   0.000000   0.000000
             13         14         15         16         17         18
     1  C   -0.000026   0.034207  -0.085719  -0.030456   0.008334  -0.002979
     2  H   -0.000002  -0.062437  -0.004785   0.000851   0.000630  -0.000141
     3  C   -0.001681  -0.065485   0.011438  -0.012497  -0.000881   0.000817
     4  C    0.007988   0.006683   0.000837  -0.018362  -0.000022  -0.000041
     5  C    0.007569  -0.000455  -0.000278   0.000884   0.000009  -0.000006
     6  C   -0.042974   0.000762   0.000015  -0.001446   0.000000   0.000000
     7  H   -0.000170   0.001404   0.000012   0.001648  -0.000053   0.000022
     8  C   -0.042550  -0.000767   0.000005   0.000351   0.000000   0.000000
     9  H   -0.000178   0.000499   0.000013   0.000132   0.000000  -0.000001
    10  C    0.399453  -0.000068   0.000000   0.000137   0.000000   0.000000
    11  H   -0.004368   0.000019   0.000000   0.000004   0.000000   0.000000
    12  H   -0.004556   0.000024   0.000000  -0.000008   0.000000   0.000000
    13  H    0.516925   0.000002   0.000000  -0.000003   0.000000   0.000000
    14  C    0.000002   5.352368   0.471494   0.500543  -0.056826  -0.045129
    15  C    0.000000   0.471494   5.124296  -0.083664   0.463576   0.397525
    16  C   -0.000003   0.500543  -0.083664   5.096679  -0.030138   0.004479
    17  C    0.000000  -0.056826   0.463576  -0.030138   5.062000  -0.035165
    18  H    0.000000  -0.045129   0.397525   0.004479  -0.035165   0.489919
    19  C    0.000000  -0.068963  -0.033327   0.454375  -0.073897  -0.000469
    20  H    0.000009  -0.034826   0.004962   0.393968  -0.000436  -0.000196
    21  C    0.000000  -0.020632  -0.085108  -0.089982   0.480526   0.005231
    22  H    0.000000   0.006147  -0.038336  -0.000437   0.397099  -0.003872
    23  H    0.000000   0.006483  -0.000406  -0.036839   0.006012   0.000017
    24  H    0.000000  -0.001455   0.007447   0.007665  -0.043217  -0.000173
    25  C   -0.000002  -0.094999  -0.006986   0.001114  -0.001613   0.004072
    26  C    0.000001  -0.007154  -0.008809   0.001647  -0.000279  -0.000596
    27  C    0.000000  -0.001462   0.000595  -0.000444  -0.000048   0.001625
    28  C    0.000000  -0.000559  -0.000343   0.000020  -0.000009  -0.000251
    29  H    0.000000   0.001137   0.000293  -0.000145   0.000062  -0.000061
    30  C    0.000000  -0.000426  -0.000101   0.000020   0.000013   0.000117
    31  H    0.000000   0.000146   0.000292  -0.000034  -0.000008   0.000202
    32  C    0.000000   0.000043   0.000111  -0.000002   0.000002  -0.000088
    33  H    0.000000   0.000024   0.000016   0.000000   0.000001   0.000005
    34  H    0.000000   0.000011  -0.000002   0.000000   0.000000   0.000006
    35  H    0.000000   0.000001   0.000000   0.000000   0.000000   0.000001
             19         20         21         22         23         24
     1  C    0.012207  -0.011298   0.000391  -0.000355  -0.000362  -0.000014
     2  H   -0.000119  -0.000274   0.000033   0.000005   0.000014  -0.000002
     3  C   -0.001576   0.000986   0.000121   0.000012   0.000059   0.000001
     4  C   -0.000952  -0.001039  -0.000016   0.000000   0.000026   0.000001
     5  C   -0.000113  -0.001074  -0.000004   0.000000   0.000004   0.000000
     6  C   -0.000041   0.000303   0.000000   0.000000  -0.000001   0.000000
     7  H    0.000115   0.000027   0.000000  -0.000001   0.000001   0.000000
     8  C    0.000004  -0.000125   0.000000   0.000000   0.000000   0.000000
     9  H    0.000004   0.000088   0.000000   0.000000   0.000000   0.000000
    10  C    0.000004   0.000101   0.000000   0.000000  -0.000001   0.000000
    11  H   -0.000002   0.000038   0.000000   0.000000   0.000000   0.000000
    12  H    0.000000   0.000011   0.000000   0.000000   0.000000   0.000000
    13  H    0.000000   0.000009   0.000000   0.000000   0.000000   0.000000
    14  C   -0.068963  -0.034826  -0.020632   0.006147   0.006483  -0.001455
    15  C   -0.033327   0.004962  -0.085108  -0.038336  -0.000406   0.007447
    16  C    0.454375   0.393968  -0.089982  -0.000437  -0.036839   0.007665
    17  C   -0.073897  -0.000436   0.480526   0.397099   0.006012  -0.043217
    18  H   -0.000469  -0.000196   0.005231  -0.003872   0.000017  -0.000173
    19  C    5.078536  -0.036357   0.495714   0.005999   0.395614  -0.042143
    20  H   -0.036357   0.477328   0.005033   0.000017  -0.003520  -0.000170
    21  C    0.495714   0.005033   5.042734  -0.040844  -0.041248   0.399489
    22  H    0.005999   0.000017  -0.040844   0.517575  -0.000213  -0.004407
    23  H    0.395614  -0.003520  -0.041248  -0.000213   0.517815  -0.004465
    24  H   -0.042143  -0.000170   0.399489  -0.004407  -0.004465   0.519365
    25  C   -0.000810   0.000425   0.000128   0.000015   0.000012   0.000002
    26  C    0.000051   0.000061   0.000034   0.000014   0.000000   0.000000
    27  C    0.000007  -0.000017  -0.000003  -0.000004   0.000000   0.000000
    28  C    0.000004   0.000000   0.000002   0.000002   0.000000   0.000000
    29  H   -0.000103   0.000023  -0.000040   0.000005   0.000000   0.000001
    30  C    0.000000   0.000000   0.000000  -0.000001   0.000000   0.000000
    31  H    0.000000   0.000001   0.000001   0.000000   0.000000   0.000000
    32  C    0.000000   0.000000   0.000000   0.000000   0.000000   0.000000
    33  H    0.000000   0.000000   0.000000   0.000000   0.000000   0.000000
    34  H    0.000000   0.000000   0.000000   0.000000   0.000000   0.000000
    35  H    0.000000   0.000000   0.000000   0.000000   0.000000   0.000000
             25         26         27         28         29         30
     1  C    0.149382  -0.055847  -0.024648   0.003270   0.000170   0.006850
     2  H   -0.070453   0.005473   0.001666  -0.000262   0.000107   0.001559
     3  C   -0.141365  -0.003392  -0.002116   0.001905  -0.002856  -0.000516
     4  C   -0.003248  -0.011823   0.000521  -0.000405  -0.000956   0.000128
     5  C   -0.004491   0.000749   0.000626   0.000029  -0.000199  -0.000018
     6  C    0.001981  -0.000101   0.000043  -0.000101   0.000880   0.000001
     7  H   -0.003728   0.001929  -0.000214   0.001140   0.001568  -0.000059
     8  C   -0.000590   0.000055  -0.000012  -0.000001   0.000000   0.000002
     9  H    0.000156  -0.000025   0.000209   0.000001  -0.000002  -0.000002
    10  C   -0.000060  -0.000005  -0.000013   0.000002  -0.000014   0.000000
    11  H    0.000027   0.000038   0.000002   0.000000  -0.000033   0.000000
    12  H    0.000021  -0.000001   0.000001   0.000000   0.000000   0.000000
    13  H   -0.000002   0.000001   0.000000   0.000000   0.000000   0.000000
    14  C   -0.094999  -0.007154  -0.001462  -0.000559   0.001137  -0.000426
    15  C   -0.006986  -0.008809   0.000595  -0.000343   0.000293  -0.000101
    16  C    0.001114   0.001647  -0.000444   0.000020  -0.000145   0.000020
    17  C   -0.001613  -0.000279  -0.000048  -0.000009   0.000062   0.000013
    18  H    0.004072  -0.000596   0.001625  -0.000251  -0.000061   0.000117
    19  C   -0.000810   0.000051   0.000007   0.000004  -0.000103   0.000000
    20  H    0.000425   0.000061  -0.000017   0.000000   0.000023   0.000000
    21  C    0.000128   0.000034  -0.000003   0.000002  -0.000040   0.000000
    22  H    0.000015   0.000014  -0.000004   0.000002   0.000005  -0.000001
    23  H    0.000012   0.000000   0.000000   0.000000   0.000000   0.000000
    24  H    0.000002   0.000000   0.000000   0.000000   0.000001   0.000000
    25  C    5.391546   0.447528   0.492489  -0.058185  -0.044569  -0.073771
    26  C    0.447528   5.068628  -0.072125   0.478890   0.388746  -0.026463
    27  C    0.492489  -0.072125   5.091840  -0.030674   0.004093   0.454278
    28  C   -0.058185   0.478890  -0.030674   5.040635  -0.028499  -0.078627
    29  H   -0.044569   0.388746   0.004093  -0.028499   0.497143   0.000022
    30  C   -0.073771  -0.026463   0.454278  -0.078627   0.000022   5.059276
    31  H   -0.050705   0.004332   0.400444  -0.000281  -0.000272  -0.034824
    32  C   -0.018791  -0.091305  -0.086376   0.491137   0.004556   0.497803
    33  H    0.006020  -0.038898  -0.000476   0.397223  -0.003326   0.005968
    34  H    0.006930  -0.000686  -0.039680   0.006242   0.000014   0.396948
    35  H   -0.001549   0.007894   0.007489  -0.042921  -0.000173  -0.042560
             31         32         33         34         35
     1  C   -0.000091   0.001271  -0.000349  -0.000340  -0.000012
     2  H    0.002365  -0.000001   0.000011  -0.000039  -0.000001
     3  C    0.000354  -0.000088   0.000028   0.000025  -0.000003
     4  C   -0.000008  -0.000025   0.000056   0.000000   0.000000
     5  C    0.000273  -0.000009   0.000000   0.000001   0.000000
     6  C   -0.000001   0.000001   0.000002   0.000000   0.000000
     7  H    0.000001   0.000004  -0.000059   0.000001   0.000000
     8  C    0.000006   0.000000   0.000000   0.000000   0.000000
     9  H    0.000066  -0.000001   0.000000   0.000000   0.000000
    10  C   -0.000002   0.000000   0.000000   0.000000   0.000000
    11  H    0.000000   0.000000   0.000001   0.000000   0.000000
    12  H    0.000000   0.000000   0.000000   0.000000   0.000000
    13  H    0.000000   0.000000   0.000000   0.000000   0.000000
    14  C    0.000146   0.000043   0.000024   0.000011   0.000001
    15  C    0.000292   0.000111   0.000016  -0.000002   0.000000
    16  C   -0.000034  -0.000002   0.000000   0.000000   0.000000
    17  C   -0.000008   0.000002   0.000001   0.000000   0.000000
    18  H    0.000202  -0.000088   0.000005   0.000006   0.000001
    19  C    0.000000   0.000000   0.000000   0.000000   0.000000
    20  H    0.000001   0.000000   0.000000   0.000000   0.000000
    21  C    0.000001   0.000000   0.000000   0.000000   0.000000
    22  H    0.000000   0.000000   0.000000   0.000000   0.000000
    23  H    0.000000   0.000000   0.000000   0.000000   0.000000
    24  H    0.000000   0.000000   0.000000   0.000000   0.000000
    25  C   -0.050705  -0.018791   0.006020   0.006930  -0.001549
    26  C    0.004332  -0.091305  -0.038898  -0.000686   0.007894
    27  C    0.400444  -0.086376  -0.000476  -0.039680   0.007489
    28  C   -0.000281   0.491137   0.397223   0.006242  -0.042921
    29  H   -0.000272   0.004556  -0.003326   0.000014  -0.000173
    30  C   -0.034824   0.497803   0.005968   0.396948  -0.042560
    31  H    0.509680   0.005236   0.000025  -0.004205  -0.000184
    32  C    0.005236   5.034118  -0.039833  -0.040688   0.399663
    33  H    0.000025  -0.039833   0.514798  -0.000205  -0.004469
    34  H   -0.004205  -0.040688  -0.000205   0.518109  -0.004586
    35  H   -0.000184   0.399663  -0.004469  -0.004586   0.517410
 Mulliken atomic charges:
              1
     1  C   -0.615491
     2  H    0.210738
     3  C    0.067429
     4  C   -0.106412
     5  C   -0.174110
     6  C   -0.179246
     7  H    0.181345
     8  C   -0.166082
     9  H    0.171385
    10  C   -0.155111
    11  H    0.163658
    12  H    0.162714
    13  H    0.164564
    14  C    0.079646
    15  C   -0.135063
    16  C   -0.160059
    17  C   -0.175673
    18  H    0.185133
    19  C   -0.183762
    20  H    0.205949
    21  C   -0.151560
    22  H    0.161581
    23  H    0.160999
    24  H    0.162077
    25  C    0.074067
    26  C   -0.088563
    27  C   -0.197615
    28  C   -0.179381
    29  H    0.182427
    30  C   -0.165619
    31  H    0.167190
    32  C   -0.156738
    33  H    0.163438
    34  H    0.162144
    35  H    0.164000
 Sum of Mulliken atomic charges =   0.00000
 Mulliken charges with hydrogens summed into heavy atoms:
              1
     1  C   -0.404752
     3  C    0.067429
     4  C    0.074933
     5  C   -0.002725
     6  C   -0.015587
     8  C   -0.003368
    10  C    0.009453
    14  C    0.079646
    15  C    0.050070
    16  C    0.045890
    17  C   -0.014093
    19  C   -0.022763
    21  C    0.010518
    25  C    0.074067
    26  C    0.093864
    27  C   -0.030425
    28  C   -0.015943
    30  C   -0.003475
    32  C    0.007262
 Sum of Mulliken charges with hydrogens summed into heavy atoms =   0.00000
 Electronic spatial extent (au):  <R**2>=           4931.3500
 Charge=              0.0000 electrons
 Dipole moment (field-independent basis, Debye):
    X=              0.0965    Y=             -0.1669    Z=             -0.0181  Tot=              0.1937
 Quadrupole moment (field-independent basis, Debye-Ang):
   XX=           -107.7413   YY=           -113.2047   ZZ=           -106.8217
   XY=              2.7985   XZ=              0.9135   YZ=              2.6597
 Traceless Quadrupole moment (field-independent basis, Debye-Ang):
   XX=              1.5146   YY=             -3.9488   ZZ=              2.4342
   XY=              2.7985   XZ=              0.9135   YZ=              2.6597
 Octapole moment (field-independent basis, Debye-Ang**2):
  XXX=             27.8398  YYY=              8.4027  ZZZ=              0.7705  XYY=            -36.8840
  XXY=              2.2385  XXZ=             -2.9663  XZZ=             10.1449  YZZ=            -18.4408
  YYZ=             11.9732  XYZ=              1.3797
 Hexadecapole moment (field-independent basis, Debye-Ang**3):
 XXXX=          -3051.2556 YYYY=          -2911.7311 ZZZZ=           -666.5795 XXXY=            -62.1357
 XXXZ=             15.4319 YYYX=             65.7301 YYYZ=             74.2405 ZZZX=             -6.5973
 ZZZY=             -2.5143 XXYY=          -1020.2145 XXZZ=           -628.5205 YYZZ=           -635.2645
 XXYZ=             -8.4830 YYXZ=            -11.2129 ZZXY=             33.5348
 N-N= 1.290700267293D+03 E-N=-4.277477112830D+03  KE= 7.286026505797D+02
 PrsmSu:  requested number of processors reduced to:  10 ShMem   1 Linda.
 Calling FoFJK, ICntrl=      2127 FMM=F ISym2X=0 I1Cent= 0 IOpClX= 0 NMat=1 NMatS=1 NMatT=0.
 ***** Axes restored to original set *****
 -------------------------------------------------------------------
 Center     Atomic                   Forces (Hartrees/Bohr)
 Number     Number              X              Y              Z
 -------------------------------------------------------------------
      1        6          -0.002655631   -0.002096561    0.022944133
      2        1           0.005252121    0.007476419   -0.023619877
      3        6           0.010805374    0.000642994    0.008469809
      4        6          -0.005495430    0.002236465   -0.010901796
      5        6          -0.002789876   -0.001504289    0.005142402
      6        6           0.002400539    0.001858178   -0.012173418
      7        1           0.022869296   -0.002322620    0.018700173
      8        6           0.009997068    0.000597755    0.009395194
      9        1           0.006180661    0.002891234   -0.016467373
     10        6           0.013514761    0.002107736    0.000850836
     11        1          -0.006282517   -0.002935042    0.015203372
     12        1          -0.009765919    0.000033671   -0.013522152
     13        1          -0.016448545   -0.002927381    0.001773725
     14        6          -0.003036110   -0.013507630   -0.005742499
     15        6          -0.007233680    0.003770297    0.002976106
     16        6           0.012045770    0.001716837    0.000220856
     17        6          -0.012603086   -0.000656642    0.001657941
     18        1           0.010891775   -0.012990559   -0.007958740
     19        6           0.005239081   -0.010159474   -0.005791677
     20        1          -0.021240741   -0.005838988    0.000720272
     21        6          -0.002709357   -0.012149484   -0.005892861
     22        1           0.016338845    0.003076796   -0.000354952
     23        1          -0.010563478    0.011002861    0.006736575
     24        1           0.005931325    0.014218310    0.006281369
     25        6          -0.008819900    0.009619131    0.006029663
     26        6           0.004404481   -0.005028199   -0.009193897
     27        6           0.000886287   -0.001449217    0.005652167
     28        6           0.001114424    0.001058070   -0.012316115
     29        1          -0.020254922    0.013804920    0.013229153
     30        6          -0.007157738    0.009023676    0.007387938
     31        1          -0.000802643    0.003567481   -0.017198313
     32        6          -0.007898704    0.011107933   -0.001708399
     33        1           0.001069804   -0.003911935    0.016248610
     34        1           0.007707790   -0.009055888   -0.011560017
     35        1           0.009108876   -0.013276854    0.004781792
 -------------------------------------------------------------------
 Cartesian Forces:  Max     0.023619877 RMS     0.009553517

 GradGradGradGradGradGradGradGradGradGradGradGradGradGradGradGradGradGrad
 Berny optimization.
 Internal  Forces:  Max     0.028737369 RMS     0.007790856
 Search for a local minimum.
 Step number   1 out of a maximum of  197
 All quantities printed in internal units (Hartrees-Bohrs-Radians)
 Mixed Optimization -- RFO/linear search
 Second derivative matrix not updated -- first step.
     Eigenvalues ---    0.00635   0.00650   0.00657   0.01533   0.01538
     Eigenvalues ---    0.01540   0.02138   0.02142   0.02147   0.02171
     Eigenvalues ---    0.02172   0.02173   0.02182   0.02184   0.02185
     Eigenvalues ---    0.02201   0.02202   0.02203   0.02211   0.02211
     Eigenvalues ---    0.02212   0.02214   0.02215   0.02215   0.02216
     Eigenvalues ---    0.02218   0.02219   0.02220   0.02220   0.02226
     Eigenvalues ---    0.04559   0.06395   0.06631   0.15997   0.15998
     Eigenvalues ---    0.16000   0.16000   0.16000   0.16000   0.16000
     Eigenvalues ---    0.16000   0.16000   0.16000   0.16000   0.16000
     Eigenvalues ---    0.16000   0.16000   0.16000   0.18858   0.19342
     Eigenvalues ---    0.22000   0.22000   0.22000   0.22000   0.22000
     Eigenvalues ---    0.22000   0.23466   0.23477   0.23478   0.24969
     Eigenvalues ---    0.24999   0.25000   0.31257   0.31359   0.31476
     Eigenvalues ---    0.31530   0.33511   0.33609   0.33966   0.34056
     Eigenvalues ---    0.34075   0.34086   0.34256   0.34258   0.34262
     Eigenvalues ---    0.34264   0.34265   0.34265   0.34281   0.34282
     Eigenvalues ---    0.34289   0.42393   0.42463   0.42486   0.42560
     Eigenvalues ---    0.42577   0.42621   0.46327   0.46391   0.46440
     Eigenvalues ---    0.46733   0.46752   0.46815   0.47203   0.47213
     Eigenvalues ---    0.47215   0.47343   0.47346   0.474471000.00000
     Eigenvalues --- 1000.000001000.000001000.000001000.000001000.00000
     Eigenvalues --- 1000.000001000.000001000.000001000.000001000.00000
     Eigenvalues --- 1000.000001000.000001000.000001000.000001000.00000
     Eigenvalues --- 1000.000001000.000001000.000001000.000001000.00000
     Eigenvalues --- 1000.000001000.000001000.000001000.000001000.00000
     Eigenvalues --- 1000.000001000.000001000.000001000.000001000.00000
     Eigenvalues --- 1000.000001000.000001000.000001000.000001000.00000
     Eigenvalues --- 1000.000001000.000001000.000001000.000001000.00000
     Eigenvalues --- 1000.000001000.000001000.000001000.000001000.00000
     Eigenvalues --- 1000.000001000.000001000.000001000.000001000.00000
     Eigenvalues --- 1000.000001000.000001000.000001000.000001000.00000
     Eigenvalues --- 1000.000001000.000001000.000001000.000001000.00000
     Eigenvalues --- 1000.000001000.000001000.000001000.000001000.00000
     Eigenvalues --- 1000.000001000.000001000.000001000.000001000.00000
     Eigenvalues --- 1000.000001000.000001000.000001000.000001000.00000
     Eigenvalues --- 1000.000001000.000001000.000001000.000001000.00000
     Eigenvalues --- 1000.000001000.000001000.000001000.000001000.00000
     Eigenvalues --- 1000.000001000.00000
 RFO step:  Lambda=-4.19128971D-02 EMin= 6.34760367D-03
 Linear search not attempted -- first point.
 Maximum step size (   0.300) exceeded in Quadratic search.
    -- Step size scaled by   0.591
 Iteration  1 RMS(Cart)=  0.12564469 RMS(Int)=  0.00303455
 Iteration  2 RMS(Cart)=  0.00613713 RMS(Int)=  0.00028227
 Iteration  3 RMS(Cart)=  0.00001069 RMS(Int)=  0.00028220
 Iteration  4 RMS(Cart)=  0.00000000 RMS(Int)=  0.00028220
 Variable       Old X    -DE/DX   Delta X   Delta X   Delta X     New X
                                 (Linear)    (Quad)   (Total)
    R1        2.12225  -0.02492   0.00000  -0.04157  -0.04157   2.08068
    R2        2.85013   0.02371   0.00000   0.03926   0.03926   2.88939
    R3        2.85114   0.02347   0.00000   0.03892   0.03892   2.89005
    R4        2.85333   0.02288   0.00000   0.03806   0.03806   2.89139
    R5        2.63964   0.00076   0.00000   0.00104   0.00105   2.64069
    R6        2.63937  -0.00425   0.00000  -0.00493  -0.00491   2.63446
    R7        2.62556  -0.00441   0.00000  -0.00498  -0.00498   2.62058
    R8        2.08163  -0.02874   0.00000  -0.04508  -0.04508   2.03656
    R9        2.62784  -0.00242   0.00000  -0.00287  -0.00286   2.62498
   R10        2.07203  -0.01781   0.00000  -0.02753  -0.02753   2.04450
   R11        2.62862  -0.00560   0.00000  -0.00651  -0.00653   2.62209
   R12        2.06887  -0.01671   0.00000  -0.02570  -0.02570   2.04317
   R13        2.62719  -0.00914   0.00000  -0.01065  -0.01066   2.61653
   R14        2.06898  -0.01668   0.00000  -0.02565  -0.02565   2.04332
   R15        2.06858  -0.01680   0.00000  -0.02582  -0.02582   2.04275
   R16        2.64400  -0.00206   0.00000  -0.00238  -0.00237   2.64163
   R17        2.63491  -0.00225   0.00000  -0.00249  -0.00248   2.63243
   R18        2.62381  -0.00483   0.00000  -0.00559  -0.00559   2.61822
   R19        2.07236  -0.01870   0.00000  -0.02891  -0.02891   2.04345
   R20        2.62919  -0.00131   0.00000  -0.00144  -0.00144   2.62775
   R21        2.07387  -0.02196   0.00000  -0.03404  -0.03404   2.03984
   R22        2.62962  -0.00489   0.00000  -0.00578  -0.00578   2.62384
   R23        2.06886  -0.01663   0.00000  -0.02557  -0.02557   2.04328
   R24        2.62545  -0.00749   0.00000  -0.00864  -0.00864   2.61681
   R25        2.06899  -0.01667   0.00000  -0.02565  -0.02565   2.04335
   R26        2.06845  -0.01664   0.00000  -0.02557  -0.02557   2.04288
   R27        2.63874  -0.00009   0.00000   0.00000   0.00002   2.63875
   R28        2.63874  -0.00424   0.00000  -0.00491  -0.00490   2.63385
   R29        2.62557  -0.00467   0.00000  -0.00531  -0.00530   2.62026
   R30        2.07995  -0.02651   0.00000  -0.04147  -0.04147   2.03848
   R31        2.62786  -0.00227   0.00000  -0.00266  -0.00267   2.62519
   R32        2.07185  -0.01757   0.00000  -0.02715  -0.02715   2.04470
   R33        2.62873  -0.00532   0.00000  -0.00619  -0.00620   2.62253
   R34        2.06890  -0.01675   0.00000  -0.02575  -0.02575   2.04315
   R35        2.62745  -0.00878   0.00000  -0.01020  -0.01022   2.61723
   R36        2.06886  -0.01658   0.00000  -0.02550  -0.02550   2.04336
   R37        2.06856  -0.01680   0.00000  -0.02582  -0.02582   2.04274
    A1        1.87587  -0.01002   0.00000  -0.05148  -0.05056   1.82531
    A2        1.82876   0.00376   0.00000  -0.00010   0.00015   1.82891
    A3        1.88363  -0.00864   0.00000  -0.04822  -0.04741   1.83622
    A4        1.99418   0.00092   0.00000   0.02180   0.01990   2.01408
    A5        1.92879   0.01537   0.00000   0.05445   0.05328   1.98207
    A6        1.94539  -0.00330   0.00000   0.01197   0.00979   1.95519
    A7        2.12470   0.02292   0.00000   0.04647   0.04644   2.17114
    A8        2.07949  -0.01106   0.00000  -0.02238  -0.02240   2.05709
    A9        2.07898  -0.01185   0.00000  -0.02405  -0.02402   2.05496
   A10        2.10236   0.00452   0.00000   0.01020   0.01019   2.11255
   A11        2.07789   0.00439   0.00000   0.01445   0.01441   2.09231
   A12        2.10283  -0.00889   0.00000  -0.02447  -0.02450   2.07832
   A13        2.10014   0.00816   0.00000   0.01791   0.01793   2.11807
   A14        2.09461  -0.00471   0.00000  -0.01081  -0.01083   2.08378
   A15        2.08844  -0.00344   0.00000  -0.00710  -0.00711   2.08133
   A16        2.09630   0.00239   0.00000   0.00498   0.00496   2.10126
   A17        2.09142  -0.00110   0.00000  -0.00222  -0.00221   2.08921
   A18        2.09546  -0.00129   0.00000  -0.00276  -0.00275   2.09271
   A19        2.09790  -0.00023   0.00000  -0.00142  -0.00143   2.09647
   A20        2.09096   0.00030   0.00000   0.00124   0.00125   2.09221
   A21        2.09433  -0.00007   0.00000   0.00018   0.00018   2.09451
   A22        2.09069  -0.00299   0.00000  -0.00761  -0.00764   2.08305
   A23        2.09607   0.00153   0.00000   0.00391   0.00393   2.10000
   A24        2.09642   0.00146   0.00000   0.00370   0.00371   2.10014
   A25        2.06860   0.00054   0.00000   0.00100   0.00099   2.06959
   A26        2.13691   0.00738   0.00000   0.01486   0.01485   2.15176
   A27        2.07664  -0.00794   0.00000  -0.01611  -0.01610   2.06054
   A28        2.10352   0.00471   0.00000   0.01028   0.01029   2.11381
   A29        2.08436  -0.00127   0.00000  -0.00197  -0.00198   2.08238
   A30        2.09529  -0.00344   0.00000  -0.00831  -0.00832   2.08697
   A31        2.10141   0.00351   0.00000   0.00804   0.00805   2.10945
   A32        2.09269  -0.00010   0.00000   0.00083   0.00082   2.09351
   A33        2.08909  -0.00341   0.00000  -0.00887  -0.00887   2.08021
   A34        2.09658   0.00083   0.00000   0.00117   0.00116   2.09773
   A35        2.09189  -0.00042   0.00000  -0.00059  -0.00059   2.09130
   A36        2.09472  -0.00041   0.00000  -0.00057  -0.00057   2.09415
   A37        2.09928   0.00111   0.00000   0.00227   0.00226   2.10153
   A38        2.08882  -0.00049   0.00000  -0.00093  -0.00092   2.08790
   A39        2.09509  -0.00063   0.00000  -0.00134  -0.00134   2.09375
   A40        2.08894  -0.00222   0.00000  -0.00566  -0.00568   2.08326
   A41        2.09641   0.00115   0.00000   0.00296   0.00297   2.09938
   A42        2.09784   0.00106   0.00000   0.00270   0.00271   2.10054
   A43        2.11760   0.01859   0.00000   0.03769   0.03762   2.15522
   A44        2.08462  -0.00786   0.00000  -0.01589  -0.01595   2.06867
   A45        2.08097  -0.01073   0.00000  -0.02184  -0.02183   2.05914
   A46        2.10150   0.00418   0.00000   0.00938   0.00933   2.11083
   A47        2.07788   0.00373   0.00000   0.01250   0.01240   2.09028
   A48        2.10364  -0.00787   0.00000  -0.02148  -0.02158   2.08206
   A49        2.09887   0.00738   0.00000   0.01628   0.01629   2.11516
   A50        2.09520  -0.00437   0.00000  -0.01012  -0.01013   2.08506
   A51        2.08912  -0.00302   0.00000  -0.00616  -0.00617   2.08294
   A52        2.09595   0.00227   0.00000   0.00469   0.00469   2.10063
   A53        2.09183  -0.00105   0.00000  -0.00208  -0.00208   2.08975
   A54        2.09541  -0.00123   0.00000  -0.00261  -0.00261   2.09280
   A55        2.09786  -0.00031   0.00000  -0.00142  -0.00144   2.09642
   A56        2.09100   0.00037   0.00000   0.00135   0.00136   2.09236
   A57        2.09433  -0.00006   0.00000   0.00007   0.00008   2.09441
[...]
 000607,0.00035929,-0.00101952,0.00121889,0.00004856,0.00027070,-0.0001
 9386,-0.00013199,-0.00034830,-0.00027249,-0.00006141,-0.00022566,-0.00
 028323,-0.00001878,-0.00003119,0.00014418,0.00013751,0.00028559,-0.000
 02660,0.00004276,-0.00004589,0.00000643,-0.00023646,-0.00004286,0.0002
 0295,-0.00000561,-0.00001493,-0.00001255,-0.00000162,-0.00000596,0.000
 00164,0.00000276,0.00000483,0.00001395,0.02175299,0.02494607,0.0839986
 7,-0.03864696,0.03614996,-0.06091465,-0.04555087,0.00661962,-0.1777473
 5,0.01735092,-0.08814628,-0.03992493,-0.00014311,0.00101926,-0.0005707
 9,0.16924473,0.12480930,0.69666540,-0.00288229,-0.00053576,0.00103729,
 0.00032603,-0.00008650,0.00099635,-0.00009539,0.00028761,-0.00004099,0
 .00000086,-0.00007021,-0.00006176,-0.00019754,-0.00004569,-0.00015633,
 -0.00009897,-0.00006953,0.00000953,0.00007595,0.00001868,0.00007158,0.
 00000205,0.00006136,-0.00005301,0.00000564,-0.00000256,0.00001960,0.00
 000595,-0.00001847,0.00005169,-0.00000440,0.00000871,-0.00000139,0.000
 00313,-0.00000253,0.00001374,0.00001386,0.00000192,0.00000474,0.000148
 38,-0.00020064,0.00020812,0.00008297,-0.00009566,-0.00015737,0.0000177
 3,-0.00002140,0.00004654,-0.00003124,0.00002593,0.00002170,-0.00002815
 ,-0.00001147,0.00002972,-0.00005090,0.00001443,-0.00000101,-0.00000708
 ,0.00000116,0.00002169,0.00000671,-0.00002409,-0.00001006,-0.00001057,
 -0.00001596,-0.00000287,-0.00000504,0.00000159,-0.00000627,-0.00000320
 ,-0.00000171,0.00000375,0.00667307,0.00154197,0.00431476,0.00595339,0.
 00327280,-0.00157341,-0.10009188,0.00392128,-0.11374710,-0.00071231,0.
 00009733,0.00067767,0.00002337,0.00003670,0.00028699,-0.00118239,-0.00
 251638,-0.01769234,0.09149061,-0.00188022,0.00081643,-0.00101311,-0.00
 006383,-0.00063703,0.00085447,0.00022361,0.00021631,-0.00005191,-0.000
 05527,0.00001673,-0.00014111,-0.00005587,-0.00004307,-0.00003550,-0.00
 005067,-0.00004261,-0.00001803,-0.00000467,-0.00000238,0.00008572,0.00
 007224,0.00001441,0.00002152,0.00002132,-0.00004834,0.00002615,-0.0000
 4813,-0.00005455,0.00002663,-0.00002672,-0.00000614,0.00002158,-0.0000
 1690,0.00000790,-0.00000435,-0.00001680,0.00000303,0.00001168,-0.00016
 153,-0.00005832,0.00025524,0.00006206,0.00001207,-0.00003021,0.0000820
 3,0.00010615,0.00008999,-0.00001242,0.00000077,0.00001989,-0.00004520,
 -0.00001395,-0.00000777,-0.00002591,0.00003534,0.00001602,-0.00001544,
 -0.00000219,-0.00000191,0.00000897,0.00002431,0.00000942,0.00000728,0.
 00000828,-0.00000344,-0.00000522,0.00002069,0.00000907,-0.00000028,0.0
 0001088,0.00000520,-0.01152157,0.00372876,-0.02834328,0.00337237,-0.00
 367594,-0.00428867,0.00373642,-0.06946846,-0.01162888,0.00012524,-0.00
 116835,0.00008903,-0.00062679,0.00010344,-0.00132461,0.01261852,0.0061
 9742,0.02901314,-0.00892778,0.06674734,0.00125253,0.00184624,-0.000088
 42,0.00013679,-0.00066921,0.00069232,0.00016082,-0.00032716,0.00039689
 ,-0.00005522,0.00026244,-0.00010237,0.00032087,0.00002128,0.00015238,0
 .00017697,0.00004885,0.00006078,-0.00010019,-0.00009937,-0.00007694,-0
 .00002970,-0.00007042,0.00011558,-0.00000190,-0.00002912,-0.00002926,-
 0.00000675,0.00004161,-0.00007514,-0.00000892,-0.00002152,-0.00000514,
 0.00000320,0.00000103,-0.00001484,-0.00001131,-0.00000991,-0.00000440,
 -0.00028721,-0.00001311,0.00033225,0.00004950,-0.00000918,0.00003757,0
 .00008670,0.00013599,0.00010498,0.00003137,0.00001076,-0.00000981,-0.0
 0002439,-0.00000344,-0.00002988,-0.00002588,0.00003638,0.00005065,-0.0
 0001037,0.00000536,-0.00003606,-0.00000142,0.00000261,0.00000316,-0.00
 000072,0.00001048,-0.00000369,-0.00000002,0.00001607,-0.00000089,-0.00
 000231,0.00000467,-0.00000296,-0.01027204,0.00387640,-0.01413000,-0.00
 118704,-0.00462540,0.00068946,-0.11292736,-0.01222881,-0.31962382,0.00
 075677,-0.00001659,0.00072556,-0.00043577,0.00013126,-0.00087687,-0.00
 307270,-0.00506296,-0.00620503,0.12690394,0.01421256,0.33610295,-0.001
 13483,-0.00063050,-0.00020092,-0.00008142,0.00004424,0.00028127,0.0001
 5531,0.00073710,-0.00002451,-0.00005442,0.00002740,-0.00011369,-0.0001
 4238,-0.00001476,0.00011290,0.00005077,-0.00005910,0.00008967,0.000003
 01,-0.00007591,0.00005625,-0.00003153,-0.00004373,-0.00002914,0.000019
 64,0.00000912,0.00001161,-0.00003594,0.00002910,-0.00004144,-0.0000172
 7,0.00000046,0.00000930,-0.00002556,-0.00000881,-0.00001112,-0.0000023
 1,-0.00000649,0.00000732,0.00002213,-0.00000665,-0.00016393,-0.0000574
 6,-0.00002674,0.00005530,0.00005998,0.00005670,-0.00002831,-0.00000464
 ,0.00001709,0.00005585,-0.00004102,-0.00003367,-0.00001443,-0.00001934
 ,-0.00003657,-0.00001563,-0.00001233,0.00000310,-0.00000190,0.00004686
 ,0.00003152,0.00000260,0.00001040,0.00003152,-0.00000920,-0.00000401,0
 .00001471,0.00000430,-0.00000099,0.00001147,0.00000156,-0.00759081,-0.
 01107327,-0.01284435,0.01294050,0.01413865,0.02156319,-0.01002829,0.02
 373821,-0.02266284,-0.10902814,0.06194463,0.00527739,0.00469949,0.0051
 2535,-0.00420558,-0.13607003,0.00765182,-0.11304727,0.00518581,0.00552
 173,-0.00342418,0.35800679,-0.00101131,0.00058809,-0.00050781,-0.00010
 528,-0.00026285,0.00050071,-0.00038535,0.00026427,0.00020416,0.0000821
 9,0.00008622,0.00016737,0.00035358,0.00013983,0.00003517,0.00021379,-0
 .00008596,0.00012237,-0.00001441,-0.00031198,0.00018851,-0.00013224,-0
 .00011260,0.00009872,-0.00002224,0.00000367,-0.00000784,0.00004460,0.0
 0011271,-0.00014513,0.00005928,0.00001483,-0.00001279,0.00003024,-0.00
 001742,-0.00001210,0.00001791,0.00000048,0.00000575,0.00042162,0.00017
 387,-0.00006969,0.00001152,-0.00032704,-0.00001669,-0.00001835,0.00012
 876,0.00024511,0.00001911,0.00023870,0.00015513,0.00001372,0.00001798,
 -0.00003926,-0.00017020,-0.00014699,0.00000538,-0.00001856,0.00001916,
 0.00001637,0.00015309,-0.00006322,-0.00020301,-0.00001763,-0.00002884,
 0.00001813,0.00000476,-0.00002322,-0.00002063,-0.00000282,-0.00002364,
 -0.00000373,-0.01094746,-0.02783079,-0.04589714,0.03981743,-0.05906494
 ,0.02314214,-0.00148322,0.05148741,0.03645533,0.02838455,-0.29050536,-
 0.14423743,0.00517792,-0.00154113,0.00148003,0.04053937,-0.15169576,0.
 02384565,0.00569510,-0.00312219,0.00093888,-0.22350151,0.72865945,-0.0
 0179107,0.00016787,-0.00165610,-0.00052729,0.00024929,0.00100476,0.000
 01053,0.00140043,0.00044655,-0.00032982,0.00031993,-0.00001164,0.00026
 424,0.00011918,0.00040950,0.00045103,-0.00013292,0.00024588,-0.0001138
 3,-0.00025879,0.00005417,-0.00029727,-0.00026583,0.00011338,0.00001269
 ,0.00000738,0.00001089,-0.00010842,0.00022136,-0.00032805,-0.00003838,
 0.00001681,0.00004342,-0.00001964,-0.00003913,-0.00003649,-0.00000270,
 -0.00000979,0.00000535,0.00033027,0.00023139,-0.00051094,0.00002981,-0
 .00043601,0.00012038,0.00011665,0.00038357,0.00028971,0.00005200,0.000
 33467,0.00030761,-0.00003530,0.00000367,-0.00010076,-0.00025903,-0.000
 27053,-0.00003398,-0.00001695,0.00002024,0.00000047,0.00028439,0.00000
 875,-0.00023482,-0.00000637,0.00001032,0.00000698,-0.00000403,0.000009
 09,-0.00000841,-0.00000019,-0.00000509,-0.00000768,-0.01135906,-0.0471
 6989,-0.08387591,0.04735357,-0.03719690,0.08228880,-0.04782844,0.09735
 103,-0.00520350,-0.02884881,-0.06826494,-0.21782878,-0.00444938,0.0018
 5259,0.00106520,-0.07907039,-0.05239707,-0.32033153,-0.00305221,0.0002
 7190,0.00230871,0.19397599,0.04938112,0.67215396,-0.00022177,-0.000198
 36,-0.00061063,-0.00017940,0.00021116,-0.00008806,0.00014988,0.0000918
 0,-0.00010047,-0.00009738,0.00005753,-0.00001748,-0.00010381,-0.000037
 62,0.00002011,0.00000972,0.00000918,0.00000097,0.00004078,-0.00000556,
 -0.00004569,0.00000149,0.00000631,-0.00000306,0.00000768,-0.00001663,0
 .00001324,-0.00002208,-0.00000627,0.00000368,-0.00002813,-0.00001099,0
 .00000526,-0.00001112,0.00000109,0.00000014,-0.00000670,-0.00000386,-0
 .00000182,-0.00003991,-0.00022021,-0.00003947,0.00003011,-0.00001662,0
 .00000607,0.00004524,0.00007939,0.00005222,-0.00001316,0.00002297,0.00
 001762,-0.00001343,-0.00000432,0.00002078,-0.00002079,-0.00002852,0.00
 000748,-0.00001655,-0.00000120,-0.00001209,0.00003061,0.00001607,-0.00
 000612,0.00000219,-0.00000109,0.00000358,-0.00000978,0.00001973,0.0000
 0708,0.00000193,0.00000751,0.00000090,0.00502367,0.00542571,-0.0027970
 7,-0.00121567,-0.00245296,-0.01781148,-0.00068563,0.00008642,0.0007216
 5,-0.10071521,0.00366591,-0.11492862,-0.00328087,-0.00164913,0.0022548
 2,0.00665976,0.00348223,-0.00171247,-0.00091235,-0.00044069,0.00033987
 ,0.00698781,0.00209252,0.00523868,0.09190162,0.00017203,0.00047432,0.0
 0109176,0.00014452,-0.00020994,0.00018258,-0.00004525,-0.00014863,0.00
 006240,0.00002341,0.00001212,-0.00002717,0.00007391,-0.00000369,-0.000
 01249,0.00000149,0.00000529,-0.00000190,0.00000344,0.00000598,0.000005
 65,0.00001260,0.00000682,0.00001071,-0.00000676,0.00000209,-0.00001030
 ,0.00001300,-0.00000255,0.00000499,0.00000336,0.00000391,-0.00000249,0
 .00000931,0.00000027,0.00000504,0.00000494,-0.00000027,-0.00000106,0.0
 0001323,0.00019384,0.00001296,-0.00002592,-0.00004076,-0.00002101,-0.0
 0001775,0.00000806,-0.00003134,-0.00001192,0.00001671,-0.00000169,0.00
 001605,0.00000143,0.00000914,-0.00001778,-0.00001522,-0.00002307,0.000
 01180,0.00000227,0.00001520,-0.00001510,-0.00003739,-0.00003790,-0.000
 00414,-0.00001562,0.00000863,0.00000867,-0.00001611,0.00000123,0.00000
 381,-0.00001166,0.00000413,0.00555261,-0.00323990,0.00055241,0.0122111
 4,0.00623296,0.02861602,0.00013812,-0.00134196,-0.00000393,0.00373098,
 -0.06998966,-0.01257487,-0.00225306,0.00047273,0.00035101,0.00362912,-
 0.00342847,-0.00422366,-0.00042825,-0.00008475,0.00020098,-0.01274333,
 0.00518405,-0.02941388,-0.00792549,0.06561408,0.00011348,-0.00050478,-
 0.00040150,-0.00009679,0.00011142,-0.00009557,0.00006646,0.00017903,-0
 .00004300,-0.00005818,-0.00001314,0.00003079,-0.00008224,-0.00001420,0
 .00003961,0.00001897,0.00002090,-0.00001621,0.00002783,0.00000605,-0.0
 0004563,-0.00001677,-0.00000890,-0.00000722,0.00001239,-0.00000428,0.0
 0000499,-0.00002234,0.00000689,-0.00001099,-0.00001361,-0.00001201,0.0
 0000568,-0.00001629,0.00000189,-0.00001000,-0.00001553,-0.00000078,-0.
 00000276,-0.00011100,-0.00010378,-0.00005474,0.00001531,0.00006582,0.0
 0002319,0.00003869,0.00002292,-0.00002090,-0.00000256,-0.00003764,0.00
 000541,-0.00002525,-0.00001609,-0.00000369,0.00002654,0.00000764,0.000
 00835,0.00000166,-0.00001023,-0.00001328,0.00000450,0.00003642,0.00004
 775,0.00001284,0.00002477,-0.00001478,-0.00000820,0.00001845,0.0000073
 7,-0.00000101,0.00002120,0.00000079,-0.00325007,0.00096347,0.00220707,
 -0.00286110,-0.00497774,-0.00601700,0.00071310,0.00011930,0.00080078,-
 0.11477817,-0.01238695,-0.32302393,0.00177875,0.00132088,0.00037091,-0
 .00148417,-0.00467949,0.00084594,0.00034788,0.00019297,-0.00028949,-0.
 00975904,0.00422173,-0.01233897,0.12755144,0.01503906,0.33852674,0.000
 02055,0.00048284,0.00059522,0.00005529,-0.00005805,0.00003178,0.000050
 80,0.00011587,-0.00002355,-0.00004398,-0.00002196,-0.00001003,-0.00004
 832,0.00000118,0.00001686,-0.00000418,-0.00001333,-0.00002155,0.000015
 97,0.00003721,0.00001512,-0.00000185,-0.00001227,-0.00001131,0.0000045
 1,0.00000153,0.00001351,-0.00003324,-0.00001201,-0.00000518,-0.0000176
 7,0.00000412,0.00001764,-0.00000723,0.00000248,0.00000105,-0.00000638,
 0.00000648,0.00000403,-0.00029005,0.00014998,-0.00007692,0.00004130,0.
 00005571,-0.00001956,0.00002201,0.00001072,-0.00000536,-0.00000531,-0.
 00005562,-0.00001542,-0.00000127,-0.00000436,0.00000415,0.00004195,0.0
 0002794,0.00001765,-0.00001252,0.00000485,-0.00000660,-0.00003571,0.00
 002401,0.00004065,0.00000223,0.00000033,-0.00000356,-0.00000003,0.0000
 0747,0.00000863,-0.00000025,0.00000467,0.00000091,0.00483837,0.0050127
 0,-0.00442788,-0.00097499,-0.00015287,-0.00027813,0.00374240,0.0156614
 6,0.01178611,0.00518234,0.00267848,-0.00529309,-0.00087949,-0.00037385
 ,0.00047369,-0.05913142,0.03475010,0.01164416,-0.00335781,-0.00232991,
 0.00180225,0.00704251,-0.01249689,-0.00915941,0.00001599,-0.00058916,-
 0.00037107,0.04691167,-0.00025398,-0.00068764,-0.00104540,-0.00001190,
 -0.00000435,0.00006347,-0.00018052,-0.00012086,0.00004266,0.00005205,0
 .00004099,-0.00002357,0.00010690,0.00004552,0.00000187,-0.00000171,-0.
 00001014,0.00001626,-0.00003274,-0.00002658,0.00002830,0.00001124,0.00
 000299,0.00002182,-0.00001385,-0.00000883,-0.00001149,0.00003004,0.000
 00650,0.00001060,0.00001459,0.00000248,-0.00001500,0.00002142,-0.00001
 183,0.00000519,0.00001777,-0.00000313,-0.00000049,0.00028930,-0.000055
 49,0.00027037,0.00001518,-0.00006454,-0.00005948,-0.00007070,-0.000098
 02,-0.00001498,0.00001159,0.00001033,-0.00002312,0.00001325,0.00001463
 ,0.00000306,-0.00001269,0.00002659,-0.00000629,0.00000042,0.00000520,0
 .00000577,-0.00001788,-0.00003302,-0.00000523,-0.00001914,-0.00001800,
 -0.00000082,0.00000338,-0.00001537,-0.00001397,-0.00000388,-0.00001484
 ,-0.00000425,0.00547536,-0.00130499,0.00185585,-0.00002863,0.00022843,
 0.00111519,0.00101896,-0.01638882,-0.02030482,0.00243931,0.00265761,-0
 .00053477,-0.00042581,-0.00023135,0.00007865,0.03478666,-0.26593927,-0
 .14268172,-0.00182328,0.00033454,0.00146846,0.00206026,0.00452253,0.00
 377069,0.00000860,-0.00001360,0.00010231,-0.04129551,0.27686605,0.0000
 1378,0.00054138,0.00036304,0.00004983,-0.00003838,-0.00002416,0.000036
 57,-0.00008904,0.00002070,0.00002018,0.00001019,-0.00001012,0.00000235
 ,-0.00000283,-0.00004111,-0.00002211,-0.00000290,0.00002287,-0.0000258
 8,-0.00001793,-0.00000402,0.00001253,0.00001172,-0.00000484,-0.0000031
 1,0.00000352,-0.00000165,0.00001579,-0.00000597,0.00001529,0.00000974,
 -0.00000145,-0.00001300,0.00000436,0.00000089,0.00000392,0.00000814,-0
 .00000291,0.00000028,-0.00003032,0.00003919,-0.00008923,0.00000199,-0.
 00001392,0.00002204,0.00000596,0.00001019,0.00003873,0.00001530,0.0000
 2009,0.00001525,0.00000127,0.00000839,-0.00001718,-0.00000751,-0.00001
 580,0.00001391,-0.00000926,0.00000671,-0.00000625,0.00001942,0.0000058
 3,-0.00001075,-0.00000264,0.00000204,0.00000064,-0.00000096,0.00000147
 ,-0.00000546,-0.00000241,-0.00000238,-0.00000458,-0.00422132,0.0014684
 4,0.00106009,-0.00025608,0.00107446,-0.00045484,-0.00337348,0.01351137
 ,0.01185875,-0.00548205,-0.00005853,-0.00411819,0.00043810,0.00009834,
 -0.00015170,0.01174582,-0.14290622,-0.16892295,0.00224871,0.00034447,0
 .00038026,0.00587713,-0.02983660,-0.01165160,0.00024348,-0.00133557,-0
 .00084823,-0.00894776,0.15569499,0.17211423,-0.00084234,-0.00027098,0.
 00031366,0.00002671,-0.00000018,0.00015890,-0.00000383,0.00015321,-0.0
 0010127,-0.00004528,-0.00000715,-0.00000453,-0.00006834,-0.00002546,0.
 00002167,0.00002369,0.00001013,-0.00002054,0.00004078,0.00002536,-0.00
 001888,-0.00001077,-0.00000500,-0.00000691,0.00000526,-0.00000430,0.00
 000707,-0.00001861,0.00000136,-0.00000816,-0.00001901,-0.00000287,0.00
 001253,-0.00000999,0.00000159,-0.00000259,-0.00001016,0.00000208,-0.00
 000075,-0.00004307,0.00001437,-0.00000847,-0.00002032,0.00002774,-0.00
 002568,0.00001864,0.00000919,-0.00003044,-0.00002001,-0.00000981,-0.00
 000019,-0.00000179,-0.00000546,0.00001616,0.00000507,-0.00001044,-0.00
 000707,0.00000048,-0.00000555,0.00000543,0.00000403,0.00000904,0.00000
 803,0.00000590,-0.00000157,0.00000163,-0.00000471,0.00000762,0.0000055
 9,0.00000272,0.00000591,0.00000368,-0.00037890,-0.00091332,0.00035860,
 0.00689463,0.00275946,-0.00200043,0.00580942,0.00176088,-0.00482182,0.
 00322144,0.00096496,-0.00355794,-0.00013552,0.00003009,-0.00008661,-0.
 00139138,0.01236477,-0.00215506,-0.00034399,0.00048005,-0.00013614,-0.
 13084829,0.12719518,-0.06080186,-0.00331475,-0.00169361,0.00224355,-0.
 00313616,-0.00218406,0.00161444,0.12460843,-0.00043419,-0.00004951,0.0
 0013226,0.00004323,-0.00002179,0.00011113,-0.00007840,-0.00000314,-0.0
 0002108,0.00002842,0.00002905,-0.00003570,0.00001857,0.00001068,-0.000
 01630,-0.00001599,-0.00002079,0.00002415,-0.00002971,-0.00002561,0.000
 02401,0.00000955,0.00000638,-0.00000401,-0.00000676,0.00000112,-0.0000
 0165,0.00001354,-0.00000439,0.00000871,0.00000681,0.00000648,-0.000006
 62,0.00000956,-0.00000506,0.00000673,0.00001387,-0.00000066,0.00000262
 ,0.00006386,0.00003687,0.00004721,0.00003363,-0.00001508,-0.00002156,-
 0.00002618,-0.00006102,0.00003677,0.00001875,0.00000714,-0.00001520,0.
 00000892,0.00001605,-0.00000490,0.00000721,0.00002823,0.00002695,-0.00
 002151,0.00001406,-0.00000493,-0.00001545,-0.00000536,-0.00000194,-0.0
 0001371,-0.00001384,0.00000580,0.00000338,-0.00000763,-0.00001188,-0.0
 0000423,-0.00001548,-0.00000514,-0.00080024,0.00010290,-0.00071385,0.0
 0246833,-0.00185394,-0.00535055,0.00199327,0.00250318,-0.00175353,0.01
 588957,-0.01605956,0.01474177,0.00065218,-0.00097135,0.00059330,-0.002
 24225,0.00563061,-0.00456929,-0.00008869,0.00002346,-0.00008611,0.1270
 6687,-0.25647809,0.07972952,-0.00226463,0.00036323,0.00028688,-0.00162
 433,0.00028628,0.00147675,-0.14068324,0.26654660,0.00038137,0.00018306
 ,-0.00006810,-0.00001589,-0.00006862,0.00000106,0.00005640,-0.00000280
 ,0.00005508,-0.00001352,0.00001704,0.00001262,0.00001383,0.00000346,0.
 00001671,0.00001268,0.00000409,-0.00000107,-0.00000371,-0.00001441,-0.
 00001608,-0.00000233,-0.00000631,0.00001092,0.00000411,-0.00000659,-0.
 00000166,-0.00000408,0.00000207,-0.00000929,-0.00000152,-0.00000242,0.
 00000359,-0.00000349,0.00000192,-0.00000463,-0.00000655,-0.00000045,-0
 .00000038,-0.00005417,-0.00003517,-0.00000303,0.00003733,0.00001872,0.
 00001455,0.00001788,0.00002526,0.00004034,0.00000044,-0.00000628,0.000
 00053,-0.00001316,-0.00000776,-0.00000178,0.00000653,0.00001613,0.0000
 1134,-0.00000360,0.00000023,-0.00000895,-0.00000643,0.00000941,0.00000
 481,0.00000337,0.00000579,-0.00000129,0.00000038,0.00000296,0.00000261
 ,0.00000001,0.00000296,0.00000156,0.00028079,-0.00068513,-0.00106481,-
 0.00221419,-0.00474323,-0.00079600,-0.00459537,-0.00234138,-0.00439148
 ,0.01152594,-0.01895154,0.01236712,0.00052560,-0.00075992,0.00034679,-
 0.01727743,0.02913266,-0.00483090,-0.00075986,0.00131615,-0.00054849,-
 0.06078416,0.07978211,-0.10671656,0.00166544,0.00154843,0.00033254,0.0
 0220296,0.00018990,0.00044985,0.06902441,-0.08463035,0.10479250||-0.00
 001441,0.00001037,-0.00000459,0.00000269,-0.00000141,-0.00000289,0.000
 01511,-0.00003771,0.00003644,0.00003187,0.00002417,-0.00001563,-0.0000
 4322,0.00001809,-0.00001255,-0.00003982,0.00000572,-0.00001915,-0.0000
 0749,0.00000196,-0.00000026,0.00003610,0.00001139,-0.00001921,0.000003
 06,-0.00000088,0.00000184,0.00000330,-0.00002402,0.00003552,0.00000298
 ,-0.00000101,0.00000118,-0.00000251,-0.00000069,0.00000130,0.00000022,
 0.00000188,-0.00000205,-0.00002957,-0.00000309,0.00003284,0.00003910,0
 .00004828,-0.00000392,0.00000193,-0.00004801,-0.00004373,0.00000577,-0
 .00004684,-0.00003962,-0.00000449,-0.00000203,0.00000303,0.00003748,0.
 00004947,-0.00000046,-0.00000079,0.00000068,0.00000372,-0.00004621,-0.
 00000305,0.00004281,-0.00000092,0.00000548,0.00000430,-0.00000277,-0.0
 0000445,0.00000040,0.00000484,0.00000004,-0.00000477,0.00000235,-0.000
 00245,0.00000408,0.00000235,-0.00000321,0.00000171,0.00000067,0.000005
 28,0.00000240,-0.00000178,0.00000394,-0.00000133,0.00000245,-0.0000007
 3,-0.00000032,0.00000114,-0.00000377,0.00000640,0.00000106,-0.00000035
 ,-0.00000035,-0.00000024,-0.00000297,-0.00000608,-0.00000083,-0.000000
 09,-0.00000016,0.00000026,0.00000024,-0.00000058,0.00000029,-0.0000002
 4,-0.00000031|||@


 LET US LEARN TO DREAM, GENTLEMEN, THEN PERHAPS WE SHALL
 DISCOVER THE TRUTH;  BUT LET US BEWARE OF PUBLISHING
 OUR DREAMS ABROAD BEFORE THEY HAVE BEEN SCRUTINIZED
 BY OUR VIGILANT INTELLECT ... LET US ALWAYS ALLOW
 THE FRUIT TO HANG UNTIL IT IS RIPE.  UNRIPE FRUIT
 BRINGS EVEN THE GROWER BUT LITTLE PROFIT; IT DAMAGES
 THE HEALTH OF THOSE WHO CONSUME IT; IT ENDANGERS
 PARTICULARLY THE YOUTH WHO CANNOT YET DISTINGUISH
 BETWEEN RIPE AND UNRIPE FRUIT.

                                  -- KEKULE, 1890
 Job cpu time:  0 days  0 hours  6 minutes 32.0 seconds.
 File lengths (MBytes):  RWF=    350 Int=      0 D2E=      0 Chk=      7 Scr=      1
 Normal termination of Gaussian 09 at Mon Sep 06 21:46:10 2021.
