 Entering Link 1 = b:\programy\g09w\l1.exe PID=      7308.
  
 Copyright (c) 1988,1990,1992,1993,1995,1998,2003,2009, Gaussian, Inc.
                  All Rights Reserved.
  
 This is part of the Gaussian(R) 09 program.  It is based on
 the Gaussian(R) 03 system (copyright 2003, Gaussian, Inc.),
 the Gaussian(R) 98 system (copyright 1998, Gaussian, Inc.),
 the Gaussian(R) 94 system (copyright 1995, Gaussian, Inc.),
 the Gaussian 92(TM) system (copyright 1992, Gaussian, Inc.),
 the Gaussian 90(TM) system (copyright 1990, Gaussian, Inc.),
 the Gaussian 88(TM) system (copyright 1988, Gaussian, Inc.),
 the Gaussian 86(TM) system (copyright 1986, Carnegie Mellon
 University), and the Gaussian 82(TM) system (copyright 1983,
 Carnegie Mellon University). Gaussian is a federally registered
 trademark of Gaussian, Inc.
  
 This software contains proprietary and confidential information,
 including trade secrets, belonging to Gaussian, Inc.
  
 This software is provided under written license and may be
 used, copied, transmitted, or stored only in accord with that
 written license.
  
 The following legend is applicable only to US Government
 contracts under FAR:
  
                    RESTRICTED RIGHTS LEGEND
  
 Use, reproduction and disclosure by the US Government is
 subject to restrictions as set forth in subparagraphs (a)
 and (c) of the Commercial Computer Software - Restricted
 Rights clause in FAR 52.227-19.
  
 Gaussian, Inc.
 340 Quinnipiac St., Bldg. 40, Wallingford CT 06492
  
  
 ---------------------------------------------------------------
 Warning -- This program may not be used in any manner that
 competes with the business of Gaussian, Inc. or will provide
 assistance to any competitor of Gaussian, Inc.  The licensee
 of this program is prohibited from giving any competitor of
 Gaussian, Inc. access to this program.  By using this program,
 the user acknowledges that Gaussian, Inc. is engaged in the
 business of creating and licensing software in the field of
 computational chemistry and represents and warrants to the
 licensee that it is not a competitor of Gaussian, Inc. and that
 it will not use this program in any manner prohibited above.
 ---------------------------------------------------------------
  

 Cite this work as:
 Gaussian 09, Revision A.02,
 M. J. Frisch, G. W. Trucks, H. B. Schlegel, G. E. Scuseria, 
 M. A. Robb, J. R. Cheeseman, G. Scalmani, V. Barone, B. Mennucci, 
 G. A. Petersson, H. Nakatsuji, M. Caricato, X. Li, H. P. Hratchian, 
 A. F. Izmaylov, J. Bloino, G. Zheng, J. L. Sonnenberg, M. Hada, 
 M. Ehara, K. Toyota, R. Fukuda, J. Hasegawa, M. Ishida, T. Nakajima, 
 Y. Honda, O. Kitao, H. Nakai, T. Vreven, J. A. Montgomery, Jr., 
 J. E. Peralta, F. Ogliaro, M. Bearpark, J. J. Heyd, E. Brothers, 
 K. N. Kudin, V. N. Staroverov, R. Kobayashi, J. Normand, 
 K. Raghavachari, A. Rendell, J. C. Burant, S. S. Iyengar, J. Tomasi, 
 M. Cossi, N. Rega, J. M. Millam, M. Klene, J. E. Knox, J. B. Cross, 
 V. Bakken, C. Adamo, J. Jaramillo, R. Gomperts, R. E. Stratmann, 
 O. Yazyev, A. J. Austin, R. Cammi, C. Pomelli, J. W. Ochterski, 
 R. L. Martin, K. Morokuma, V. G. Zakrzewski, G. A. Voth, 
 P. Salvador, J. J. Dannenberg, S. Dapprich, A. D. Daniels, 
 O. Farkas, J. B. Foresman, J. V. Ortiz, J. Cioslowski, 
 and D. J. Fox, Gaussian, Inc., Wallingford CT, 2009.
 
 ******************************************
 Gaussian 09:  IA32W-G09RevA.02 11-Jun-2009
                06-Sep-2021 
 ******************************************
 %nprocshared=12
 Will use up to   12 processors via shared memory.
 ----------------------------------------------
 # opt freq=noraman hf/6-311g geom=connectivity
 ----------------------------------------------
 1/18=20,19=15,38=1,57=2/1,3;
 2/9=110,12=2,17=6,18=5,40=1/2;
 3/5=4,6=6,11=9,16=1,25=1,30=1,71=1/1,2,3;
 4//1;
 5/5=2,38=5/2;
 6/7=2,8=2,9=2,10=2,28=1/1;
 7//1,2,3,16;
 1/18=20,19=15/3(2);
 2/9=110/2;
 99//99;
 2/9=110/2;
 3/5=4,6=6,11=9,16=1,25=1,30=1,71=1/1,2,3;
 4/5=5,16=3/1;
 5/5=2,38=5/2;
 7//1,2,3,16;
 1/18=20,19=15/3(-5);
 2/9=110/2;
 6/7=2,8=2,9=2,10=2,19=2,28=1/1;
 99/9=1/99;
 -----
 M0001
 -----
 Symbolic Z-matrix:
 Charge =  0 Multiplicity = 1
 C                    -0.17657   0.70475   0.25141 
 H                    -0.40043   1.75932   0.56928 
 C                    -0.39701   0.65177  -1.24143 
 C                    -0.82381  -0.50179  -1.89851 
 C                    -0.15353   1.80833  -1.98937 
 C                    -1.00536  -0.50039  -3.27764 
 H                    -1.02705  -1.41479  -1.32445 
 C                    -0.33318   1.80678  -3.36691 
 H                     0.1853    2.7225   -1.48799 
 C                    -0.76007   0.65192  -4.01464 
 H                    -1.34356  -1.41158  -3.78169 
 H                    -0.13823   2.71713  -3.94306 
 H                    -0.90275   0.65174  -5.0999 
 C                     1.27405   0.444     0.57583 
 C                     1.91862  -0.72871   0.17874 
 C                     1.99779   1.41295   1.27499 
 C                     3.26397  -0.92628   0.46494 
 H                     1.33903  -1.50359  -0.34576 
 C                     3.34283   1.2124    1.56406 
 H                     1.50563   2.33793   1.59807 
 C                     3.97938   0.04516   1.15665 
 H                     3.75916  -1.84881   0.14522 
 H                     3.90162   1.97734   2.11302 
 H                     5.03959  -0.10921   1.38111 
 C                    -1.12497  -0.18051   1.02104 
 C                    -2.25917   0.40178   1.59522 
 C                    -0.91746  -1.55178   1.17876 
 C                    -3.16317  -0.37272   2.31245 
 H                    -2.44076   1.47701   1.47996 
 C                    -1.82097  -2.32455   1.89931 
 H                    -0.02484  -2.02015   0.73344 
 C                    -2.94572  -1.73758   2.46739 
 H                    -4.04812   0.09433   2.75687 
 H                    -1.64337  -3.39822   2.01894 
 H                    -3.65684  -2.34648   3.03463 
 

 GradGradGradGradGradGradGradGradGradGradGradGradGradGradGradGradGradGrad
 Berny optimization.
 Initialization pass.
                           ----------------------------
                           !    Initial Parameters    !
                           ! (Angstroms and Degrees)  !
 --------------------------                            --------------------------
 ! Name  Definition              Value          Derivative Info.                !
 --------------------------------------------------------------------------------
 ! R1    R(1,2)                  1.124          estimate D2E/DX2                !
 ! R2    R(1,3)                  1.51           estimate D2E/DX2                !
 ! R3    R(1,14)                 1.5092         estimate D2E/DX2                !
 ! R4    R(1,25)                 1.5085         estimate D2E/DX2                !
 ! R5    R(3,4)                  1.3945         estimate D2E/DX2                !
 ! R6    R(3,5)                  1.3987         estimate D2E/DX2                !
 ! R7    R(4,6)                  1.391          estimate D2E/DX2                !
 ! R8    R(4,7)                  1.0975         estimate D2E/DX2                !
 ! R9    R(5,8)                  1.3892         estimate D2E/DX2                !
 ! R10   R(5,9)                  1.0963         estimate D2E/DX2                !
 ! R11   R(6,10)                 1.3897         estimate D2E/DX2                !
 ! R12   R(6,11)                 1.0949         estimate D2E/DX2                !
 ! R13   R(8,10)                 1.3912         estimate D2E/DX2                !
 ! R14   R(8,12)                 1.0948         estimate D2E/DX2                !
 ! R15   R(10,13)                1.0946         estimate D2E/DX2                !
 ! R16   R(14,15)                1.3958         estimate D2E/DX2                !
 ! R17   R(14,16)                1.397          estimate D2E/DX2                !
 ! R18   R(15,17)                1.3896         estimate D2E/DX2                !
 ! R19   R(15,18)                1.1007         estimate D2E/DX2                !
 ! R20   R(16,19)                1.3903         estimate D2E/DX2                !
 ! R21   R(16,20)                1.0964         estimate D2E/DX2                !
 ! R22   R(17,21)                1.3907         estimate D2E/DX2                !
 ! R23   R(17,22)                1.0948         estimate D2E/DX2                !
 ! R24   R(19,21)                1.3905         estimate D2E/DX2                !
 ! R25   R(19,23)                1.0949         estimate D2E/DX2                !
 ! R26   R(21,24)                1.0946         estimate D2E/DX2                !
 ! R27   R(25,26)                1.3983         estimate D2E/DX2                !
 ! R28   R(25,27)                1.3958         estimate D2E/DX2                !
 ! R29   R(26,28)                1.3898         estimate D2E/DX2                !
 ! R30   R(26,29)                1.0965         estimate D2E/DX2                !
 ! R31   R(27,30)                1.3902         estimate D2E/DX2                !
 ! R32   R(27,31)                1.102          estimate D2E/DX2                !
 ! R33   R(28,32)                1.3907         estimate D2E/DX2                !
 ! R34   R(28,33)                1.0949         estimate D2E/DX2                !
 ! R35   R(30,32)                1.3901         estimate D2E/DX2                !
 ! R36   R(30,34)                1.0948         estimate D2E/DX2                !
 ! R37   R(32,35)                1.0946         estimate D2E/DX2                !
 ! A1    A(2,1,3)              106.4666         estimate D2E/DX2                !
 ! A2    A(2,1,14)             107.0232         estimate D2E/DX2                !
 ! A3    A(2,1,25)             106.3268         estimate D2E/DX2                !
 ! A4    A(3,1,14)             110.2916         estimate D2E/DX2                !
 ! A5    A(3,1,25)             113.0821         estimate D2E/DX2                !
 ! A6    A(14,1,25)            113.1571         estimate D2E/DX2                !
 ! A7    A(1,3,4)              122.6535         estimate D2E/DX2                !
 ! A8    A(1,3,5)              118.3109         estimate D2E/DX2                !
 ! A9    A(4,3,5)              119.0345         estimate D2E/DX2                !
 ! A10   A(3,4,6)              120.416          estimate D2E/DX2                !
 ! A11   A(3,4,7)              119.8938         estimate D2E/DX2                !
 ! A12   A(6,4,7)              119.6878         estimate D2E/DX2                !
 ! A13   A(3,5,8)              120.452          estimate D2E/DX2                !
 ! A14   A(3,5,9)              119.9175         estimate D2E/DX2                !
 ! A15   A(8,5,9)              119.6301         estimate D2E/DX2                !
 ! A16   A(4,6,10)             120.2391         estimate D2E/DX2                !
 ! A17   A(4,6,11)             119.7306         estimate D2E/DX2                !
 ! A18   A(10,6,11)            120.0303         estimate D2E/DX2                !
 ! A19   A(5,8,10)             120.1512         estimate D2E/DX2                !
 ! A20   A(5,8,12)             119.8589         estimate D2E/DX2                !
 ! A21   A(10,8,12)            119.9898         estimate D2E/DX2                !
 ! A22   A(6,10,8)             119.707          estimate D2E/DX2                !
 ! A23   A(6,10,13)            120.1775         estimate D2E/DX2                !
 ! A24   A(8,10,13)            120.1155         estimate D2E/DX2                !
 ! A25   A(1,14,15)            121.8619         estimate D2E/DX2                !
 ! A26   A(1,14,16)            119.0605         estimate D2E/DX2                !
 ! A27   A(15,14,16)           119.0697         estimate D2E/DX2                !
 ! A28   A(14,15,17)           120.527          estimate D2E/DX2                !
 ! A29   A(14,15,18)           118.9384         estimate D2E/DX2                !
 ! A30   A(17,15,18)           120.5219         estimate D2E/DX2                !
 ! A31   A(14,16,19)           120.3462         estimate D2E/DX2                !
 ! A32   A(14,16,20)           120.0047         estimate D2E/DX2                !
 ! A33   A(19,16,20)           119.6491         estimate D2E/DX2                !
 ! A34   A(15,17,21)           120.0787         estimate D2E/DX2                !
 ! A35   A(15,17,22)           119.8411         estimate D2E/DX2                !
 ! A36   A(21,17,22)           120.0802         estimate D2E/DX2                !
 ! A37   A(16,19,21)           120.2014         estimate D2E/DX2                !
 ! A38   A(16,19,23)           119.8166         estimate D2E/DX2                !
 ! A39   A(21,19,23)           119.9819         estimate D2E/DX2                !
 ! A40   A(17,21,19)           119.7748         estimate D2E/DX2                !
 ! A41   A(17,21,24)           120.1147         estimate D2E/DX2                !
 ! A42   A(19,21,24)           120.1105         estimate D2E/DX2                !
 ! A43   A(1,25,26)            118.3657         estimate D2E/DX2                !
 ! A44   A(1,25,27)            122.7327         estimate D2E/DX2                !
 ! A45   A(26,25,27)           118.9013         estimate D2E/DX2                !
 ! A46   A(25,26,28)           120.4948         estimate D2E/DX2                !
 ! A47   A(25,26,29)           119.9677         estimate D2E/DX2                !
 ! A48   A(28,26,29)           119.5374         estimate D2E/DX2                !
 ! A49   A(25,27,30)           120.5333         estimate D2E/DX2                !
 ! A50   A(25,27,31)           119.4909         estimate D2E/DX2                !
 ! A51   A(30,27,31)           119.9741         estimate D2E/DX2                !
 ! A52   A(26,28,32)           120.1793         estimate D2E/DX2                !
 ! A53   A(26,28,33)           119.8339         estimate D2E/DX2                !
 ! A54   A(32,28,33)           119.9868         estimate D2E/DX2                !
 ! A55   A(27,30,32)           120.1953         estimate D2E/DX2                !
 ! A56   A(27,30,34)           119.7583         estimate D2E/DX2                !
 ! A57   A(32,30,34)           120.0464         estimate D2E/DX2                !
 ! A58   A(28,32,30)           119.6954         estimate D2E/DX2                !
 ! A59   A(28,32,35)           120.1367         estimate D2E/DX2                !
 ! A60   A(30,32,35)           120.1679         estimate D2E/DX2                !
 ! D1    D(2,1,3,4)           -149.4763         estimate D2E/DX2                !
 ! D2    D(2,1,3,5)             30.91           estimate D2E/DX2                !
 ! D3    D(14,1,3,4)            94.7533         estimate D2E/DX2                !
 ! D4    D(14,1,3,5)           -84.8605         estimate D2E/DX2                !
 ! D5    D(25,1,3,4)           -33.0776         estimate D2E/DX2                !
 ! D6    D(25,1,3,5)           147.3087         estimate D2E/DX2                !
 ! D7    D(2,1,14,15)         -173.0606         estimate D2E/DX2                !
 ! D8    D(2,1,14,16)            5.9116         estimate D2E/DX2                !
 ! D9    D(3,1,14,15)          -57.6397         estimate D2E/DX2                !
 ! D10   D(3,1,14,16)          121.3326         estimate D2E/DX2                !
 ! D11   D(25,1,14,15)          70.1499         estimate D2E/DX2                !
 ! D12   D(25,1,14,16)        -110.8779         estimate D2E/DX2                !
 ! D13   D(2,1,25,26)           18.2488         estimate D2E/DX2                !
 ! D14   D(2,1,25,27)         -161.9179         estimate D2E/DX2                !
 ! D15   D(3,1,25,26)          -98.2327         estimate D2E/DX2                !
 ! D16   D(3,1,25,27)           81.6006         estimate D2E/DX2                !
 ! D17   D(14,1,25,26)         135.4478         estimate D2E/DX2                !
 ! D18   D(14,1,25,27)         -44.7189         estimate D2E/DX2                !
 ! D19   D(1,3,4,6)           -179.6632         estimate D2E/DX2                !
 ! D20   D(1,3,4,7)              0.8983         estimate D2E/DX2                !
 ! D21   D(5,3,4,6)             -0.0521         estimate D2E/DX2                !
 ! D22   D(5,3,4,7)           -179.4907         estimate D2E/DX2                !
 ! D23   D(1,3,5,8)            179.5635         estimate D2E/DX2                !
 ! D24   D(1,3,5,9)             -0.1921         estimate D2E/DX2                !
 ! D25   D(4,3,5,8)             -0.0645         estimate D2E/DX2                !
 ! D26   D(4,3,5,9)           -179.8201         estimate D2E/DX2                !
 ! D27   D(3,4,6,10)             0.1267         estimate D2E/DX2                !
 ! D28   D(3,4,6,11)          -179.8251         estimate D2E/DX2                !
 ! D29   D(7,4,6,10)           179.5664         estimate D2E/DX2                !
 ! D30   D(7,4,6,11)            -0.3854         estimate D2E/DX2                !
 ! D31   D(3,5,8,10)             0.1073         estimate D2E/DX2                !
 ! D32   D(3,5,8,12)          -179.9045         estimate D2E/DX2                !
 ! D33   D(9,5,8,10)           179.8636         estimate D2E/DX2                !
 ! D34   D(9,5,8,12)            -0.1482         estimate D2E/DX2                !
 ! D35   D(4,6,10,8)            -0.0838         estimate D2E/DX2                !
 ! D36   D(4,6,10,13)          179.9678         estimate D2E/DX2                !
 ! D37   D(11,6,10,8)          179.8678         estimate D2E/DX2                !
 ! D38   D(11,6,10,13)          -0.0806         estimate D2E/DX2                !
 ! D39   D(5,8,10,6)            -0.0327         estimate D2E/DX2                !
 ! D40   D(5,8,10,13)          179.9158         estimate D2E/DX2                !
 ! D41   D(12,8,10,6)          179.9791         estimate D2E/DX2                !
 ! D42   D(12,8,10,13)          -0.0724         estimate D2E/DX2                !
 ! D43   D(1,14,15,17)         178.4681         estimate D2E/DX2                !
 ! D44   D(1,14,15,18)          -2.8203         estimate D2E/DX2                !
 ! D45   D(16,14,15,17)         -0.5041         estimate D2E/DX2                !
 ! D46   D(16,14,15,18)        178.2075         estimate D2E/DX2                !
 ! D47   D(1,14,16,19)        -178.6824         estimate D2E/DX2                !
 ! D48   D(1,14,16,20)           1.2635         estimate D2E/DX2                !
 ! D49   D(15,14,16,19)          0.3189         estimate D2E/DX2                !
 ! D50   D(15,14,16,20)       -179.7352         estimate D2E/DX2                !
 ! D51   D(14,15,17,21)          0.2506         estimate D2E/DX2                !
 ! D52   D(14,15,17,22)       -179.793          estimate D2E/DX2                !
 ! D53   D(18,15,17,21)       -178.4405         estimate D2E/DX2                !
 ! D54   D(18,15,17,22)          1.516          estimate D2E/DX2                !
 ! D55   D(14,16,19,21)          0.1197         estimate D2E/DX2                !
 ! D56   D(14,16,19,23)       -179.9658         estimate D2E/DX2                !
 ! D57   D(20,16,19,21)       -179.8264         estimate D2E/DX2                !
 ! D58   D(20,16,19,23)          0.088          estimate D2E/DX2                !
 ! D59   D(15,17,21,19)          0.1933         estimate D2E/DX2                !
 ! D60   D(15,17,21,24)       -179.909          estimate D2E/DX2                !
 ! D61   D(22,17,21,19)       -179.7631         estimate D2E/DX2                !
 ! D62   D(22,17,21,24)          0.1346         estimate D2E/DX2                !
 ! D63   D(16,19,21,17)         -0.3776         estimate D2E/DX2                !
 ! D64   D(16,19,21,24)        179.7247         estimate D2E/DX2                !
 ! D65   D(23,19,21,17)        179.708          estimate D2E/DX2                !
 ! D66   D(23,19,21,24)         -0.1897         estimate D2E/DX2                !
 ! D67   D(1,25,26,28)         179.9295         estimate D2E/DX2                !
 ! D68   D(1,25,26,29)           0.0            estimate D2E/DX2                !
 ! D69   D(27,25,26,28)          0.0896         estimate D2E/DX2                !
 ! D70   D(27,25,26,29)       -179.8399         estimate D2E/DX2                !
 ! D71   D(1,25,27,30)         179.9175         estimate D2E/DX2                !
 ! D72   D(1,25,27,31)           0.3913         estimate D2E/DX2                !
 ! D73   D(26,25,27,30)         -0.25           estimate D2E/DX2                !
 ! D74   D(26,25,27,31)       -179.7762         estimate D2E/DX2                !
 ! D75   D(25,26,28,32)          0.0957         estimate D2E/DX2                !
 ! D76   D(25,26,28,33)       -179.9538         estimate D2E/DX2                !
 ! D77   D(29,26,28,32)       -179.9745         estimate D2E/DX2                !
 ! D78   D(29,26,28,33)         -0.0239         estimate D2E/DX2                !
 ! D79   D(25,27,30,32)          0.226          estimate D2E/DX2                !
 ! D80   D(25,27,30,34)       -179.7227         estimate D2E/DX2                !
 ! D81   D(31,27,30,32)        179.7499         estimate D2E/DX2                !
 ! D82   D(31,27,30,34)         -0.1988         estimate D2E/DX2                !
 ! D83   D(26,28,32,30)         -0.1222         estimate D2E/DX2                !
 ! D84   D(26,28,32,35)        179.8417         estimate D2E/DX2                !
 ! D85   D(33,28,32,30)        179.9273         estimate D2E/DX2                !
 ! D86   D(33,28,32,35)         -0.1087         estimate D2E/DX2                !
 ! D87   D(27,30,32,28)         -0.0377         estimate D2E/DX2                !
 ! D88   D(27,30,32,35)        179.9984         estimate D2E/DX2                !
 ! D89   D(34,30,32,28)        179.9109         estimate D2E/DX2                !
 ! D90   D(34,30,32,35)         -0.0531         estimate D2E/DX2                !
 --------------------------------------------------------------------------------
 Trust Radius=3.00D-01 FncErr=1.00D-07 GrdErr=1.00D-07
 Number of steps in this run= 197 maximum allowed number of steps= 210.
 GradGradGradGradGradGradGradGradGradGradGradGradGradGradGradGradGradGrad

                          Input orientation:                          
 ---------------------------------------------------------------------
 Center     Atomic      Atomic             Coordinates (Angstroms)
 Number     Number       Type             X           Y           Z
 ---------------------------------------------------------------------
      1          6           0       -0.176574    0.704750    0.251407
      2          1           0       -0.400428    1.759321    0.569284
      3          6           0       -0.397011    0.651772   -1.241434
      4          6           0       -0.823813   -0.501790   -1.898511
      5          6           0       -0.153531    1.808335   -1.989373
      6          6           0       -1.005361   -0.500390   -3.277640
      7          1           0       -1.027053   -1.414792   -1.324449
      8          6           0       -0.333177    1.806782   -3.366906
      9          1           0        0.185297    2.722497   -1.487990
     10          6           0       -0.760071    0.651916   -4.014641
     11          1           0       -1.343563   -1.411577   -3.781693
     12          1           0       -0.138233    2.717128   -3.943058
     13          1           0       -0.902754    0.651739   -5.099899
     14          6           0        1.274051    0.443996    0.575831
     15          6           0        1.918621   -0.728705    0.178744
     16          6           0        1.997790    1.412951    1.274989
     17          6           0        3.263967   -0.926278    0.464943
     18          1           0        1.339035   -1.503589   -0.345764
     19          6           0        3.342826    1.212397    1.564061
     20          1           0        1.505629    2.337930    1.598071
     21          6           0        3.979382    0.045164    1.156646
     22          1           0        3.759159   -1.848815    0.145220
     23          1           0        3.901618    1.977341    2.113022
     24          1           0        5.039586   -0.109211    1.381114
     25          6           0       -1.124973   -0.180510    1.021042
     26          6           0       -2.259170    0.401785    1.595223
     27          6           0       -0.917463   -1.551779    1.178764
     28          6           0       -3.163175   -0.372725    2.312450
     29          1           0       -2.440756    1.477008    1.479959
     30          6           0       -1.820965   -2.324552    1.899315
     31          1           0       -0.024842   -2.020146    0.733440
     32          6           0       -2.945718   -1.737580    2.467394
     33          1           0       -4.048118    0.094329    2.756866
     34          1           0       -1.643371   -3.398224    2.018942
     35          1           0       -3.656842   -2.346477    3.034631
 ---------------------------------------------------------------------
                    Distance matrix (angstroms):
                    1          2          3          4          5
     1  C    0.000000
     2  H    1.123955   0.000000
     3  C    1.509958   2.122586   0.000000
     4  C    2.548883   3.373706   1.394495   0.000000
     5  C    2.497904   2.571008   1.398690   2.407117   0.000000
     6  C    3.820134   4.502339   2.417375   1.391028   2.777671
     7  H    2.774725   3.748850   2.162067   1.097463   3.404954
     8  C    3.785656   3.937051   2.419867   2.779643   1.389199
     9  H    2.688449   2.345881   2.165127   3.403360   1.096303
    10  C    4.306092   4.729488   2.796872   2.411039   2.409753
    11  H    4.701766   5.465812   3.406800   2.155047   3.872521
    12  H    4.652384   4.620321   3.410489   3.874484   2.154768
    13  H    5.400614   5.798164   3.891469   3.403784   3.402121
    14  C    1.509158   2.129320   2.477513   3.379041   3.237234
    15  C    2.539669   3.423563   3.047093   3.447814   3.928246
    16  C    2.505419   2.523774   3.556240   4.658195   3.929448
    17  C    3.813552   4.544350   4.336442   4.740892   5.018074
    18  H    2.744166   3.809150   2.908894   2.844738   3.987235
    19  C    3.790375   3.911605   4.708660   5.682317   5.020612
    20  H    2.703809   2.241928   3.811292   5.071133   3.987861
    21  C    4.304241   4.739838   5.027085   5.718726   5.485178
    22  H    4.692756   5.522738   5.044749   5.195666   5.765446
    23  H    4.660123   4.575833   5.611391   6.675940   5.770826
    24  H    5.398805   5.808978   6.083866   6.729747   6.481174
    25  C    1.508470   2.119433   2.518217   2.952576   3.736549
    26  C    2.496965   2.519996   3.402462   3.883668   4.388784
    27  C    2.549672   3.406197   3.314192   3.252825   4.680924
    28  C    3.785318   3.900900   4.618587   4.818865   5.685126
    29  H    2.689282   2.252104   3.501983   4.236060   4.168626
    30  C    3.820509   4.523818   4.555267   4.329001   5.914642
    31  H    2.771360   3.801629   3.343319   3.141803   4.699738
    32  C    4.306243   4.723308   5.095126   5.009070   6.342916
    33  H    4.651751   4.567643   5.443136   5.694211   6.374356
    34  H    4.702135   5.499699   5.346582   4.940389   6.737542
    35  H    5.400795   5.791351   6.156357   5.980369   7.401099
                    6          7          8          9         10
     6  C    0.000000
     7  H    2.156747   0.000000
     8  C    2.404754   3.877065   0.000000
     9  H    3.873953   4.314360   2.153526   0.000000
    10  C    1.389657   3.402895   1.391228   3.400734   0.000000
    11  H    1.094857   2.477547   3.398641   4.968808   2.157019
    12  H    3.398104   4.971909   1.094844   2.476299   2.157987
    13  H    2.158369   4.305813   2.159122   4.303229   1.094597
    14  C    4.575677   3.515856   4.470519   3.261336   5.025268
    15  C    4.533033   3.377470   4.906212   4.206330   5.163912
    16  C    5.779811   4.889058   5.209193   3.554447   6.013747
    17  C    5.693458   4.674765   5.923861   5.158074   6.224971
    18  H    3.885678   2.562046   4.783529   4.527206   4.744798
    19  C    6.729222   5.860159   6.179055   4.643857   6.947649
    20  H    6.175247   5.388740   5.321120   3.378601   6.283198
    21  C    6.693892   5.775093   6.493380   5.343903   7.040794
    22  H    6.019540   5.025548   6.515031   6.027998   6.631858
    23  H    7.699144   6.900331   6.927639   5.228153   7.812576
    24  H    7.641883   6.769691   7.421677   6.309869   7.957984
    25  C    4.312227   2.652239   4.881635   4.054565   5.117049
    26  C    5.111825   3.652745   5.505106   4.568077   5.812094
    27  C    4.579594   2.509353   5.681940   5.157237   5.643802
    28  C    5.993460   4.344646   6.709264   5.935992   6.845208
    29  H    5.348384   4.269165   5.295540   4.154049   5.804835
    30  C    5.549202   3.442472   6.856713   6.400908   6.705202
    31  H    4.399982   2.367655   5.617231   5.241333   5.497704
    32  C    6.188784   4.261871   7.309373   6.733543   7.245932
    33  H    6.784344   5.297302   7.364365   6.545829   7.548210
    34  H    6.071103   3.936003   7.603687   7.287375   7.320382
    35  H    7.091062   5.175462   8.323220   7.804527   8.189865
                   11         12         13         14         15
    11  H    0.000000
    12  H    4.304075   0.000000
    13  H    2.487820   2.487691   0.000000
    14  C    5.411384   5.251860   6.082397   0.000000
    15  C    5.176217   5.752709   6.142463   1.395843   0.000000
    16  C    6.686750   5.787182   7.044984   1.396958   2.407221
    17  C    6.284804   6.654311   7.128757   2.418618   1.389569
    18  H    4.360092   5.739102   5.680920   2.155609   1.100670
    19  C    7.577900   6.686579   7.921341   2.418030   2.777651
    20  H    7.149724   5.792251   7.314803   2.164622   3.404307
    21  C    7.405608   7.078215   7.959117   2.795573   2.408714
    22  H    6.453650   7.263024   7.449663   3.408543   2.154843
    23  H    8.587453   7.317361   8.767293   3.408549   3.872517
    24  H    8.312359   7.946370   8.825756   3.890214   3.401453
    25  C    4.962819   5.832002   6.181257   2.518638   3.205222
    26  C    5.747856   6.366454   6.835715   3.677580   4.553939
    27  C    4.980698   6.712960   6.654121   3.024795   3.117830
    28  C    6.444283   7.604527   7.816773   4.834445   5.523049
    29  H    6.101863   6.020683   6.807427   3.960348   5.055937
    30  C    5.773672   7.898319   7.660967   4.358394   4.414929
    31  H    4.742975   6.657646   6.475920   2.789975   2.398449
    32  C    6.459433   8.295799   8.194295   5.113095   5.469693
    33  H    7.234302   8.188727   8.481320   5.762349   6.551799
    34  H    6.138732   8.672279   8.223662   5.035532   4.816685
    35  H    7.258621   9.311759   9.096422   6.176257   6.469859
                   16         17         18         19         20
    16  C    0.000000
    17  C    2.780535   0.000000
    18  H    3.401030   2.167002   0.000000
    19  C    1.390291   2.405870   3.878040   0.000000
    20  H    1.096444   3.876956   4.308540   2.154826   0.000000
    21  C    2.410717   1.390673   3.409884   1.390548   3.401631
    22  H    3.875296   1.094765   2.493441   3.399626   4.971720
    23  H    2.155318   3.399083   4.972860   1.094872   2.477087
    24  H    3.403052   2.158654   4.315145   2.158497   4.304000
    25  C    3.515004   4.486447   3.112881   4.711293   3.687216
    26  C    4.387107   5.791919   4.510538   5.660426   4.233482
    27  C    4.159036   4.287791   2.723654   5.093053   4.601850
    28  C    5.558823   6.710280   5.349284   6.738008   5.445706
    29  H    4.443737   6.272950   5.148207   5.790243   4.040927
    30  C    5.379740   5.465266   3.962317   6.267946   5.735479
    31  H    4.021252   3.476334   1.814296   4.741356   4.699229
    32  C    5.982135   6.574816   5.131054   7.004582   6.097539
    33  H    6.362996   7.730533   6.418806   7.569605   6.100873
    34  H    6.079386   5.710289   4.251614   6.806388   6.557194
    35  H    7.014592   7.517837   6.090675   7.988963   7.117477
                   21         22         23         24         25
    21  C    0.000000
    22  H    2.158387   0.000000
    23  H    2.157315   4.304881   0.000000
    24  H    1.094645   2.488603   2.486837   0.000000
    25  C    5.111140   5.234983   5.578113   6.175477   0.000000
    26  C    6.264109   6.586956   6.380109   7.319753   1.398268
    27  C    5.150710   4.798670   6.045747   6.132567   1.395821
    28  C    7.247526   7.402326   7.448078   8.259667   2.420527
    29  H    6.585809   7.161115   6.393497   7.647311   2.165469
    30  C    6.309607   5.868642   7.162395   7.227962   2.419233
    31  H    4.525309   3.833278   5.770635   5.451567   2.162698
    32  C    7.270024   7.096495   7.798219   8.221719   2.798484
    33  H    8.185590   8.458727   8.195033   9.193502   3.410777
    34  H    6.649499   5.924427   7.723500   7.475717   3.408552
    35  H    8.219410   7.974549   8.756431   9.130572   3.893112
                   26         27         28         29         30
    26  C    0.000000
    27  C    2.406247   0.000000
    28  C    1.389786   2.778243   0.000000
    29  H    1.096523   3.403629   2.153239   0.000000
    30  C    2.778022   1.390211   2.404545   3.874514   0.000000
    31  H    3.405971   1.102023   3.880258   4.315555   2.162865
    32  C    2.410168   2.410167   1.390728   3.400527   1.390079
    33  H    2.155059   3.873122   1.094883   2.475056   3.398027
    34  H    3.872830   2.154577   3.398470   4.969327   1.094816
    35  H    3.402694   3.402938   2.158923   4.302895   2.158673
                   31         32         33         34         35
    31  H    0.000000
    32  C    3.408513   0.000000
    33  H    4.975138   2.157537   0.000000
    34  H    2.484201   2.157535   4.304099   0.000000
    35  H    4.312007   1.094629   2.487525   2.488346   0.000000
 Stoichiometry    C19H16
 Framework group  C1[X(C19H16)]
 Deg. of freedom    99
 Full point group                 C1      NOp   1
 Largest Abelian subgroup         C1      NOp   1
 Largest concise Abelian subgroup C1      NOp   1
                         Standard orientation:                         
 ---------------------------------------------------------------------
 Center     Atomic      Atomic             Coordinates (Angstroms)
 Number     Number       Type             X           Y           Z
 ---------------------------------------------------------------------
      1          6           0        0.023419   -0.012489   -0.754375
      2          1           0        0.000743   -0.006502   -1.878085
      3          6           0       -0.495464    1.333634   -0.308631
      4          6           0       -0.074808    1.949618    0.869600
      5          6           0       -1.441899    1.978714   -1.111416
      6          6           0       -0.589078    3.188110    1.239225
      7          1           0        0.673412    1.459935    1.505841
      8          6           0       -1.955948    3.214439   -0.739111
      9          1           0       -1.785006    1.506204   -2.039260
     10          6           0       -1.530300    3.822577    0.437539
     11          1           0       -0.248764    3.662897    2.165224
     12          1           0       -2.697551    3.710014   -1.374024
     13          1           0       -1.934700    4.796890    0.729632
     14          6           0       -0.908115   -1.109255   -0.299505
     15          6           0       -1.224288   -1.296085    1.047159
     16          6           0       -1.486767   -1.947845   -1.255237
     17          6           0       -2.110204   -2.294993    1.432177
     18          1           0       -0.744294   -0.653607    1.801018
     19          6           0       -2.370048   -2.949370   -0.868364
     20          1           0       -1.245813   -1.817517   -2.316908
     21          6           0       -2.686526   -3.122533    0.474574
     22          1           0       -2.352828   -2.429413    2.491221
     23          1           0       -2.818120   -3.602060   -1.624651
     24          1           0       -3.385635   -3.908655    0.777074
     25          6           0        1.459608   -0.252689   -0.360489
     26          6           0        2.456768   -0.026449   -1.314240
     27          6           0        1.830435   -0.686478    0.913336
     28          6           0        3.794461   -0.232264   -0.998450
     29          1           0        2.185319    0.317059   -2.319566
     30          6           0        3.168727   -0.895073    1.226629
     31          1           0        1.052219   -0.871350    1.671396
     32          6           0        4.153732   -0.668305    0.272343
     33          1           0        4.566466   -0.051021   -1.753385
     34          1           0        3.444976   -1.239789    2.228368
     35          1           0        5.207345   -0.832668    0.519517
 ---------------------------------------------------------------------
 Rotational constants (GHZ):      0.4002969      0.3719533      0.2368773
 Standard basis: 6-311G (5D, 7F)
 There are   295 symmetry adapted basis functions of A   symmetry.
 Integral buffers will be    262144 words long.
 Raffenetti 1 integral format.
 Two-electron integral symmetry is turned on.
   295 basis functions,   574 primitive gaussians,   295 cartesian basis functions
    65 alpha electrons       65 beta electrons
       nuclear repulsion energy      1288.4029161377 Hartrees.
 NAtoms=   35 NActive=   35 NUniq=   35 SFac= 7.50D-01 NAtFMM=   80 NAOKFM=F Big=F
 One-electron integrals computed using PRISM.
 PrsmSu:  requested number of processors reduced to:  10 ShMem   1 Linda.
 NBasis=   295 RedAO= T  NBF=   295
 NBsUse=   295 1.00D-06 NBFU=   295
 Harris functional with IExCor=  205 diagonalized for initial guess.
 ExpMin= 1.03D-01 ExpMax= 4.56D+03 ExpMxC= 6.82D+02 IAcc=1 IRadAn=         1 AccDes= 0.00D+00
 HarFok:  IExCor=  205 AccDes= 0.00D+00 IRadAn=         1 IDoV= 1
 ScaDFX=  1.000000  1.000000  1.000000  1.000000
 FoFCou: FMM=F IPFlag=           0 FMFlag=      100000 FMFlg1=           0
         NFxFlg=           0 DoJE=T BraDBF=F KetDBF=T FulRan=T
         Omega=  0.000000  0.000000  1.000000  0.000000  0.000000 ICntrl=     500 IOpCl=  0
         NMat0=    1 NMatS0=    1 NMatT0=    0 NMatD0=    1 NMtDS0=    0 NMtDT0=    0
         I1Cent=           4 NGrid=           0.
 Petite list used in FoFCou.
 Initial guess orbital symmetries:
       Occupied  (A) (A) (A) (A) (A) (A) (A) (A) (A) (A) (A) (A)
                 (A) (A) (A) (A) (A) (A) (A) (A) (A) (A) (A) (A)
                 (A) (A) (A) (A) (A) (A) (A) (A) (A) (A) (A) (A)
                 (A) (A) (A) (A) (A) (A) (A) (A) (A) (A) (A) (A)
                 (A) (A) (A) (A) (A) (A) (A) (A) (A) (A) (A) (A)
                 (A) (A) (A) (A) (A)
       Virtual   (A) (A) (A) (A) (A) (A) (A) (A) (A) (A) (A) (A)
                 (A) (A) (A) (A) (A) (A) (A) (A) (A) (A) (A) (A)
                 (A) (A) (A) (A) (A) (A) (A) (A) (A) (A) (A) (A)
                 (A) (A) (A) (A) (A) (A) (A) (A) (A) (A) (A) (A)
                 (A) (A) (A) (A) (A) (A) (A) (A) (A) (A) (A) (A)
                 (A) (A) (A) (A) (A) (A) (A) (A) (A) (A) (A) (A)
                 (A) (A) (A) (A) (A) (A) (A) (A) (A) (A) (A) (A)
                 (A) (A) (A) (A) (A) (A) (A) (A) (A) (A) (A) (A)
                 (A) (A) (A) (A) (A) (A) (A) (A) (A) (A) (A) (A)
                 (A) (A) (A) (A) (A) (A) (A) (A) (A) (A) (A) (A)
                 (A) (A) (A) (A) (A) (A) (A) (A) (A) (A) (A) (A)
                 (A) (A) (A) (A) (A) (A) (A) (A) (A) (A) (A) (A)
                 (A) (A) (A) (A) (A) (A) (A) (A) (A) (A) (A) (A)
                 (A) (A) (A) (A) (A) (A) (A) (A) (A) (A) (A) (A)
                 (A) (A) (A) (A) (A) (A) (A) (A) (A) (A) (A) (A)
                 (A) (A) (A) (A) (A) (A) (A) (A) (A) (A) (A) (A)
                 (A) (A) (A) (A) (A) (A) (A) (A) (A) (A) (A) (A)
                 (A) (A) (A) (A) (A) (A) (A) (A) (A) (A) (A) (A)
                 (A) (A) (A) (A) (A) (A) (A) (A) (A) (A) (A) (A)
                 (A) (A)
 The electronic state of the initial guess is 1-A.
 Requested convergence on RMS density matrix=1.00D-08 within 128 cycles.
 Requested convergence on MAX density matrix=1.00D-06.
 Requested convergence on             energy=1.00D-06.
 No special actions if energy rises.
 Integral accuracy reduced to 1.0D-05 until final iterations.
 Initial convergence to 1.0D-05 achieved.  Increase integral accuracy.
 SCF Done:  E(RHF) =  -728.671725609     A.U. after   14 cycles
             Convg  =    0.6165D-08             -V/T =  2.0001

 **********************************************************************

            Population analysis using the SCF density.

 **********************************************************************

 Orbital symmetries:
       Occupied  (A) (A) (A) (A) (A) (A) (A) (A) (A) (A) (A) (A)
                 (A) (A) (A) (A) (A) (A) (A) (A) (A) (A) (A) (A)
                 (A) (A) (A) (A) (A) (A) (A) (A) (A) (A) (A) (A)
                 (A) (A) (A) (A) (A) (A) (A) (A) (A) (A) (A) (A)
                 (A) (A) (A) (A) (A) (A) (A) (A) (A) (A) (A) (A)
                 (A) (A) (A) (A) (A)
       Virtual   (A) (A) (A) (A) (A) (A) (A) (A) (A) (A) (A) (A)
                 (A) (A) (A) (A) (A) (A) (A) (A) (A) (A) (A) (A)
                 (A) (A) (A) (A) (A) (A) (A) (A) (A) (A) (A) (A)
                 (A) (A) (A) (A) (A) (A) (A) (A) (A) (A) (A) (A)
                 (A) (A) (A) (A) (A) (A) (A) (A) (A) (A) (A) (A)
                 (A) (A) (A) (A) (A) (A) (A) (A) (A) (A) (A) (A)
                 (A) (A) (A) (A) (A) (A) (A) (A) (A) (A) (A) (A)
                 (A) (A) (A) (A) (A) (A) (A) (A) (A) (A) (A) (A)
                 (A) (A) (A) (A) (A) (A) (A) (A) (A) (A) (A) (A)
                 (A) (A) (A) (A) (A) (A) (A) (A) (A) (A) (A) (A)
                 (A) (A) (A) (A) (A) (A) (A) (A) (A) (A) (A) (A)
                 (A) (A) (A) (A) (A) (A) (A) (A) (A) (A) (A) (A)
                 (A) (A) (A) (A) (A) (A) (A) (A) (A) (A) (A) (A)
                 (A) (A) (A) (A) (A) (A) (A) (A) (A) (A) (A) (A)
                 (A) (A) (A) (A) (A) (A) (A) (A) (A) (A) (A) (A)
                 (A) (A) (A) (A) (A) (A) (A) (A) (A) (A) (A) (A)
                 (A) (A) (A) (A) (A) (A) (A) (A) (A) (A) (A) (A)
                 (A) (A) (A) (A) (A) (A) (A) (A) (A) (A) (A) (A)
                 (A) (A) (A) (A) (A) (A) (A) (A) (A) (A) (A) (A)
                 (A) (A)
 The electronic state is 1-A.
 Alpha  occ. eigenvalues --  -11.25831 -11.25273 -11.25261 -11.25130 -11.24446
 Alpha  occ. eigenvalues --  -11.24432 -11.24357 -11.24349 -11.24209 -11.24189
 Alpha  occ. eigenvalues --  -11.24126 -11.24119 -11.24110 -11.24055 -11.24027
 Alpha  occ. eigenvalues --  -11.24018 -11.23913 -11.23833 -11.23735  -1.18591
 Alpha  occ. eigenvalues --   -1.15827  -1.15679  -1.09037  -1.02411  -1.02115
 Alpha  occ. eigenvalues --   -1.01889  -1.01495  -1.01387  -0.92962  -0.84535
 Alpha  occ. eigenvalues --   -0.82945  -0.82541  -0.81707  -0.81561  -0.77732
 Alpha  occ. eigenvalues --   -0.70732  -0.70448  -0.69106  -0.65995  -0.63619
 Alpha  occ. eigenvalues --   -0.63503  -0.62369  -0.62031  -0.61899  -0.59569
 Alpha  occ. eigenvalues --   -0.58773  -0.58518  -0.58429  -0.57612  -0.53923
 Alpha  occ. eigenvalues --   -0.51741  -0.51082  -0.50847  -0.49674  -0.49168
 Alpha  occ. eigenvalues --   -0.48680  -0.47789  -0.47475  -0.46760  -0.34695
 Alpha  occ. eigenvalues --   -0.34244  -0.33700  -0.33584  -0.33278  -0.31180
 Alpha virt. eigenvalues --    0.11651   0.12015   0.13579   0.13746   0.14059
 Alpha virt. eigenvalues --    0.14931   0.15134   0.16273   0.16375   0.16883
 Alpha virt. eigenvalues --    0.18810   0.19131   0.19284   0.21284   0.21420
 Alpha virt. eigenvalues --    0.21510   0.23636   0.24245   0.24981   0.27139
 Alpha virt. eigenvalues --    0.28518   0.29486   0.34027   0.34193   0.35871
 Alpha virt. eigenvalues --    0.37470   0.38508   0.39681   0.40961   0.43679
 Alpha virt. eigenvalues --    0.44100   0.44377   0.45024   0.45394   0.45577
 Alpha virt. eigenvalues --    0.45868   0.46407   0.48408   0.49885   0.50380
 Alpha virt. eigenvalues --    0.50803   0.51023   0.51445   0.54971   0.55778
 Alpha virt. eigenvalues --    0.56806   0.57907   0.58954   0.59050   0.59613
 Alpha virt. eigenvalues --    0.59688   0.60667   0.61076   0.61498   0.61701
 Alpha virt. eigenvalues --    0.61851   0.62383   0.62465   0.63289   0.63467
 Alpha virt. eigenvalues --    0.64139   0.64997   0.65166   0.65417   0.66902
 Alpha virt. eigenvalues --    0.67407   0.68230   0.68436   0.70109   0.71415
 Alpha virt. eigenvalues --    0.72347   0.73794   0.74458   0.75062   0.76226
 Alpha virt. eigenvalues --    0.77296   0.78319   0.78595   0.80471   0.81173
 Alpha virt. eigenvalues --    0.81856   0.82197   0.82341   0.82822   0.82917
 Alpha virt. eigenvalues --    0.83512   0.83931   0.84057   0.84785   0.85604
 Alpha virt. eigenvalues --    0.86037   0.86382   0.86900   0.87453   0.88065
 Alpha virt. eigenvalues --    0.89688   0.90546   0.91271   0.92976   0.94393
 Alpha virt. eigenvalues --    0.96097   0.96850   0.97688   0.98158   0.98954
 Alpha virt. eigenvalues --    0.99326   1.00307   1.02799   1.05746   1.06222
 Alpha virt. eigenvalues --    1.06795   1.07138   1.08022   1.08368   1.10524
 Alpha virt. eigenvalues --    1.11096   1.12216   1.12490   1.13004   1.14258
 Alpha virt. eigenvalues --    1.14636   1.15392   1.18586   1.19480   1.21714
 Alpha virt. eigenvalues --    1.25333   1.26755   1.27702   1.28203   1.28820
 Alpha virt. eigenvalues --    1.30329   1.35114   1.39483   1.45238   1.46637
 Alpha virt. eigenvalues --    1.51687   1.52278   1.56518   2.54615   2.55622
 Alpha virt. eigenvalues --    2.56176   2.59177   2.61970   2.62495   2.64456
 Alpha virt. eigenvalues --    2.66987   2.67731   2.68460   2.72303   2.76754
 Alpha virt. eigenvalues --    2.77755   2.83500   2.87936   2.88603   2.94132
 Alpha virt. eigenvalues --    2.94277   2.94426   2.97082   2.97454   2.98029
 Alpha virt. eigenvalues --    3.00379   3.00783   3.04044   3.05741   3.07149
 Alpha virt. eigenvalues --    3.08138   3.08427   3.08961   3.09977   3.14328
 Alpha virt. eigenvalues --    3.14792   3.16344   3.16835   3.17565   3.18844
 Alpha virt. eigenvalues --    3.22644   3.25644   3.25818   3.28295   3.28877
 Alpha virt. eigenvalues --    3.30924   3.33378   3.34271   3.35161   3.42624
 Alpha virt. eigenvalues --    3.43060   3.44411   3.46925   3.49498   3.52255
 Alpha virt. eigenvalues --    3.53422   3.54461   3.59212   3.60647   3.60675
 Alpha virt. eigenvalues --    3.63113   3.63526   3.63781   3.65962   3.66667
 Alpha virt. eigenvalues --    3.68360   3.70272   3.70474   3.71423   3.73481
 Alpha virt. eigenvalues --    3.74192   3.75548   3.80866   3.85852   3.86663
 Alpha virt. eigenvalues --    3.93005  24.24846  24.30693  24.31559  24.50535
 Alpha virt. eigenvalues --   24.50839  24.51119  24.54000  24.54664  24.56113
 Alpha virt. eigenvalues --   24.77294  24.78591  24.79147  24.79615  24.80640
 Alpha virt. eigenvalues --   24.81839  24.83256  25.05549  25.05816  25.06123
          Condensed to atoms (all electrons):
              1          2          3          4          5          6
     1  C    5.830761   0.463996   0.157251  -0.039916  -0.050388   0.004867
     2  H    0.463996   0.512428  -0.059844   0.004905  -0.003315  -0.000248
     3  C    0.157251  -0.059844   5.366115   0.486281   0.472899  -0.064616
     4  C   -0.039916   0.004905   0.486281   5.087735  -0.072050   0.471392
     5  C   -0.050388  -0.003315   0.472899  -0.072050   5.071827  -0.031572
     6  C    0.004867  -0.000248  -0.064616   0.471392  -0.031572   5.050629
     7  H   -0.001705  -0.000069  -0.042586   0.390212   0.004192  -0.029980
     8  C    0.006252   0.001545  -0.065225  -0.027884   0.466349  -0.076895
     9  H    0.001791   0.001049  -0.050645   0.004140   0.399589  -0.000336
    10  C    0.000988   0.000009  -0.018521  -0.093479  -0.086086   0.499306
    11  H   -0.000325   0.000013   0.006180  -0.037570  -0.000423   0.395898
    12  H   -0.000351  -0.000026   0.006701  -0.000523  -0.039640   0.006124
    13  H   -0.000012  -0.000002  -0.001479   0.007823   0.007370  -0.042199
    14  C    0.185204  -0.074327  -0.154173  -0.014041   0.000708   0.000621
    15  C   -0.054377   0.005555  -0.007765  -0.000032   0.000779  -0.000654
    16  C   -0.026190   0.002041  -0.005690  -0.000321   0.002052   0.000027
    17  C    0.001398  -0.000282   0.000729  -0.000030  -0.000068  -0.000016
    18  H    0.003091   0.000067  -0.001859   0.004707  -0.000269   0.000443
    19  C    0.007671   0.001757  -0.000462   0.000048  -0.000100  -0.000001
    20  H   -0.000482   0.002410   0.000152  -0.000048   0.000253   0.000000
    21  C    0.001273  -0.000013   0.000097  -0.000004  -0.000013   0.000000
    22  H   -0.000319   0.000012   0.000018  -0.000002   0.000006  -0.000001
    23  H   -0.000368  -0.000037   0.000011   0.000000   0.000003   0.000000
    24  H   -0.000013  -0.000001  -0.000002   0.000000   0.000000   0.000000
    25  C    0.170471  -0.073863  -0.103540  -0.014427   0.006439   0.000509
    26  C   -0.045217   0.002841  -0.001479   0.001911   0.000441  -0.000090
    27  C   -0.045942   0.005103  -0.005734  -0.007392  -0.000173   0.000014
    28  C    0.008267   0.001515  -0.000715   0.000226   0.000003  -0.000003
    29  H   -0.000729   0.002685   0.000480   0.000188   0.000114   0.000009
    30  C    0.003561  -0.000275   0.000881  -0.001486   0.000023  -0.000031
    31  H   -0.000288  -0.000140  -0.000493   0.000355  -0.000028   0.000051
    32  C    0.001143  -0.000016   0.000023   0.000081  -0.000001   0.000004
    33  H   -0.000389  -0.000029   0.000022  -0.000001   0.000000   0.000000
    34  H   -0.000295   0.000014  -0.000007   0.000013  -0.000001   0.000001
    35  H   -0.000019  -0.000001   0.000001  -0.000001   0.000000   0.000000
              7          8          9         10         11         12
     1  C   -0.001705   0.006252   0.001791   0.000988  -0.000325  -0.000351
     2  H   -0.000069   0.001545   0.001049   0.000009   0.000013  -0.000026
     3  C   -0.042586  -0.065225  -0.050645  -0.018521   0.006180   0.006701
     4  C    0.390212  -0.027884   0.004140  -0.093479  -0.037570  -0.000523
     5  C    0.004192   0.466349   0.399589  -0.086086  -0.000423  -0.039640
     6  C   -0.029980  -0.076895  -0.000336   0.499306   0.395898   0.006124
     7  H    0.481371  -0.000182  -0.000249   0.004711  -0.003330   0.000020
     8  C   -0.000182   5.050238  -0.035580   0.488813   0.005998   0.397088
     9  H   -0.000249  -0.035580   0.509872   0.005342   0.000024  -0.004287
    10  C    0.004711   0.488813   0.005342   5.033488  -0.040260  -0.040728
    11  H   -0.003330   0.005998   0.000024  -0.040260   0.516814  -0.000213
    12  H    0.000020   0.397088  -0.004287  -0.040728  -0.000213   0.518585
    13  H   -0.000182  -0.042951  -0.000185   0.399193  -0.004444  -0.004485
    14  C   -0.001008  -0.000426   0.000566   0.000076   0.000005   0.000012
    15  C    0.000488   0.000194  -0.000050   0.000029   0.000014   0.000003
    16  C   -0.000081  -0.000036   0.001446  -0.000003   0.000000  -0.000001
    17  C    0.000060   0.000002  -0.000018   0.000003   0.000000   0.000000
    18  H    0.000999  -0.000099  -0.000037  -0.000012   0.000000   0.000001
    19  C    0.000002   0.000007   0.000030   0.000000   0.000000   0.000000
    20  H    0.000000  -0.000006   0.000256   0.000000   0.000000  -0.000001
    21  C    0.000002   0.000000  -0.000012   0.000000   0.000000   0.000000
    22  H   -0.000009   0.000001   0.000000   0.000000   0.000000   0.000000
    23  H    0.000000   0.000000  -0.000003   0.000000   0.000000   0.000000
    24  H    0.000000   0.000000   0.000000   0.000000   0.000000   0.000000
    25  C   -0.003177  -0.000760   0.000696   0.000046   0.000037   0.000011
    26  C   -0.000894  -0.000016   0.000013  -0.000013   0.000007   0.000001
    27  C    0.001037   0.000025  -0.000038  -0.000019   0.000029   0.000000
    28  C   -0.000135   0.000001   0.000001   0.000000   0.000001   0.000000
    29  H   -0.000036  -0.000008   0.000003  -0.000004   0.000000   0.000000
    30  C    0.000963   0.000000   0.000000   0.000000  -0.000001   0.000000
    31  H    0.000139   0.000006   0.000007   0.000001  -0.000017   0.000000
    32  C    0.000047   0.000000   0.000000   0.000000  -0.000001   0.000000
    33  H    0.000001   0.000000   0.000000   0.000000   0.000000   0.000000
    34  H   -0.000002   0.000000   0.000000   0.000000   0.000000   0.000000
    35  H    0.000001   0.000000   0.000000   0.000000   0.000000   0.000000
             13         14         15         16         17         18
     1  C   -0.000012   0.185204  -0.054377  -0.026190   0.001398   0.003091
     2  H   -0.000002  -0.074327   0.005555   0.002041  -0.000282   0.000067
     3  C   -0.001479  -0.154173  -0.007765  -0.005690   0.000729  -0.001859
     4  C    0.007823  -0.014041  -0.000032  -0.000321  -0.000030   0.004707
     5  C    0.007370   0.000708   0.000779   0.002052  -0.000068  -0.000269
     6  C   -0.042199   0.000621  -0.000654   0.000027  -0.000016   0.000443
     7  H   -0.000182  -0.001008   0.000488  -0.000081   0.000060   0.000999
     8  C   -0.042951  -0.000426   0.000194  -0.000036   0.000002  -0.000099
     9  H   -0.000185   0.000566  -0.000050   0.001446  -0.000018  -0.000037
    10  C    0.399193   0.000076   0.000029  -0.000003   0.000003  -0.000012
    11  H   -0.004444   0.000005   0.000014   0.000000   0.000000   0.000000
    12  H   -0.004485   0.000012   0.000003  -0.000001   0.000000   0.000001
    13  H    0.518522  -0.000001  -0.000001   0.000000   0.000000  -0.000001
    14  C   -0.000001   5.374530   0.439053   0.503562  -0.061706  -0.048405
    15  C   -0.000001   0.439053   5.095314  -0.065489   0.479309   0.388563
    16  C    0.000000   0.503562  -0.065489   5.070356  -0.033406   0.004047
    17  C    0.000000  -0.061706   0.479309  -0.033406   5.035781  -0.027236
    18  H   -0.000001  -0.048405   0.388563   0.004047  -0.027236   0.495129
    19  C    0.000000  -0.072724  -0.029610   0.459621  -0.076827  -0.000168
    20  H    0.000000  -0.046676   0.004627   0.395787  -0.000239  -0.000260
    21  C    0.000000  -0.017871  -0.092090  -0.086338   0.494327   0.004557
    22  H    0.000000   0.006071  -0.039065  -0.000449   0.396683  -0.003432
    23  H    0.000000   0.007060  -0.000618  -0.039712   0.006223   0.000021
    24  H    0.000000  -0.001593   0.008016   0.007536  -0.042920  -0.000169
    25  C   -0.000001  -0.112315  -0.006312  -0.000323   0.001777  -0.003182
    26  C    0.000000   0.001932   0.000224   0.000198   0.000028  -0.000196
    27  C    0.000001  -0.004663  -0.017198   0.001488  -0.001731   0.000292
    28  C    0.000000  -0.000680   0.000029  -0.000004  -0.000001   0.000016
    29  H    0.000000   0.000361  -0.000025  -0.000021   0.000002  -0.000007
    30  C    0.000000   0.001545  -0.000014   0.000042  -0.000089   0.000860
    31  H    0.000000  -0.003020   0.002887  -0.000257   0.001157   0.003448
    32  C    0.000000   0.000021  -0.000004  -0.000011   0.000001  -0.000011
    33  H    0.000000   0.000014   0.000000   0.000001   0.000000   0.000000
    34  H    0.000000   0.000011   0.000031   0.000002   0.000000  -0.000053
    35  H    0.000000  -0.000002   0.000001   0.000000   0.000000   0.000000
             19         20         21         22         23         24
     1  C    0.007671  -0.000482   0.001273  -0.000319  -0.000368  -0.000013
     2  H    0.001757   0.002410  -0.000013   0.000012  -0.000037  -0.000001
     3  C   -0.000462   0.000152   0.000097   0.000018   0.000011  -0.000002
     4  C    0.000048  -0.000048  -0.000004  -0.000002   0.000000   0.000000
     5  C   -0.000100   0.000253  -0.000013   0.000006   0.000003   0.000000
     6  C   -0.000001   0.000000   0.000000  -0.000001   0.000000   0.000000
     7  H    0.000002   0.000000   0.000002  -0.000009   0.000000   0.000000
     8  C    0.000007  -0.000006   0.000000   0.000001   0.000000   0.000000
     9  H    0.000030   0.000256  -0.000012   0.000000  -0.000003   0.000000
    10  C    0.000000   0.000000   0.000000   0.000000   0.000000   0.000000
    11  H    0.000000   0.000000   0.000000   0.000000   0.000000   0.000000
    12  H    0.000000  -0.000001   0.000000   0.000000   0.000000   0.000000
    13  H    0.000000   0.000000   0.000000   0.000000   0.000000   0.000000
    14  C   -0.072724  -0.046676  -0.017871   0.006071   0.007060  -0.001593
    15  C   -0.029610   0.004627  -0.092090  -0.039065  -0.000618   0.008016
    16  C    0.459621   0.395787  -0.086338  -0.000449  -0.039712   0.007536
    17  C   -0.076827  -0.000239   0.494327   0.396683   0.006223  -0.042920
    18  H   -0.000168  -0.000260   0.004557  -0.003432   0.000021  -0.000169
    19  C    5.055065  -0.035054   0.496981   0.005999   0.396787  -0.042752
    20  H   -0.035054   0.510843   0.005165   0.000024  -0.004176  -0.000186
    21  C    0.496981   0.005165   5.031063  -0.039552  -0.040772   0.399623
    22  H    0.005999   0.000024  -0.039552   0.515361  -0.000211  -0.004455
    23  H    0.396787  -0.004176  -0.040772  -0.000211   0.518281  -0.004582
    24  H   -0.042752  -0.000186   0.399623  -0.004455  -0.004582   0.517490
    25  C   -0.000600   0.000560  -0.000035   0.000009   0.000020  -0.000001
    26  C   -0.000009   0.000136  -0.000001   0.000000   0.000000   0.000000
    27  C    0.000126   0.000003   0.000045   0.000016  -0.000001   0.000001
    28  C    0.000001   0.000003   0.000000   0.000000   0.000000   0.000000
    29  H    0.000001  -0.000025   0.000000   0.000000   0.000000   0.000000
    30  C    0.000000   0.000003   0.000003   0.000001   0.000000   0.000000
    31  H   -0.000139  -0.000004   0.000079  -0.000105   0.000000   0.000000
    32  C    0.000000  -0.000001   0.000000   0.000000   0.000000   0.000000
    33  H    0.000000   0.000000   0.000000   0.000000   0.000000   0.000000
    34  H    0.000000   0.000000  -0.000001   0.000001   0.000000   0.000000
    35  H    0.000000   0.000000   0.000000   0.000000   0.000000   0.000000
             25         26         27         28         29         30
     1  C    0.170471  -0.045217  -0.045942   0.008267  -0.000729   0.003561
     2  H   -0.073863   0.002841   0.005103   0.001515   0.002685  -0.000275
     3  C   -0.103540  -0.001479  -0.005734  -0.000715   0.000480   0.000881
     4  C   -0.014427   0.001911  -0.007392   0.000226   0.000188  -0.001486
     5  C    0.006439   0.000441  -0.000173   0.000003   0.000114   0.000023
     6  C    0.000509  -0.000090   0.000014  -0.000003   0.000009  -0.000031
     7  H   -0.003177  -0.000894   0.001037  -0.000135  -0.000036   0.000963
     8  C   -0.000760  -0.000016   0.000025   0.000001  -0.000008   0.000000
     9  H    0.000696   0.000013  -0.000038   0.000001   0.000003   0.000000
    10  C    0.000046  -0.000013  -0.000019   0.000000  -0.000004   0.000000
    11  H    0.000037   0.000007   0.000029   0.000001   0.000000  -0.000001
    12  H    0.000011   0.000001   0.000000   0.000000   0.000000   0.000000
    13  H   -0.000001   0.000000   0.000001   0.000000   0.000000   0.000000
    14  C   -0.112315   0.001932  -0.004663  -0.000680   0.000361   0.001545
    15  C   -0.006312   0.000224  -0.017198   0.000029  -0.000025  -0.000014
    16  C   -0.000323   0.000198   0.001488  -0.000004  -0.000021   0.000042
    17  C    0.001777   0.000028  -0.001731  -0.000001   0.000002  -0.000089
    18  H   -0.003182  -0.000196   0.000292   0.000016  -0.000007   0.000860
    19  C   -0.000600  -0.000009   0.000126   0.000001   0.000001   0.000000
    20  H    0.000560   0.000136   0.000003   0.000003  -0.000025   0.000003
    21  C   -0.000035  -0.000001   0.000045   0.000000   0.000000   0.000003
    22  H    0.000009   0.000000   0.000016   0.000000   0.000000   0.000001
    23  H    0.000020   0.000000  -0.000001   0.000000   0.000000   0.000000
    24  H   -0.000001   0.000000   0.000001   0.000000   0.000000   0.000000
    25  C    5.366641   0.495246   0.450191  -0.071597  -0.045652  -0.064476
    26  C    0.495246   5.040851  -0.061448   0.471746   0.394461  -0.036138
    27  C    0.450191  -0.061448   5.121946  -0.031244   0.004754   0.473348
    28  C   -0.071597   0.471746  -0.031244   5.044575  -0.034682  -0.075105
    29  H   -0.045652   0.394461   0.004754  -0.034682   0.507647  -0.000402
    30  C   -0.064476  -0.036138   0.473348  -0.075105  -0.000402   5.056533
    31  H   -0.053057   0.004509   0.386636  -0.000213  -0.000243  -0.025345
    32  C   -0.017731  -0.086756  -0.094834   0.494640   0.005351   0.495782
    33  H    0.007147  -0.039665  -0.000599   0.396651  -0.004215   0.006228
    34  H    0.006030  -0.000391  -0.036767   0.005897   0.000022   0.395582
    35  H   -0.001594   0.007488   0.008120  -0.042953  -0.000183  -0.042539
             31         32         33         34         35
     1  C   -0.000288   0.001143  -0.000389  -0.000295  -0.000019
     2  H   -0.000140  -0.000016  -0.000029   0.000014  -0.000001
     3  C   -0.000493   0.000023   0.000022  -0.000007   0.000001
     4  C    0.000355   0.000081  -0.000001   0.000013  -0.000001
     5  C   -0.000028  -0.000001   0.000000  -0.000001   0.000000
     6  C    0.000051   0.000004   0.000000   0.000001   0.000000
     7  H    0.000139   0.000047   0.000001  -0.000002   0.000001
     8  C    0.000006   0.000000   0.000000   0.000000   0.000000
     9  H    0.000007   0.000000   0.000000   0.000000   0.000000
    10  C    0.000001   0.000000   0.000000   0.000000   0.000000
    11  H   -0.000017  -0.000001   0.000000   0.000000   0.000000
    12  H    0.000000   0.000000   0.000000   0.000000   0.000000
    13  H    0.000000   0.000000   0.000000   0.000000   0.000000
    14  C   -0.003020   0.000021   0.000014   0.000011  -0.000002
    15  C    0.002887  -0.000004   0.000000   0.000031   0.000001
    16  C   -0.000257  -0.000011   0.000001   0.000002   0.000000
    17  C    0.001157   0.000001   0.000000   0.000000   0.000000
    18  H    0.003448  -0.000011   0.000000  -0.000053   0.000000
    19  C   -0.000139   0.000000   0.000000   0.000000   0.000000
    20  H   -0.000004  -0.000001   0.000000   0.000000   0.000000
    21  C    0.000079   0.000000   0.000000  -0.000001   0.000000
    22  H   -0.000105   0.000000   0.000000   0.000001   0.000000
    23  H    0.000000   0.000000   0.000000   0.000000   0.000000
    24  H    0.000000   0.000000   0.000000   0.000000   0.000000
    25  C   -0.053057  -0.017731   0.007147   0.006030  -0.001594
    26  C    0.004509  -0.086756  -0.039665  -0.000391   0.007488
    27  C    0.386636  -0.094834  -0.000599  -0.036767   0.008120
    28  C   -0.000213   0.494640   0.396651   0.005897  -0.042953
    29  H   -0.000243   0.005351  -0.004215   0.000022  -0.000183
    30  C   -0.025345   0.495782   0.006228   0.395582  -0.042539
    31  H    0.498412   0.004797   0.000020  -0.003442  -0.000183
    32  C    0.004797   5.030391  -0.041060  -0.039658   0.399170
    33  H    0.000020  -0.041060   0.517932  -0.000212  -0.004548
    34  H   -0.003442  -0.039658  -0.000212   0.515469  -0.004354
    35  H   -0.000183   0.399170  -0.004548  -0.004354   0.517630
 Mulliken atomic charges:
              1
     1  C   -0.580659
     2  H    0.204541
     3  C    0.086998
     4  C   -0.150811
     5  C   -0.148921
     6  C   -0.183253
     7  H    0.199380
     8  C   -0.166450
     9  H    0.166615
    10  C   -0.152877
    11  H    0.161566
    12  H    0.161706
    13  H    0.163033
    14  C    0.092277
    15  C   -0.111812
    16  C   -0.189876
    17  C   -0.172912
    18  H    0.179156
    19  C   -0.165649
    20  H    0.166936
    21  C   -0.156511
    22  H    0.163400
    23  H    0.162074
    24  H    0.164008
    25  C    0.066813
    26  C   -0.149720
    27  C   -0.145393
    28  C   -0.166242
    29  H    0.170155
    30  C   -0.189454
    31  H    0.184468
    32  C   -0.151364
    33  H    0.162702
    34  H    0.162109
    35  H    0.163966
 Sum of Mulliken atomic charges =   0.00000
 Mulliken charges with hydrogens summed into heavy atoms:
              1
     1  C   -0.376117
     3  C    0.086998
     4  C    0.048569
     5  C    0.017695
     6  C   -0.021687
     8  C   -0.004744
    10  C    0.010156
    14  C    0.092277
    15  C    0.067344
    16  C   -0.022940
    17  C   -0.009512
    19  C   -0.003575
    21  C    0.007496
    25  C    0.066813
    26  C    0.020435
    27  C    0.039075
    28  C   -0.003540
    30  C   -0.027345
    32  C    0.012602
 Sum of Mulliken charges with hydrogens summed into heavy atoms =   0.00000
 Electronic spatial extent (au):  <R**2>=           4939.5280
 Charge=              0.0000 electrons
 Dipole moment (field-independent basis, Debye):
    X=             -0.0124    Y=             -0.0675    Z=             -0.0423  Tot=              0.0806
 Quadrupole moment (field-independent basis, Debye-Ang):
   XX=           -110.5821   YY=           -114.0689   ZZ=           -102.8780
   XY=              0.8131   XZ=              2.2782   YZ=             -0.1171
 Traceless Quadrupole moment (field-independent basis, Debye-Ang):
   XX=             -1.4057   YY=             -4.8926   ZZ=              6.2983
   XY=              0.8131   XZ=              2.2782   YZ=             -0.1171
 Octapole moment (field-independent basis, Debye-Ang**2):
  XXX=             40.0439  YYY=             17.5554  ZZZ=             -0.1816  XYY=            -44.8371
  XXY=            -13.5382  XXZ=             -6.5091  XZZ=              0.7858  YZZ=             -4.8928
  YYZ=             10.4304  XYZ=              0.0502
 Hexadecapole moment (field-independent basis, Debye-Ang**3):
 XXXX=          -3092.9063 YYYY=          -2906.8604 ZZZZ=           -786.2289 XXXY=             -7.0168
 XXXZ=              1.7818 YYYX=              3.6426 YYYZ=             59.4480 ZZZX=              6.2028
 ZZZY=             -3.9663 XXYY=           -972.9371 XXZZ=           -631.5711 YYZZ=           -601.1339
 XXYZ=            -50.1598 YYXZ=             21.5050 ZZXY=             15.8126
 N-N= 1.288402916138D+03 E-N=-4.272815634726D+03  KE= 7.285913781164D+02
 PrsmSu:  requested number of processors reduced to:  10 ShMem   1 Linda.
 Calling FoFJK, ICntrl=      2127 FMM=F ISym2X=0 I1Cent= 0 IOpClX= 0 NMat=1 NMatS=1 NMatT=0.
 ***** Axes restored to original set *****
 -------------------------------------------------------------------
 Center     Atomic                   Forces (Hartrees/Bohr)
 Number     Number              X              Y              Z
 -------------------------------------------------------------------
      1        6          -0.004773140    0.022041725    0.007989939
      2        1           0.006274119   -0.025672507   -0.007500047
      3        6          -0.005145206    0.004769774   -0.012828238
      4        6          -0.002627451   -0.009576559    0.005059868
      5        6           0.002052561    0.005960827    0.001200377
      6        6          -0.002716515   -0.009813102   -0.006565214
      7        1           0.001969112    0.017629693   -0.012961504
      8        6           0.002851279    0.010720416   -0.006327635
      9        1          -0.005549198   -0.014730680   -0.007410332
     10        6          -0.001909523   -0.000518925   -0.013407883
     11        1           0.005106512    0.013940343    0.007653290
     12        1          -0.003143541   -0.013818784    0.008740246
     13        1           0.002009747    0.000038132    0.016620257
     14        6           0.011082250    0.006219736    0.006255138
     15        6          -0.004212235   -0.009016617   -0.006228937
     16        6          -0.002572528    0.005185432    0.001893806
     17        6           0.003449194   -0.011254581   -0.004005803
     18        1           0.019880218    0.017731215    0.005248150
     19        6           0.008419618    0.008010874    0.006573507
     20        1           0.007459543   -0.015132399   -0.005437603
     21        6           0.013109194   -0.000240256    0.003659995
     22        1          -0.007495866    0.014086002    0.004971064
     23        1          -0.008361826   -0.011688258   -0.008447839
     24        1          -0.016290842    0.002390940   -0.003496279
     25        6          -0.009594487   -0.000218954    0.009354314
     26        6          -0.001949172    0.005982440   -0.000422178
     27        6           0.010697453   -0.007584504   -0.003389179
     28        6          -0.010991611    0.004630725    0.005308675
     29        1           0.003597237   -0.017310494    0.001586032
     30        6           0.001968079   -0.011975949    0.000672701
     31        1          -0.025185301    0.007502756    0.015595629
     32        6          -0.009207741   -0.006856533    0.007066076
     33        1           0.013579295   -0.007154284   -0.006615442
     34        1          -0.002762511    0.016363344   -0.001803030
     35        1           0.010983285    0.009359015   -0.008601921
 -------------------------------------------------------------------
 Cartesian Forces:  Max     0.025672507 RMS     0.009561480

 GradGradGradGradGradGradGradGradGradGradGradGradGradGradGradGradGradGrad
 Berny optimization.
 Internal  Forces:  Max     0.029890574 RMS     0.007839472
 Search for a local minimum.
 Step number   1 out of a maximum of  197
 All quantities printed in internal units (Hartrees-Bohrs-Radians)
 Mixed Optimization -- RFO/linear search
 Second derivative matrix not updated -- first step.
     Eigenvalues ---    0.00634   0.00645   0.00654   0.01530   0.01533
     Eigenvalues ---    0.01536   0.02137   0.02140   0.02146   0.02167
     Eigenvalues ---    0.02170   0.02172   0.02181   0.02184   0.02187
     Eigenvalues ---    0.02202   0.02202   0.02203   0.02212   0.02213
     Eigenvalues ---    0.02215   0.02215   0.02216   0.02216   0.02217
     Eigenvalues ---    0.02217   0.02219   0.02219   0.02220   0.02222
     Eigenvalues ---    0.04520   0.06371   0.06676   0.15996   0.15999
     Eigenvalues ---    0.15999   0.16000   0.16000   0.16000   0.16000
     Eigenvalues ---    0.16000   0.16000   0.16000   0.16000   0.16000
     Eigenvalues ---    0.16000   0.16000   0.16000   0.18936   0.19365
     Eigenvalues ---    0.22000   0.22000   0.22000   0.22000   0.22000
     Eigenvalues ---    0.22000   0.23476   0.23476   0.23477   0.24996
     Eigenvalues ---    0.24999   0.25000   0.31166   0.31355   0.31435
     Eigenvalues ---    0.31505   0.33459   0.33608   0.33964   0.34070
     Eigenvalues ---    0.34078   0.34094   0.34254   0.34256   0.34257
     Eigenvalues ---    0.34259   0.34262   0.34268   0.34281   0.34283
     Eigenvalues ---    0.34287   0.42413   0.42427   0.42487   0.42572
     Eigenvalues ---    0.42584   0.42613   0.46340   0.46353   0.46433
     Eigenvalues ---    0.46766   0.46772   0.46825   0.47216   0.47229
     Eigenvalues ---    0.47262   0.47324   0.47341   0.473651000.00000
     Eigenvalues --- 1000.000001000.000001000.000001000.000001000.00000
     Eigenvalues --- 1000.000001000.000001000.000001000.000001000.00000
     Eigenvalues --- 1000.000001000.000001000.000001000.000001000.00000
     Eigenvalues --- 1000.000001000.000001000.000001000.000001000.00000
     Eigenvalues --- 1000.000001000.000001000.000001000.000001000.00000
     Eigenvalues --- 1000.000001000.000001000.000001000.000001000.00000
     Eigenvalues --- 1000.000001000.000001000.000001000.000001000.00000
     Eigenvalues --- 1000.000001000.000001000.000001000.000001000.00000
     Eigenvalues --- 1000.000001000.000001000.000001000.000001000.00000
     Eigenvalues --- 1000.000001000.000001000.000001000.000001000.00000
     Eigenvalues --- 1000.000001000.000001000.000001000.000001000.00000
     Eigenvalues --- 1000.000001000.000001000.000001000.000001000.00000
     Eigenvalues --- 1000.000001000.000001000.000001000.000001000.00000
     Eigenvalues --- 1000.000001000.000001000.000001000.000001000.00000
     Eigenvalues --- 1000.000001000.000001000.000001000.000001000.00000
     Eigenvalues --- 1000.000001000.000001000.000001000.000001000.00000
     Eigenvalues --- 1000.000001000.000001000.000001000.000001000.00000
     Eigenvalues --- 1000.000001000.00000
 RFO step:  Lambda=-4.29246859D-02 EMin= 6.34220832D-03
 Linear search not attempted -- first point.
 Maximum step size (   0.300) exceeded in Quadratic search.
    -- Step size scaled by   0.575
 Iteration  1 RMS(Cart)=  0.12594025 RMS(Int)=  0.00284450
 Iteration  2 RMS(Cart)=  0.00585296 RMS(Int)=  0.00028896
 Iteration  3 RMS(Cart)=  0.00000908 RMS(Int)=  0.00028891
 Iteration  4 RMS(Cart)=  0.00000000 RMS(Int)=  0.00028891
 Variable       Old X    -DE/DX   Delta X   Delta X   Delta X     New X
                                 (Linear)    (Quad)   (Total)
    R1        2.12397  -0.02746   0.00000  -0.04452  -0.04452   2.07945
    R2        2.85341   0.02087   0.00000   0.03366   0.03366   2.88707
    R3        2.85190   0.02264   0.00000   0.03643   0.03643   2.88833
    R4        2.85059   0.02569   0.00000   0.04126   0.04126   2.89185
    R5        2.63521  -0.00252   0.00000  -0.00279  -0.00278   2.63243
    R6        2.64314  -0.00428   0.00000  -0.00492  -0.00492   2.63822
    R7        2.62866  -0.00276   0.00000  -0.00301  -0.00301   2.62565
    R8        2.07390  -0.02181   0.00000  -0.03278  -0.03278   2.04113
    R9        2.62521  -0.00419   0.00000  -0.00473  -0.00472   2.62048
   R10        2.07171  -0.01739   0.00000  -0.02604  -0.02604   2.04567
   R11        2.62607  -0.00628   0.00000  -0.00696  -0.00697   2.61910
   R12        2.06898  -0.01670   0.00000  -0.02491  -0.02491   2.04407
   R13        2.62904  -0.00603   0.00000  -0.00681  -0.00681   2.62223
   R14        2.06896  -0.01665   0.00000  -0.02483  -0.02483   2.04413
   R15        2.06849  -0.01674   0.00000  -0.02495  -0.02495   2.04354
   R16        2.63776   0.00072   0.00000   0.00096   0.00098   2.63874
   R17        2.63987  -0.00420   0.00000  -0.00471  -0.00470   2.63517
   R18        2.62590  -0.00453   0.00000  -0.00497  -0.00496   2.62095
   R19        2.07996  -0.02545   0.00000  -0.03861  -0.03861   2.04136
   R20        2.62727  -0.00275   0.00000  -0.00314  -0.00315   2.62412
   R21        2.07198  -0.01772   0.00000  -0.02654  -0.02654   2.04544
   R22        2.62799  -0.00548   0.00000  -0.00620  -0.00621   2.62178
   R23        2.06881  -0.01671   0.00000  -0.02492  -0.02492   2.04389
   R24        2.62776  -0.00839   0.00000  -0.00950  -0.00952   2.61823
   R25        2.06901  -0.01667   0.00000  -0.02486  -0.02486   2.04415
   R26        2.06858  -0.01683   0.00000  -0.02509  -0.02509   2.04349
   R27        2.64234  -0.00358   0.00000  -0.00403  -0.00401   2.63833
   R28        2.63772   0.00079   0.00000   0.00108   0.00109   2.63881
   R29        2.62631  -0.00363   0.00000  -0.00416  -0.00416   2.62216
   R30        2.07213  -0.01774   0.00000  -0.02658  -0.02658   2.04555
   R31        2.62712  -0.00318   0.00000  -0.00342  -0.00343   2.62369
   R32        2.08252  -0.02989   0.00000  -0.04552  -0.04552   2.03700
   R33        2.62809  -0.00842   0.00000  -0.00959  -0.00960   2.61850
   R34        2.06903  -0.01671   0.00000  -0.02493  -0.02493   2.04410
   R35        2.62687  -0.00674   0.00000  -0.00757  -0.00759   2.61928
   R36        2.06890  -0.01669   0.00000  -0.02489  -0.02489   2.04401
   R37        2.06855  -0.01680   0.00000  -0.02504  -0.02504   2.04351
    A1        1.85819  -0.00026   0.00000  -0.01889  -0.01872   1.83948
    A2        1.86791  -0.00593   0.00000  -0.03545  -0.03470   1.83321
    A3        1.85575  -0.00924   0.00000  -0.04555  -0.04461   1.81115
    A4        1.92495  -0.00406   0.00000   0.00956   0.00723   1.93218
    A5        1.97365   0.00300   0.00000   0.02539   0.02348   1.99714
    A6        1.97496   0.01476   0.00000   0.05380   0.05262   2.02759
    A7        2.14071   0.00960   0.00000   0.01893   0.01892   2.15963
    A8        2.06491  -0.00204   0.00000  -0.00392  -0.00393   2.06099
    A9        2.07754  -0.00756   0.00000  -0.01501  -0.01500   2.06254
   A10        2.10166   0.00313   0.00000   0.00683   0.00683   2.10849
   A11        2.09254   0.00058   0.00000   0.00266   0.00265   2.09520
   A12        2.08895  -0.00372   0.00000  -0.00952  -0.00952   2.07943
   A13        2.10228   0.00530   0.00000   0.01113   0.01113   2.11342
   A14        2.09295  -0.00326   0.00000  -0.00730  -0.00730   2.08565
   A15        2.08794  -0.00204   0.00000  -0.00383  -0.00384   2.08410
   A16        2.09857   0.00131   0.00000   0.00277   0.00276   2.10133
   A17        2.08969  -0.00061   0.00000  -0.00124  -0.00124   2.08845
   A18        2.09492  -0.00071   0.00000  -0.00153  -0.00153   2.09339
   A19        2.09703   0.00009   0.00000  -0.00036  -0.00036   2.09668
   A20        2.09193   0.00001   0.00000   0.00033   0.00033   2.09226
   A21        2.09422  -0.00010   0.00000   0.00003   0.00003   2.09425
   A22        2.08928  -0.00229   0.00000  -0.00537  -0.00538   2.08390
   A23        2.09749   0.00113   0.00000   0.00264   0.00264   2.10014
   A24        2.09641   0.00116   0.00000   0.00273   0.00273   2.09914
   A25        2.12689   0.01649   0.00000   0.03225   0.03217   2.15906
   A26        2.07800  -0.00630   0.00000  -0.01247  -0.01253   2.06546
   A27        2.07816  -0.01022   0.00000  -0.02008  -0.02008   2.05808
   A28        2.10359   0.00378   0.00000   0.00842   0.00835   2.11194
   A29        2.07587   0.00413   0.00000   0.01301   0.01289   2.08876
   A30        2.10350  -0.00785   0.00000  -0.02091  -0.02103   2.08248
   A31        2.10044   0.00696   0.00000   0.01486   0.01486   2.11530
   A32        2.09448  -0.00407   0.00000  -0.00910  -0.00911   2.08537
   A33        2.08827  -0.00289   0.00000  -0.00575  -0.00576   2.08251
   A34        2.09577   0.00213   0.00000   0.00429   0.00428   2.10005
   A35        2.09162  -0.00097   0.00000  -0.00187  -0.00188   2.08974
   A36        2.09580  -0.00116   0.00000  -0.00241  -0.00242   2.09338
   A37        2.09791  -0.00010   0.00000  -0.00100  -0.00102   2.09689
   A38        2.09119   0.00020   0.00000   0.00093   0.00095   2.09214
   A39        2.09408  -0.00011   0.00000   0.00006   0.00007   2.09415
   A40        2.09046  -0.00254   0.00000  -0.00636  -0.00640   2.08407
   A41        2.09640   0.00127   0.00000   0.00317   0.00317   2.09957
   A42        2.09632   0.00128   0.00000   0.00320   0.00320   2.09953
   A43        2.06587  -0.01297   0.00000  -0.02548  -0.02550   2.04037
   A44        2.14209   0.02509   0.00000   0.04922   0.04920   2.19129
   A45        2.07522  -0.01212   0.00000  -0.02373  -0.02370   2.05152
   A46        2.10303   0.00830   0.00000   0.01758   0.01761   2.12064
   A47        2.09383  -0.00489   0.00000  -0.01088  -0.01089   2.08294
   A48        2.08632  -0.00342   0.00000  -0.00671  -0.00672   2.07960
   A49        2.10370   0.00440   0.00000   0.00978   0.00978   2.11348
   A50        2.08551   0.00422   0.00000   0.01329   0.01328   2.09879
   A51        2.09394  -0.00862   0.00000  -0.02309  -0.02309   2.07085
   A52        2.09753   0.00004   0.00000  -0.00097  -0.00097   2.09655
   A53        2.09150   0.00004   0.00000   0.00067   0.00067   2.09217
   A54        2.09416  -0.00009   0.00000   0.00030   0.00030   2.09447
   A55        2.09780   0.00242   0.00000   0.00497   0.00494   2.10274
   A56        2.09018  -0.00115   0.00000  -0.00231  -0.00230   2.08788
   A57        2.09521  -0.00127   0.00000  -0.00265  -0.00264   2.09256
[...]
 69393,0.00486531,0.00556124,0.00094146,0.00036100,-0.00117927,-0.00014
 600,-0.00106104,0.00037894,0.00007279,-0.00005477,-0.00006065,0.000210
 30,0.00003029,0.00044319,-0.00010172,-0.00017218,0.00019465,-0.0001070
 6,-0.00013616,-0.00019974,-0.00009178,-0.00018932,-0.00007817,-0.00004
 403,-0.00002658,0.00001169,0.00005657,0.00014239,-0.00001081,0.0000186
 5,0.00000104,0.00000928,-0.00001423,0.00000747,0.00002998,0.00000198,-
 0.00001301,0.00001216,-0.00024138,0.00012158,0.00018856,0.00031101,-0.
 00028756,0.00002730,-0.00029557,-0.00026240,0.00021005,-0.00011078,-0.
 00000557,-0.00015202,0.00000961,0.00001164,0.00000890,0.00027296,-0.00
 015744,0.00006532,-0.00001574,0.00018070,-0.00003343,-0.00002922,0.000
 15131,0.00015373,-0.00001245,0.00000872,0.00001627,0.00001537,0.000008
 86,-0.00001237,-0.00001831,0.00000417,-0.00000253,-0.02111626,0.051787
 09,-0.00984492,0.03881204,0.00280354,-0.02269418,0.11188761,0.06843672
 ,-0.16363676,-0.02179527,-0.02987569,0.03421582,0.00030645,-0.00067001
 ,-0.00076004,-0.14496501,-0.23540854,0.35823108,-0.00107153,-0.0010043
 6,-0.00115338,-0.00009299,-0.00005292,0.00001053,0.00031453,0.00036593
 ,0.00000709,0.00024653,0.00019878,-0.00015446,-0.00001529,-0.00005470,
 -0.00016157,-0.00001134,-0.00009401,0.00000152,-0.00027619,-0.00002245
 ,-0.00000230,-0.00000138,0.00001639,0.00001867,-0.00001076,-0.00001276
 ,0.00000844,-0.00001309,-0.00000724,0.00000113,-0.00001031,0.00000340,
 -0.00001824,-0.00000851,-0.00000318,-0.00000811,-0.00000726,-0.0000073
 4,0.00001096,-0.00050732,-0.00225117,0.00083863,-0.00060701,-0.0009456
 1,0.00053895,0.00017249,-0.00024356,0.00060813,0.00008919,-0.00003143,
 0.00022761,0.00007722,0.00009706,-0.00019341,-0.00007607,0.00006345,-0
 .00003982,0.00002112,0.00007262,-0.00003512,-0.00006402,-0.00000390,-0
 .00025388,0.00001325,0.00000790,-0.00000951,-0.00000790,0.00000554,0.0
 0000550,0.00000553,0.00000410,-0.00000521,-0.00350362,0.00070445,0.002
 96998,0.00210992,0.00179049,0.00131031,-0.32315081,0.10870522,0.048619
 84,0.00063693,-0.00072368,-0.00023748,-0.00024532,0.00003974,0.0001175
 5,-0.01455517,0.01241975,0.00138522,0.34118204,0.00001568,-0.00011482,
 -0.00212553,-0.00013108,0.00009928,0.00003279,0.00009791,0.00030101,-0
 .00002061,0.00000591,0.00009468,-0.00003809,-0.00002615,-0.00003305,-0
 .00007704,-0.00003373,-0.00001410,0.00004828,0.00003153,-0.00004060,-0
 .00000338,-0.00001971,-0.00001181,-0.00000649,0.00001823,-0.00003285,-
 0.00000271,0.00001163,0.00001502,-0.00001774,-0.00000394,-0.00000962,-
 0.00001917,0.00000027,0.00000020,-0.00000754,0.00000398,-0.00000699,-0
 .00000423,-0.00031802,-0.00080429,0.00073151,-0.00035878,0.00035123,0.
 00021180,-0.00027048,-0.00012231,-0.00060730,-0.00035796,0.00006711,-0
 .00004330,0.00001082,-0.00004123,0.00001518,0.00002576,-0.00010532,-0.
 00015959,0.00003052,-0.00002047,0.00006847,0.00003832,0.00005834,0.000
 25566,0.00006189,-0.00001595,-0.00004730,0.00002332,0.00000423,0.00004
 002,0.00005644,0.00000656,0.00000868,0.03104406,-0.00558642,-0.0061134
 7,0.00197855,-0.00373527,0.00570198,0.10673966,-0.11053747,-0.00884585
 ,-0.00077966,-0.00099597,0.00029891,0.00146609,-0.00056423,-0.00036896
 ,-0.02032477,0.01193504,0.00448004,-0.11604895,0.10957711,-0.00117275,
 -0.00222246,-0.00294942,-0.00024566,-0.00043232,0.00047031,0.00040917,
 0.00063338,-0.00023518,0.00020659,0.00021984,-0.00006792,-0.00002794,-
 0.00006450,-0.00021731,-0.00002532,-0.00009994,-0.00002675,-0.00029427
 ,-0.00004768,0.00003687,-0.00000527,0.00004775,0.00003943,0.00000012,-
 0.00002075,-0.00000169,-0.00001592,-0.00002560,0.00000538,-0.00000478,
 0.00000857,-0.00000762,-0.00001175,-0.00000911,-0.00000527,-0.00000262
 ,-0.00001133,0.00001984,0.00062782,0.00082867,-0.00020930,0.00014956,0
 .00041878,-0.00002777,0.00026784,0.00020191,-0.00004943,0.00033879,-0.
 00007092,0.00019504,0.00008451,0.00008997,-0.00031579,-0.00041006,0.00
 014916,-0.00018789,0.00001270,-0.00017730,-0.00000435,-0.00000079,-0.0
 0015219,-0.00025024,0.00000939,-0.00000017,0.00000376,-0.00003658,-0.0
 0004143,-0.00001100,-0.00002988,-0.00002861,-0.00001303,-0.01334828,0.
 00521792,0.00790540,0.00182940,0.00552674,0.00494755,0.04800086,-0.008
 79496,-0.06341885,-0.00034918,0.00013644,-0.00094163,-0.00067807,0.000
 27528,0.00005953,0.01914338,-0.00831355,0.00230570,-0.05714265,0.00419
 460,0.05283922,0.00026780,0.00099896,-0.00146708,-0.00004089,-0.000753
 99,-0.00023134,0.00064466,-0.00014631,-0.00040553,0.00018800,-0.000113
 61,-0.00001114,0.00021209,-0.00009725,0.00038096,-0.00005381,-0.000204
 75,0.00031447,-0.00031383,-0.00027581,-0.00002286,-0.00015266,-0.00015
 353,-0.00018991,0.00000351,0.00000587,-0.00001776,0.00010890,0.0002482
 1,0.00001240,0.00002023,0.00000568,0.00004681,-0.00002875,0.00001396,0
 .00002539,0.00000057,-0.00000769,0.00001658,0.00020225,0.00023322,0.00
 047559,0.00027750,-0.00024548,-0.00000776,-0.00040192,-0.00010828,0.00
 003834,-0.00021507,-0.00004097,-0.00021217,0.00002490,-0.00000993,-0.0
 0002437,0.00035182,-0.00014843,0.00000655,0.00000214,0.00006386,0.0000
 0346,-0.00009853,0.00022836,0.00022453,-0.00002373,0.00001666,0.000005
 14,-0.00002005,-0.00002333,-0.00001694,-0.00002415,-0.00000013,-0.0000
 0135,-0.05261441,0.05409262,-0.00989556,0.07800703,-0.01530039,-0.0178
 5491,-0.05048429,-0.05641130,0.05286679,-0.16617668,0.01839813,0.02374
 311,-0.00196302,-0.00183245,0.00528811,-0.32761165,0.11750820,0.035918
 41,-0.00015544,-0.00159550,0.00432858,0.72451833,0.00040803,-0.0014840
 5,0.00149058,-0.00045994,0.00077259,0.00052829,-0.00136871,0.00008324,
 -0.00001200,-0.00025190,-0.00011832,0.00035629,-0.00018137,0.00036458,
 -0.00016168,0.00003510,0.00023600,-0.00039220,0.00018154,0.00005027,0.
 00009712,0.00022392,0.00013593,0.00024801,-0.00001012,0.00001085,-0.00
 001686,-0.00011336,-0.00032402,0.00012019,-0.00001966,0.00004065,0.000
 05268,0.00004236,-0.00002459,0.00002335,0.00000899,0.00000597,0.000006
 22,-0.00008704,-0.00051095,-0.00022620,-0.00039368,0.00014382,-0.00009
 240,0.00031246,0.00019787,-0.00004329,0.00024542,0.00001629,0.00019911
 ,-0.00001349,-0.00000681,0.00001330,-0.00032697,0.00019734,-0.00002391
 ,0.00002318,-0.00008741,0.00003554,0.00000331,-0.00018078,-0.00024534,
 -0.00001276,-0.00000667,0.00000579,-0.00001685,-0.00000128,0.00000316,
 0.00000098,-0.00000657,-0.00000057,0.05527966,-0.06069862,0.00464691,-
 0.07519564,-0.03247456,0.05080685,0.00290463,0.07868772,-0.03674485,0.
 09327550,-0.30723857,0.07882840,-0.00118372,0.00168058,0.00430925,0.04
 289240,-0.17518949,0.03126765,-0.00195228,0.00009376,0.00559031,-0.044
 86573,0.65781659,-0.00074301,-0.00001099,-0.00098734,0.00009972,-0.000
 20921,-0.00007137,0.00066887,0.00019907,0.00013767,-0.00001666,0.00012
 351,-0.00004932,-0.00001272,-0.00010248,-0.00016936,-0.00003048,-0.000
 08629,0.00002872,-0.00003970,-0.00005440,0.00000844,-0.00003947,0.0000
 2970,-0.00001409,0.00001239,-0.00000972,0.00001977,0.00000890,0.000028
 82,-0.00003628,0.00000002,-0.00000877,-0.00001992,-0.00001049,0.000008
 01,-0.00002612,-0.00000477,-0.00000804,-0.00000309,-0.00005538,0.00013
 875,-0.00000549,0.00003138,0.00005649,0.00005684,0.00001090,-0.0000507
 5,-0.00006003,-0.00002455,0.00000990,-0.00000158,0.00000014,0.00000324
 ,-0.00001083,0.00000374,-0.00003940,-0.00000761,-0.00003850,0.00000210
 ,-0.00003855,0.00004041,-0.00001191,0.00002853,0.00001640,-0.00000193,
 -0.00000524,0.00003037,0.00001743,0.00000986,0.00001297,0.00000103,-0.
 00000162,-0.01034346,0.00614387,-0.00597946,0.01180860,0.02822734,-0.0
 0927690,0.02261178,-0.01369312,0.00795932,-0.01522867,0.10920518,-0.13
 455154,0.00504227,0.00467290,0.00465820,0.07558329,0.00091312,-0.11470
 055,0.00432818,0.00531909,0.00428158,-0.19732316,-0.23415294,0.3764877
 1,-0.00071970,0.00076024,-0.00019081,-0.00000278,-0.00006055,0.0000026
 8,-0.00012691,-0.00007125,-0.00015737,0.00003716,0.00003388,0.00005056
 ,0.00004739,0.00001507,0.00009881,-0.00000704,-0.00002161,-0.00000671,
 -0.00002290,-0.00003271,-0.00003563,0.00000988,-0.00001798,0.00001288,
 -0.00001077,0.00000883,-0.00001315,0.00000905,-0.00001244,0.00003008,-
 0.00000047,0.00001636,0.00001550,-0.00000816,-0.00000857,0.00002183,-0
 .00000207,-0.00000078,0.00001888,0.00003461,-0.00024266,0.00025236,-0.
 00009536,-0.00001414,-0.00006034,-0.00007171,0.00003842,0.00002273,0.0
 0002229,0.00000739,-0.00001275,0.00000737,-0.00000212,-0.00000293,0.00
 000716,0.00002186,0.00001417,0.00001608,0.00000407,0.00001215,-0.00003
 055,-0.00000162,-0.00001340,-0.00001678,0.00001069,0.00000424,-0.00001
 793,-0.00000279,-0.00001801,-0.00001569,0.00000170,-0.00000334,0.00007
 900,-0.00190845,0.00466163,-0.01524216,0.01322238,0.00154369,0.0006496
 3,-0.00083588,-0.00019473,-0.31817113,0.10592249,0.05370573,0.00052458
 ,-0.00151108,-0.00152670,0.00235281,0.00233343,0.00133921,-0.00022666,
 -0.00011740,-0.00035790,-0.00266447,-0.00119902,0.00392417,0.33354917,
 -0.00080684,0.00042565,-0.00001669,0.00004114,-0.00002775,-0.00005470,
 0.00004961,0.00002403,-0.00008005,0.00000018,-0.00000451,-0.00000757,0
 .00002315,-0.00003657,0.00002054,-0.00000217,0.00001785,0.00002156,0.0
 0001416,-0.00000757,0.00001672,-0.00000873,-0.00001181,-0.00000923,-0.
 00000556,-0.00000014,0.00000020,0.00000388,0.00001388,-0.00000839,0.00
 000355,-0.00000837,-0.00000635,-0.00000403,0.00000178,0.00000094,0.000
 00167,0.00000092,-0.00000395,-0.00001125,-0.00015776,0.00009699,-0.000
 04193,0.00003297,-0.00001908,-0.00000922,0.00003345,0.00000204,0.00001
 744,0.00001949,0.00000317,-0.00000301,-0.00000857,0.00000935,-0.000021
 51,0.00001579,-0.00001075,-0.00000068,-0.00001804,0.00000163,-0.000012
 42,-0.00001148,-0.00002203,-0.00000427,-0.00000317,0.00000194,-0.00000
 617,-0.00000059,-0.00000140,-0.00000018,-0.00000367,0.00000145,-0.0015
 2334,0.00010406,0.00540932,-0.01998672,0.01195469,0.00484826,-0.000793
 76,-0.00090669,0.00029372,0.10614278,-0.11093385,-0.01070294,-0.000403
 43,0.00002556,-0.00255034,0.00186365,-0.00375532,0.00569892,-0.0001362
 0,-0.00018441,-0.00050866,0.03180566,-0.00509512,-0.00736870,-0.116090
 08,0.10892003,0.00064294,-0.00051509,-0.00000984,-0.00004540,-0.000041
 23,0.00005729,0.00011907,0.00005331,0.00005353,-0.00002870,0.00000311,
 -0.00004572,-0.00000078,-0.00001701,-0.00005470,-0.00001770,0.00001957
 ,-0.00000223,0.00004223,-0.00000454,0.00001582,-0.00001533,0.00000927,
 -0.00000178,0.00000543,-0.00001344,0.00000491,-0.00001548,0.00000359,-
 0.00003438,0.00000695,-0.00001721,-0.00001937,0.00000267,0.00000016,-0
 .00000875,0.00000697,-0.00000234,-0.00000807,0.00010841,0.00012541,-0.
 00031194,0.00001613,0.00000866,0.00002512,0.00005685,0.00002918,0.0000
 3710,0.00003264,-0.00001161,0.00004073,0.00000197,0.00000771,-0.000012
 37,-0.00005869,0.00000136,-0.00000266,-0.00000441,-0.00000546,-0.00000
 185,0.00003208,-0.00003393,-0.00003751,0.00001022,-0.00000743,-0.00000
 091,0.00000072,0.00000370,0.00000340,0.00000571,0.00000004,-0.00000032
 ,0.00416761,0.00553085,0.00441380,0.01890487,-0.00870013,0.00250105,-0
 .00032053,0.00028913,-0.00094419,0.05364824,-0.01059854,-0.06488606,-0
 .00211029,-0.00216046,-0.00319529,0.00161027,0.00553948,0.00512031,-0.
 00029934,-0.00053290,-0.00085136,-0.01332647,0.00606673,0.00767110,-0.
 06123395,0.00721670,0.05342109,0.00054709,-0.00083497,0.00013730,-0.00
 012073,-0.00018512,0.00011349,-0.00008712,-0.00006577,-0.00001490,0.00
 000768,0.00002280,0.00000342,-0.00000638,-0.00000059,0.00004743,0.0000
 0931,0.00000758,0.00000581,0.00000566,0.00000885,0.00001190,0.00000738
 ,-0.00000733,0.00000808,-0.00000200,0.00000791,-0.00000311,-0.00000031
 ,-0.00000292,0.00000625,0.00000012,0.00000090,-0.00000155,0.00000162,-
 0.00000247,0.00000458,-0.00000100,0.00000156,0.00000098,0.00014593,0.0
 0003643,-0.00002338,0.00000990,0.00003523,-0.00000600,-0.00002971,0.00
 000882,-0.00001798,-0.00001974,0.00001634,-0.00001123,0.00000299,-0.00
 001089,0.00001052,0.00000829,0.00000155,-0.00001354,0.00000024,-0.0000
 0977,0.00000899,-0.00003310,0.00001980,-0.00000952,-0.00000889,-0.0000
 0559,0.00000649,-0.00000829,-0.00000733,-0.00000056,-0.00000476,-0.000
 00556,0.00000385,-0.00202234,-0.00147352,0.00510105,-0.00117250,-0.000
 50523,0.00032062,0.01105499,-0.02373358,0.01025703,-0.00473512,0.00294
 175,0.00393989,-0.00005501,-0.00015862,-0.00039375,-0.09114596,0.07398
 091,-0.02211626,0.00063971,-0.00038297,-0.00204123,-0.00191246,0.03176
 804,-0.01375240,-0.00036229,0.00144497,-0.00062001,0.08872251,0.000724
 59,-0.00049058,-0.00011951,-0.00011518,-0.00016863,0.00013448,-0.00019
 516,-0.00010197,-0.00006531,0.00001040,0.00003778,0.00006279,0.0000097
 4,0.00004259,0.00009782,-0.00001640,-0.00001912,-0.00001748,0.00000435
 ,-0.00004571,-0.00002750,0.00001321,-0.00000714,0.00001833,0.00000217,
 0.00000835,-0.00001375,-0.00000282,-0.00001340,0.00002501,0.00001184,0
 .00000872,0.00001366,0.00000183,-0.00001119,0.00001789,0.00000229,-0.0
 0000240,0.00001617,0.00016277,-0.00002312,0.00010130,-0.00002045,-0.00
 001678,-0.00004110,-0.00007863,0.00001041,-0.00001605,-0.00001516,0.00
 001097,-0.00002868,0.00001398,-0.00001371,0.00000019,0.00003780,0.0000
 1474,-0.00000231,0.00001860,-0.00000199,0.00002723,-0.00005572,0.00004
 374,-0.00000419,-0.00002214,0.00000177,0.00001147,-0.00002407,-0.00002
 199,-0.00001221,-0.00002257,-0.00000544,0.00000319,-0.00185382,0.00151
 293,0.00450973,-0.00062722,0.00067888,-0.00061227,0.00926537,-0.010811
 52,0.00488640,0.00338666,0.00254323,0.00202015,-0.00015088,-0.00035740
 ,-0.00042168,0.07378665,-0.30677212,0.10626506,-0.00133695,0.00005486,
 -0.00212969,-0.00127444,-0.00591547,0.00659340,0.00003164,-0.00053394,
 0.00022144,-0.08134619,0.32038972,-0.00037184,0.00060025,-0.00020559,0
 .00018112,0.00014536,-0.00019529,0.00007974,0.00012051,0.00014717,0.00
 004562,0.00002998,-0.00009986,-0.00003813,-0.00002665,-0.00010409,0.00
 000904,0.00000039,0.00000860,-0.00001348,0.00004191,0.00004113,0.00000
 523,0.00000482,0.00000087,-0.00001258,-0.00001718,0.00000839,-0.000006
 67,-0.00000476,-0.00002193,-0.00001117,-0.00000731,-0.00002736,0.00000
 032,0.00000027,-0.00001130,-0.00000450,0.00000085,-0.00000633,-0.00023
 334,-0.00001334,-0.00002357,0.00009120,-0.00003581,0.00003927,-0.00001
 194,-0.00001045,0.00003185,-0.00002639,-0.00001446,-0.00001890,-0.0000
 0498,0.00001224,-0.00001684,0.00002543,-0.00001186,-0.00001409,-0.0000
 0020,-0.00002053,-0.00001397,0.00001773,0.00000849,0.00003042,0.000020
 55,-0.00000199,-0.00001141,0.00000016,-0.00000351,0.00000208,0.0000077
 2,0.00000110,0.00000126,0.00507660,0.00401482,0.00449633,0.00027030,-0
 .00064035,-0.00073322,-0.00707816,0.01821403,-0.00124667,0.00374974,0.
 00223814,0.00627268,-0.00040763,-0.00041625,-0.00087415,-0.02221696,0.
 10638342,-0.09580756,-0.00135484,-0.00251712,-0.00312951,0.00376220,-0
 .00674224,0.00766361,0.00008711,-0.00033090,0.00005050,0.02043938,-0.1
 1899234,0.08692787,-0.00001746,-0.00013099,-0.00038965,-0.00000659,-0.
 00012380,0.00003942,-0.00000160,0.00001598,-0.00006365,0.00002486,0.00
 003825,0.00002067,0.00000795,0.00001247,0.00001659,-0.00001391,-0.0000
 2549,-0.00001064,-0.00002333,-0.00002381,-0.00002602,0.00000444,0.0000
 0275,0.00000786,-0.00000132,0.00000140,-0.00000524,-0.00000160,-0.0000
 0667,0.00001115,0.00000465,0.00000593,0.00000488,-0.00000257,-0.000006
 28,0.00000801,0.00000066,-0.00000260,0.00001134,0.00004103,-0.00003758
 ,0.00004437,-0.00004322,-0.00005363,-0.00001817,-0.00001033,0.00001642
 ,0.00004076,0.00003651,-0.00002081,0.00000630,0.00001020,0.00000954,-0
 .00002226,0.00000258,0.00001523,0.00001713,0.00001257,0.00000705,0.000
 00490,-0.00000355,-0.00000011,-0.00001602,-0.00000830,0.00000890,0.000
 00369,-0.00001145,-0.00000795,-0.00001159,-0.00001487,0.00000118,-0.00
 000301,-0.00035865,0.00086970,-0.00070905,0.00136609,0.00335797,0.0012
 1489,-0.00371652,0.00473152,0.00261266,0.01078598,0.00846751,-0.006754
 40,0.00027325,0.00029144,-0.00029330,-0.01433749,-0.02111318,0.0189675
 2,-0.00089046,-0.00089153,0.00079220,-0.19987395,-0.09995329,0.1134289
 4,0.00046936,-0.00154034,-0.00132493,0.00056428,-0.00032610,-0.0020763
 6,0.20573278,-0.00018945,-0.00012858,-0.00045179,0.00006681,-0.0000082
 7,0.00002083,-0.00001691,0.00005686,-0.00007111,-0.00001305,0.00001732
 ,0.00002106,-0.00000579,0.00001958,-0.00000811,-0.00000804,-0.00000835
 ,-0.00001582,0.00001236,-0.00001888,-0.00000446,0.00000513,0.00001287,
 0.00000435,0.00000645,0.00000043,-0.00000599,0.00000001,-0.00001157,0.
 00000712,0.00000280,0.00000582,0.00000309,-0.00000123,-0.00000664,0.00
 000568,0.00000108,-0.00000098,0.00000956,0.00004857,-0.00000452,0.0000
 6456,-0.00004581,0.00002147,-0.00002045,-0.00002726,0.00001366,-0.0000
 2673,-0.00001033,0.00000272,-0.00000409,0.00000454,-0.00000666,-0.0000
 0172,0.00000692,0.00000559,0.00000362,0.00001196,0.00000192,0.00001414
 ,-0.00001116,0.00000265,0.00000343,-0.00000570,0.00000409,0.00000084,-
 0.00000834,-0.00000439,-0.00000597,-0.00000693,0.00000120,-0.00000055,
 0.00084870,-0.00068727,-0.00051115,0.00393696,-0.00323567,0.00460246,0
 .00413084,0.00132207,0.00240958,-0.02462793,-0.00990877,0.01780486,-0.
 00108498,-0.00079930,0.00078467,0.01198358,0.01188056,-0.00831325,0.00
 043787,0.00031878,-0.00038815,-0.10001012,-0.15117076,0.09411569,-0.00
 027732,0.00011919,-0.00246809,-0.00156506,-0.00002505,-0.00200955,0.10
 641088,0.15221888,-0.00024659,-0.00035258,-0.00081396,0.00003828,-0.00
 014781,0.00002078,0.00012609,0.00013319,-0.00000712,-0.00001248,0.0000
 0105,-0.00004582,-0.00002477,-0.00002682,-0.00006847,0.00000751,0.0000
 2361,0.00002410,0.00002457,0.00002506,0.00004130,-0.00000732,0.0000056
 9,-0.00001075,-0.00000212,-0.00000801,0.00000561,-0.00000159,0.0000087
 6,-0.00001911,-0.00000143,-0.00001300,-0.00001941,0.00000049,0.0000033
 1,-0.00001046,0.00000119,0.00000146,-0.00001087,0.00000736,0.00001416,
 -0.00004599,0.00000549,0.00003517,0.00001977,0.00002042,0.00003065,-0.
 00002410,-0.00001377,0.00000581,0.00000546,-0.00000474,-0.00000721,0.0
 0000204,-0.00001100,-0.00000269,-0.00002045,-0.00000246,-0.00001742,-0
 .00000202,0.00001098,-0.00000584,0.00000430,0.00000885,-0.00000420,-0.
 00000551,-0.00000016,-0.00000155,0.00000662,0.00000762,-0.00000234,0.0
 0000247,-0.00080175,-0.00061390,-0.00029478,0.00094320,0.00480687,0.00
 578701,0.00293895,0.00222993,0.00664308,0.01056317,0.00429204,-0.00147
 075,0.00038801,0.00021894,-0.00034300,0.00134730,0.00508961,0.00198882
 ,0.00006106,0.00015129,-0.00018832,0.11355090,0.09415873,-0.14299506,-
 0.00199066,-0.00194174,-0.00298645,-0.00140162,-0.00252165,-0.00316039
 ,-0.12552898,-0.10556854,0.13799147||-0.00001863,-0.00000814,0.0000028
 4,0.00000627,0.00000175,-0.00000346,-0.00000434,-0.00003391,0.00000010
 ,0.00001842,0.00002271,0.00003993,-0.00000250,0.00001887,-0.00002661,-
 0.00000430,0.00002134,-0.00004009,-0.00000515,-0.00000358,0.00000302,0
 .00000603,0.00002034,0.00003298,-0.00000020,-0.00000131,0.00000427,-0.
 00000810,-0.00004352,0.00000095,0.00000013,-0.00000242,0.00000259,-0.0
 0000131,-0.00000233,-0.00000428,0.00000163,0.00000418,-0.00000231,0.00
 000343,-0.00000677,0.00000383,-0.00001734,0.00001214,0.00000173,0.0000
 0271,0.00000317,-0.00000148,0.00001383,0.00000538,0.00000781,0.0000009
 6,-0.00000301,-0.00000300,-0.00000572,-0.00000224,0.00000119,-0.000001
 54,0.00000015,0.00000070,0.00000256,-0.00001035,-0.00000524,-0.0000016
 8,-0.00000337,-0.00000075,0.00000065,0.00000206,-0.00000042,0.00000130
 ,0.00000147,0.00000068,0.00003737,-0.00002941,-0.00000889,-0.00004000,
 -0.00000336,0.00001937,0.00000995,0.00005258,-0.00003263,0.00001429,0.
 00003721,-0.00002071,0.00000424,0.00000175,-0.00000312,-0.00004989,-0.
 00000512,0.00002620,0.00000712,-0.00000375,0.00000173,0.00003001,-0.00
 004067,0.00000287,-0.00000113,-0.00000263,0.00000139,0.00000423,-0.000
 00101,-0.00000204,-0.00000330,0.00000180,0.00000083|||@


 BOOKS ARE LIGHTHOUSES ERECTED IN THE GREAT SEA OF TIME.
     -- E.P.WHIPPLE
 Job cpu time:  0 days  0 hours  7 minutes  0.0 seconds.
 File lengths (MBytes):  RWF=    350 Int=      0 D2E=      0 Chk=      7 Scr=      1
 Normal termination of Gaussian 09 at Mon Sep 06 14:27:25 2021.
