 Entering Link 1 = b:\programy\g09w\l1.exe PID=      6416.
  
 Copyright (c) 1988,1990,1992,1993,1995,1998,2003,2009, Gaussian, Inc.
                  All Rights Reserved.
  
 This is part of the Gaussian(R) 09 program.  It is based on
 the Gaussian(R) 03 system (copyright 2003, Gaussian, Inc.),
 the Gaussian(R) 98 system (copyright 1998, Gaussian, Inc.),
 the Gaussian(R) 94 system (copyright 1995, Gaussian, Inc.),
 the Gaussian 92(TM) system (copyright 1992, Gaussian, Inc.),
 the Gaussian 90(TM) system (copyright 1990, Gaussian, Inc.),
 the Gaussian 88(TM) system (copyright 1988, Gaussian, Inc.),
 the Gaussian 86(TM) system (copyright 1986, Carnegie Mellon
 University), and the Gaussian 82(TM) system (copyright 1983,
 Carnegie Mellon University). Gaussian is a federally registered
 trademark of Gaussian, Inc.
  
 This software contains proprietary and confidential information,
 including trade secrets, belonging to Gaussian, Inc.
  
 This software is provided under written license and may be
 used, copied, transmitted, or stored only in accord with that
 written license.
  
 The following legend is applicable only to US Government
 contracts under FAR:
  
                    RESTRICTED RIGHTS LEGEND
  
 Use, reproduction and disclosure by the US Government is
 subject to restrictions as set forth in subparagraphs (a)
 and (c) of the Commercial Computer Software - Restricted
 Rights clause in FAR 52.227-19.
  
 Gaussian, Inc.
 340 Quinnipiac St., Bldg. 40, Wallingford CT 06492
  
  
 ---------------------------------------------------------------
 Warning -- This program may not be used in any manner that
 competes with the business of Gaussian, Inc. or will provide
 assistance to any competitor of Gaussian, Inc.  The licensee
 of this program is prohibited from giving any competitor of
 Gaussian, Inc. access to this program.  By using this program,
 the user acknowledges that Gaussian, Inc. is engaged in the
 business of creating and licensing software in the field of
 computational chemistry and represents and warrants to the
 licensee that it is not a competitor of Gaussian, Inc. and that
 it will not use this program in any manner prohibited above.
 ---------------------------------------------------------------
  

 Cite this work as:
 Gaussian 09, Revision A.02,
 M. J. Frisch, G. W. Trucks, H. B. Schlegel, G. E. Scuseria, 
 M. A. Robb, J. R. Cheeseman, G. Scalmani, V. Barone, B. Mennucci, 
 G. A. Petersson, H. Nakatsuji, M. Caricato, X. Li, H. P. Hratchian, 
 A. F. Izmaylov, J. Bloino, G. Zheng, J. L. Sonnenberg, M. Hada, 
 M. Ehara, K. Toyota, R. Fukuda, J. Hasegawa, M. Ishida, T. Nakajima, 
 Y. Honda, O. Kitao, H. Nakai, T. Vreven, J. A. Montgomery, Jr., 
 J. E. Peralta, F. Ogliaro, M. Bearpark, J. J. Heyd, E. Brothers, 
 K. N. Kudin, V. N. Staroverov, R. Kobayashi, J. Normand, 
 K. Raghavachari, A. Rendell, J. C. Burant, S. S. Iyengar, J. Tomasi, 
 M. Cossi, N. Rega, J. M. Millam, M. Klene, J. E. Knox, J. B. Cross, 
 V. Bakken, C. Adamo, J. Jaramillo, R. Gomperts, R. E. Stratmann, 
 O. Yazyev, A. J. Austin, R. Cammi, C. Pomelli, J. W. Ochterski, 
 R. L. Martin, K. Morokuma, V. G. Zakrzewski, G. A. Voth, 
 P. Salvador, J. J. Dannenberg, S. Dapprich, A. D. Daniels, 
 O. Farkas, J. B. Foresman, J. V. Ortiz, J. Cioslowski, 
 and D. J. Fox, Gaussian, Inc., Wallingford CT, 2009.
 
 ******************************************
 Gaussian 09:  IA32W-G09RevA.02 11-Jun-2009
                07-Sep-2021 
 ******************************************
 %nprocshared=12
 Will use up to   12 processors via shared memory.
 ----------------------------------------------
 # opt freq=noraman hf/6-311g geom=connectivity
 ----------------------------------------------
 1/18=20,19=15,38=1,57=2/1,3;
 2/9=110,12=2,17=6,18=5,40=1/2;
 3/5=4,6=6,11=9,16=1,25=1,30=1,71=1/1,2,3;
 4//1;
 5/5=2,38=5/2;
 6/7=2,8=2,9=2,10=2,28=1/1;
 7//1,2,3,16;
 1/18=20,19=15/3(2);
 2/9=110/2;
 99//99;
 2/9=110/2;
 3/5=4,6=6,11=9,16=1,25=1,30=1,71=1/1,2,3;
 4/5=5,16=3/1;
 5/5=2,38=5/2;
 7//1,2,3,16;
 1/18=20,19=15/3(-5);
 2/9=110/2;
 6/7=2,8=2,9=2,10=2,19=2,28=1/1;
 99/9=1/99;
 -----
 M0001
 -----
 Symbolic Z-matrix:
 Charge =  0 Multiplicity = 1
 C                     0.25648   0.71576   0.14451 
 H                     0.57656   1.76604   0.38128 
 C                     1.50706  -0.08765  -0.11021 
 C                     1.46412  -1.46221  -0.35464 
 C                     2.74421   0.56064  -0.09305 
 C                     2.63578  -2.1752   -0.57682 
 H                     0.48953  -1.97589  -0.3563 
 C                     3.91542  -0.15467  -0.31652 
 H                     2.79512   1.63923   0.09758 
 C                     3.86387  -1.52271  -0.55888 
 H                     2.59013  -3.25279  -0.76449 
 H                     4.88029   0.36236  -0.30065 
 H                     4.78682  -2.08476  -0.73366 
 C                    -0.49228   0.17971   1.34113 
 C                    -1.15795  -1.04674   1.29231 
 C                    -0.52711   0.92783   2.51971 
 C                    -1.85371  -1.51402   2.40047 
 H                    -1.10757  -1.64587   0.37045 
 C                    -1.22137   0.45657   3.62858 
 H                    -0.00536   1.8905    2.57428 
 C                    -1.88781  -0.76236   3.57031 
 H                    -2.37427  -2.47587   2.35128 
 H                    -1.24272   1.04853   4.54934 
 H                    -2.43634  -1.13032   4.44324 
 C                    -0.65398   0.84665  -1.05179 
 C                    -0.35192   0.29308  -2.29487 
 C                    -1.82711   1.59659  -0.91009 
 C                    -1.20765   0.48138  -3.37586 
 H                     0.5662   -0.29405  -2.42482 
 C                    -2.68035   1.7816   -1.98935 
 H                    -2.07212   2.03445   0.06489 
 C                    -2.37222   1.2238   -3.22657 
 H                    -0.95858   0.0419   -4.34718 
 H                    -3.59659   2.36798  -1.86586 
 H                    -3.04458   1.3705   -4.07773 
 

 GradGradGradGradGradGradGradGradGradGradGradGradGradGradGradGradGradGrad
 Berny optimization.
 Initialization pass.
                           ----------------------------
                           !    Initial Parameters    !
                           ! (Angstroms and Degrees)  !
 --------------------------                            --------------------------
 ! Name  Definition              Value          Derivative Info.                !
 --------------------------------------------------------------------------------
 ! R1    R(1,2)                  1.1232         estimate D2E/DX2                !
 ! R2    R(1,3)                  1.5081         estimate D2E/DX2                !
 ! R3    R(1,14)                 1.5099         estimate D2E/DX2                !
 ! R4    R(1,25)                 1.509          estimate D2E/DX2                !
 ! R5    R(3,4)                  1.3968         estimate D2E/DX2                !
 ! R6    R(3,5)                  1.3968         estimate D2E/DX2                !
 ! R7    R(4,6)                  1.3894         estimate D2E/DX2                !
 ! R8    R(4,7)                  1.1017         estimate D2E/DX2                !
 ! R9    R(5,8)                  1.3904         estimate D2E/DX2                !
 ! R10   R(5,9)                  1.0965         estimate D2E/DX2                !
 ! R11   R(6,10)                 1.3908         estimate D2E/DX2                !
 ! R12   R(6,11)                 1.0948         estimate D2E/DX2                !
 ! R13   R(8,10)                 1.3903         estimate D2E/DX2                !
 ! R14   R(8,12)                 1.0948         estimate D2E/DX2                !
 ! R15   R(10,13)                1.0947         estimate D2E/DX2                !
 ! R16   R(14,15)                1.3963         estimate D2E/DX2                !
 ! R17   R(14,16)                1.3964         estimate D2E/DX2                !
 ! R18   R(15,17)                1.3894         estimate D2E/DX2                !
 ! R19   R(15,18)                1.1006         estimate D2E/DX2                !
 ! R20   R(16,19)                1.3906         estimate D2E/DX2                !
 ! R21   R(16,20)                1.0963         estimate D2E/DX2                !
 ! R22   R(17,21)                1.3909         estimate D2E/DX2                !
 ! R23   R(17,22)                1.0948         estimate D2E/DX2                !
 ! R24   R(19,21)                1.3904         estimate D2E/DX2                !
 ! R25   R(19,23)                1.0948         estimate D2E/DX2                !
 ! R26   R(21,24)                1.0947         estimate D2E/DX2                !
 ! R27   R(25,26)                1.3939         estimate D2E/DX2                !
 ! R28   R(25,27)                1.3995         estimate D2E/DX2                !
 ! R29   R(26,28)                1.3915         estimate D2E/DX2                !
 ! R30   R(26,29)                1.0975         estimate D2E/DX2                !
 ! R31   R(27,30)                1.3882         estimate D2E/DX2                !
 ! R32   R(27,31)                1.0965         estimate D2E/DX2                !
 ! R33   R(28,32)                1.3891         estimate D2E/DX2                !
 ! R34   R(28,33)                1.0948         estimate D2E/DX2                !
 ! R35   R(30,32)                1.3917         estimate D2E/DX2                !
 ! R36   R(30,34)                1.0948         estimate D2E/DX2                !
 ! R37   R(32,35)                1.0946         estimate D2E/DX2                !
 ! A1    A(2,1,3)              107.3036         estimate D2E/DX2                !
 ! A2    A(2,1,14)             107.8319         estimate D2E/DX2                !
 ! A3    A(2,1,25)             104.9474         estimate D2E/DX2                !
 ! A4    A(3,1,14)             110.8514         estimate D2E/DX2                !
 ! A5    A(3,1,25)             114.3701         estimate D2E/DX2                !
 ! A6    A(14,1,25)            111.0922         estimate D2E/DX2                !
 ! A7    A(1,3,4)              121.8918         estimate D2E/DX2                !
 ! A8    A(1,3,5)              119.0217         estimate D2E/DX2                !
 ! A9    A(4,3,5)              119.0854         estimate D2E/DX2                !
 ! A10   A(3,4,6)              120.467          estimate D2E/DX2                !
 ! A11   A(3,4,7)              119.0987         estimate D2E/DX2                !
 ! A12   A(6,4,7)              120.4298         estimate D2E/DX2                !
 ! A13   A(3,5,8)              120.3518         estimate D2E/DX2                !
 ! A14   A(3,5,9)              119.9867         estimate D2E/DX2                !
 ! A15   A(8,5,9)              119.6615         estimate D2E/DX2                !
 ! A16   A(4,6,10)             120.1201         estimate D2E/DX2                !
 ! A17   A(4,6,11)             119.8249         estimate D2E/DX2                !
 ! A18   A(10,6,11)            120.0549         estimate D2E/DX2                !
 ! A19   A(5,8,10)             120.1979         estimate D2E/DX2                !
 ! A20   A(5,8,12)             119.808          estimate D2E/DX2                !
 ! A21   A(10,8,12)            119.9941         estimate D2E/DX2                !
 ! A22   A(6,10,8)             119.7778         estimate D2E/DX2                !
 ! A23   A(6,10,13)            120.103          estimate D2E/DX2                !
 ! A24   A(8,10,13)            120.1192         estimate D2E/DX2                !
 ! A25   A(1,14,15)            121.3677         estimate D2E/DX2                !
 ! A26   A(1,14,16)            119.4094         estimate D2E/DX2                !
 ! A27   A(15,14,16)           119.2219         estimate D2E/DX2                !
 ! A28   A(14,15,17)           120.4142         estimate D2E/DX2                !
 ! A29   A(14,15,18)           119.0522         estimate D2E/DX2                !
 ! A30   A(17,15,18)           120.5236         estimate D2E/DX2                !
 ! A31   A(14,16,19)           120.2595         estimate D2E/DX2                !
 ! A32   A(14,16,20)           120.0383         estimate D2E/DX2                !
 ! A33   A(19,16,20)           119.7022         estimate D2E/DX2                !
 ! A34   A(15,17,21)           120.0882         estimate D2E/DX2                !
 ! A35   A(15,17,22)           119.8512         estimate D2E/DX2                !
 ! A36   A(21,17,22)           120.0606         estimate D2E/DX2                !
 ! A37   A(16,19,21)           120.1973         estimate D2E/DX2                !
 ! A38   A(16,19,23)           119.8102         estimate D2E/DX2                !
 ! A39   A(21,19,23)           119.9925         estimate D2E/DX2                !
 ! A40   A(17,21,19)           119.8175         estimate D2E/DX2                !
 ! A41   A(17,21,24)           120.0872         estimate D2E/DX2                !
 ! A42   A(19,21,24)           120.0952         estimate D2E/DX2                !
 ! A43   A(1,25,26)            122.806          estimate D2E/DX2                !
 ! A44   A(1,25,27)            118.1604         estimate D2E/DX2                !
 ! A45   A(26,25,27)           118.9957         estimate D2E/DX2                !
 ! A46   A(25,26,28)           120.3842         estimate D2E/DX2                !
 ! A47   A(25,26,29)           119.9553         estimate D2E/DX2                !
 ! A48   A(28,26,29)           119.6604         estimate D2E/DX2                !
 ! A49   A(25,27,30)           120.5249         estimate D2E/DX2                !
 ! A50   A(25,27,31)           119.4259         estimate D2E/DX2                !
 ! A51   A(30,27,31)           120.0483         estimate D2E/DX2                !
 ! A52   A(26,28,32)           120.2906         estimate D2E/DX2                !
 ! A53   A(26,28,33)           119.6697         estimate D2E/DX2                !
 ! A54   A(32,28,33)           120.0397         estimate D2E/DX2                !
 ! A55   A(27,30,32)           120.1096         estimate D2E/DX2                !
 ! A56   A(27,30,34)           119.8738         estimate D2E/DX2                !
 ! A57   A(32,30,34)           120.0166         estimate D2E/DX2                !
 ! A58   A(28,32,30)           119.6943         estimate D2E/DX2                !
 ! A59   A(28,32,35)           120.2006         estimate D2E/DX2                !
 ! A60   A(30,32,35)           120.105          estimate D2E/DX2                !
 ! D1    D(2,1,3,4)            176.0584         estimate D2E/DX2                !
 ! D2    D(2,1,3,5)             -3.5472         estimate D2E/DX2                !
 ! D3    D(14,1,3,4)            58.55           estimate D2E/DX2                !
 ! D4    D(14,1,3,5)          -121.0557         estimate D2E/DX2                !
 ! D5    D(25,1,3,4)           -67.984          estimate D2E/DX2                !
 ! D6    D(25,1,3,5)           112.4104         estimate D2E/DX2                !
 ! D7    D(2,1,14,15)          172.1186         estimate D2E/DX2                !
 ! D8    D(2,1,14,16)           -7.5266         estimate D2E/DX2                !
 ! D9    D(3,1,14,15)          -70.6963         estimate D2E/DX2                !
 ! D10   D(3,1,14,16)          109.6584         estimate D2E/DX2                !
 ! D11   D(25,1,14,15)          57.6321         estimate D2E/DX2                !
 ! D12   D(25,1,14,16)        -122.0132         estimate D2E/DX2                !
 ! D13   D(2,1,25,26)          116.146          estimate D2E/DX2                !
 ! D14   D(2,1,25,27)          -61.5905         estimate D2E/DX2                !
 ! D15   D(3,1,25,26)           -1.1699         estimate D2E/DX2                !
 ! D16   D(3,1,25,27)         -178.9064         estimate D2E/DX2                !
 ! D17   D(14,1,25,26)        -127.579          estimate D2E/DX2                !
 ! D18   D(14,1,25,27)          54.6845         estimate D2E/DX2                !
 ! D19   D(1,3,4,6)           -179.5638         estimate D2E/DX2                !
 ! D20   D(1,3,4,7)             -0.3295         estimate D2E/DX2                !
 ! D21   D(5,3,4,6)              0.0416         estimate D2E/DX2                !
 ! D22   D(5,3,4,7)            179.276          estimate D2E/DX2                !
 ! D23   D(1,3,5,8)            179.6185         estimate D2E/DX2                !
 ! D24   D(1,3,5,9)             -0.3703         estimate D2E/DX2                !
 ! D25   D(4,3,5,8)              0.0017         estimate D2E/DX2                !
 ! D26   D(4,3,5,9)           -179.9872         estimate D2E/DX2                !
 ! D27   D(3,4,6,10)            -0.0752         estimate D2E/DX2                !
 ! D28   D(3,4,6,11)           179.823          estimate D2E/DX2                !
 ! D29   D(7,4,6,10)          -179.2993         estimate D2E/DX2                !
 ! D30   D(7,4,6,11)             0.5988         estimate D2E/DX2                !
 ! D31   D(3,5,8,10)            -0.0115         estimate D2E/DX2                !
 ! D32   D(3,5,8,12)          -179.9747         estimate D2E/DX2                !
 ! D33   D(9,5,8,10)           179.9774         estimate D2E/DX2                !
 ! D34   D(9,5,8,12)             0.0142         estimate D2E/DX2                !
 ! D35   D(4,6,10,8)             0.0649         estimate D2E/DX2                !
 ! D36   D(4,6,10,13)          179.982          estimate D2E/DX2                !
 ! D37   D(11,6,10,8)         -179.833          estimate D2E/DX2                !
 ! D38   D(11,6,10,13)           0.0841         estimate D2E/DX2                !
 ! D39   D(5,8,10,6)            -0.0218         estimate D2E/DX2                !
 ! D40   D(5,8,10,13)         -179.9389         estimate D2E/DX2                !
 ! D41   D(12,8,10,6)          179.9414         estimate D2E/DX2                !
 ! D42   D(12,8,10,13)           0.0242         estimate D2E/DX2                !
 ! D43   D(1,14,15,17)        -179.2616         estimate D2E/DX2                !
 ! D44   D(1,14,15,18)           1.8791         estimate D2E/DX2                !
 ! D45   D(16,14,15,17)          0.3842         estimate D2E/DX2                !
 ! D46   D(16,14,15,18)       -178.4751         estimate D2E/DX2                !
 ! D47   D(1,14,16,19)         179.4276         estimate D2E/DX2                !
 ! D48   D(1,14,16,20)          -0.6214         estimate D2E/DX2                !
 ! D49   D(15,14,16,19)         -0.2253         estimate D2E/DX2                !
 ! D50   D(15,14,16,20)        179.7257         estimate D2E/DX2                !
 ! D51   D(14,15,17,21)         -0.2055         estimate D2E/DX2                !
 ! D52   D(14,15,17,22)        179.8615         estimate D2E/DX2                !
 ! D53   D(18,15,17,21)        178.6369         estimate D2E/DX2                !
 ! D54   D(18,15,17,22)         -1.2961         estimate D2E/DX2                !
 ! D55   D(14,16,19,21)         -0.1125         estimate D2E/DX2                !
 ! D56   D(14,16,19,23)        179.9187         estimate D2E/DX2                !
 ! D57   D(20,16,19,21)        179.9364         estimate D2E/DX2                !
 ! D58   D(20,16,19,23)         -0.0325         estimate D2E/DX2                !
 ! D59   D(15,17,21,19)         -0.1354         estimate D2E/DX2                !
 ! D60   D(15,17,21,24)        179.973          estimate D2E/DX2                !
 ! D61   D(22,17,21,19)        179.7974         estimate D2E/DX2                !
 ! D62   D(22,17,21,24)         -0.0942         estimate D2E/DX2                !
 ! D63   D(16,19,21,17)          0.294          estimate D2E/DX2                !
 ! D64   D(16,19,21,24)       -179.8144         estimate D2E/DX2                !
 ! D65   D(23,19,21,17)       -179.7372         estimate D2E/DX2                !
 ! D66   D(23,19,21,24)          0.1544         estimate D2E/DX2                !
 ! D67   D(1,25,26,28)        -177.9121         estimate D2E/DX2                !
 ! D68   D(1,25,26,29)           2.0068         estimate D2E/DX2                !
 ! D69   D(27,25,26,28)         -0.1937         estimate D2E/DX2                !
 ! D70   D(27,25,26,29)        179.7253         estimate D2E/DX2                !
 ! D71   D(1,25,27,30)         178.1117         estimate D2E/DX2                !
 ! D72   D(1,25,27,31)          -2.2354         estimate D2E/DX2                !
 ! D73   D(26,25,27,30)          0.2868         estimate D2E/DX2                !
 ! D74   D(26,25,27,31)        179.9397         estimate D2E/DX2                !
 ! D75   D(25,26,28,32)          0.0118         estimate D2E/DX2                !
 ! D76   D(25,26,28,33)        179.9558         estimate D2E/DX2                !
 ! D77   D(29,26,28,32)       -179.9074         estimate D2E/DX2                !
 ! D78   D(29,26,28,33)          0.0366         estimate D2E/DX2                !
 ! D79   D(25,27,30,32)         -0.1975         estimate D2E/DX2                !
 ! D80   D(25,27,30,34)        179.8374         estimate D2E/DX2                !
 ! D81   D(31,27,30,32)       -179.8483         estimate D2E/DX2                !
 ! D82   D(31,27,30,34)          0.1866         estimate D2E/DX2                !
 ! D83   D(26,28,32,30)          0.0807         estimate D2E/DX2                !
 ! D84   D(26,28,32,35)       -179.9644         estimate D2E/DX2                !
 ! D85   D(33,28,32,30)       -179.8631         estimate D2E/DX2                !
 ! D86   D(33,28,32,35)          0.0917         estimate D2E/DX2                !
 ! D87   D(27,30,32,28)          0.0119         estimate D2E/DX2                !
 ! D88   D(27,30,32,35)       -179.943          estimate D2E/DX2                !
 ! D89   D(34,30,32,28)        179.977          estimate D2E/DX2                !
 ! D90   D(34,30,32,35)          0.0221         estimate D2E/DX2                !
 --------------------------------------------------------------------------------
 Trust Radius=3.00D-01 FncErr=1.00D-07 GrdErr=1.00D-07
 Number of steps in this run= 197 maximum allowed number of steps= 210.
 GradGradGradGradGradGradGradGradGradGradGradGradGradGradGradGradGradGrad

                          Input orientation:                          
 ---------------------------------------------------------------------
 Center     Atomic      Atomic             Coordinates (Angstroms)
 Number     Number       Type             X           Y           Z
 ---------------------------------------------------------------------
      1          6           0        0.256477    0.715758    0.144511
      2          1           0        0.576556    1.766037    0.381276
      3          6           0        1.507065   -0.087646   -0.110208
      4          6           0        1.464118   -1.462213   -0.354642
      5          6           0        2.744210    0.560636   -0.093048
      6          6           0        2.635778   -2.175200   -0.576816
      7          1           0        0.489533   -1.975892   -0.356299
      8          6           0        3.915422   -0.154666   -0.316525
      9          1           0        2.795122    1.639230    0.097583
     10          6           0        3.863868   -1.522706   -0.558880
     11          1           0        2.590126   -3.252791   -0.764492
     12          1           0        4.880288    0.362355   -0.300654
     13          1           0        4.786815   -2.084763   -0.733664
     14          6           0       -0.492277    0.179709    1.341128
     15          6           0       -1.157952   -1.046743    1.292308
     16          6           0       -0.527110    0.927834    2.519706
     17          6           0       -1.853709   -1.514022    2.400467
     18          1           0       -1.107573   -1.645871    0.370449
     19          6           0       -1.221367    0.456565    3.628578
     20          1           0       -0.005363    1.890497    2.574282
     21          6           0       -1.887806   -0.762357    3.570311
     22          1           0       -2.374265   -2.475867    2.351279
     23          1           0       -1.242725    1.048534    4.549336
     24          1           0       -2.436342   -1.130318    4.443237
     25          6           0       -0.653976    0.846651   -1.051792
     26          6           0       -0.351922    0.293077   -2.294866
     27          6           0       -1.827107    1.596595   -0.910092
     28          6           0       -1.207647    0.481384   -3.375860
     29          1           0        0.566204   -0.294047   -2.424816
     30          6           0       -2.680354    1.781604   -1.989348
     31          1           0       -2.072118    2.034455    0.064888
     32          6           0       -2.372220    1.223797   -3.226565
     33          1           0       -0.958584    0.041901   -4.347183
     34          1           0       -3.596586    2.367978   -1.865861
     35          1           0       -3.044579    1.370505   -4.077730
 ---------------------------------------------------------------------
                    Distance matrix (angstroms):
                    1          2          3          4          5
     1  C    0.000000
     2  H    1.123207   0.000000
     3  C    1.508081   2.131559   0.000000
     4  C    2.539903   3.427965   1.396792   0.000000
     5  C    2.503859   2.525212   1.396815   2.408109   0.000000
     6  C    3.813007   4.548812   2.418595   1.389424   2.780394
     7  H    2.747745   3.814921   2.159028   1.101673   3.403945
     8  C    3.789204   3.914595   2.418107   2.778493   1.390445
     9  H    2.701799   2.240222   2.164341   3.405148   1.096493
    10  C    4.303341   4.744064   2.795572   2.409185   2.410591
    11  H    4.692716   5.527738   3.408702   2.154540   3.875153
    12  H    4.658615   4.577932   3.408432   3.873265   2.155283
    13  H    5.397969   5.813608   3.890236   3.401697   3.403052
    14  C    1.509925   2.140131   2.485000   3.065784   3.560451
    15  C    2.534651   3.427861   3.160574   3.124150   4.441817
    16  C    2.510088   2.548245   3.476423   4.235469   4.202720
    17  C    3.809743   4.554351   4.430896   4.312921   5.626960
    18  H    2.736598   3.804934   3.081464   2.678260   4.463152
    19  C    3.793406   3.936016   4.660367   5.172967   5.439405
    20  H    2.711524   2.272311   3.661554   4.688138   4.055038
    21  C    4.303357   4.757710   5.052386   5.208690   6.051949
    22  H    4.687974   5.530100   5.179502   4.804445   6.433807
    23  H    4.664851   4.604055   5.528436   6.138392   6.138845
    24  H    5.397992   5.828032   6.113222   6.192204   7.090509
    25  C    1.509038   2.100753   2.535663   3.209858   3.542408
    26  C    2.549386   3.192714   2.893702   3.184888   3.808625
    27  C    2.495873   2.733850   3.820102   4.527360   4.757909
    28  C    3.819895   4.353134   4.284616   4.477013   5.138122
    29  H    2.777963   3.481121   2.507036   2.540960   3.303230
    30  C    3.783432   4.028345   4.955779   5.511013   5.874743
    31  H    2.677248   2.680974   4.164675   4.990757   5.039255
    32  C    4.304917   4.691036   5.145913   5.493640   6.036270
    33  H    4.701677   5.261903   4.903893   4.906345   5.663694
    34  H    4.649465   4.777768   5.929558   6.524176   6.827521
    35  H    5.399351   5.757760   6.211675   6.497232   7.074154
                    6          7          8          9         10
     6  C    0.000000
     7  H    2.166730   0.000000
     8  C    2.405784   3.880097   0.000000
     9  H    3.876866   4.311712   2.155138   0.000000
    10  C    1.390782   3.410652   1.390298   3.401618   0.000000
    11  H    1.094764   2.491903   3.399332   4.971627   2.158214
    12  H    3.399011   4.974859   1.094774   2.477281   2.157139
    13  H    2.158643   4.315193   2.158380   4.304177   1.094664
    14  C    4.359913   2.914074   4.720956   3.805732   5.048193
    15  C    4.377149   2.509070   5.396597   4.926318   5.373277
    16  C    5.405658   4.211484   5.380716   4.172528   5.896060
    17  C    5.427418   3.647446   6.520181   6.071071   6.438051
    18  H    3.897458   1.785448   5.284515   5.108558   5.059055
    19  C    6.284035   4.972250   6.505693   5.477116   6.878367
    20  H    5.782296   4.876699   5.283182   3.746984   6.036357
    21  C    6.297429   4.747913   7.011008   6.305337   7.121102
    22  H    5.810738   3.972693   7.215630   6.981098   6.949233
    23  H    7.191154   6.017734   7.192411   6.039141   7.666970
    24  H    7.212428   5.684301   7.997007   7.343249   8.054054
    25  C    4.492179   3.123791   4.735256   3.720957   5.125205
    26  C    4.239156   3.100695   4.724884   4.176102   4.907504
    27  C    5.852765   4.293736   6.032899   4.730985   6.499275
    28  C    5.446467   4.246926   6.000826   5.424718   6.137753
    29  H    3.352160   2.667067   3.959997   3.881769   3.983203
    30  C    6.775899   5.180137   7.074725   5.861432   7.469374
    31  H    6.348013   4.777273   6.386576   4.883369   6.948266
    32  C    6.607147   5.163920   7.064201   6.158244   7.317692
    33  H    5.661329   4.700605   6.327778   6.033052   6.328924
    34  H    7.819493   6.151777   8.074307   6.726077   8.514928
    35  H    7.556116   6.126776   8.056949   7.183840   8.275241
                   11         12         13         14         15
    11  H    0.000000
    12  H    4.304564   0.000000
    13  H    2.488108   2.486890   0.000000
    14  C    5.071184   5.620789   6.107489   0.000000
    15  C    4.810942   6.401830   6.365713   1.396313   0.000000
    16  C    6.162852   6.124880   6.920836   1.396406   2.409029
    17  C    5.726077   7.494235   7.365126   2.417524   1.389404
    18  H    4.188468   6.351207   6.012944   2.157209   1.100599
    19  C    6.898251   7.257956   7.847659   2.416743   2.778869
    20  H    6.658633   5.871121   7.050544   2.164381   3.405773
    21  C    6.711531   7.877592   8.051306   2.793608   2.408912
    22  H    5.912429   8.229022   7.807106   3.407986   2.154816
    23  H    7.837660   7.841207   8.607148   3.407437   3.873707
    24  H    7.542593   8.846788   8.937856   3.888269   3.401414
    25  C    5.235663   5.605963   6.188425   2.489382   3.055116
    26  C    4.854984   5.599795   5.873508   3.640468   3.913134
    27  C    6.561226   6.847182   7.571492   2.976126   3.505077
    28  C    5.931811   6.821584   7.035615   4.780454   4.912172
    29  H    3.950583   4.853271   4.886739   3.940452   4.166086
    30  C    7.390763   7.875866   8.502009   4.294860   4.592006
    31  H    7.097842   7.159992   8.040560   2.750412   3.440354
    32  C    7.122256   7.867776   8.271210   5.048577   5.200963
    33  H    6.023621   7.111224   7.112653   5.709056   5.747065
    34  H    8.430983   8.850412   9.559822   4.970919   5.251789
    35  H    8.006393   8.836639   9.189799   6.107067   6.183831
                   16         17         18         19         20
    16  C    0.000000
    17  C    2.781500   0.000000
    18  H    3.402969   2.166813   0.000000
    19  C    1.390569   2.406518   3.879252   0.000000
    20  H    1.096320   3.877801   4.310179   2.155542   0.000000
    21  C    2.410811   1.390934   3.410056   1.390435   3.401955
    22  H    3.876277   1.094780   2.493410   3.399974   4.972581
    23  H    2.155474   3.399652   4.974051   1.094842   2.478064
    24  H    3.403105   2.158610   4.314977   2.158247   4.304412
    25  C    3.574673   4.350888   2.905371   4.730746   3.828671
    26  C    4.859395   5.250440   3.381483   5.989145   5.136191
    27  C    3.728371   4.542735   3.559648   4.718698   3.942840
    28  C    5.951483   6.145323   4.309298   7.004495   6.231795
    29  H    5.209283   5.534227   3.527387   6.356289   5.485426
    30  C    5.069216   5.551123   4.448580   5.953609   5.290950
    31  H    3.104479   4.253742   3.816872   3.989161   3.254114
    32  C    6.042488   6.279172   4.772089   6.993290   6.300503
    33  H    6.937234   6.982330   5.012666   7.990855   7.227214
    34  H    5.543365   6.025703   5.225634   6.283632   5.730597
    35  H    7.075293   7.190668   5.712863   7.971611   7.331882
                   21         22         23         24         25
    21  C    0.000000
    22  H    2.158425   0.000000
    23  H    2.157301   4.305025   0.000000
    24  H    1.094662   2.488100   2.486639   0.000000
    25  C    5.047284   5.057609   5.635602   6.105782   0.000000
    26  C    6.154119   5.774391   6.943152   7.195338   1.393885
    27  C    5.063827   5.246033   5.517901   6.038654   1.399547
    28  C    7.089344   6.550301   7.945541   8.077471   2.416871
    29  H    6.494846   6.018121   7.328953   7.542200   2.162227
    30  C    6.165199   6.087757   6.734876   7.065194   2.420611
    31  H    4.488220   5.065756   4.665856   5.414645   2.160781
    32  C    7.097675   6.693270   7.859461   8.023206   2.797185
    33  H    8.012303   7.294704   8.957796   8.990514   3.405879
    34  H    6.501607   6.537673   6.959623   7.306774   3.411173
    35  H    8.023700   7.521705   8.819105   8.901176   3.891749
                   26         27         28         29         30
    26  C    0.000000
    27  C    2.406851   0.000000
    28  C    1.391500   2.776227   0.000000
    29  H    1.097523   3.405415   2.156925   0.000000
    30  C    2.780405   1.388183   2.404549   3.877900   0.000000
    31  H    3.399987   1.096511   3.872735   4.310602   2.157259
    32  C    2.411619   2.408771   1.389135   3.403085   1.391691
    33  H    2.154793   3.871047   1.094828   2.476557   3.398595
    34  H    3.875192   2.153969   3.397995   4.972689   1.094790
    35  H    3.404388   3.401072   2.158119   4.305882   2.159399
                   31         32         33         34         35
    31  H    0.000000
    32  C    3.403071   0.000000
    33  H    4.967554   2.156625   0.000000
    34  H    2.482545   2.158643   4.304260   0.000000
    35  H    4.306715   1.094565   2.487805   2.488379   0.000000
 Stoichiometry    C19H16
 Framework group  C1[X(C19H16)]
 Deg. of freedom    99
 Full point group                 C1      NOp   1
 Largest Abelian subgroup         C1      NOp   1
 Largest concise Abelian subgroup C1      NOp   1
                         Standard orientation:                         
 ---------------------------------------------------------------------
 Center     Atomic      Atomic             Coordinates (Angstroms)
 Number     Number       Type             X           Y           Z
 ---------------------------------------------------------------------
      1          6           0       -0.015525    0.011977   -0.759426
      2          1           0        0.016221    0.011977   -1.882184
      3          6           0       -1.466658   -0.035997   -0.351722
      4          6           0       -1.854380   -0.129222    0.986937
      5          6           0       -2.450592    0.005892   -1.342282
      6          6           0       -3.200147   -0.180472    1.328678
      7          1           0       -1.078345   -0.174412    1.767584
      8          6           0       -3.796789   -0.044624   -0.997985
      9          1           0       -2.162826    0.078804   -2.397826
     10          6           0       -4.174191   -0.137593    0.336875
     11          1           0       -3.492165   -0.256419    2.381040
     12          1           0       -4.560546   -0.011594   -1.781639
     13          1           0       -5.234371   -0.178286    0.606414
     14          6           0        0.719389   -1.215279   -0.276084
     15          6           0        0.992711   -1.412152    1.078990
     16          6           0        1.141765   -2.170873   -1.202576
     17          6           0        1.683833   -2.541436    1.500309
     18          1           0        0.636455   -0.669930    1.809405
     19          6           0        1.830436   -3.301933   -0.778173
     20          1           0        0.930372   -2.032003   -2.269321
     21          6           0        2.105217   -3.487787    0.572110
     22          1           0        1.895138   -2.685413    2.564811
     23          1           0        2.157010   -4.047136   -1.510772
     24          1           0        2.650113   -4.377286    0.904021
     25          6           0        0.705018    1.272974   -0.349669
     26          6           0        0.075465    2.316773    0.326395
     27          6           0        2.050687    1.411108   -0.708594
     28          6           0        0.777792    3.475822    0.642010
     29          1           0       -0.980597    2.227039    0.611418
     30          6           0        2.749988    2.567481   -0.391052
     31          1           0        2.553181    0.593962   -1.239733
     32          6           0        2.114346    3.604107    0.285831
     33          1           0        0.271544    4.288717    1.172635
     34          1           0        3.803076    2.663131   -0.674635
     35          1           0        2.665552    4.516239    0.535348
 ---------------------------------------------------------------------
 Rotational constants (GHZ):      0.4050533      0.3789841      0.2332528
 Standard basis: 6-311G (5D, 7F)
 There are   295 symmetry adapted basis functions of A   symmetry.
 Integral buffers will be    262144 words long.
 Raffenetti 1 integral format.
 Two-electron integral symmetry is turned on.
   295 basis functions,   574 primitive gaussians,   295 cartesian basis functions
    65 alpha electrons       65 beta electrons
       nuclear repulsion energy      1290.3292415761 Hartrees.
 NAtoms=   35 NActive=   35 NUniq=   35 SFac= 7.50D-01 NAtFMM=   80 NAOKFM=F Big=F
 One-electron integrals computed using PRISM.
 PrsmSu:  requested number of processors reduced to:  10 ShMem   1 Linda.
 NBasis=   295 RedAO= T  NBF=   295
 NBsUse=   295 1.00D-06 NBFU=   295
 Harris functional with IExCor=  205 diagonalized for initial guess.
 ExpMin= 1.03D-01 ExpMax= 4.56D+03 ExpMxC= 6.82D+02 IAcc=1 IRadAn=         1 AccDes= 0.00D+00
 HarFok:  IExCor=  205 AccDes= 0.00D+00 IRadAn=         1 IDoV= 1
 ScaDFX=  1.000000  1.000000  1.000000  1.000000
 FoFCou: FMM=F IPFlag=           0 FMFlag=      100000 FMFlg1=           0
         NFxFlg=           0 DoJE=T BraDBF=F KetDBF=T FulRan=T
         Omega=  0.000000  0.000000  1.000000  0.000000  0.000000 ICntrl=     500 IOpCl=  0
         NMat0=    1 NMatS0=    1 NMatT0=    0 NMatD0=    1 NMtDS0=    0 NMtDT0=    0
         I1Cent=           4 NGrid=           0.
 Petite list used in FoFCou.
 Initial guess orbital symmetries:
       Occupied  (A) (A) (A) (A) (A) (A) (A) (A) (A) (A) (A) (A)
                 (A) (A) (A) (A) (A) (A) (A) (A) (A) (A) (A) (A)
                 (A) (A) (A) (A) (A) (A) (A) (A) (A) (A) (A) (A)
                 (A) (A) (A) (A) (A) (A) (A) (A) (A) (A) (A) (A)
                 (A) (A) (A) (A) (A) (A) (A) (A) (A) (A) (A) (A)
                 (A) (A) (A) (A) (A)
       Virtual   (A) (A) (A) (A) (A) (A) (A) (A) (A) (A) (A) (A)
                 (A) (A) (A) (A) (A) (A) (A) (A) (A) (A) (A) (A)
                 (A) (A) (A) (A) (A) (A) (A) (A) (A) (A) (A) (A)
                 (A) (A) (A) (A) (A) (A) (A) (A) (A) (A) (A) (A)
                 (A) (A) (A) (A) (A) (A) (A) (A) (A) (A) (A) (A)
                 (A) (A) (A) (A) (A) (A) (A) (A) (A) (A) (A) (A)
                 (A) (A) (A) (A) (A) (A) (A) (A) (A) (A) (A) (A)
                 (A) (A) (A) (A) (A) (A) (A) (A) (A) (A) (A) (A)
                 (A) (A) (A) (A) (A) (A) (A) (A) (A) (A) (A) (A)
                 (A) (A) (A) (A) (A) (A) (A) (A) (A) (A) (A) (A)
                 (A) (A) (A) (A) (A) (A) (A) (A) (A) (A) (A) (A)
                 (A) (A) (A) (A) (A) (A) (A) (A) (A) (A) (A) (A)
                 (A) (A) (A) (A) (A) (A) (A) (A) (A) (A) (A) (A)
                 (A) (A) (A) (A) (A) (A) (A) (A) (A) (A) (A) (A)
                 (A) (A) (A) (A) (A) (A) (A) (A) (A) (A) (A) (A)
                 (A) (A) (A) (A) (A) (A) (A) (A) (A) (A) (A) (A)
                 (A) (A) (A) (A) (A) (A) (A) (A) (A) (A) (A) (A)
                 (A) (A) (A) (A) (A) (A) (A) (A) (A) (A) (A) (A)
                 (A) (A) (A) (A) (A) (A) (A) (A) (A) (A) (A) (A)
                 (A) (A)
 The electronic state of the initial guess is 1-A.
 Requested convergence on RMS density matrix=1.00D-08 within 128 cycles.
 Requested convergence on MAX density matrix=1.00D-06.
 Requested convergence on             energy=1.00D-06.
 No special actions if energy rises.
 Integral accuracy reduced to 1.0D-05 until final iterations.
 Initial convergence to 1.0D-05 achieved.  Increase integral accuracy.
 SCF Done:  E(RHF) =  -728.672348676     A.U. after   14 cycles
             Convg  =    0.8206D-08             -V/T =  2.0001

 **********************************************************************

            Population analysis using the SCF density.

 **********************************************************************

 Orbital symmetries:
       Occupied  (A) (A) (A) (A) (A) (A) (A) (A) (A) (A) (A) (A)
                 (A) (A) (A) (A) (A) (A) (A) (A) (A) (A) (A) (A)
                 (A) (A) (A) (A) (A) (A) (A) (A) (A) (A) (A) (A)
                 (A) (A) (A) (A) (A) (A) (A) (A) (A) (A) (A) (A)
                 (A) (A) (A) (A) (A) (A) (A) (A) (A) (A) (A) (A)
                 (A) (A) (A) (A) (A)
       Virtual   (A) (A) (A) (A) (A) (A) (A) (A) (A) (A) (A) (A)
                 (A) (A) (A) (A) (A) (A) (A) (A) (A) (A) (A) (A)
                 (A) (A) (A) (A) (A) (A) (A) (A) (A) (A) (A) (A)
                 (A) (A) (A) (A) (A) (A) (A) (A) (A) (A) (A) (A)
                 (A) (A) (A) (A) (A) (A) (A) (A) (A) (A) (A) (A)
                 (A) (A) (A) (A) (A) (A) (A) (A) (A) (A) (A) (A)
                 (A) (A) (A) (A) (A) (A) (A) (A) (A) (A) (A) (A)
                 (A) (A) (A) (A) (A) (A) (A) (A) (A) (A) (A) (A)
                 (A) (A) (A) (A) (A) (A) (A) (A) (A) (A) (A) (A)
                 (A) (A) (A) (A) (A) (A) (A) (A) (A) (A) (A) (A)
                 (A) (A) (A) (A) (A) (A) (A) (A) (A) (A) (A) (A)
                 (A) (A) (A) (A) (A) (A) (A) (A) (A) (A) (A) (A)
                 (A) (A) (A) (A) (A) (A) (A) (A) (A) (A) (A) (A)
                 (A) (A) (A) (A) (A) (A) (A) (A) (A) (A) (A) (A)
                 (A) (A) (A) (A) (A) (A) (A) (A) (A) (A) (A) (A)
                 (A) (A) (A) (A) (A) (A) (A) (A) (A) (A) (A) (A)
                 (A) (A) (A) (A) (A) (A) (A) (A) (A) (A) (A) (A)
                 (A) (A) (A) (A) (A) (A) (A) (A) (A) (A) (A) (A)
                 (A) (A) (A) (A) (A) (A) (A) (A) (A) (A) (A) (A)
                 (A) (A)
 The electronic state is 1-A.
 Alpha  occ. eigenvalues --  -11.25771 -11.25241 -11.25193 -11.24945 -11.24521
 Alpha  occ. eigenvalues --  -11.24430 -11.24414 -11.24363 -11.24219 -11.24165
 Alpha  occ. eigenvalues --  -11.24139 -11.24111 -11.24074 -11.24058 -11.24020
 Alpha  occ. eigenvalues --  -11.23988 -11.23739 -11.23673 -11.23505  -1.18613
 Alpha  occ. eigenvalues --   -1.15873  -1.15586  -1.09029  -1.02386  -1.02229
 Alpha  occ. eigenvalues --   -1.01877  -1.01489  -1.01128  -0.92924  -0.84321
 Alpha  occ. eigenvalues --   -0.83310  -0.82381  -0.81862  -0.81192  -0.77604
 Alpha  occ. eigenvalues --   -0.70855  -0.70379  -0.68988  -0.65733  -0.63873
 Alpha  occ. eigenvalues --   -0.63597  -0.62491  -0.61730  -0.61632  -0.59696
 Alpha  occ. eigenvalues --   -0.58851  -0.58479  -0.58332  -0.56935  -0.54880
 Alpha  occ. eigenvalues --   -0.51724  -0.50956  -0.50287  -0.49829  -0.49379
 Alpha  occ. eigenvalues --   -0.48479  -0.47886  -0.47530  -0.46356  -0.34976
 Alpha  occ. eigenvalues --   -0.34314  -0.33898  -0.33350  -0.32729  -0.31369
 Alpha virt. eigenvalues --    0.11495   0.12271   0.12871   0.13646   0.14905
 Alpha virt. eigenvalues --    0.14996   0.15529   0.16240   0.16467   0.16946
 Alpha virt. eigenvalues --    0.18911   0.19166   0.19233   0.21258   0.21316
 Alpha virt. eigenvalues --    0.21560   0.23586   0.23969   0.25054   0.25455
 Alpha virt. eigenvalues --    0.27150   0.31024   0.33353   0.34279   0.35773
 Alpha virt. eigenvalues --    0.37470   0.39846   0.40314   0.41591   0.43205
 Alpha virt. eigenvalues --    0.44102   0.44420   0.44831   0.45445   0.45652
 Alpha virt. eigenvalues --    0.45878   0.46792   0.47127   0.48207   0.50508
 Alpha virt. eigenvalues --    0.51177   0.51477   0.51894   0.54866   0.55954
 Alpha virt. eigenvalues --    0.57351   0.57830   0.58449   0.59064   0.59475
 Alpha virt. eigenvalues --    0.59999   0.60406   0.60680   0.61209   0.61449
 Alpha virt. eigenvalues --    0.62101   0.62313   0.62906   0.63687   0.63808
 Alpha virt. eigenvalues --    0.64360   0.64535   0.65192   0.65901   0.66356
 Alpha virt. eigenvalues --    0.67154   0.67809   0.68628   0.69996   0.72329
 Alpha virt. eigenvalues --    0.73185   0.73893   0.74005   0.75100   0.75771
 Alpha virt. eigenvalues --    0.76630   0.78830   0.79267   0.79699   0.81433
 Alpha virt. eigenvalues --    0.81574   0.82166   0.82502   0.82978   0.83135
 Alpha virt. eigenvalues --    0.83802   0.84314   0.84680   0.84712   0.85455
 Alpha virt. eigenvalues --    0.86029   0.86296   0.86474   0.87601   0.88225
 Alpha virt. eigenvalues --    0.90250   0.90734   0.92348   0.93195   0.94707
 Alpha virt. eigenvalues --    0.96063   0.96548   0.97093   0.98177   0.99476
 Alpha virt. eigenvalues --    0.99748   1.02351   1.03025   1.04442   1.06168
 Alpha virt. eigenvalues --    1.06993   1.08391   1.08954   1.10102   1.10500
 Alpha virt. eigenvalues --    1.11079   1.11811   1.12540   1.12632   1.13908
 Alpha virt. eigenvalues --    1.14821   1.16725   1.18922   1.20683   1.20971
 Alpha virt. eigenvalues --    1.24062   1.25730   1.27205   1.28714   1.28880
 Alpha virt. eigenvalues --    1.29300   1.32540   1.33650   1.46412   1.47463
 Alpha virt. eigenvalues --    1.52322   1.54010   1.57480   2.53675   2.55672
 Alpha virt. eigenvalues --    2.56257   2.57805   2.62079   2.62205   2.63995
 Alpha virt. eigenvalues --    2.66148   2.67444   2.68535   2.71734   2.74406
 Alpha virt. eigenvalues --    2.78299   2.83611   2.86372   2.91185   2.94345
 Alpha virt. eigenvalues --    2.94554   2.94745   2.96082   2.97941   2.98476
 Alpha virt. eigenvalues --    3.00151   3.02118   3.03818   3.04694   3.06379
 Alpha virt. eigenvalues --    3.08537   3.08973   3.09545   3.10158   3.13195
 Alpha virt. eigenvalues --    3.15277   3.16312   3.17686   3.18317   3.19353
 Alpha virt. eigenvalues --    3.21643   3.24209   3.25317   3.27586   3.28734
 Alpha virt. eigenvalues --    3.31167   3.33844   3.34136   3.35625   3.41329
 Alpha virt. eigenvalues --    3.41713   3.44266   3.45142   3.49972   3.52068
 Alpha virt. eigenvalues --    3.53332   3.55729   3.57345   3.58297   3.59903
 Alpha virt. eigenvalues --    3.62170   3.64362   3.64905   3.66099   3.66358
 Alpha virt. eigenvalues --    3.67643   3.69269   3.71304   3.72732   3.73663
 Alpha virt. eigenvalues --    3.75701   3.77049   3.78885   3.85296   3.87715
 Alpha virt. eigenvalues --    3.91365  24.25870  24.30112  24.31879  24.50465
 Alpha virt. eigenvalues --   24.50815  24.51028  24.53301  24.54557  24.56551
 Alpha virt. eigenvalues --   24.76475  24.77150  24.79121  24.80190  24.80583
 Alpha virt. eigenvalues --   24.82560  24.86855  25.04751  25.05826  25.07096
          Condensed to atoms (all electrons):
              1          2          3          4          5          6
     1  C    6.067043   0.474507   0.123533  -0.067471  -0.026615   0.002088
     2  H    0.474507   0.505323  -0.077290   0.004466   0.006564  -0.000227
     3  C    0.123533  -0.077290   5.387780   0.450444   0.501262  -0.065505
     4  C   -0.067471   0.004466   0.450444   5.103507  -0.062085   0.479526
     5  C   -0.026615   0.006564   0.501262  -0.062085   5.042844  -0.034559
     6  C    0.002088  -0.000227  -0.065505   0.479526  -0.034559   5.048084
     7  H    0.001212  -0.000064  -0.048913   0.386268   0.004633  -0.026699
     8  C    0.008356   0.001483  -0.076888  -0.029858   0.469777  -0.076957
     9  H   -0.002091   0.002794  -0.045093   0.004774   0.393967  -0.000302
    10  C    0.001745   0.000002  -0.015938  -0.093739  -0.088812   0.490235
    11  H   -0.000366   0.000012   0.005975  -0.038438  -0.000367   0.396922
    12  H   -0.000419  -0.000033   0.007078  -0.000629  -0.039556   0.006285
    13  H   -0.000025  -0.000002  -0.001667   0.007991   0.007551  -0.042914
    14  C    0.156188  -0.071081  -0.134918  -0.003551  -0.003810   0.001992
    15  C   -0.053553   0.005756  -0.004280  -0.012725   0.000678  -0.000101
    16  C   -0.024711   0.001070  -0.001490   0.000573   0.000597   0.000048
    17  C    0.002887  -0.000271   0.001907  -0.000608   0.000030  -0.000102
    18  H    0.000546   0.000126  -0.002721  -0.001275  -0.000196   0.000833
    19  C    0.006875   0.001603  -0.000511   0.000140  -0.000017   0.000001
    20  H    0.000034   0.002260   0.000410  -0.000005   0.000256  -0.000001
    21  C    0.001257  -0.000003  -0.000085  -0.000019  -0.000007   0.000001
    22  H   -0.000342   0.000011   0.000025   0.000055   0.000000   0.000002
    23  H   -0.000341  -0.000039   0.000025   0.000000   0.000001   0.000000
    24  H   -0.000011  -0.000001  -0.000003   0.000000   0.000000   0.000000
    25  C    0.046363  -0.062832  -0.068784   0.006058  -0.000979   0.000963
    26  C   -0.026526   0.001708  -0.012212  -0.016747   0.000888  -0.001462
    27  C   -0.084921  -0.005069   0.011221   0.000610  -0.000214   0.000018
    28  C    0.011577  -0.000157  -0.001250  -0.000788  -0.000122  -0.000040
    29  H   -0.010571  -0.000274   0.000159  -0.001378  -0.001270   0.000640
    30  C    0.007491   0.000830  -0.000876  -0.000017   0.000008   0.000000
    31  H   -0.001098  -0.000140   0.000865  -0.000042  -0.000005   0.000000
    32  C    0.000513   0.000024   0.000112  -0.000023  -0.000004   0.000000
    33  H   -0.000357   0.000015   0.000057   0.000033   0.000004  -0.000001
    34  H   -0.000354   0.000001   0.000012   0.000000   0.000000   0.000000
    35  H   -0.000014  -0.000002   0.000000   0.000001   0.000000   0.000000
              7          8          9         10         11         12
     1  C    0.001212   0.008356  -0.002091   0.001745  -0.000366  -0.000419
     2  H   -0.000064   0.001483   0.002794   0.000002   0.000012  -0.000033
     3  C   -0.048913  -0.076888  -0.045093  -0.015938   0.005975   0.007078
     4  C    0.386268  -0.029858   0.004774  -0.093739  -0.038438  -0.000629
     5  C    0.004633   0.469777   0.393967  -0.088812  -0.000367  -0.039556
     6  C   -0.026699  -0.076957  -0.000302   0.490235   0.396922   0.006285
     7  H    0.497418  -0.000159  -0.000266   0.004675  -0.003413   0.000017
     8  C   -0.000159   5.045916  -0.033806   0.499258   0.005897   0.396430
     9  H   -0.000266  -0.033806   0.506297   0.005082   0.000025  -0.004087
    10  C    0.004675   0.499258   0.005082   5.033913  -0.039819  -0.041129
    11  H   -0.003413   0.005897   0.000025  -0.039819   0.514532  -0.000207
    12  H    0.000017   0.396430  -0.004087  -0.041129  -0.000207   0.518014
    13  H   -0.000173  -0.042580  -0.000179   0.399441  -0.004359  -0.004559
    14  C   -0.003515  -0.000618   0.000177  -0.000040   0.000023   0.000019
    15  C    0.002557   0.000046  -0.000025   0.000000   0.000033  -0.000001
    16  C   -0.000219  -0.000010   0.000149  -0.000014   0.000002   0.000001
    17  C    0.001180  -0.000001   0.000002   0.000002  -0.000001   0.000000
    18  H    0.002011   0.000006  -0.000003  -0.000013  -0.000036   0.000000
    19  C   -0.000075   0.000002  -0.000002   0.000000   0.000000   0.000000
    20  H    0.000000   0.000008   0.000047  -0.000002   0.000000   0.000000
    21  C    0.000014   0.000000  -0.000001   0.000000   0.000000   0.000000
    22  H   -0.000068   0.000000   0.000000   0.000000   0.000001   0.000000
    23  H    0.000001   0.000000   0.000000   0.000000   0.000000   0.000000
    24  H    0.000000   0.000000   0.000000   0.000000   0.000000   0.000000
    25  C    0.000984  -0.000786   0.000516  -0.000069   0.000014   0.000025
    26  C    0.001277   0.000382   0.000161   0.000102   0.000011  -0.000007
    27  C    0.000051   0.000005   0.000011   0.000000  -0.000001   0.000000
    28  C    0.000052   0.000002   0.000007   0.000004  -0.000002   0.000000
    29  H   -0.000064  -0.000120   0.000062   0.000067   0.000044   0.000009
    30  C   -0.000026   0.000000  -0.000001   0.000000   0.000000   0.000000
    31  H    0.000019   0.000000  -0.000002   0.000000   0.000000   0.000000
    32  C    0.000002   0.000000   0.000000   0.000000   0.000000   0.000000
    33  H   -0.000002   0.000000   0.000000  -0.000001   0.000000   0.000000
    34  H    0.000000   0.000000   0.000000   0.000000   0.000000   0.000000
    35  H    0.000000   0.000000   0.000000   0.000000   0.000000   0.000000
             13         14         15         16         17         18
     1  C   -0.000025   0.156188  -0.053553  -0.024711   0.002887   0.000546
     2  H   -0.000002  -0.071081   0.005756   0.001070  -0.000271   0.000126
     3  C   -0.001667  -0.134918  -0.004280  -0.001490   0.001907  -0.002721
     4  C    0.007991  -0.003551  -0.012725   0.000573  -0.000608  -0.001275
     5  C    0.007551  -0.003810   0.000678   0.000597   0.000030  -0.000196
     6  C   -0.042914   0.001992  -0.000101   0.000048  -0.000102   0.000833
     7  H   -0.000173  -0.003515   0.002557  -0.000219   0.001180   0.002011
     8  C   -0.042580  -0.000618   0.000046  -0.000010  -0.000001   0.000006
     9  H   -0.000179   0.000177  -0.000025   0.000149   0.000002  -0.000003
    10  C    0.399441  -0.000040   0.000000  -0.000014   0.000002  -0.000013
    11  H   -0.004359   0.000023   0.000033   0.000002  -0.000001  -0.000036
    12  H   -0.004559   0.000019  -0.000001   0.000001   0.000000   0.000000
    13  H    0.516921  -0.000003   0.000001   0.000000   0.000000   0.000000
    14  C   -0.000003   5.383405   0.443969   0.493433  -0.058663  -0.045052
    15  C    0.000001   0.443969   5.074526  -0.071817   0.479288   0.389457
    16  C    0.000000   0.493433  -0.071817   5.092203  -0.030584   0.004038
    17  C    0.000000  -0.058663   0.479288  -0.030584   5.038915  -0.028204
    18  H    0.000000  -0.045052   0.389457   0.004038  -0.028204   0.495945
    19  C    0.000000  -0.072729  -0.026924   0.453394  -0.078253  -0.000014
    20  H    0.000000  -0.050769   0.004325   0.400517  -0.000285  -0.000270
    21  C    0.000000  -0.018824  -0.090921  -0.086023   0.491347   0.004552
    22  H    0.000000   0.006035  -0.039011  -0.000484   0.397206  -0.003353
    23  H    0.000000   0.006947  -0.000678  -0.039740   0.006233   0.000016
    24  H    0.000000  -0.001543   0.007883   0.007482  -0.042924  -0.000170
    25  C    0.000002  -0.104302  -0.009277  -0.001919  -0.000612   0.000956
    26  C   -0.000003  -0.001794   0.001670  -0.000436   0.000027   0.000232
    27  C    0.000000  -0.005059  -0.006619   0.000849  -0.000320  -0.000043
    28  C    0.000000  -0.000727   0.000043   0.000008   0.000006  -0.000028
    29  H    0.000008   0.000349   0.000108  -0.000020  -0.000001   0.000003
    30  C    0.000000  -0.001366  -0.000108  -0.000045  -0.000002  -0.000014
    31  H    0.000000   0.003534  -0.000444   0.002004  -0.000190  -0.000084
    32  C    0.000000   0.000120   0.000041  -0.000002   0.000003  -0.000049
    33  H    0.000000   0.000011   0.000000   0.000000   0.000000   0.000002
    34  H    0.000000   0.000012   0.000014  -0.000005   0.000002   0.000005
    35  H    0.000000   0.000002   0.000000   0.000000   0.000000   0.000001
             19         20         21         22         23         24
     1  C    0.006875   0.000034   0.001257  -0.000342  -0.000341  -0.000011
     2  H    0.001603   0.002260  -0.000003   0.000011  -0.000039  -0.000001
     3  C   -0.000511   0.000410  -0.000085   0.000025   0.000025  -0.000003
     4  C    0.000140  -0.000005  -0.000019   0.000055   0.000000   0.000000
     5  C   -0.000017   0.000256  -0.000007   0.000000   0.000001   0.000000
     6  C    0.000001  -0.000001   0.000001   0.000002   0.000000   0.000000
     7  H   -0.000075   0.000000   0.000014  -0.000068   0.000001   0.000000
     8  C    0.000002   0.000008   0.000000   0.000000   0.000000   0.000000
     9  H   -0.000002   0.000047  -0.000001   0.000000   0.000000   0.000000
    10  C    0.000000  -0.000002   0.000000   0.000000   0.000000   0.000000
    11  H    0.000000   0.000000   0.000000   0.000001   0.000000   0.000000
    12  H    0.000000   0.000000   0.000000   0.000000   0.000000   0.000000
    13  H    0.000000   0.000000   0.000000   0.000000   0.000000   0.000000
    14  C   -0.072729  -0.050769  -0.018824   0.006035   0.006947  -0.001543
    15  C   -0.026924   0.004325  -0.090921  -0.039011  -0.000678   0.007883
    16  C    0.453394   0.400517  -0.086023  -0.000484  -0.039740   0.007482
    17  C   -0.078253  -0.000285   0.491347   0.397206   0.006233  -0.042924
    18  H   -0.000014  -0.000270   0.004552  -0.003353   0.000016  -0.000170
    19  C    5.060404  -0.035063   0.496965   0.005991   0.397019  -0.042566
    20  H   -0.035063   0.510203   0.005259   0.000024  -0.004216  -0.000185
    21  C    0.496965   0.005259   5.034148  -0.039826  -0.040679   0.399715
    22  H    0.005991   0.000024  -0.039826   0.514951  -0.000206  -0.004484
    23  H    0.397019  -0.004216  -0.040679  -0.000206   0.518156  -0.004588
    24  H   -0.042566  -0.000185   0.399715  -0.004484  -0.004588   0.517440
    25  C   -0.000421   0.000125   0.000069   0.000021   0.000011   0.000000
    26  C    0.000023  -0.000039  -0.000002  -0.000001   0.000000   0.000000
    27  C   -0.000131   0.000312   0.000085   0.000017  -0.000001   0.000000
    28  C    0.000000   0.000000   0.000000   0.000000   0.000000   0.000000
    29  H    0.000000   0.000001   0.000000   0.000000   0.000000   0.000000
    30  C    0.000013  -0.000008   0.000001   0.000002   0.000000   0.000000
    31  H    0.000107   0.000219  -0.000090   0.000004   0.000003   0.000000
    32  C    0.000000   0.000001   0.000000   0.000000   0.000000   0.000000
    33  H    0.000000   0.000000   0.000000   0.000000   0.000000   0.000000
    34  H    0.000000   0.000000   0.000000   0.000000   0.000000   0.000000
    35  H    0.000000   0.000000   0.000000   0.000000   0.000000   0.000000
             25         26         27         28         29         30
     1  C    0.046363  -0.026526  -0.084921   0.011577  -0.010571   0.007491
     2  H   -0.062832   0.001708  -0.005069  -0.000157  -0.000274   0.000830
     3  C   -0.068784  -0.012212   0.011221  -0.001250   0.000159  -0.000876
     4  C    0.006058  -0.016747   0.000610  -0.000788  -0.001378  -0.000017
     5  C   -0.000979   0.000888  -0.000214  -0.000122  -0.001270   0.000008
     6  C    0.000963  -0.001462   0.000018  -0.000040   0.000640   0.000000
     7  H    0.000984   0.001277   0.000051   0.000052  -0.000064  -0.000026
     8  C   -0.000786   0.000382   0.000005   0.000002  -0.000120   0.000000
     9  H    0.000516   0.000161   0.000011   0.000007   0.000062  -0.000001
    10  C   -0.000069   0.000102   0.000000   0.000004   0.000067   0.000000
    11  H    0.000014   0.000011  -0.000001  -0.000002   0.000044   0.000000
    12  H    0.000025  -0.000007   0.000000   0.000000   0.000009   0.000000
    13  H    0.000002  -0.000003   0.000000   0.000000   0.000008   0.000000
    14  C   -0.104302  -0.001794  -0.005059  -0.000727   0.000349  -0.001366
    15  C   -0.009277   0.001670  -0.006619   0.000043   0.000108  -0.000108
    16  C   -0.001919  -0.000436   0.000849   0.000008  -0.000020  -0.000045
    17  C   -0.000612   0.000027  -0.000320   0.000006  -0.000001  -0.000002
    18  H    0.000956   0.000232  -0.000043  -0.000028   0.000003  -0.000014
    19  C   -0.000421   0.000023  -0.000131   0.000000   0.000000   0.000013
    20  H    0.000125  -0.000039   0.000312   0.000000   0.000001  -0.000008
    21  C    0.000069  -0.000002   0.000085   0.000000   0.000000   0.000001
    22  H    0.000021  -0.000001   0.000017   0.000000   0.000000   0.000002
    23  H    0.000011   0.000000  -0.000001   0.000000   0.000000   0.000000
    24  H    0.000000   0.000000   0.000000   0.000000   0.000000   0.000000
    25  C    5.355549   0.504473   0.469564  -0.070292  -0.034663  -0.056954
    26  C    0.504473   5.090140  -0.081275   0.454970   0.393202  -0.029576
    27  C    0.469564  -0.081275   5.116621  -0.033323   0.004880   0.465352
    28  C   -0.070292   0.454970  -0.033323   5.077263  -0.035919  -0.074357
    29  H   -0.034663   0.393202   0.004880  -0.035919   0.476349  -0.000394
    30  C   -0.056954  -0.029576   0.465352  -0.074357  -0.000394   5.058503
    31  H   -0.046931   0.004353   0.398039  -0.000449  -0.000204  -0.035232
    32  C   -0.020167  -0.090956  -0.084965   0.497906   0.004962   0.480091
    33  H    0.006482  -0.036802  -0.000411   0.395521  -0.003452   0.006019
    34  H    0.006187  -0.000458  -0.038701   0.006023   0.000018   0.397273
    35  H   -0.001465   0.007714   0.007431  -0.042084  -0.000170  -0.043317
             31         32         33         34         35
     1  C   -0.001098   0.000513  -0.000357  -0.000354  -0.000014
     2  H   -0.000140   0.000024   0.000015   0.000001  -0.000002
     3  C    0.000865   0.000112   0.000057   0.000012   0.000000
     4  C   -0.000042  -0.000023   0.000033   0.000000   0.000001
     5  C   -0.000005  -0.000004   0.000004   0.000000   0.000000
     6  C    0.000000   0.000000  -0.000001   0.000000   0.000000
     7  H    0.000019   0.000002  -0.000002   0.000000   0.000000
     8  C    0.000000   0.000000   0.000000   0.000000   0.000000
     9  H   -0.000002   0.000000   0.000000   0.000000   0.000000
    10  C    0.000000   0.000000  -0.000001   0.000000   0.000000
    11  H    0.000000   0.000000   0.000000   0.000000   0.000000
    12  H    0.000000   0.000000   0.000000   0.000000   0.000000
    13  H    0.000000   0.000000   0.000000   0.000000   0.000000
    14  C    0.003534   0.000120   0.000011   0.000012   0.000002
    15  C   -0.000444   0.000041   0.000000   0.000014   0.000000
    16  C    0.002004  -0.000002   0.000000  -0.000005   0.000000
    17  C   -0.000190   0.000003   0.000000   0.000002   0.000000
    18  H   -0.000084  -0.000049   0.000002   0.000005   0.000001
    19  C    0.000107   0.000000   0.000000   0.000000   0.000000
    20  H    0.000219   0.000001   0.000000   0.000000   0.000000
    21  C   -0.000090   0.000000   0.000000   0.000000   0.000000
    22  H    0.000004   0.000000   0.000000   0.000000   0.000000
    23  H    0.000003   0.000000   0.000000   0.000000   0.000000
    24  H    0.000000   0.000000   0.000000   0.000000   0.000000
    25  C   -0.046931  -0.020167   0.006482   0.006187  -0.001465
    26  C    0.004353  -0.090956  -0.036802  -0.000458   0.007714
    27  C    0.398039  -0.084965  -0.000411  -0.038701   0.007431
    28  C   -0.000449   0.497906   0.395521   0.006023  -0.042084
    29  H   -0.000204   0.004962  -0.003452   0.000018  -0.000170
    30  C   -0.035232   0.480091   0.006019   0.397273  -0.043317
    31  H    0.493475   0.005250   0.000018  -0.003967  -0.000174
    32  C    0.005250   5.041818  -0.041187  -0.040827   0.399506
    33  H    0.000018  -0.041187   0.517758  -0.000212  -0.004477
    34  H   -0.003967  -0.040827  -0.000212   0.517733  -0.004415
    35  H   -0.000174   0.399506  -0.004477  -0.004415   0.519312
 Mulliken atomic charges:
              1
     1  C   -0.612429
     2  H    0.208930
     3  C    0.067558
     4  C   -0.115049
     5  C   -0.170442
     6  C   -0.178770
     7  H    0.181288
     8  C   -0.165787
     9  H    0.171790
    10  C   -0.154950
    11  H    0.163517
    12  H    0.162747
    13  H    0.164548
    14  C    0.082150
    15  C   -0.093910
    16  C   -0.198851
    17  C   -0.178013
    18  H    0.182796
    19  C   -0.165831
    20  H    0.166841
    21  C   -0.156933
    22  H    0.163429
    23  H    0.162078
    24  H    0.163954
    25  C    0.082091
    26  C   -0.163038
    27  C   -0.134013
    28  C   -0.183844
    29  H    0.207641
    30  C   -0.173289
    31  H    0.181164
    32  C   -0.152167
    33  H    0.160981
    34  H    0.161660
    35  H    0.162152
 Sum of Mulliken atomic charges =   0.00000
 Mulliken charges with hydrogens summed into heavy atoms:
              1
     1  C   -0.403499
     3  C    0.067558
     4  C    0.066239
     5  C    0.001348
     6  C   -0.015253
     8  C   -0.003039
    10  C    0.009598
    14  C    0.082150
    15  C    0.088886
    16  C   -0.032009
    17  C   -0.014584
    19  C   -0.003753
    21  C    0.007021
    25  C    0.082091
    26  C    0.044602
    27  C    0.047151
    28  C   -0.022863
    30  C   -0.011629
    32  C    0.009985
 Sum of Mulliken charges with hydrogens summed into heavy atoms =   0.00000
 Electronic spatial extent (au):  <R**2>=           4932.9104
 Charge=              0.0000 electrons
 Dipole moment (field-independent basis, Debye):
    X=             -0.0911    Y=             -0.1573    Z=             -0.0206  Tot=              0.1829
 Quadrupole moment (field-independent basis, Debye-Ang):
   XX=           -108.0924   YY=           -113.3656   ZZ=           -106.2751
   XY=             -2.6342   XZ=             -1.3043   YZ=              2.5819
 Traceless Quadrupole moment (field-independent basis, Debye-Ang):
   XX=              1.1520   YY=             -4.1212   ZZ=              2.9693
   XY=             -2.6342   XZ=             -1.3043   YZ=              2.5819
 Octapole moment (field-independent basis, Debye-Ang**2):
  XXX=            -29.2098  YYY=              4.3886  ZZZ=              0.4714  XYY=             38.4099
  XXY=              4.7276  XXZ=             -4.4935  XZZ=             -9.5068  YZZ=            -16.4428
  YYZ=             12.9861  XYZ=             -1.2350
 Hexadecapole moment (field-independent basis, Debye-Ang**3):
 XXXX=          -3062.3086 YYYY=          -2897.0118 ZZZZ=           -685.5477 XXXY=             56.4731
 XXXZ=            -20.5846 YYYX=            -58.5764 YYYZ=             79.8030 ZZZX=              6.4640
 ZZZY=             -3.5458 XXYY=          -1019.5015 XXZZ=           -630.4984 YYZZ=           -626.8078
 XXYZ=            -16.8956 YYXZ=             10.3846 ZZXY=            -33.2951
 N-N= 1.290329241576D+03 E-N=-4.276727972598D+03  KE= 7.286025055878D+02
 PrsmSu:  requested number of processors reduced to:  10 ShMem   1 Linda.
 Calling FoFJK, ICntrl=      2127 FMM=F ISym2X=0 I1Cent= 0 IOpClX= 0 NMat=1 NMatS=1 NMatT=0.
 ***** Axes restored to original set *****
 -------------------------------------------------------------------
 Center     Atomic                   Forces (Hartrees/Bohr)
 Number     Number              X              Y              Z
 -------------------------------------------------------------------
      1        6           0.007882966    0.021206931    0.005491359
      2        1          -0.005448255   -0.024983539   -0.001965307
      3        6           0.013297581    0.002769685   -0.000178138
      4        6          -0.009559565   -0.008206631    0.001152115
      5        6          -0.000242674    0.006045034    0.000655729
      6        6          -0.002813150   -0.012071148   -0.002057430
      7        1           0.028465026    0.008395042   -0.003620085
      8        6           0.012973934    0.004274313   -0.000299004
      9        1          -0.001399741   -0.017512416   -0.003126830
     10        6           0.012619965   -0.005084976   -0.001976188
     11        1           0.000767425    0.016423244    0.002833302
     12        1          -0.014575634   -0.008007864   -0.000198403
     13        1          -0.014153238    0.008654510    0.002740268
     14        6          -0.003798355    0.004527612    0.013047545
     15        6          -0.001159700   -0.007312597   -0.008520468
     16        6           0.003127510    0.004942563    0.000175994
     17        6          -0.004582878   -0.011197999   -0.002914514
     18        1          -0.009968632    0.013475169    0.021816247
     19        6          -0.001542647    0.005437115    0.012408104
     20        1          -0.008181260   -0.015449487   -0.001487388
     21        6          -0.006178897   -0.002762835    0.012017997
     22        1           0.007949550    0.014688969    0.000845151
     23        1           0.000128224   -0.009079369   -0.013917472
     24        1           0.008383718    0.005703445   -0.013415415
     25        6          -0.006887431    0.001981066   -0.013160922
     26        6           0.010681100   -0.006074605   -0.001506716
     27        6          -0.003919370    0.004243479    0.005691223
     28        6          -0.000462815   -0.003802105   -0.012299637
     29        1          -0.018385237    0.012595002    0.000776749
     30        6          -0.009835526    0.007352272    0.003806214
     31        1           0.003307006   -0.007093892   -0.016492183
     32        6          -0.006837243    0.000310762   -0.012077085
     33        1          -0.003845560    0.006726086    0.014737234
     34        1           0.013961127   -0.008828261   -0.001901439
     35        1           0.010232675   -0.002284575    0.012919392
 -------------------------------------------------------------------
 Cartesian Forces:  Max     0.028465026 RMS     0.009559156

 GradGradGradGradGradGradGradGradGradGradGradGradGradGradGradGradGradGrad
 Berny optimization.
 Internal  Forces:  Max     0.029090238 RMS     0.007791251
 Search for a local minimum.
 Step number   1 out of a maximum of  197
 All quantities printed in internal units (Hartrees-Bohrs-Radians)
 Mixed Optimization -- RFO/linear search
 Second derivative matrix not updated -- first step.
     Eigenvalues ---    0.00635   0.00646   0.00659   0.01533   0.01537
     Eigenvalues ---    0.01538   0.02136   0.02142   0.02147   0.02171
     Eigenvalues ---    0.02172   0.02173   0.02182   0.02185   0.02185
     Eigenvalues ---    0.02202   0.02202   0.02203   0.02211   0.02212
     Eigenvalues ---    0.02214   0.02214   0.02215   0.02216   0.02216
     Eigenvalues ---    0.02218   0.02220   0.02220   0.02221   0.02228
     Eigenvalues ---    0.04547   0.06376   0.06657   0.15997   0.15999
     Eigenvalues ---    0.16000   0.16000   0.16000   0.16000   0.16000
     Eigenvalues ---    0.16000   0.16000   0.16000   0.16000   0.16000
     Eigenvalues ---    0.16000   0.16000   0.16000   0.18864   0.19362
     Eigenvalues ---    0.22000   0.22000   0.22000   0.22000   0.22000
     Eigenvalues ---    0.22000   0.23470   0.23477   0.23478   0.24980
     Eigenvalues ---    0.24999   0.25000   0.31241   0.31358   0.31447
     Eigenvalues ---    0.31544   0.33498   0.33616   0.33958   0.34071
     Eigenvalues ---    0.34073   0.34092   0.34259   0.34261   0.34265
     Eigenvalues ---    0.34266   0.34267   0.34268   0.34279   0.34279
     Eigenvalues ---    0.34290   0.42372   0.42466   0.42489   0.42563
     Eigenvalues ---    0.42578   0.42639   0.46307   0.46390   0.46442
     Eigenvalues ---    0.46742   0.46758   0.46838   0.47208   0.47211
     Eigenvalues ---    0.47232   0.47343   0.47349   0.474801000.00000
     Eigenvalues --- 1000.000001000.000001000.000001000.000001000.00000
     Eigenvalues --- 1000.000001000.000001000.000001000.000001000.00000
     Eigenvalues --- 1000.000001000.000001000.000001000.000001000.00000
     Eigenvalues --- 1000.000001000.000001000.000001000.000001000.00000
     Eigenvalues --- 1000.000001000.000001000.000001000.000001000.00000
     Eigenvalues --- 1000.000001000.000001000.000001000.000001000.00000
     Eigenvalues --- 1000.000001000.000001000.000001000.000001000.00000
     Eigenvalues --- 1000.000001000.000001000.000001000.000001000.00000
     Eigenvalues --- 1000.000001000.000001000.000001000.000001000.00000
     Eigenvalues --- 1000.000001000.000001000.000001000.000001000.00000
     Eigenvalues --- 1000.000001000.000001000.000001000.000001000.00000
     Eigenvalues --- 1000.000001000.000001000.000001000.000001000.00000
     Eigenvalues --- 1000.000001000.000001000.000001000.000001000.00000
     Eigenvalues --- 1000.000001000.000001000.000001000.000001000.00000
     Eigenvalues --- 1000.000001000.000001000.000001000.000001000.00000
     Eigenvalues --- 1000.000001000.000001000.000001000.000001000.00000
     Eigenvalues --- 1000.000001000.000001000.000001000.000001000.00000
     Eigenvalues --- 1000.000001000.00000
 RFO step:  Lambda=-4.20111583D-02 EMin= 6.34652728D-03
 Linear search not attempted -- first point.
 Maximum step size (   0.300) exceeded in Quadratic search.
    -- Step size scaled by   0.588
 Iteration  1 RMS(Cart)=  0.12541144 RMS(Int)=  0.00300394
 Iteration  2 RMS(Cart)=  0.00606685 RMS(Int)=  0.00028131
 Iteration  3 RMS(Cart)=  0.00001052 RMS(Int)=  0.00028124
 Iteration  4 RMS(Cart)=  0.00000000 RMS(Int)=  0.00028124
 Variable       Old X    -DE/DX   Delta X   Delta X   Delta X     New X
                                 (Linear)    (Quad)   (Total)
    R1        2.12255  -0.02533   0.00000  -0.04202  -0.04202   2.08053
    R2        2.84986   0.02404   0.00000   0.03954   0.03954   2.88940
    R3        2.85335   0.02269   0.00000   0.03752   0.03752   2.89086
    R4        2.85167   0.02314   0.00000   0.03818   0.03818   2.88985
    R5        2.63955   0.00082   0.00000   0.00111   0.00113   2.64068
    R6        2.63960  -0.00403   0.00000  -0.00465  -0.00463   2.63497
    R7        2.62563  -0.00419   0.00000  -0.00469  -0.00469   2.62094
    R8        2.08186  -0.02909   0.00000  -0.04538  -0.04538   2.03648
    R9        2.62756  -0.00250   0.00000  -0.00295  -0.00294   2.62462
   R10        2.07207  -0.01784   0.00000  -0.02740  -0.02740   2.04467
   R11        2.62820  -0.00564   0.00000  -0.00652  -0.00654   2.62166
   R12        2.06880  -0.01668   0.00000  -0.02550  -0.02550   2.04330
   R13        2.62728  -0.00912   0.00000  -0.01057  -0.01059   2.61669
   R14        2.06882  -0.01663   0.00000  -0.02542  -0.02542   2.04340
   R15        2.06862  -0.01681   0.00000  -0.02569  -0.02569   2.04292
   R16        2.63865  -0.00009   0.00000   0.00000   0.00002   2.63867
   R17        2.63882  -0.00423   0.00000  -0.00488  -0.00487   2.63396
   R18        2.62559  -0.00465   0.00000  -0.00525  -0.00524   2.62035
   R19        2.07983  -0.02606   0.00000  -0.04053  -0.04053   2.03930
   R20        2.62779  -0.00234   0.00000  -0.00273  -0.00274   2.62506
   R21        2.07175  -0.01753   0.00000  -0.02692  -0.02692   2.04482
   R22        2.62848  -0.00524   0.00000  -0.00605  -0.00607   2.62242
   R23        2.06883  -0.01672   0.00000  -0.02556  -0.02556   2.04327
   R24        2.62754  -0.00868   0.00000  -0.01002  -0.01004   2.61750
   R25        2.06895  -0.01662   0.00000  -0.02541  -0.02541   2.04355
   R26        2.06861  -0.01682   0.00000  -0.02570  -0.02570   2.04291
   R27        2.63406  -0.00244   0.00000  -0.00269  -0.00269   2.63137
   R28        2.64476  -0.00236   0.00000  -0.00275  -0.00275   2.64201
   R29        2.62955  -0.00101   0.00000  -0.00107  -0.00107   2.62848
   R30        2.07402  -0.02221   0.00000  -0.03423  -0.03423   2.03979
   R31        2.62329  -0.00507   0.00000  -0.00584  -0.00584   2.61745
   R32        2.07211  -0.01824   0.00000  -0.02802  -0.02802   2.04409
   R33        2.62508  -0.00763   0.00000  -0.00871  -0.00872   2.61636
   R34        2.06892  -0.01665   0.00000  -0.02546  -0.02546   2.04347
   R35        2.62991  -0.00468   0.00000  -0.00550  -0.00550   2.62441
   R36        2.06885  -0.01663   0.00000  -0.02542  -0.02542   2.04343
   R37        2.06843  -0.01664   0.00000  -0.02542  -0.02542   2.04301
    A1        1.87280  -0.01011   0.00000  -0.05109  -0.05016   1.82264
    A2        1.88202  -0.00807   0.00000  -0.04577  -0.04498   1.83704
    A3        1.83168   0.00328   0.00000  -0.00240  -0.00216   1.82951
    A4        1.93472   0.01530   0.00000   0.05418   0.05303   1.98776
    A5        1.99613   0.00167   0.00000   0.02333   0.02147   2.01761
    A6        1.93892  -0.00395   0.00000   0.01027   0.00806   1.94699
    A7        2.12741   0.02348   0.00000   0.04732   0.04730   2.17471
    A8        2.07732  -0.01145   0.00000  -0.02303  -0.02305   2.05427
    A9        2.07843  -0.01203   0.00000  -0.02427  -0.02423   2.05420
   A10        2.10255   0.00456   0.00000   0.01025   0.01024   2.11279
   A11        2.07866   0.00444   0.00000   0.01446   0.01444   2.09311
   A12        2.10190  -0.00898   0.00000  -0.02459  -0.02461   2.07728
   A13        2.10054   0.00828   0.00000   0.01806   0.01808   2.11862
   A14        2.09416  -0.00473   0.00000  -0.01074  -0.01076   2.08341
   A15        2.08849  -0.00355   0.00000  -0.00732  -0.00733   2.08116
   A16        2.09649   0.00242   0.00000   0.00502   0.00499   2.10148
   A17        2.09134  -0.00113   0.00000  -0.00229  -0.00228   2.08906
   A18        2.09535  -0.00129   0.00000  -0.00273  -0.00271   2.09264
   A19        2.09785  -0.00020   0.00000  -0.00139  -0.00140   2.09645
   A20        2.09104   0.00027   0.00000   0.00118   0.00119   2.09223
   A21        2.09429  -0.00007   0.00000   0.00021   0.00021   2.09450
   A22        2.09052  -0.00302   0.00000  -0.00767  -0.00770   2.08282
   A23        2.09619   0.00155   0.00000   0.00394   0.00396   2.10015
   A24        2.09648   0.00147   0.00000   0.00373   0.00374   2.10022
   A25        2.11827   0.01772   0.00000   0.03570   0.03563   2.15390
   A26        2.08409  -0.00720   0.00000  -0.01449  -0.01455   2.06954
   A27        2.08082  -0.01053   0.00000  -0.02130  -0.02130   2.05952
   A28        2.10162   0.00410   0.00000   0.00918   0.00912   2.11074
   A29        2.07785   0.00363   0.00000   0.01210   0.01199   2.08984
   A30        2.10353  -0.00768   0.00000  -0.02083  -0.02095   2.08259
   A31        2.09893   0.00724   0.00000   0.01587   0.01587   2.11480
   A32        2.09506  -0.00428   0.00000  -0.00986  -0.00987   2.08519
   A33        2.08920  -0.00296   0.00000  -0.00602  -0.00603   2.08317
   A34        2.09593   0.00221   0.00000   0.00454   0.00454   2.10047
   A35        2.09180  -0.00101   0.00000  -0.00200  -0.00201   2.08979
   A36        2.09545  -0.00120   0.00000  -0.00253  -0.00254   2.09291
   A37        2.09784  -0.00028   0.00000  -0.00133  -0.00135   2.09649
   A38        2.09108   0.00035   0.00000   0.00127   0.00128   2.09236
   A39        2.09426  -0.00007   0.00000   0.00005   0.00006   2.09433
   A40        2.09121  -0.00274   0.00000  -0.00688  -0.00691   2.08430
   A41        2.09592   0.00140   0.00000   0.00353   0.00353   2.09945
   A42        2.09606   0.00134   0.00000   0.00336   0.00337   2.09943
   A43        2.14337   0.00820   0.00000   0.01649   0.01648   2.15984
   A44        2.06229  -0.00036   0.00000  -0.00076  -0.00077   2.06152
   A45        2.07687  -0.00786   0.00000  -0.01588  -0.01586   2.06100
   A46        2.10110   0.00338   0.00000   0.00771   0.00771   2.10881
   A47        2.09362   0.00000   0.00000   0.00106   0.00106   2.09467
   A48        2.08847  -0.00338   0.00000  -0.00877  -0.00878   2.07969
   A49        2.10356   0.00487   0.00000   0.01052   0.01052   2.11408
   A50        2.08438  -0.00158   0.00000  -0.00278  -0.00278   2.08159
   A51        2.09524  -0.00329   0.00000  -0.00774  -0.00775   2.08749
   A52        2.09947   0.00114   0.00000   0.00238   0.00237   2.10184
   A53        2.08863  -0.00049   0.00000  -0.00095  -0.00095   2.08768
   A54        2.09509  -0.00065   0.00000  -0.00143  -0.00142   2.09367
   A55        2.09631   0.00073   0.00000   0.00093   0.00093   2.09723
   A56        2.09219  -0.00036   0.00000  -0.00046  -0.00045   2.09174
   A57        2.09468  -0.00037   0.00000  -0.00047  -0.00047   2.09421
[...]
 -0.00039174,-0.00001000,0.00015989,0.00001527,-0.00002777,0.00003091,0
 .00036877,-0.00041075,-0.00009229,-0.00000614,0.00007349,0.00008386,0.
 00014350,0.00040978,-0.00011728,-0.00000413,0.00001671,0.00001442,-0.0
 0001329,-0.00001615,-0.00000258,-0.00001503,0.00000851,0.00000067,0.00
 151366,-0.00085030,0.00033125,0.00008672,-0.00035908,0.00022633,0.0001
 6621,-0.00027603,-0.00036955,0.00005868,0.00003636,-0.00057442,-0.0003
 3234,0.00005545,0.00005325,-0.00041174,-0.00015427,0.00019482,0.000034
 56,-0.00002032,-0.00000309,0.00023793,0.00020848,0.00032703,0.00001395
 ,-0.00004542,-0.00000086,-0.00003867,0.00003575,0.00002049,-0.00000581
 ,-0.00000245,-0.00000357,-0.05453986,0.08972846,0.04264384,-0.02757237
 ,-0.02668774,-0.09257148,-0.09002954,-0.02743171,-0.28794115,0.0752438
 1,-0.06252500,0.05229586,-0.00013118,-0.00024431,-0.00118161,0.1620092
 7,0.12733430,0.65128767,-0.00075136,-0.00094134,0.00277409,-0.00059576
 ,-0.00076481,-0.00075502,-0.00017076,-0.00023224,-0.00012794,0.0000886
 0,-0.00006590,-0.00008380,0.00001868,0.00012196,-0.00002873,0.00001496
 ,-0.00003515,0.00003824,-0.00000904,-0.00001505,0.00000714,-0.00000412
 ,-0.00003782,0.00001034,-0.00003531,-0.00002330,0.00003209,0.00001553,
 -0.00000257,-0.00000754,0.00001334,-0.00001305,0.00000755,0.00000183,0
 .00000439,-0.00000011,0.00000700,-0.00000856,0.00000024,0.00038257,0.0
 0006091,0.00002525,-0.00003760,0.00011335,0.00009816,-0.00010456,0.000
 03917,0.00016730,-0.00010216,-0.00000881,0.00007273,0.00001567,-0.0000
 8647,-0.00008184,0.00006833,0.00002890,-0.00003845,-0.00003404,-0.0000
 0822,-0.00004737,-0.00007733,-0.00004543,-0.00001011,-0.00001183,-0.00
 002797,0.00001056,-0.00000021,-0.00001046,0.00001228,-0.00000060,-0.00
 001628,0.00000202,0.00295100,0.01560852,0.01834741,0.00104849,0.006804
 77,-0.00261222,-0.06288304,0.02557369,0.01311405,-0.00106583,-0.000047
 14,-0.00023978,-0.00001026,0.00061750,0.00096862,0.00713665,-0.0139892
 1,-0.01819487,0.05443936,-0.00264902,-0.00092053,0.00048598,0.00070860
 ,0.00015944,0.00036660,0.00010732,0.00039763,-0.00017264,-0.00016703,0
 .00008481,0.00007624,-0.00003381,0.00007936,0.00005522,-0.00002421,0.0
 0005394,0.00000882,-0.00000346,-0.00002968,-0.00002987,-0.00001374,-0.
 00002732,0.00002445,0.00000562,-0.00002616,-0.00003724,-0.00001624,0.0
 0001441,-0.00000199,-0.00001707,0.00000868,-0.00000248,-0.00001932,-0.
 00000004,-0.00000174,-0.00000714,0.00000008,-0.00000413,0.00026003,0.0
 0009374,0.00046869,-0.00022471,0.00001390,-0.00017561,-0.00013769,0.00
 001826,0.00036965,-0.00012058,-0.00002549,0.00015181,0.00012496,-0.000
 03649,-0.00010845,0.00009175,0.00008958,0.00008321,0.00003074,-0.00003
 364,-0.00000137,-0.00002605,-0.00005084,-0.00006614,0.00002720,0.00000
 095,-0.00000275,-0.00000456,-0.00001447,-0.00001394,0.00001534,0.00000
 430,-0.00001550,0.00014655,-0.01115862,-0.02420230,0.00691858,-0.00051
 141,-0.00031624,0.02592314,-0.18061996,-0.14851937,0.00000202,-0.00023
 819,0.00109374,-0.00002600,-0.00078599,-0.00111700,0.00192461,0.007895
 29,0.00681532,-0.03336865,0.18302517,0.00031562,0.00151905,-0.00048327
 ,0.00016646,0.00056974,0.00081721,0.00015926,0.00017542,0.00019521,-0.
 00002640,0.00004666,0.00005558,0.00004010,-0.00014242,0.00003456,0.000
 00165,0.00004349,-0.00003386,-0.00000140,0.00000401,-0.00000664,-0.000
 02117,0.00001591,-0.00000882,0.00001624,0.00001746,-0.00001050,0.00002
 137,-0.00001586,0.00000426,-0.00000306,-0.00000484,-0.00000727,0.00001
 312,-0.00000071,-0.00000776,0.00000338,0.00000109,-0.00000237,0.000034
 84,0.00018435,0.00004158,-0.00006708,-0.00002839,-0.00006100,0.0000022
 6,-0.00004583,-0.00000183,0.00001350,0.00002171,0.00004686,0.00002636,
 -0.00001930,0.00001735,0.00000460,0.00002556,-0.00002584,0.00000313,-0
 .00000520,-0.00000430,-0.00002595,-0.00000370,0.00000436,0.00000109,-0
 .00000881,-0.00000481,0.00000052,-0.00000076,0.00001087,-0.00000017,-0
 .00000714,0.00000878,-0.00288234,0.00284957,0.00448100,-0.00248631,-0.
 00081009,0.00243183,0.01299223,-0.14948302,-0.24567805,-0.00019169,0.0
 0097812,0.00014897,-0.00003584,0.00017114,0.00004624,0.00560903,-0.021
 18668,-0.01622434,-0.00964222,0.16386181,0.25687446,-0.00015746,-0.000
 27111,0.00123474,-0.00030450,-0.00036381,-0.00024628,0.00026959,0.0001
 8584,-0.00021851,0.00007246,-0.00018891,-0.00006034,-0.00024976,0.0000
 7254,-0.00006095,-0.00016484,-0.00002848,0.00007619,0.00000626,-0.0000
 2559,0.00001389,0.00016703,-0.00016226,-0.00002125,0.00000632,0.000026
 25,0.00001651,0.00002309,0.00020820,-0.00003717,-0.00001234,0.00002008
 ,0.00000096,-0.00001984,-0.00001142,-0.00000128,-0.00001635,0.00000511
 ,-0.00000134,0.00022654,-0.00034912,0.00028246,0.00007530,-0.00007304,
 -0.00011119,0.00019163,0.00004607,-0.00018421,-0.00002787,-0.00000581,
 -0.00022569,-0.00028507,-0.00008238,-0.00017749,-0.00013244,-0.0000777
 7,0.00002336,0.00000058,-0.00000457,0.00001522,0.00011114,0.00009065,0
 .00005421,0.00003218,0.00002991,-0.00003225,-0.00000537,0.00002300,-0.
 00001469,0.00000432,0.00000074,-0.00001700,-0.02367437,0.03485915,0.02
 206670,-0.02943088,0.01026777,-0.05352769,0.04010572,-0.03470593,0.000
 78031,-0.21081389,0.15243720,-0.00175238,0.00305490,0.00326436,-0.0054
 1376,-0.12412094,0.02395255,-0.03699478,0.00223692,0.00408112,-0.00599
 926,0.49226777,-0.00017639,-0.00052475,-0.00198218,0.00014656,0.000977
 97,0.00004645,-0.00041679,-0.00043097,0.00005078,-0.00030493,0.0003444
 7,0.00012542,0.00040169,-0.00008435,0.00020987,0.00033294,0.00002506,-
 0.00014949,-0.00001348,0.00001702,-0.00001476,-0.00030821,0.00031390,0
 .00008674,-0.00002681,-0.00006779,-0.00005943,-0.00010592,-0.00034337,
 0.00009194,0.00000329,-0.00001386,-0.00000636,0.00001901,0.00001576,-0
 .00000083,0.00001394,-0.00001125,-0.00000010,-0.00076390,0.00071911,-0
 .00017724,-0.00016333,0.00025553,-0.00023028,-0.00025173,0.00013875,0.
 00042981,-0.00003906,-0.00003967,0.00047992,0.00029876,0.00003218,0.00
 003159,0.00034001,0.00017223,-0.00008819,-0.00000138,0.00000437,-0.000
 00303,-0.00019645,-0.00017369,-0.00026531,-0.00001037,0.00003433,0.000
 00246,0.00002764,-0.00003615,-0.00000308,0.00000389,-0.00000056,0.0000
 0599,0.03540904,-0.07536311,-0.03532361,0.03904185,0.02275986,0.086959
 14,-0.06434274,0.05345506,-0.04708414,0.11730053,-0.25480748,-0.043673
 00,0.00300387,0.00434245,-0.00170568,0.05969204,-0.21317755,-0.0827391
 7,0.00443025,0.00380026,0.00006176,-0.24238113,0.54867958,0.00105198,-
 0.00022585,-0.00152096,-0.00004169,0.00070778,-0.00001300,-0.00011964,
 -0.00033002,-0.00015327,-0.00022505,0.00005302,0.00006139,0.00016178,0
 .00006886,0.00007012,0.00014929,-0.00001845,-0.00006052,-0.00000221,0.
 00000274,-0.00001598,-0.00009677,0.00015890,0.00006064,0.00004408,-0.0
 0002860,-0.00006232,-0.00010321,-0.00009773,0.00006924,-0.00001822,0.0
 0001369,-0.00000943,-0.00004073,-0.00000149,-0.00000738,-0.00001250,0.
 00000242,-0.00000471,-0.00121041,0.00036194,-0.00007957,-0.00007136,0.
 00002148,-0.00031057,0.00005286,0.00028623,0.00007671,0.00001971,0.000
 02308,0.00027819,0.00011706,0.00001029,-0.00000221,0.00018049,0.000027
 14,-0.00007067,-0.00001855,0.00000495,0.00002922,-0.00007400,-0.000064
 90,-0.00018860,0.00001836,0.00005170,-0.00002551,0.00003290,-0.0000095
 5,-0.00003796,0.00001344,0.00000679,-0.00000029,0.02232139,-0.03718963
 ,-0.02026021,-0.01230873,0.03757644,0.04283640,-0.04046086,0.00189319,
 -0.05730489,-0.05424514,0.02014536,-0.15164381,-0.00546406,-0.00134424
 ,-0.00317116,0.01508100,-0.14645676,-0.27090471,-0.00566210,-0.0005526
 9,-0.00166738,0.20923640,0.11654211,0.71787905,0.00031909,-0.00077868,
 -0.00034289,-0.00009904,-0.00005684,-0.00016755,0.00009832,-0.00002715
 ,0.00002194,0.00003223,-0.00000532,0.00001580,-0.00004962,0.00002441,0
 .00000665,-0.00003198,0.00001172,0.00002433,0.00000303,-0.00000797,-0.
 00000816,0.00001913,-0.00001857,0.00001840,0.00000413,-0.00000940,-0.0
 0001797,-0.00002599,0.00004357,0.00001428,-0.00000672,0.00000204,-0.00
 000826,-0.00001854,-0.00000633,-0.00000690,-0.00000788,0.00000116,-0.0
 0000842,-0.00010828,0.00001714,-0.00005319,0.00003135,0.00001585,0.000
 03552,-0.00000035,0.00002701,-0.00003031,0.00000696,-0.00000056,-0.000
 00093,0.00000942,0.00001287,-0.00000831,0.00001315,-0.00000464,-0.0000
 1329,-0.00000494,0.00000332,0.00000500,-0.00000352,-0.00000209,-0.0000
 0979,-0.00000181,-0.00000221,0.00000574,0.00000213,-0.00000242,-0.0000
 0756,-0.00000002,0.00000319,-0.00000263,0.00198612,0.00415529,-0.00586
 684,0.00706838,-0.01381274,-0.01763295,-0.00121061,0.00007808,-0.00027
 324,-0.06331746,0.02653355,0.01348959,-0.00176266,-0.00242352,0.002177
 05,0.00154070,0.00695967,-0.00295407,-0.00057685,-0.00056056,0.0003832
 5,0.00401617,0.01542280,0.02004318,0.05406846,0.00012727,0.00002696,0.
 00037093,0.00003734,-0.00002452,0.00004773,-0.00002994,0.00002666,-0.0
 0009072,0.00000356,-0.00004949,-0.00001441,-0.00004420,0.00002737,-0.0
 0001496,-0.00002415,-0.00000978,0.00001644,0.00000224,-0.00000892,0.00
 001088,0.00003412,-0.00001353,0.00000915,0.00001393,-0.00000654,-0.000
 01087,-0.00000416,0.00003815,0.00000169,-0.00000203,0.00000396,0.00000
 072,-0.00002056,-0.00000922,-0.00000370,-0.00001031,0.00000472,-0.0000
 0313,-0.00005589,0.00004984,-0.00002538,0.00003332,0.00001396,0.000022
 09,0.00000102,0.00002156,0.00000621,-0.00002034,-0.00001389,-0.0000017
 6,-0.00001295,-0.00001555,-0.00000585,0.00001203,0.00000107,-0.0000079
 4,-0.00000633,-0.00000493,0.00000101,-0.00000599,-0.00000350,-0.000011
 95,0.00000365,-0.00000027,0.00000346,0.00000066,-0.00000301,-0.0000093
 2,0.00000240,0.00000260,-0.00000855,0.00388493,0.00362758,-0.00045879,
 0.00185283,0.00796432,0.00691999,-0.00004563,-0.00018135,0.00104620,0.
 02630450,-0.18235414,-0.15088642,-0.00277163,-0.00096083,0.00104814,0.
 00719129,-0.00013589,-0.00058873,-0.00056257,-0.00045205,0.00020283,-0
 .00017616,-0.01030310,-0.02393803,-0.03336702,0.18444647,0.00047144,-0
 .00094300,-0.00049480,-0.00019120,0.00003515,-0.00036128,0.00029252,-0
 .00009325,-0.00002577,-0.00008739,0.00002859,0.00004966,-0.00004171,0.
 00001080,0.00003478,0.00001492,0.00000961,0.00001410,0.00001028,-0.000
 01280,-0.00002165,0.00000973,0.00001740,0.00000335,0.00002318,0.000019
 66,-0.00001329,-0.00004778,0.00002355,0.00002884,-0.00002102,0.0000224
 7,-0.00001578,-0.00001912,-0.00000571,-0.00000043,-0.00001851,0.000005
 53,-0.00000578,-0.00026748,-0.00012019,0.00001665,0.00001142,0.0000682
 8,-0.00009974,0.00009419,0.00008833,-0.00008910,-0.00002245,-0.0000087
 8,0.00000573,-0.00002104,-0.00007408,0.00000725,0.00000443,-0.00000350
 ,-0.00001314,0.00001106,0.00000310,0.00002462,0.00001306,0.00001073,-0
 .00002861,0.00002739,0.00001570,-0.00001644,0.00000538,0.00000372,-0.0
 0001998,0.00000856,0.00000326,-0.00001231,-0.00581252,0.00010178,-0.00
 162090,0.00546675,-0.02115370,-0.01603174,-0.00028048,0.00109581,0.000
 16514,0.01342099,-0.15095864,-0.24805531,0.00136775,0.00191749,0.00028
 489,-0.00269220,-0.00098763,0.00266985,0.00039522,0.00019113,-0.000257
 63,-0.00320797,0.00421219,0.00611771,-0.01105380,0.16542677,0.25752728
 ,-0.00046952,0.00069691,0.00043108,-0.00002587,-0.00005393,-0.00004759
 ,0.00003985,-0.00012707,-0.00024278,-0.00009970,0.00001596,0.00003169,
 -0.00001571,0.00007806,-0.00000191,0.00003575,-0.00000753,0.00000644,0
 .00000380,-0.00000607,0.00000281,-0.00000714,0.00003146,0.00000483,0.0
 0001384,-0.00000322,-0.00000939,-0.00003341,-0.00001816,0.00001392,-0.
 00000834,0.00001222,-0.00000130,-0.00002133,-0.00000073,0.00000977,-0.
 00001165,0.00000436,0.00000104,-0.00011323,-0.00007359,0.00009146,0.00
 003944,0.00002581,-0.00000310,0.00006824,0.00001237,-0.00005875,-0.000
 01377,-0.00000028,-0.00000546,-0.00001907,-0.00003457,-0.00000130,-0.0
 0000130,-0.00000935,-0.00001589,-0.00001080,0.00000197,0.00000909,0.00
 000626,-0.00000008,-0.00001339,0.00000641,0.00000624,-0.00000057,-0.00
 000335,0.00000585,-0.00001866,0.00000481,0.00000481,-0.00001120,0.0033
 3789,0.00311406,-0.00573191,-0.00019997,-0.00100011,-0.00017045,-0.006
 97612,0.01716537,0.00259256,0.00523114,0.00293212,-0.00183271,-0.00065
 855,-0.00046654,0.00038817,-0.18471271,0.15710517,-0.01268064,-0.00199
 095,-0.00293290,0.00140368,0.00358337,0.00013922,-0.00315495,-0.000103
 54,-0.00000717,-0.00003988,0.18498127,-0.00005613,-0.00015631,-0.00019
 280,0.00000046,-0.00002367,0.00000627,-0.00002268,-0.00006457,0.000176
 34,0.00003344,0.00003100,0.00000290,0.00005536,-0.00000019,0.00001106,
 0.00002796,0.00000937,-0.00001650,-0.00000383,0.00000167,-0.00000380,-
 0.00004648,0.00001561,0.00000933,-0.00001565,-0.00001212,-0.00000736,0
 .00000007,-0.00004025,0.00001199,0.00000445,-0.00001231,-0.00000435,0.
 00000654,0.00000439,-0.00000502,0.00000811,-0.00000563,-0.00000292,0.0
 0016659,0.00000762,0.00003261,-0.00004777,-0.00002326,0.00002753,-0.00
 003321,-0.00005631,0.00001876,0.00000962,0.00003650,0.00000247,0.00005
 015,0.00000400,-0.00002113,-0.00001982,0.00000391,0.00001076,0.0000022
 6,-0.00000532,-0.00001216,-0.00001385,0.00000034,0.00003828,-0.0000078
 5,-0.00002909,0.00000539,-0.00000118,-0.00000286,0.00001362,-0.0000001
 1,-0.00000951,0.00001285,0.00313658,0.00435514,-0.00136800,-0.00103585
 ,0.00023653,-0.00011711,0.00136721,0.00140826,-0.00381143,0.00271914,0
 .00144150,-0.00566803,-0.00044612,-0.00049921,0.00031059,0.15724131,-0
 .23993631,0.00123101,-0.00240163,-0.00092112,0.00192319,0.01584463,-0.
 01053208,0.00491842,0.00068562,-0.00079377,0.00014774,-0.17444582,0.24
 638933,-0.00073219,0.00102313,0.00032168,0.00003142,-0.00005396,0.0000
 7632,-0.00003539,0.00003088,-0.00041012,-0.00005213,0.00001035,0.00003
 142,-0.00006240,0.00001283,0.00001470,-0.00001726,0.00000704,0.0000373
 6,-0.00000066,-0.00000055,-0.00001904,0.00003504,-0.00000905,0.0000118
 1,0.00000415,-0.00000444,-0.00000553,-0.00002093,0.00003992,-0.0000058
 3,-0.00000889,0.00001078,-0.00000022,-0.00000840,-0.00000282,0.0000018
 0,-0.00000618,0.00000170,-0.00000239,-0.00012148,-0.00004331,0.0000562
 4,0.00003722,0.00000527,-0.00002929,0.00003783,0.00001967,-0.00005583,
 0.00001301,-0.00000551,-0.00001415,-0.00002973,0.00000582,0.00000044,0
 .00000209,-0.00001736,-0.00000633,-0.00000605,0.00001040,0.00001014,0.
 00002408,0.00000844,-0.00001805,0.00000467,0.00001678,-0.00000552,-0.0
 0000147,0.00000704,-0.00000892,-0.00000160,0.00000701,-0.00000452,-0.0
 0522327,-0.00175232,-0.00310159,-0.00005244,-0.00016585,-0.00123798,-0
 .02052719,0.02453704,0.00477780,-0.00219324,-0.00528806,-0.00294839,0.
 00034490,0.00035599,-0.00010483,-0.01257979,0.00104829,-0.06934330,0.0
 0220479,0.00103178,0.00027049,0.01983495,-0.02322871,0.00686451,0.0009
 3021,-0.00102764,0.00005153,0.01694989,0.00141905,0.06451971,-0.000470
 09,-0.00049813,0.00044489,-0.00000870,-0.00011335,-0.00012815,0.000053
 51,-0.00002573,-0.00004699,-0.00005950,-0.00000843,-0.00000960,0.00000
 588,0.00003649,-0.00000147,0.00001958,-0.00002006,-0.00001124,0.000002
 67,-0.00001002,0.00001948,0.00000820,0.00001526,0.00000037,0.00001551,
 -0.00000147,-0.00000431,-0.00000689,-0.00000527,0.00000867,-0.00000263
 ,0.00000949,0.00000230,-0.00001745,-0.00000602,0.00000165,-0.00001198,
 0.00000510,0.00000059,0.00002758,0.00000457,0.00011261,0.00002786,0.00
 002892,0.00001621,-0.00000348,0.00000263,0.00001272,-0.00001842,-0.000
 01103,-0.00000612,-0.00001730,-0.00001558,-0.00000265,0.00000682,0.000
 00723,0.00000109,-0.00000187,-0.00000319,0.00000307,-0.00000182,-0.000
 00145,-0.00000865,0.00000450,-0.00000039,0.00000300,-0.00000242,-0.000
 00136,-0.00000838,0.00000365,0.00000224,-0.00000876,-0.00047847,0.0000
 0738,0.00089436,0.00237196,0.00708128,-0.00138871,0.00498042,0.0036728
 1,-0.00123652,-0.00692862,0.00047883,-0.02102556,-0.00059673,0.0000290
 3,-0.00087246,0.00654320,0.00158366,0.00498670,0.00002270,-0.00001484,
 0.00017121,-0.15703535,0.03347532,-0.14519376,-0.00188898,-0.00233805,
 0.00217629,-0.00185602,-0.00276153,0.00122647,0.15531266,-0.00047615,-
 0.00031463,0.00031291,0.00006072,-0.00004441,-0.00001162,0.00002932,0.
 00000913,0.00000645,0.00000510,0.00004991,0.00002910,-0.00001722,-0.00
 000674,0.00004982,-0.00002403,0.00002220,0.00000717,-0.00000357,-0.000
 00395,-0.00001513,-0.00000665,-0.00000911,0.00000953,0.00000193,-0.000
 00496,-0.00001161,0.00000200,0.00000582,-0.00001009,0.00000104,-0.0000
 0522,0.00000176,-0.00000037,0.00000183,-0.00000346,0.00000468,-0.00000
 161,-0.00000154,0.00006207,0.00004158,0.00008636,-0.00002945,0.0000026
 4,0.00000720,-0.00003352,-0.00001540,0.00003343,0.00000906,0.00001245,
 0.00000618,0.00003925,0.00000523,-0.00001452,0.00000044,0.00000692,0.0
 0001046,0.00000292,-0.00000492,-0.00000205,-0.00000338,-0.00000537,0.0
 0000579,-0.00000471,-0.00000721,0.00000481,-0.00000123,-0.00000271,0.0
 0000289,0.00000041,-0.00000094,0.00000294,-0.00005125,-0.00120853,-0.0
 0044464,0.00679535,-0.00084942,-0.00244499,0.00396892,0.00017830,-0.00
 531132,0.01605529,0.00246294,0.02466307,0.00064135,-0.00013083,0.00107
 841,-0.01414942,0.00846628,-0.02031548,-0.00069076,0.00011219,-0.00091
 015,0.03349234,-0.07017817,0.02738142,-0.00291128,-0.00091095,0.000902
 48,-0.00216489,-0.00082128,0.00199036,-0.04060433,0.06314894,0.0002642
 7,0.00028658,-0.00017517,0.00003567,0.00007563,0.00005905,0.00004399,0
 .00001191,-0.00007202,-0.00004820,-0.00001611,0.00000757,-0.00003135,0
 .00000685,-0.00001995,0.00000485,-0.00001124,0.00000287,0.00000604,-0.
 00000326,0.00000686,0.00002076,0.00000950,-0.00001141,0.00001734,0.000
 01276,0.00000192,-0.00001326,0.00000999,0.00000454,-0.00000637,0.00001
 266,-0.00000187,-0.00000923,-0.00000384,0.00000639,-0.00001063,0.00000
 596,0.00000240,-0.00013718,-0.00002818,-0.00002103,0.00002614,0.000032
 12,-0.00003409,0.00004397,0.00004378,-0.00002206,-0.00002894,-0.000029
 39,0.00000780,-0.00003723,-0.00003765,0.00001113,0.00001329,0.00000391
 ,-0.00000720,0.00000393,-0.00000097,0.00001150,0.00000357,-0.00000171,
 -0.00002512,0.00001334,0.00001834,-0.00000622,0.00000080,0.00000108,-0
 .00001455,0.00000428,0.00000591,-0.00001390,0.00099996,-0.00037335,0.0
 0034613,-0.00184411,-0.00198663,0.00271996,-0.00084322,-0.00576786,-0.
 00123512,0.00230279,-0.00359717,0.00399282,0.00008210,-0.00006472,-0.0
 0003258,-0.01806408,0.00795127,-0.01559867,-0.00075599,0.00025699,-0.0
 0100393,-0.14533045,0.02739839,-0.26682805,0.00129611,0.00197392,0.000
 18231,0.00210538,0.00090047,0.00027588,0.15987168,-0.02709592,0.277483
 83||-0.00001070,-0.00000201,0.00000676,0.00000047,0.00000082,-0.000001
 38,0.00000981,0.00000890,-0.00000958,0.00000581,-0.00001037,0.00000366
 ,-0.00001086,0.00000007,0.00000766,-0.00001290,-0.00000185,-0.00000081
 ,-0.00000180,0.00000104,0.00000142,0.00000387,-0.00001011,-0.00000597,
 0.00000109,0.00000088,-0.00000005,0.00000485,0.00001185,0.00000353,0.0
 0000104,-0.00000060,-0.00000041,0.00000017,0.00000094,0.00000019,0.000
 00004,-0.00000104,-0.00000046,0.00000538,0.00000144,-0.00000091,-0.000
 00230,-0.00000012,0.00000038,0.00000198,-0.00000277,0.00000116,0.00000
 238,-0.00000147,-0.00000215,0.00000105,-0.00000005,-0.00000339,-0.0000
 0027,0.00000174,-0.00000032,-0.00000020,0.00000099,0.00000023,-0.00000
 007,0.00000180,-0.00000022,-0.00000099,0.00000019,-0.00000006,0.000000
 20,-0.00000016,0.00000095,0.00000020,-0.00000030,0.00000039,-0.0000029
 9,0.00002733,0.00000807,-0.00001145,-0.00001021,-0.00002909,0.00001777
 ,-0.00002071,0.00001734,0.00002135,-0.00001749,0.00001884,0.00000073,-
 0.00000041,0.00000285,-0.00001039,-0.00000998,-0.00003085,-0.00000167,
 0.00000208,-0.00000057,-0.00001157,0.00002953,0.00001382,-0.00000146,0
 .00000153,-0.00000213,0.00000078,0.00000157,0.00000294,0.00000065,-0.0
 0000306,-0.00000186|||@


 SOME THINGS ARE EASY, THEY ARE ONLY HARD TO DO.
            -- A. EINSTEIN TO J. O. HIRSCHFELDER
 THE ONLY TROUBLE WITH A SURE THING IS THE UNCERTAINTY.
     -- FROM A TEABAG (BELONGING TO W.H.?)
 Job cpu time:  0 days  0 hours  6 minutes 24.0 seconds.
 File lengths (MBytes):  RWF=    350 Int=      0 D2E=      0 Chk=      7 Scr=      1
 Normal termination of Gaussian 09 at Tue Sep 07 07:39:28 2021.
