 Entering Link 1 = b:\programy\g09w\l1.exe PID=      4376.
  
 Copyright (c) 1988,1990,1992,1993,1995,1998,2003,2009, Gaussian, Inc.
                  All Rights Reserved.
  
 This is part of the Gaussian(R) 09 program.  It is based on
 the Gaussian(R) 03 system (copyright 2003, Gaussian, Inc.),
 the Gaussian(R) 98 system (copyright 1998, Gaussian, Inc.),
 the Gaussian(R) 94 system (copyright 1995, Gaussian, Inc.),
 the Gaussian 92(TM) system (copyright 1992, Gaussian, Inc.),
 the Gaussian 90(TM) system (copyright 1990, Gaussian, Inc.),
 the Gaussian 88(TM) system (copyright 1988, Gaussian, Inc.),
 the Gaussian 86(TM) system (copyright 1986, Carnegie Mellon
 University), and the Gaussian 82(TM) system (copyright 1983,
 Carnegie Mellon University). Gaussian is a federally registered
 trademark of Gaussian, Inc.
  
 This software contains proprietary and confidential information,
 including trade secrets, belonging to Gaussian, Inc.
  
 This software is provided under written license and may be
 used, copied, transmitted, or stored only in accord with that
 written license.
  
 The following legend is applicable only to US Government
 contracts under FAR:
  
                    RESTRICTED RIGHTS LEGEND
  
 Use, reproduction and disclosure by the US Government is
 subject to restrictions as set forth in subparagraphs (a)
 and (c) of the Commercial Computer Software - Restricted
 Rights clause in FAR 52.227-19.
  
 Gaussian, Inc.
 340 Quinnipiac St., Bldg. 40, Wallingford CT 06492
  
  
 ---------------------------------------------------------------
 Warning -- This program may not be used in any manner that
 competes with the business of Gaussian, Inc. or will provide
 assistance to any competitor of Gaussian, Inc.  The licensee
 of this program is prohibited from giving any competitor of
 Gaussian, Inc. access to this program.  By using this program,
 the user acknowledges that Gaussian, Inc. is engaged in the
 business of creating and licensing software in the field of
 computational chemistry and represents and warrants to the
 licensee that it is not a competitor of Gaussian, Inc. and that
 it will not use this program in any manner prohibited above.
 ---------------------------------------------------------------
  

 Cite this work as:
 Gaussian 09, Revision A.02,
 M. J. Frisch, G. W. Trucks, H. B. Schlegel, G. E. Scuseria, 
 M. A. Robb, J. R. Cheeseman, G. Scalmani, V. Barone, B. Mennucci, 
 G. A. Petersson, H. Nakatsuji, M. Caricato, X. Li, H. P. Hratchian, 
 A. F. Izmaylov, J. Bloino, G. Zheng, J. L. Sonnenberg, M. Hada, 
 M. Ehara, K. Toyota, R. Fukuda, J. Hasegawa, M. Ishida, T. Nakajima, 
 Y. Honda, O. Kitao, H. Nakai, T. Vreven, J. A. Montgomery, Jr., 
 J. E. Peralta, F. Ogliaro, M. Bearpark, J. J. Heyd, E. Brothers, 
 K. N. Kudin, V. N. Staroverov, R. Kobayashi, J. Normand, 
 K. Raghavachari, A. Rendell, J. C. Burant, S. S. Iyengar, J. Tomasi, 
 M. Cossi, N. Rega, J. M. Millam, M. Klene, J. E. Knox, J. B. Cross, 
 V. Bakken, C. Adamo, J. Jaramillo, R. Gomperts, R. E. Stratmann, 
 O. Yazyev, A. J. Austin, R. Cammi, C. Pomelli, J. W. Ochterski, 
 R. L. Martin, K. Morokuma, V. G. Zakrzewski, G. A. Voth, 
 P. Salvador, J. J. Dannenberg, S. Dapprich, A. D. Daniels, 
 O. Farkas, J. B. Foresman, J. V. Ortiz, J. Cioslowski, 
 and D. J. Fox, Gaussian, Inc., Wallingford CT, 2009.
 
 ******************************************
 Gaussian 09:  IA32W-G09RevA.02 11-Jun-2009
                07-Sep-2021 
 ******************************************
 %nprocshared=12
 Will use up to   12 processors via shared memory.
 ----------------------------------------------
 # opt freq=noraman hf/6-311g geom=connectivity
 ----------------------------------------------
 1/18=20,19=15,38=1,57=2/1,3;
 2/9=110,12=2,17=6,18=5,40=1/2;
 3/5=4,6=6,11=9,16=1,25=1,30=1,71=1/1,2,3;
 4//1;
 5/5=2,38=5/2;
 6/7=2,8=2,9=2,10=2,28=1/1;
 7//1,2,3,16;
 1/18=20,19=15/3(2);
 2/9=110/2;
 99//99;
 2/9=110/2;
 3/5=4,6=6,11=9,16=1,25=1,30=1,71=1/1,2,3;
 4/5=5,16=3/1;
 5/5=2,38=5/2;
 7//1,2,3,16;
 1/18=20,19=15/3(-5);
 2/9=110/2;
 6/7=2,8=2,9=2,10=2,19=2,28=1/1;
 99/9=1/99;
 -----
 M0001
 -----
 Symbolic Z-matrix:
 Charge =  0 Multiplicity = 1
 C                     0.03427  -0.03404  -0.77407 
 H                     0.13175  -0.10568  -1.89059 
 C                    -1.43778   0.03047  -0.45211 
 C                    -2.36329   0.02425  -1.49811 
 C                    -1.90096   0.08737   0.86439 
 C                    -3.72687   0.07445  -1.22989 
 H                    -2.01617  -0.02054  -2.53703 
 C                    -3.26383   0.13713   1.13006 
 H                    -1.171     0.07832   1.68934 
 C                    -4.17965   0.13146   0.08317 
 H                    -4.44471   0.06837  -2.05637 
 H                    -3.61547   0.17895   2.16587 
 H                    -5.25338   0.17016   0.29273 
 C                     0.6556   -1.27221  -0.17342 
 C                     0.8224   -1.40459   1.20658 
 C                     1.07716  -2.30511  -1.01332 
 C                     1.40701  -2.54759   1.73794 
 H                     0.4679   -0.59892   1.86742 
 C                     1.65924  -3.44946  -0.47892 
 H                     0.94956  -2.21697  -2.09871 
 C                     1.82748  -3.57181   0.89584 
 H                     1.53496  -2.64096   2.82121 
 H                     1.98572  -4.25544  -1.1442 
 H                     2.28796  -4.47229   1.31456 
 C                     0.80688   1.2063   -0.39822 
 C                     0.18644   2.36076   0.07738 
 C                     2.19314   1.21092  -0.58859 
 C                     0.93719   3.49695   0.36282 
 H                    -0.90049   2.37549   0.22816 
 C                     2.94062   2.34525  -0.30169 
 H                     2.68859   0.30684  -0.9624 
 C                     2.31379   3.4924    0.17542 
 H                     0.43785   4.3971    0.73584 
 H                     4.02502   2.33592  -0.45214 
 H                     2.90308   4.38678   0.40103 
 

 GradGradGradGradGradGradGradGradGradGradGradGradGradGradGradGradGradGrad
 Berny optimization.
 Initialization pass.
                           ----------------------------
                           !    Initial Parameters    !
                           ! (Angstroms and Degrees)  !
 --------------------------                            --------------------------
 ! Name  Definition              Value          Derivative Info.                !
 --------------------------------------------------------------------------------
 ! R1    R(1,2)                  1.1231         estimate D2E/DX2                !
 ! R2    R(1,3)                  1.5082         estimate D2E/DX2                !
 ! R3    R(1,14)                 1.5099         estimate D2E/DX2                !
 ! R4    R(1,25)                 1.5088         estimate D2E/DX2                !
 ! R5    R(3,4)                  1.3967         estimate D2E/DX2                !
 ! R6    R(3,5)                  1.3968         estimate D2E/DX2                !
 ! R7    R(4,6)                  1.3906         estimate D2E/DX2                !
 ! R8    R(4,7)                  1.0963         estimate D2E/DX2                !
 ! R9    R(5,8)                  1.3894         estimate D2E/DX2                !
 ! R10   R(5,9)                  1.1016         estimate D2E/DX2                !
 ! R11   R(6,10)                 1.3901         estimate D2E/DX2                !
 ! R12   R(6,11)                 1.0947         estimate D2E/DX2                !
 ! R13   R(8,10)                 1.3909         estimate D2E/DX2                !
 ! R14   R(8,12)                 1.0947         estimate D2E/DX2                !
 ! R15   R(10,13)                1.0947         estimate D2E/DX2                !
 ! R16   R(14,15)                1.3963         estimate D2E/DX2                !
 ! R17   R(14,16)                1.3964         estimate D2E/DX2                !
 ! R18   R(15,17)                1.3895         estimate D2E/DX2                !
 ! R19   R(15,18)                1.1007         estimate D2E/DX2                !
 ! R20   R(16,19)                1.3907         estimate D2E/DX2                !
 ! R21   R(16,20)                1.0964         estimate D2E/DX2                !
 ! R22   R(17,21)                1.391          estimate D2E/DX2                !
 ! R23   R(17,22)                1.0948         estimate D2E/DX2                !
 ! R24   R(19,21)                1.3904         estimate D2E/DX2                !
 ! R25   R(19,23)                1.0949         estimate D2E/DX2                !
 ! R26   R(21,24)                1.0946         estimate D2E/DX2                !
 ! R27   R(25,26)                1.3942         estimate D2E/DX2                !
 ! R28   R(25,27)                1.3993         estimate D2E/DX2                !
 ! R29   R(26,28)                1.3914         estimate D2E/DX2                !
 ! R30   R(26,29)                1.0974         estimate D2E/DX2                !
 ! R31   R(27,30)                1.3884         estimate D2E/DX2                !
 ! R32   R(27,31)                1.0966         estimate D2E/DX2                !
 ! R33   R(28,32)                1.3893         estimate D2E/DX2                !
 ! R34   R(28,33)                1.0949         estimate D2E/DX2                !
 ! R35   R(30,32)                1.3916         estimate D2E/DX2                !
 ! R36   R(30,34)                1.0948         estimate D2E/DX2                !
 ! R37   R(32,35)                1.0946         estimate D2E/DX2                !
 ! A1    A(2,1,3)              107.4376         estimate D2E/DX2                !
 ! A2    A(2,1,14)             107.9061         estimate D2E/DX2                !
 ! A3    A(2,1,25)             104.8117         estimate D2E/DX2                !
 ! A4    A(3,1,14)             110.5963         estimate D2E/DX2                !
 ! A5    A(3,1,25)             114.2952         estimate D2E/DX2                !
 ! A6    A(14,1,25)            111.3639         estimate D2E/DX2                !
 ! A7    A(1,3,4)              119.1236         estimate D2E/DX2                !
 ! A8    A(1,3,5)              121.7756         estimate D2E/DX2                !
 ! A9    A(4,3,5)              119.0994         estimate D2E/DX2                !
 ! A10   A(3,4,6)              120.3419         estimate D2E/DX2                !
 ! A11   A(3,4,7)              120.006          estimate D2E/DX2                !
 ! A12   A(6,4,7)              119.6521         estimate D2E/DX2                !
 ! A13   A(3,5,8)              120.4612         estimate D2E/DX2                !
 ! A14   A(3,5,9)              119.0633         estimate D2E/DX2                !
 ! A15   A(8,5,9)              120.4703         estimate D2E/DX2                !
 ! A16   A(4,6,10)             120.202          estimate D2E/DX2                !
 ! A17   A(4,6,11)             119.8131         estimate D2E/DX2                !
 ! A18   A(10,6,11)            119.9849         estimate D2E/DX2                !
 ! A19   A(5,8,10)             120.1174         estimate D2E/DX2                !
 ! A20   A(5,8,12)             119.8273         estimate D2E/DX2                !
 ! A21   A(10,8,12)            120.0552         estimate D2E/DX2                !
 ! A22   A(6,10,8)             119.7781         estimate D2E/DX2                !
 ! A23   A(6,10,13)            120.1166         estimate D2E/DX2                !
 ! A24   A(8,10,13)            120.1052         estimate D2E/DX2                !
 ! A25   A(1,14,15)            121.3351         estimate D2E/DX2                !
 ! A26   A(1,14,16)            119.4399         estimate D2E/DX2                !
 ! A27   A(15,14,16)           119.2247         estimate D2E/DX2                !
 ! A28   A(14,15,17)           120.4113         estimate D2E/DX2                !
 ! A29   A(14,15,18)           119.0456         estimate D2E/DX2                !
 ! A30   A(17,15,18)           120.534          estimate D2E/DX2                !
 ! A31   A(14,16,19)           120.258          estimate D2E/DX2                !
 ! A32   A(14,16,20)           120.0536         estimate D2E/DX2                !
 ! A33   A(19,16,20)           119.6884         estimate D2E/DX2                !
 ! A34   A(15,17,21)           120.0906         estimate D2E/DX2                !
 ! A35   A(15,17,22)           119.8503         estimate D2E/DX2                !
 ! A36   A(21,17,22)           120.0591         estimate D2E/DX2                !
 ! A37   A(16,19,21)           120.1994         estimate D2E/DX2                !
 ! A38   A(16,19,23)           119.806          estimate D2E/DX2                !
 ! A39   A(21,19,23)           119.9945         estimate D2E/DX2                !
 ! A40   A(17,21,19)           119.8151         estimate D2E/DX2                !
 ! A41   A(17,21,24)           120.085          estimate D2E/DX2                !
 ! A42   A(19,21,24)           120.0998         estimate D2E/DX2                !
 ! A43   A(1,25,26)            122.532          estimate D2E/DX2                !
 ! A44   A(1,25,27)            118.4319         estimate D2E/DX2                !
 ! A45   A(26,25,27)           118.9821         estimate D2E/DX2                !
 ! A46   A(25,26,28)           120.3987         estimate D2E/DX2                !
 ! A47   A(25,26,29)           119.9154         estimate D2E/DX2                !
 ! A48   A(28,26,29)           119.6859         estimate D2E/DX2                !
 ! A49   A(25,27,30)           120.5267         estimate D2E/DX2                !
 ! A50   A(25,27,31)           119.4232         estimate D2E/DX2                !
 ! A51   A(30,27,31)           120.0493         estimate D2E/DX2                !
 ! A52   A(26,28,32)           120.2833         estimate D2E/DX2                !
 ! A53   A(26,28,33)           119.6802         estimate D2E/DX2                !
 ! A54   A(32,28,33)           120.0364         estimate D2E/DX2                !
 ! A55   A(27,30,32)           120.1213         estimate D2E/DX2                !
 ! A56   A(27,30,34)           119.8598         estimate D2E/DX2                !
 ! A57   A(32,30,34)           120.0189         estimate D2E/DX2                !
 ! A58   A(28,32,30)           119.6872         estimate D2E/DX2                !
 ! A59   A(28,32,35)           120.1972         estimate D2E/DX2                !
 ! A60   A(30,32,35)           120.1156         estimate D2E/DX2                !
 ! D1    D(2,1,3,4)             -1.4062         estimate D2E/DX2                !
 ! D2    D(2,1,3,5)            178.1632         estimate D2E/DX2                !
 ! D3    D(14,1,3,4)          -118.9427         estimate D2E/DX2                !
 ! D4    D(14,1,3,5)            60.6267         estimate D2E/DX2                !
 ! D5    D(25,1,3,4)           114.429          estimate D2E/DX2                !
 ! D6    D(25,1,3,5)           -66.0016         estimate D2E/DX2                !
 ! D7    D(2,1,14,15)          172.7367         estimate D2E/DX2                !
 ! D8    D(2,1,14,16)           -7.0277         estimate D2E/DX2                !
 ! D9    D(3,1,14,15)          -70.0149         estimate D2E/DX2                !
 ! D10   D(3,1,14,16)          110.2208         estimate D2E/DX2                !
 ! D11   D(25,1,14,15)          58.2257         estimate D2E/DX2                !
 ! D12   D(25,1,14,16)        -121.5387         estimate D2E/DX2                !
 ! D13   D(2,1,25,26)          111.0755         estimate D2E/DX2                !
 ! D14   D(2,1,25,27)          -66.2241         estimate D2E/DX2                !
 ! D15   D(3,1,25,26)           -6.2763         estimate D2E/DX2                !
 ! D16   D(3,1,25,27)          176.4241         estimate D2E/DX2                !
 ! D17   D(14,1,25,26)        -132.5058         estimate D2E/DX2                !
 ! D18   D(14,1,25,27)          50.1946         estimate D2E/DX2                !
 ! D19   D(1,3,4,6)            179.5982         estimate D2E/DX2                !
 ! D20   D(1,3,4,7)             -0.3923         estimate D2E/DX2                !
 ! D21   D(5,3,4,6)              0.0172         estimate D2E/DX2                !
 ! D22   D(5,3,4,7)           -179.9733         estimate D2E/DX2                !
 ! D23   D(1,3,5,8)           -179.5702         estimate D2E/DX2                !
 ! D24   D(1,3,5,9)             -0.3992         estimate D2E/DX2                !
 ! D25   D(4,3,5,8)             -0.0008         estimate D2E/DX2                !
 ! D26   D(4,3,5,9)            179.1703         estimate D2E/DX2                !
 ! D27   D(3,4,6,10)             0.0079         estimate D2E/DX2                !
 ! D28   D(3,4,6,11)          -179.954          estimate D2E/DX2                !
 ! D29   D(7,4,6,10)           179.9984         estimate D2E/DX2                !
 ! D30   D(7,4,6,11)             0.0366         estimate D2E/DX2                !
 ! D31   D(3,5,8,10)            -0.0408         estimate D2E/DX2                !
 ! D32   D(3,5,8,12)           179.846          estimate D2E/DX2                !
 ! D33   D(9,5,8,10)          -179.2001         estimate D2E/DX2                !
 ! D34   D(9,5,8,12)             0.6867         estimate D2E/DX2                !
 ! D35   D(4,6,10,8)            -0.0494         estimate D2E/DX2                !
 ! D36   D(4,6,10,13)         -179.9535         estimate D2E/DX2                !
 ! D37   D(11,6,10,8)          179.9124         estimate D2E/DX2                !
 ! D38   D(11,6,10,13)           0.0083         estimate D2E/DX2                !
 ! D39   D(5,8,10,6)             0.0658         estimate D2E/DX2                !
 ! D40   D(5,8,10,13)          179.9698         estimate D2E/DX2                !
 ! D41   D(12,8,10,6)         -179.8208         estimate D2E/DX2                !
 ! D42   D(12,8,10,13)           0.0833         estimate D2E/DX2                !
 ! D43   D(1,14,15,17)        -179.4459         estimate D2E/DX2                !
 ! D44   D(1,14,15,18)           1.6394         estimate D2E/DX2                !
 ! D45   D(16,14,15,17)          0.3189         estimate D2E/DX2                !
 ! D46   D(16,14,15,18)       -178.5957         estimate D2E/DX2                !
 ! D47   D(1,14,16,19)         179.5976         estimate D2E/DX2                !
 ! D48   D(1,14,16,20)          -0.444          estimate D2E/DX2                !
 ! D49   D(15,14,16,19)         -0.1718         estimate D2E/DX2                !
 ! D50   D(15,14,16,20)        179.7866         estimate D2E/DX2                !
 ! D51   D(14,15,17,21)         -0.1853         estimate D2E/DX2                !
 ! D52   D(14,15,17,22)        179.8892         estimate D2E/DX2                !
 ! D53   D(18,15,17,21)        178.7131         estimate D2E/DX2                !
 ! D54   D(18,15,17,22)         -1.2124         estimate D2E/DX2                !
 ! D55   D(14,16,19,21)         -0.109          estimate D2E/DX2                !
 ! D56   D(14,16,19,23)        179.9081         estimate D2E/DX2                !
 ! D57   D(20,16,19,21)        179.9324         estimate D2E/DX2                !
 ! D58   D(20,16,19,23)         -0.0505         estimate D2E/DX2                !
 ! D59   D(15,17,21,19)         -0.0981         estimate D2E/DX2                !
 ! D60   D(15,17,21,24)       -179.9946         estimate D2E/DX2                !
 ! D61   D(22,17,21,19)        179.8272         estimate D2E/DX2                !
 ! D62   D(22,17,21,24)         -0.0693         estimate D2E/DX2                !
 ! D63   D(16,19,21,17)          0.2449         estimate D2E/DX2                !
 ! D64   D(16,19,21,24)       -179.8586         estimate D2E/DX2                !
 ! D65   D(23,19,21,17)       -179.7722         estimate D2E/DX2                !
 ! D66   D(23,19,21,24)          0.1242         estimate D2E/DX2                !
 ! D67   D(1,25,26,28)        -177.5476         estimate D2E/DX2                !
 ! D68   D(1,25,26,29)           2.4496         estimate D2E/DX2                !
 ! D69   D(27,25,26,28)         -0.2623         estimate D2E/DX2                !
 ! D70   D(27,25,26,29)        179.7349         estimate D2E/DX2                !
 ! D71   D(1,25,27,30)         177.7341         estimate D2E/DX2                !
 ! D72   D(1,25,27,31)          -2.6005         estimate D2E/DX2                !
 ! D73   D(26,25,27,30)          0.3367         estimate D2E/DX2                !
 ! D74   D(26,25,27,31)       -179.9979         estimate D2E/DX2                !
 ! D75   D(25,26,28,32)          0.0528         estimate D2E/DX2                !
 ! D76   D(25,26,28,33)       -179.9944         estimate D2E/DX2                !
 ! D77   D(29,26,28,32)       -179.9443         estimate D2E/DX2                !
 ! D78   D(29,26,28,33)          0.0084         estimate D2E/DX2                !
 ! D79   D(25,27,30,32)         -0.201          estimate D2E/DX2                !
 ! D80   D(25,27,30,34)        179.8345         estimate D2E/DX2                !
 ! D81   D(31,27,30,32)       -179.8643         estimate D2E/DX2                !
 ! D82   D(31,27,30,34)          0.1712         estimate D2E/DX2                !
 ! D83   D(26,28,32,30)          0.087          estimate D2E/DX2                !
 ! D84   D(26,28,32,35)       -179.9605         estimate D2E/DX2                !
 ! D85   D(33,28,32,30)       -179.8656         estimate D2E/DX2                !
 ! D86   D(33,28,32,35)          0.0869         estimate D2E/DX2                !
 ! D87   D(27,30,32,28)         -0.0131         estimate D2E/DX2                !
 ! D88   D(27,30,32,35)       -179.9656         estimate D2E/DX2                !
 ! D89   D(34,30,32,28)        179.9514         estimate D2E/DX2                !
 ! D90   D(34,30,32,35)         -0.0011         estimate D2E/DX2                !
 --------------------------------------------------------------------------------
 Trust Radius=3.00D-01 FncErr=1.00D-07 GrdErr=1.00D-07
 Number of steps in this run= 197 maximum allowed number of steps= 210.
 GradGradGradGradGradGradGradGradGradGradGradGradGradGradGradGradGradGrad

                          Input orientation:                          
 ---------------------------------------------------------------------
 Center     Atomic      Atomic             Coordinates (Angstroms)
 Number     Number       Type             X           Y           Z
 ---------------------------------------------------------------------
      1          6           0        0.034271   -0.034037   -0.774070
      2          1           0        0.131748   -0.105676   -1.890591
      3          6           0       -1.437784    0.030473   -0.452114
      4          6           0       -2.363288    0.024251   -1.498106
      5          6           0       -1.900962    0.087370    0.864393
      6          6           0       -3.726866    0.074455   -1.229893
      7          1           0       -2.016167   -0.020537   -2.537026
      8          6           0       -3.263831    0.137125    1.130064
      9          1           0       -1.171003    0.078319    1.689340
     10          6           0       -4.179649    0.131455    0.083174
     11          1           0       -4.444712    0.068367   -2.056374
     12          1           0       -3.615466    0.178950    2.165872
     13          1           0       -5.253379    0.170164    0.292734
     14          6           0        0.655598   -1.272208   -0.173422
     15          6           0        0.822395   -1.404589    1.206580
     16          6           0        1.077161   -2.305115   -1.013320
     17          6           0        1.407012   -2.547593    1.737945
     18          1           0        0.467896   -0.598924    1.867421
     19          6           0        1.659238   -3.449457   -0.478923
     20          1           0        0.949561   -2.216967   -2.098711
     21          6           0        1.827477   -3.571811    0.895836
     22          1           0        1.534957   -2.640964    2.821214
     23          1           0        1.985720   -4.255442   -1.144198
     24          1           0        2.287959   -4.472293    1.314560
     25          6           0        0.806882    1.206296   -0.398218
     26          6           0        0.186442    2.360756    0.077384
     27          6           0        2.193137    1.210915   -0.588589
     28          6           0        0.937189    3.496952    0.362824
     29          1           0       -0.900491    2.375488    0.228160
     30          6           0        2.940617    2.345245   -0.301694
     31          1           0        2.688594    0.306839   -0.962404
     32          6           0        2.313795    3.492404    0.175420
     33          1           0        0.437848    4.397096    0.735844
     34          1           0        4.025016    2.335916   -0.452142
     35          1           0        2.903085    4.386779    0.401028
 ---------------------------------------------------------------------
                    Distance matrix (angstroms):
                    1          2          3          4          5
     1  C    0.000000
     2  H    1.123056   0.000000
     3  C    1.508232   2.133351   0.000000
     4  C    2.505177   2.529057   1.396673   0.000000
     5  C    2.538587   3.429156   1.396768   2.408138   0.000000
     6  C    3.790210   3.918912   2.418009   1.390613   2.778511
     7  H    2.704162   2.244697   2.164252   1.096291   3.405079
     8  C    3.812152   4.551184   2.418494   2.780468   1.389414
     9  H    2.744758   3.814043   2.158538   3.403569   1.101572
    10  C    4.303415   4.747645   2.795453   2.410625   2.409287
    11  H    4.660051   4.582768   3.408328   2.155443   3.873229
    12  H    4.691396   5.529694   3.408547   3.875128   2.154475
    13  H    5.398056   5.817438   3.890125   3.403091   3.401816
    14  C    1.509932   2.141001   2.481310   3.542494   3.075956
    15  C    2.534271   3.428796   3.149458   4.416502   3.124053
    16  C    2.510509   2.549694   3.477768   4.183019   4.256642
    17  C    3.809541   4.555824   4.419915   5.594780   4.318427
    18  H    2.735800   3.805121   3.067246   4.441928   2.662433
    19  C    3.793775   3.937880   4.658560   5.411663   5.195061
    20  H    2.712492   2.273693   3.669017   4.044595   4.713325
    21  C    4.303490   4.759597   5.045330   6.018732   5.224161
    22  H    4.687664   5.531526   5.166086   6.399704   4.804008
    23  H    4.665341   4.605960   5.528872   6.111865   6.164474
    24  H    5.398111   5.830059   6.105506   7.054367   6.208078
    25  C    1.508847   2.098632   2.534560   3.557663   3.190392
    26  C    2.546205   3.155821   2.889411   3.800335   3.185109
    27  C    2.499002   2.770910   3.820426   4.795456   4.487221
    28  C    3.817810   4.324991   4.280316   5.139637   4.464518
    29  H    2.772012   3.422104   2.500110   3.263140   2.577056
    30  C    3.785627   4.052327   4.954916   5.911837   5.467965
    31  H    2.682741   2.751211   4.166986   5.088059   4.944631
    32  C    4.305060   4.687847   5.143259   6.058372   5.461970
    33  H    4.698686   5.221763   4.898636   5.653199   4.905129
    34  H    4.652565   4.815396   5.929355   6.873737   6.473518
    35  H    5.399496   5.754474   6.208735   7.097397   6.463628
                    6          7          8          9         10
     6  C    0.000000
     7  H    2.155020   0.000000
     8  C    2.405770   3.876736   0.000000
     9  H    3.879996   4.311177   2.167067   0.000000
    10  C    1.390111   3.401354   1.390947   3.410945   0.000000
    11  H    1.094719   2.477249   3.398911   4.974700   2.156827
    12  H    3.399198   4.971399   1.094666   2.492511   2.158283
    13  H    2.158193   4.303888   2.158822   4.315639   1.094673
    14  C    4.704851   3.780427   4.364312   2.937733   5.041402
    15  C    5.368403   4.897716   4.368065   2.530950   5.351815
    16  C    5.365438   4.136381   5.422439   4.247277   5.896883
    17  C    6.483818   6.031545   5.421624   3.680208   6.412983
    18  H    5.257644   5.089622   3.874436   1.782234   5.031567
    19  C    6.480125   5.431563   6.299923   5.015658   6.872517
    20  H    5.279623   3.716445   5.806842   4.910647   6.048513
    21  C    6.976010   6.258569   6.303372   4.789988   7.103533
    22  H    7.174381   6.941747   5.797080   3.999732   6.916639
    23  H    7.168611   5.990783   7.212815   6.064266   7.665709
    24  H    7.957718   7.292349   7.218251   5.728258   8.033727
    25  C    4.746327   3.748230   4.477665   3.089055   5.123721
    26  C    4.717004   4.166195   4.237577   3.106538   4.902302
    27  C    6.062115   4.799075   5.821108   4.217721   6.498377
    28  C    6.000304   5.431775   5.433753   4.229796   6.130808
    29  H    3.925438   3.825169   3.377732   2.735911   3.976126
    30  C    7.104461   5.929869   6.739503   5.099862   7.466404
    31  H    6.425237   4.972060   6.311782   4.688332   6.949587
    32  C    7.081445   6.200539   6.578690   5.108008   7.312271
    33  H    6.316184   6.020743   5.657313   4.706314   6.320043
    34  H    8.112384   6.811424   7.775947   6.056509   8.512505
    35  H    8.075412   7.228806   7.524753   6.068011   8.268853
                   11         12         13         14         15
    11  H    0.000000
    12  H    4.304327   0.000000
    13  H    2.486485   2.488269   0.000000
    14  C    5.599626   5.081353   6.100307   0.000000
    15  C    6.368586   4.808581   6.342712   1.396335   0.000000
    16  C    6.100201   6.188585   6.921598   1.396438   2.409109
    17  C    7.448675   5.730833   7.337277   2.417551   1.389454
    18  H    6.322591   4.167494   5.983655   2.157217   1.100671
    19  C    7.219532   6.926961   7.841006   2.416824   2.778977
    20  H    5.858560   6.690782   7.063559   2.164653   3.406036
    21  C    7.829866   6.731036   8.031478   2.793705   2.409067
    22  H    8.178494   5.908320   7.770274   3.408021   2.154857
    23  H    7.802425   7.873607   8.605540   3.407538   3.873867
    24  H    8.792590   7.563678   8.914500   3.888346   3.401521
    25  C    5.623487   5.214131   6.186902   2.493272   3.064692
    26  C    5.590667   4.855571   5.868281   3.671708   3.982128
    27  C    6.893536   6.510904   7.570369   2.949965   3.455782
    28  C    6.824411   5.914963   7.028198   4.807468   4.974959
    29  H    4.806600   3.993819   4.880088   3.986021   4.267860
    30  C    7.925034   7.332390   8.498582   4.280623   4.563224
    31  H    7.220643   7.038724   8.041703   2.692388   3.334093
    32  C    7.898250   7.077924   8.265178   5.056960   5.221888
    33  H    7.097448   6.022216   7.103053   5.745884   5.833440
    34  H    8.913564   8.359633   9.556879   4.944616   5.196106
    35  H    8.870041   7.956884   9.182563   6.115989   6.206297
                   16         17         18         19         20
    16  C    0.000000
    17  C    2.781556   0.000000
    18  H    3.403081   2.167029   0.000000
    19  C    1.390652   2.406550   3.879454   0.000000
    20  H    1.096415   3.877951   4.310484   2.155548   0.000000
    21  C    2.410886   1.391029   3.410352   1.390409   3.402008
    22  H    3.876341   1.094787   2.493645   3.400002   4.972738
    23  H    2.155547   3.399764   4.974310   1.094894   2.477923
    24  H    3.403192   2.158655   4.315237   2.158256   4.304443
    25  C    3.575109   4.360623   2.916650   4.733821   3.825018
    26  C    4.873743   5.323452   3.470325   6.019733   5.125747
    27  C    3.713256   4.489670   3.504848   4.692137   3.946812
    28  C    5.964675   6.216769   4.388650   7.034380   6.221590
    29  H    5.230719   5.642760   3.661528   6.401731   5.470618
    30  C    5.060112   5.518328   4.414470   5.937333   5.292197
    31  H    3.069464   4.133052   3.709423   3.924676   3.268795
    32  C    6.045957   6.304388   4.796788   7.003288   6.295214
    33  H    6.956143   7.083233   5.122654   8.033420   7.214040
    34  H    5.526657   5.958111   5.162050   6.250453   5.735709
    35  H    7.079253   7.218801   5.739136   7.982986   7.326282
                   21         22         23         24         25
    21  C    0.000000
    22  H    2.158501   0.000000
    23  H    2.157343   4.305138   0.000000
    24  H    1.094642   2.488128   2.486738   0.000000
    25  C    5.054354   5.069146   5.637085   6.113393   0.000000
    26  C    6.209526   5.862107   6.964463   7.255173   1.394246
    27  C    5.021125   5.186225   5.498435   5.994149   1.399272
    28  C    7.144518   6.638902   7.966816   8.138750   2.417286
    29  H    6.577079   6.149807   7.360897   7.631421   2.162055
    30  C    6.138788   6.049026   6.722404   7.036837   2.420609
    31  H    4.386172   4.933171   4.619685   5.308971   2.160594
    32  C    7.117489   6.724955   7.866266   8.045789   2.797523
    33  H    8.090745   7.422042   8.988708   9.078760   3.406389
    34  H    6.445732   6.456360   6.934239   7.245020   3.411060
    35  H    8.046175   7.557661   8.827075   8.927266   3.892086
                   26         27         28         29         30
    26  C    0.000000
    27  C    2.406756   0.000000
    28  C    1.391416   2.776429   0.000000
    29  H    1.097440   3.404973   2.157055   0.000000
    30  C    2.780184   1.388431   2.404524   3.877599   0.000000
    31  H    3.400073   1.096618   3.873045   4.310253   2.157581
    32  C    2.411611   2.409037   1.389311   3.403222   1.391588
    33  H    2.154867   3.871292   1.094871   2.477053   3.398592
    34  H    3.875005   2.154072   3.398065   4.972424   1.094825
    35  H    3.404359   3.401393   2.158239   4.306085   2.159418
                   31         32         33         34         35
    31  H    0.000000
    32  C    3.403372   0.000000
    33  H    4.967908   2.156784   0.000000
    34  H    2.482649   2.158605   4.304364   0.000000
    35  H    4.307072   1.094563   2.487891   2.488507   0.000000
 Stoichiometry    C19H16
 Framework group  C1[X(C19H16)]
 Deg. of freedom    99
 Full point group                 C1      NOp   1
 Largest Abelian subgroup         C1      NOp   1
 Largest concise Abelian subgroup C1      NOp   1
                         Standard orientation:                         
 ---------------------------------------------------------------------
 Center     Atomic      Atomic             Coordinates (Angstroms)
 Number     Number       Type             X           Y           Z
 ---------------------------------------------------------------------
      1          6           0       -0.012232    0.013482   -0.761015
      2          1           0        0.017551    0.016037   -1.883673
      3          6           0       -1.461129   -0.053218   -0.347477
      4          6           0       -2.449650   -0.067404   -1.334047
      5          6           0       -1.840861   -0.110113    0.995477
      6          6           0       -3.793034   -0.136910   -0.981497
      7          1           0       -2.168301   -0.023791   -2.392723
      8          6           0       -3.183673   -0.179860    1.345424
      9          1           0       -1.060196   -0.112815    1.772661
     10          6           0       -4.162652   -0.192706    0.357412
     11          1           0       -4.560652   -0.148265   -1.761910
     12          1           0       -3.469503   -0.226579    2.401081
     13          1           0       -5.220528   -0.248160    0.633334
     14          6           0        0.734301   -1.207504   -0.279584
     15          6           0        0.999329   -1.408751    1.076518
     16          6           0        1.173820   -2.153597   -1.207900
     17          6           0        1.697977   -2.533675    1.497253
     18          1           0        0.631316   -0.673090    1.807850
     19          6           0        1.870234   -3.280227   -0.784077
     20          1           0        0.970094   -2.010938   -2.275735
     21          6           0        2.135634   -3.471073    0.567358
     22          1           0        1.902285   -2.681380    2.562618
     23          1           0        2.210097   -4.018069   -1.518158
     24          1           0        2.685960   -4.357324    0.898932
     25          6           0        0.691772    1.284306   -0.353584
     26          6           0        0.021936    2.357974    0.231633
     27          6           0        2.058824    1.405467   -0.626442
     28          6           0        0.705817    3.528870    0.543638
     29          1           0       -1.051166    2.281152    0.448257
     30          6           0        2.739684    2.574171   -0.312910
     31          1           0        2.592831    0.565469   -1.086670
     32          6           0        2.064119    3.639997    0.273728
     33          1           0        0.168177    4.364706    1.003055
     34          1           0        3.809895    2.656158   -0.528708
     35          1           0        2.600842    4.561505    0.520346
 ---------------------------------------------------------------------
 Rotational constants (GHZ):      0.4043973      0.3810703      0.2327941
 Standard basis: 6-311G (5D, 7F)
 There are   295 symmetry adapted basis functions of A   symmetry.
 Integral buffers will be    262144 words long.
 Raffenetti 1 integral format.
 Two-electron integral symmetry is turned on.
   295 basis functions,   574 primitive gaussians,   295 cartesian basis functions
    65 alpha electrons       65 beta electrons
       nuclear repulsion energy      1290.5986482036 Hartrees.
 NAtoms=   35 NActive=   35 NUniq=   35 SFac= 7.50D-01 NAtFMM=   80 NAOKFM=F Big=F
 One-electron integrals computed using PRISM.
 PrsmSu:  requested number of processors reduced to:  10 ShMem   1 Linda.
 NBasis=   295 RedAO= T  NBF=   295
 NBsUse=   295 1.00D-06 NBFU=   295
 Harris functional with IExCor=  205 diagonalized for initial guess.
 ExpMin= 1.03D-01 ExpMax= 4.56D+03 ExpMxC= 6.82D+02 IAcc=1 IRadAn=         1 AccDes= 0.00D+00
 HarFok:  IExCor=  205 AccDes= 0.00D+00 IRadAn=         1 IDoV= 1
 ScaDFX=  1.000000  1.000000  1.000000  1.000000
 FoFCou: FMM=F IPFlag=           0 FMFlag=      100000 FMFlg1=           0
         NFxFlg=           0 DoJE=T BraDBF=F KetDBF=T FulRan=T
         Omega=  0.000000  0.000000  1.000000  0.000000  0.000000 ICntrl=     500 IOpCl=  0
         NMat0=    1 NMatS0=    1 NMatT0=    0 NMatD0=    1 NMtDS0=    0 NMtDT0=    0
         I1Cent=           4 NGrid=           0.
 Petite list used in FoFCou.
 Initial guess orbital symmetries:
       Occupied  (A) (A) (A) (A) (A) (A) (A) (A) (A) (A) (A) (A)
                 (A) (A) (A) (A) (A) (A) (A) (A) (A) (A) (A) (A)
                 (A) (A) (A) (A) (A) (A) (A) (A) (A) (A) (A) (A)
                 (A) (A) (A) (A) (A) (A) (A) (A) (A) (A) (A) (A)
                 (A) (A) (A) (A) (A) (A) (A) (A) (A) (A) (A) (A)
                 (A) (A) (A) (A) (A)
       Virtual   (A) (A) (A) (A) (A) (A) (A) (A) (A) (A) (A) (A)
                 (A) (A) (A) (A) (A) (A) (A) (A) (A) (A) (A) (A)
                 (A) (A) (A) (A) (A) (A) (A) (A) (A) (A) (A) (A)
                 (A) (A) (A) (A) (A) (A) (A) (A) (A) (A) (A) (A)
                 (A) (A) (A) (A) (A) (A) (A) (A) (A) (A) (A) (A)
                 (A) (A) (A) (A) (A) (A) (A) (A) (A) (A) (A) (A)
                 (A) (A) (A) (A) (A) (A) (A) (A) (A) (A) (A) (A)
                 (A) (A) (A) (A) (A) (A) (A) (A) (A) (A) (A) (A)
                 (A) (A) (A) (A) (A) (A) (A) (A) (A) (A) (A) (A)
                 (A) (A) (A) (A) (A) (A) (A) (A) (A) (A) (A) (A)
                 (A) (A) (A) (A) (A) (A) (A) (A) (A) (A) (A) (A)
                 (A) (A) (A) (A) (A) (A) (A) (A) (A) (A) (A) (A)
                 (A) (A) (A) (A) (A) (A) (A) (A) (A) (A) (A) (A)
                 (A) (A) (A) (A) (A) (A) (A) (A) (A) (A) (A) (A)
                 (A) (A) (A) (A) (A) (A) (A) (A) (A) (A) (A) (A)
                 (A) (A) (A) (A) (A) (A) (A) (A) (A) (A) (A) (A)
                 (A) (A) (A) (A) (A) (A) (A) (A) (A) (A) (A) (A)
                 (A) (A) (A) (A) (A) (A) (A) (A) (A) (A) (A) (A)
                 (A) (A) (A) (A) (A) (A) (A) (A) (A) (A) (A) (A)
                 (A) (A)
 The electronic state of the initial guess is 1-A.
 Requested convergence on RMS density matrix=1.00D-08 within 128 cycles.
 Requested convergence on MAX density matrix=1.00D-06.
 Requested convergence on             energy=1.00D-06.
 No special actions if energy rises.
 Integral accuracy reduced to 1.0D-05 until final iterations.
 Initial convergence to 1.0D-05 achieved.  Increase integral accuracy.
 SCF Done:  E(RHF) =  -728.672412824     A.U. after   14 cycles
             Convg  =    0.8644D-08             -V/T =  2.0001

 **********************************************************************

            Population analysis using the SCF density.

 **********************************************************************

 Orbital symmetries:
       Occupied  (A) (A) (A) (A) (A) (A) (A) (A) (A) (A) (A) (A)
                 (A) (A) (A) (A) (A) (A) (A) (A) (A) (A) (A) (A)
                 (A) (A) (A) (A) (A) (A) (A) (A) (A) (A) (A) (A)
                 (A) (A) (A) (A) (A) (A) (A) (A) (A) (A) (A) (A)
                 (A) (A) (A) (A) (A) (A) (A) (A) (A) (A) (A) (A)
                 (A) (A) (A) (A) (A)
       Virtual   (A) (A) (A) (A) (A) (A) (A) (A) (A) (A) (A) (A)
                 (A) (A) (A) (A) (A) (A) (A) (A) (A) (A) (A) (A)
                 (A) (A) (A) (A) (A) (A) (A) (A) (A) (A) (A) (A)
                 (A) (A) (A) (A) (A) (A) (A) (A) (A) (A) (A) (A)
                 (A) (A) (A) (A) (A) (A) (A) (A) (A) (A) (A) (A)
                 (A) (A) (A) (A) (A) (A) (A) (A) (A) (A) (A) (A)
                 (A) (A) (A) (A) (A) (A) (A) (A) (A) (A) (A) (A)
                 (A) (A) (A) (A) (A) (A) (A) (A) (A) (A) (A) (A)
                 (A) (A) (A) (A) (A) (A) (A) (A) (A) (A) (A) (A)
                 (A) (A) (A) (A) (A) (A) (A) (A) (A) (A) (A) (A)
                 (A) (A) (A) (A) (A) (A) (A) (A) (A) (A) (A) (A)
                 (A) (A) (A) (A) (A) (A) (A) (A) (A) (A) (A) (A)
                 (A) (A) (A) (A) (A) (A) (A) (A) (A) (A) (A) (A)
                 (A) (A) (A) (A) (A) (A) (A) (A) (A) (A) (A) (A)
                 (A) (A) (A) (A) (A) (A) (A) (A) (A) (A) (A) (A)
                 (A) (A) (A) (A) (A) (A) (A) (A) (A) (A) (A) (A)
                 (A) (A) (A) (A) (A) (A) (A) (A) (A) (A) (A) (A)
                 (A) (A) (A) (A) (A) (A) (A) (A) (A) (A) (A) (A)
                 (A) (A) (A) (A) (A) (A) (A) (A) (A) (A) (A) (A)
                 (A) (A)
 The electronic state is 1-A.
 Alpha  occ. eigenvalues --  -11.25764 -11.25233 -11.25189 -11.24925 -11.24519
 Alpha  occ. eigenvalues --  -11.24429 -11.24419 -11.24371 -11.24218 -11.24165
 Alpha  occ. eigenvalues --  -11.24139 -11.24121 -11.24075 -11.24039 -11.24031
 Alpha  occ. eigenvalues --  -11.23975 -11.23734 -11.23643 -11.23503  -1.18615
 Alpha  occ. eigenvalues --   -1.15873  -1.15574  -1.09028  -1.02378  -1.02236
 Alpha  occ. eigenvalues --   -1.01875  -1.01489  -1.01098  -0.92921  -0.84294
 Alpha  occ. eigenvalues --   -0.83346  -0.82344  -0.81903  -0.81149  -0.77590
 Alpha  occ. eigenvalues --   -0.70866  -0.70370  -0.68986  -0.65697  -0.63893
 Alpha  occ. eigenvalues --   -0.63609  -0.62509  -0.61711  -0.61594  -0.59715
 Alpha  occ. eigenvalues --   -0.58849  -0.58486  -0.58318  -0.56813  -0.55028
 Alpha  occ. eigenvalues --   -0.51726  -0.50928  -0.50236  -0.49853  -0.49381
 Alpha  occ. eigenvalues --   -0.48438  -0.47936  -0.47509  -0.46327  -0.35012
 Alpha  occ. eigenvalues --   -0.34317  -0.33941  -0.33333  -0.32593  -0.31434
 Alpha virt. eigenvalues --    0.11524   0.12287   0.12777   0.13547   0.14970
 Alpha virt. eigenvalues --    0.15092   0.15613   0.16239   0.16479   0.16926
 Alpha virt. eigenvalues --    0.18905   0.19184   0.19230   0.21243   0.21300
 Alpha virt. eigenvalues --    0.21582   0.23573   0.23988   0.24976   0.25413
 Alpha virt. eigenvalues --    0.26903   0.31372   0.33208   0.34250   0.35779
 Alpha virt. eigenvalues --    0.37540   0.39831   0.40489   0.41520   0.43126
 Alpha virt. eigenvalues --    0.44090   0.44427   0.44906   0.45453   0.45628
 Alpha virt. eigenvalues --    0.45859   0.46753   0.47212   0.48020   0.50580
 Alpha virt. eigenvalues --    0.51082   0.51438   0.52114   0.54936   0.56042
 Alpha virt. eigenvalues --    0.57342   0.57842   0.58488   0.58940   0.59365
 Alpha virt. eigenvalues --    0.60165   0.60444   0.60625   0.61157   0.61461
 Alpha virt. eigenvalues --    0.62063   0.62240   0.62957   0.63498   0.63713
 Alpha virt. eigenvalues --    0.64278   0.64542   0.65212   0.65917   0.66405
 Alpha virt. eigenvalues --    0.67202   0.67811   0.68583   0.69881   0.72356
 Alpha virt. eigenvalues --    0.73134   0.73922   0.74333   0.75263   0.75748
 Alpha virt. eigenvalues --    0.76731   0.78874   0.79327   0.79874   0.81333
 Alpha virt. eigenvalues --    0.81511   0.82193   0.82499   0.82931   0.83259
 Alpha virt. eigenvalues --    0.83826   0.84356   0.84788   0.84885   0.85470
 Alpha virt. eigenvalues --    0.85976   0.86254   0.86444   0.87696   0.88165
 Alpha virt. eigenvalues --    0.90302   0.90782   0.92177   0.93418   0.94971
 Alpha virt. eigenvalues --    0.95964   0.96382   0.97060   0.98183   0.99681
 Alpha virt. eigenvalues --    0.99947   1.02327   1.02998   1.04701   1.06215
 Alpha virt. eigenvalues --    1.07101   1.08204   1.09248   1.10222   1.10716
 Alpha virt. eigenvalues --    1.11406   1.11744   1.12463   1.12709   1.13829
 Alpha virt. eigenvalues --    1.14968   1.16559   1.19560   1.20594   1.21005
 Alpha virt. eigenvalues --    1.23887   1.25817   1.27302   1.28273   1.29016
 Alpha virt. eigenvalues --    1.29416   1.32093   1.32980   1.46700   1.47681
 Alpha virt. eigenvalues --    1.52091   1.54130   1.57120   2.53561   2.55693
 Alpha virt. eigenvalues --    2.56108   2.57764   2.62082   2.62291   2.63918
 Alpha virt. eigenvalues --    2.66360   2.67170   2.68490   2.71963   2.74309
 Alpha virt. eigenvalues --    2.78324   2.83458   2.86574   2.91601   2.94356
 Alpha virt. eigenvalues --    2.94596   2.94748   2.96026   2.98056   2.98555
 Alpha virt. eigenvalues --    3.00010   3.02225   3.03894   3.04476   3.06445
 Alpha virt. eigenvalues --    3.08513   3.09195   3.09729   3.10101   3.13194
 Alpha virt. eigenvalues --    3.15177   3.16217   3.17720   3.18421   3.19371
 Alpha virt. eigenvalues --    3.21619   3.24114   3.25128   3.27659   3.28769
 Alpha virt. eigenvalues --    3.31341   3.33872   3.34289   3.35682   3.41002
 Alpha virt. eigenvalues --    3.41410   3.44176   3.45100   3.49915   3.52441
 Alpha virt. eigenvalues --    3.53485   3.55914   3.57520   3.58260   3.59641
 Alpha virt. eigenvalues --    3.62326   3.64143   3.65028   3.66243   3.66650
 Alpha virt. eigenvalues --    3.67666   3.69219   3.71261   3.72434   3.74131
 Alpha virt. eigenvalues --    3.76168   3.77432   3.78585   3.85505   3.87940
 Alpha virt. eigenvalues --    3.91164  24.26013  24.30044  24.31783  24.50514
 Alpha virt. eigenvalues --   24.50791  24.51031  24.53104  24.54595  24.56502
 Alpha virt. eigenvalues --   24.76260  24.77088  24.79109  24.80204  24.80683
 Alpha virt. eigenvalues --   24.82740  24.87313  25.04669  25.05795  25.07120
          Condensed to atoms (all electrons):
              1          2          3          4          5          6
     1  C    6.098681   0.473247   0.118860  -0.024719  -0.070922   0.008256
     2  H    0.473247   0.503347  -0.075928   0.006504   0.004438   0.001465
     3  C    0.118860  -0.075928   5.392563   0.499404   0.450935  -0.076795
     4  C   -0.024719   0.006504   0.499404   5.047110  -0.063078   0.468596
     5  C   -0.070922   0.004438   0.450935  -0.063078   5.098271  -0.029629
     6  C    0.008256   0.001465  -0.076795   0.468596  -0.029629   5.047005
     7  H   -0.002085   0.002818  -0.045522   0.394416   0.004769  -0.033796
     8  C    0.002463  -0.000224  -0.064298  -0.034122   0.480371  -0.077309
     9  H    0.000873  -0.000035  -0.047874   0.004616   0.386227  -0.000135
    10  C    0.001717   0.000005  -0.016071  -0.088936  -0.093584   0.499670
    11  H   -0.000412  -0.000034   0.007029  -0.039474  -0.000631   0.396394
    12  H   -0.000372   0.000012   0.005977  -0.000375  -0.038527   0.005904
    13  H   -0.000026  -0.000002  -0.001677   0.007564   0.007981  -0.042550
    14  C    0.151097  -0.070558  -0.139725  -0.004351  -0.003291  -0.000596
    15  C   -0.055220   0.005550  -0.003612   0.000732  -0.012044   0.000053
    16  C   -0.024683   0.001499  -0.001937   0.000616   0.000530  -0.000011
    17  C    0.003177  -0.000264   0.001905   0.000029  -0.000454  -0.000001
    18  H    0.000253   0.000113  -0.002806  -0.000198  -0.001074   0.000002
    19  C    0.006845   0.001566  -0.000515  -0.000017   0.000132   0.000002
    20  H   -0.000053   0.002342   0.000368   0.000268  -0.000007   0.000007
    21  C    0.001269  -0.000001  -0.000088  -0.000008  -0.000024   0.000000
    22  H   -0.000347   0.000011   0.000027   0.000000   0.000057   0.000000
    23  H   -0.000340  -0.000039   0.000025   0.000001   0.000000   0.000000
    24  H   -0.000012  -0.000001  -0.000003   0.000000   0.000000   0.000000
    25  C    0.036468  -0.062517  -0.066116  -0.000618   0.006636  -0.000770
    26  C   -0.029288   0.001050  -0.012460   0.000867  -0.017920   0.000357
    27  C   -0.085833  -0.004868   0.011415  -0.000263   0.000781   0.000005
    28  C    0.012095  -0.000129  -0.001516  -0.000116  -0.000917   0.000004
    29  H   -0.011194  -0.000274   0.000839  -0.001121  -0.001082  -0.000125
    30  C    0.008129   0.000674  -0.000879   0.000009  -0.000021   0.000000
    31  H   -0.002523  -0.000143   0.000829  -0.000005  -0.000041   0.000000
    32  C    0.000417   0.000031   0.000120  -0.000004  -0.000018   0.000000
    33  H   -0.000361   0.000014   0.000058   0.000004   0.000027   0.000000
    34  H   -0.000355   0.000004   0.000012   0.000000   0.000000   0.000000
    35  H   -0.000014  -0.000002   0.000001   0.000000   0.000001   0.000000
              7          8          9         10         11         12
     1  C   -0.002085   0.002463   0.000873   0.001717  -0.000412  -0.000372
     2  H    0.002818  -0.000224  -0.000035   0.000005  -0.000034   0.000012
     3  C   -0.045522  -0.064298  -0.047874  -0.016071   0.007029   0.005977
     4  C    0.394416  -0.034122   0.004616  -0.088936  -0.039474  -0.000375
     5  C    0.004769   0.480371   0.386227  -0.093584  -0.000631  -0.038527
     6  C   -0.033796  -0.077309  -0.000135   0.499670   0.396394   0.005904
     7  H    0.506526  -0.000289  -0.000270   0.005072  -0.004077   0.000025
     8  C   -0.000289   5.046599  -0.027003   0.490215   0.006281   0.396997
     9  H   -0.000270  -0.027003   0.497340   0.004642   0.000017  -0.003397
    10  C    0.005072   0.490215   0.004642   5.033738  -0.041071  -0.039817
    11  H   -0.004077   0.006281   0.000017  -0.041071   0.517994  -0.000206
    12  H    0.000025   0.396997  -0.003397  -0.039817  -0.000206   0.514457
    13  H   -0.000179  -0.042942  -0.000171   0.399441  -0.004561  -0.004365
    14  C    0.000162   0.001987  -0.003691  -0.000055   0.000020   0.000027
    15  C   -0.000025  -0.000097   0.002103  -0.000003  -0.000001   0.000037
    16  C    0.000192   0.000045  -0.000215  -0.000014   0.000001   0.000002
    17  C    0.000001  -0.000102   0.001154   0.000002   0.000000  -0.000001
    18  H   -0.000002   0.000866   0.001683  -0.000014   0.000000  -0.000034
    19  C   -0.000002   0.000001  -0.000063   0.000000   0.000000   0.000000
    20  H    0.000060  -0.000001   0.000001  -0.000002   0.000000   0.000000
    21  C   -0.000001   0.000001   0.000006   0.000000   0.000000   0.000000
    22  H    0.000000   0.000002  -0.000061   0.000000   0.000000   0.000001
    23  H    0.000000   0.000000   0.000001   0.000000   0.000000   0.000000
    24  H    0.000000   0.000000   0.000000   0.000000   0.000000   0.000000
    25  C    0.000502   0.000809   0.001324  -0.000069   0.000024   0.000018
    26  C    0.000141  -0.001447   0.001564   0.000130  -0.000007   0.000005
    27  C    0.000013   0.000016   0.000025   0.000000   0.000000   0.000000
    28  C    0.000005  -0.000040   0.000097   0.000004   0.000000  -0.000002
    29  H    0.000083   0.000372   0.000014   0.000093   0.000011   0.000039
    30  C   -0.000001   0.000000  -0.000046   0.000000   0.000000   0.000000
    31  H   -0.000002   0.000000   0.000021   0.000000   0.000000   0.000000
    32  C    0.000000   0.000000   0.000001   0.000000   0.000000   0.000000
    33  H    0.000000  -0.000001   0.000000  -0.000001   0.000000   0.000000
    34  H    0.000000   0.000000  -0.000001   0.000000   0.000000   0.000000
    35  H    0.000000   0.000000   0.000000   0.000000   0.000000   0.000000
             13         14         15         16         17         18
     1  C   -0.000026   0.151097  -0.055220  -0.024683   0.003177   0.000253
     2  H   -0.000002  -0.070558   0.005550   0.001499  -0.000264   0.000113
     3  C   -0.001677  -0.139725  -0.003612  -0.001937   0.001905  -0.002806
     4  C    0.007564  -0.004351   0.000732   0.000616   0.000029  -0.000198
     5  C    0.007981  -0.003291  -0.012044   0.000530  -0.000454  -0.001074
     6  C   -0.042550  -0.000596   0.000053  -0.000011  -0.000001   0.000002
     7  H   -0.000179   0.000162  -0.000025   0.000192   0.000001  -0.000002
     8  C   -0.042942   0.001987  -0.000097   0.000045  -0.000102   0.000866
     9  H   -0.000171  -0.003691   0.002103  -0.000215   0.001154   0.001683
    10  C    0.399441  -0.000055  -0.000003  -0.000014   0.000002  -0.000014
    11  H   -0.004561   0.000020  -0.000001   0.000001   0.000000   0.000000
    12  H   -0.004365   0.000027   0.000037   0.000002  -0.000001  -0.000034
    13  H    0.516899  -0.000003   0.000001   0.000000   0.000000   0.000000
    14  C   -0.000003   5.389315   0.446654   0.492648  -0.058350  -0.044657
    15  C    0.000001   0.446654   5.070252  -0.072122   0.478932   0.388974
    16  C    0.000000   0.492648  -0.072122   5.092030  -0.030606   0.004073
    17  C    0.000000  -0.058350   0.478932  -0.030606   5.040197  -0.028414
    18  H    0.000000  -0.044657   0.388974   0.004073  -0.028414   0.496759
    19  C    0.000000  -0.073513  -0.026561   0.454090  -0.078567   0.000014
    20  H    0.000000  -0.050738   0.004327   0.400476  -0.000281  -0.000272
    21  C    0.000000  -0.018784  -0.091177  -0.086294   0.491207   0.004549
    22  H    0.000000   0.006021  -0.038934  -0.000478   0.397222  -0.003328
    23  H    0.000000   0.006931  -0.000684  -0.039683   0.006239   0.000015
    24  H    0.000000  -0.001546   0.007889   0.007485  -0.042919  -0.000172
    25  C    0.000002  -0.097036  -0.007719  -0.001550  -0.000576   0.001092
    26  C   -0.000003   0.000469   0.001656  -0.000442   0.000021  -0.000071
    27  C    0.000000  -0.006560  -0.008347   0.000641  -0.000335   0.000203
    28  C    0.000000  -0.000796   0.000052   0.000007   0.000005  -0.000087
    29  H    0.000009   0.000408   0.000071  -0.000017   0.000000   0.000019
    30  C    0.000000  -0.001558  -0.000238  -0.000048  -0.000007   0.000043
    31  H    0.000000   0.003972  -0.000567   0.001724  -0.000238  -0.000069
    32  C    0.000000   0.000126   0.000036  -0.000003   0.000002  -0.000042
    33  H    0.000000   0.000012   0.000000   0.000000   0.000000   0.000000
    34  H    0.000000   0.000014   0.000014  -0.000005   0.000002   0.000005
    35  H    0.000000   0.000002   0.000000   0.000000   0.000000   0.000001
             19         20         21         22         23         24
     1  C    0.006845  -0.000053   0.001269  -0.000347  -0.000340  -0.000012
     2  H    0.001566   0.002342  -0.000001   0.000011  -0.000039  -0.000001
     3  C   -0.000515   0.000368  -0.000088   0.000027   0.000025  -0.000003
     4  C   -0.000017   0.000268  -0.000008   0.000000   0.000001   0.000000
     5  C    0.000132  -0.000007  -0.000024   0.000057   0.000000   0.000000
     6  C    0.000002   0.000007   0.000000   0.000000   0.000000   0.000000
     7  H   -0.000002   0.000060  -0.000001   0.000000   0.000000   0.000000
     8  C    0.000001  -0.000001   0.000001   0.000002   0.000000   0.000000
     9  H   -0.000063   0.000001   0.000006  -0.000061   0.000001   0.000000
    10  C    0.000000  -0.000002   0.000000   0.000000   0.000000   0.000000
    11  H    0.000000   0.000000   0.000000   0.000000   0.000000   0.000000
    12  H    0.000000   0.000000   0.000000   0.000001   0.000000   0.000000
    13  H    0.000000   0.000000   0.000000   0.000000   0.000000   0.000000
    14  C   -0.073513  -0.050738  -0.018784   0.006021   0.006931  -0.001546
    15  C   -0.026561   0.004327  -0.091177  -0.038934  -0.000684   0.007889
    16  C    0.454090   0.400476  -0.086294  -0.000478  -0.039683   0.007485
    17  C   -0.078567  -0.000281   0.491207   0.397222   0.006239  -0.042919
    18  H    0.000014  -0.000272   0.004549  -0.003328   0.000015  -0.000172
    19  C    5.059640  -0.034881   0.497548   0.005975   0.396954  -0.042555
    20  H   -0.034881   0.509794   0.005244   0.000025  -0.004207  -0.000184
    21  C    0.497548   0.005244   5.034130  -0.039833  -0.040684   0.399674
    22  H    0.005975   0.000025  -0.039833   0.514834  -0.000206  -0.004473
    23  H    0.396954  -0.004207  -0.040684  -0.000206   0.518114  -0.004585
    24  H   -0.042555  -0.000184   0.399674  -0.004473  -0.004585   0.517398
    25  C   -0.000423   0.000137   0.000048   0.000024   0.000011   0.000001
    26  C    0.000021  -0.000035  -0.000002   0.000000   0.000000   0.000000
    27  C   -0.000108   0.000298   0.000105   0.000017  -0.000002   0.000000
    28  C    0.000000   0.000000   0.000000   0.000000   0.000000   0.000000
    29  H    0.000000   0.000001   0.000000   0.000000   0.000000   0.000000
    30  C    0.000013  -0.000008   0.000002   0.000001   0.000000   0.000000
    31  H    0.000116   0.000205  -0.000090   0.000005   0.000005   0.000001
    32  C    0.000000   0.000001   0.000000   0.000000   0.000000   0.000000
    33  H    0.000000   0.000000   0.000000   0.000000   0.000000   0.000000
    34  H   -0.000001   0.000000   0.000000   0.000000   0.000000   0.000000
    35  H    0.000000   0.000000   0.000000   0.000000   0.000000   0.000000
             25         26         27         28         29         30
     1  C    0.036468  -0.029288  -0.085833   0.012095  -0.011194   0.008129
     2  H   -0.062517   0.001050  -0.004868  -0.000129  -0.000274   0.000674
     3  C   -0.066116  -0.012460   0.011415  -0.001516   0.000839  -0.000879
     4  C   -0.000618   0.000867  -0.000263  -0.000116  -0.001121   0.000009
     5  C    0.006636  -0.017920   0.000781  -0.000917  -0.001082  -0.000021
     6  C   -0.000770   0.000357   0.000005   0.000004  -0.000125   0.000000
     7  H    0.000502   0.000141   0.000013   0.000005   0.000083  -0.000001
     8  C    0.000809  -0.001447   0.000016  -0.000040   0.000372   0.000000
     9  H    0.001324   0.001564   0.000025   0.000097   0.000014  -0.000046
    10  C   -0.000069   0.000130   0.000000   0.000004   0.000093   0.000000
    11  H    0.000024  -0.000007   0.000000   0.000000   0.000011   0.000000
    12  H    0.000018   0.000005   0.000000  -0.000002   0.000039   0.000000
    13  H    0.000002  -0.000003   0.000000   0.000000   0.000009   0.000000
    14  C   -0.097036   0.000469  -0.006560  -0.000796   0.000408  -0.001558
    15  C   -0.007719   0.001656  -0.008347   0.000052   0.000071  -0.000238
    16  C   -0.001550  -0.000442   0.000641   0.000007  -0.000017  -0.000048
    17  C   -0.000576   0.000021  -0.000335   0.000005   0.000000  -0.000007
    18  H    0.001092  -0.000071   0.000203  -0.000087   0.000019   0.000043
    19  C   -0.000423   0.000021  -0.000108   0.000000   0.000000   0.000013
    20  H    0.000137  -0.000035   0.000298   0.000000   0.000001  -0.000008
    21  C    0.000048  -0.000002   0.000105   0.000000   0.000000   0.000002
    22  H    0.000024   0.000000   0.000017   0.000000   0.000000   0.000001
    23  H    0.000011   0.000000  -0.000002   0.000000   0.000000   0.000000
    24  H    0.000001   0.000000   0.000000   0.000000   0.000000   0.000000
    25  C    5.353277   0.501551   0.470966  -0.069356  -0.034732  -0.056795
    26  C    0.501551   5.094741  -0.083113   0.454471   0.393789  -0.030004
    27  C    0.470966  -0.083113   5.122954  -0.033344   0.004952   0.464023
    28  C   -0.069356   0.454471  -0.033344   5.078341  -0.036311  -0.074010
    29  H   -0.034732   0.393789   0.004952  -0.036311   0.477149  -0.000428
    30  C   -0.056795  -0.030004   0.464023  -0.074010  -0.000428   5.061190
    31  H   -0.045563   0.004448   0.397636  -0.000464  -0.000198  -0.035161
    32  C   -0.020529  -0.090189  -0.085049   0.496247   0.005019   0.480326
    33  H    0.006485  -0.036828  -0.000408   0.395591  -0.003504   0.006016
    34  H    0.006150  -0.000441  -0.038415   0.006003   0.000018   0.397137
    35  H   -0.001457   0.007672   0.007441  -0.042118  -0.000170  -0.043238
             31         32         33         34         35
     1  C   -0.002523   0.000417  -0.000361  -0.000355  -0.000014
     2  H   -0.000143   0.000031   0.000014   0.000004  -0.000002
     3  C    0.000829   0.000120   0.000058   0.000012   0.000001
     4  C   -0.000005  -0.000004   0.000004   0.000000   0.000000
     5  C   -0.000041  -0.000018   0.000027   0.000000   0.000001
     6  C    0.000000   0.000000   0.000000   0.000000   0.000000
     7  H   -0.000002   0.000000   0.000000   0.000000   0.000000
     8  C    0.000000   0.000000  -0.000001   0.000000   0.000000
     9  H    0.000021   0.000001   0.000000  -0.000001   0.000000
    10  C    0.000000   0.000000  -0.000001   0.000000   0.000000
    11  H    0.000000   0.000000   0.000000   0.000000   0.000000
    12  H    0.000000   0.000000   0.000000   0.000000   0.000000
    13  H    0.000000   0.000000   0.000000   0.000000   0.000000
    14  C    0.003972   0.000126   0.000012   0.000014   0.000002
    15  C   -0.000567   0.000036   0.000000   0.000014   0.000000
    16  C    0.001724  -0.000003   0.000000  -0.000005   0.000000
    17  C   -0.000238   0.000002   0.000000   0.000002   0.000000
    18  H   -0.000069  -0.000042   0.000000   0.000005   0.000001
    19  C    0.000116   0.000000   0.000000  -0.000001   0.000000
    20  H    0.000205   0.000001   0.000000   0.000000   0.000000
    21  C   -0.000090   0.000000   0.000000   0.000000   0.000000
    22  H    0.000005   0.000000   0.000000   0.000000   0.000000
    23  H    0.000005   0.000000   0.000000   0.000000   0.000000
    24  H    0.000001   0.000000   0.000000   0.000000   0.000000
    25  C   -0.045563  -0.020529   0.006485   0.006150  -0.001457
    26  C    0.004448  -0.090189  -0.036828  -0.000441   0.007672
    27  C    0.397636  -0.085049  -0.000408  -0.038415   0.007441
    28  C   -0.000464   0.496247   0.395591   0.006003  -0.042118
    29  H   -0.000198   0.005019  -0.003504   0.000018  -0.000170
    30  C   -0.035161   0.480326   0.006016   0.397137  -0.043238
    31  H    0.490688   0.005235   0.000017  -0.003892  -0.000173
    32  C    0.005235   5.042595  -0.041242  -0.040836   0.399488
    33  H    0.000017  -0.041242   0.517808  -0.000213  -0.004467
    34  H   -0.003892  -0.040836  -0.000213   0.517603  -0.004407
    35  H   -0.000173   0.399488  -0.004467  -0.004407   0.519340
 Mulliken atomic charges:
              1
     1  C   -0.615090
     2  H    0.210329
     3  C    0.067453
     4  C   -0.173328
     5  C   -0.107892
     6  C   -0.166002
     7  H    0.171466
     8  C   -0.179150
     9  H    0.181251
    10  C   -0.155090
    11  H    0.162705
    12  H    0.163596
    13  H    0.164580
    14  C    0.075943
    15  C   -0.089979
    16  C   -0.197950
    17  C   -0.178981
    18  H    0.182576
    19  C   -0.165713
    20  H    0.167116
    21  C   -0.156798
    22  H    0.163441
    23  H    0.162135
    24  H    0.164003
    25  C    0.080300
    26  C   -0.160702
    27  C   -0.134844
    28  C   -0.183716
    29  H    0.206272
    30  C   -0.175122
    31  H    0.184225
    32  C   -0.151733
    33  H    0.160993
    34  H    0.161603
    35  H    0.162102
 Sum of Mulliken atomic charges =   0.00000
 Mulliken charges with hydrogens summed into heavy atoms:
              1
     1  C   -0.404761
     3  C    0.067453
     4  C   -0.001862
     5  C    0.073359
     6  C   -0.003297
     8  C   -0.015554
    10  C    0.009490
    14  C    0.075943
    15  C    0.092598
    16  C   -0.030834
    17  C   -0.015540
    19  C   -0.003578
    21  C    0.007205
    25  C    0.080300
    26  C    0.045571
    27  C    0.049382
    28  C   -0.022723
    30  C   -0.013519
    32  C    0.010368
 Sum of Mulliken charges with hydrogens summed into heavy atoms =   0.00000
 Electronic spatial extent (au):  <R**2>=           4931.9505
 Charge=              0.0000 electrons
 Dipole moment (field-independent basis, Debye):
    X=             -0.0947    Y=             -0.1647    Z=             -0.0186  Tot=              0.1909
 Quadrupole moment (field-independent basis, Debye-Ang):
   XX=           -107.8117   YY=           -113.2372   ZZ=           -106.7085
   XY=             -2.7737   XZ=             -0.9977   YZ=              2.6393
 Traceless Quadrupole moment (field-independent basis, Debye-Ang):
   XX=              1.4408   YY=             -3.9847   ZZ=              2.5439
   XY=             -2.7737   XZ=             -0.9977   YZ=              2.6393
 Octapole moment (field-independent basis, Debye-Ang**2):
  XXX=            -28.1299  YYY=              7.3749  ZZZ=              0.6944  XYY=             37.2327
  XXY=              2.9059  XXZ=             -3.3262  XZZ=            -10.0349  YZZ=            -17.9925
  YYZ=             12.2528  XYZ=             -1.2930
 Hexadecapole moment (field-independent basis, Debye-Ang**3):
 XXXX=          -3054.4550 YYYY=          -2907.3561 ZZZZ=           -670.5908 XXXY=             60.8105
 XXXZ=            -16.5856 YYYX=            -64.1313 YYYZ=             75.8258 ZZZX=              6.6836
 ZZZY=             -2.8976 XXYY=          -1020.5252 XXZZ=           -629.2397 YYZZ=           -633.1535
 XXYZ=            -10.5472 YYXZ=             11.0586 ZZXY=            -33.5843
 N-N= 1.290598648204D+03 E-N=-4.277272138852D+03  KE= 7.286023180860D+02
 PrsmSu:  requested number of processors reduced to:  10 ShMem   1 Linda.
 Calling FoFJK, ICntrl=      2127 FMM=F ISym2X=0 I1Cent= 0 IOpClX= 0 NMat=1 NMatS=1 NMatT=0.
 ***** Axes restored to original set *****
 -------------------------------------------------------------------
 Center     Atomic                   Forces (Hartrees/Bohr)
 Number     Number              X              Y              Z
 -------------------------------------------------------------------
      1        6           0.000802910   -0.002163004   -0.023113736
      2        1          -0.004208409   -0.002330039    0.024916050
      3        6          -0.011452828    0.000106168   -0.007520165
      4        6           0.002430398    0.000171062   -0.005482755
      5        6           0.006003343   -0.001594572    0.010865983
      6        6          -0.010645718   -0.000004153   -0.008586781
      7        1          -0.005025118    0.000804426    0.016958226
      8        6          -0.001580158    0.000494384    0.012415498
      9        1          -0.023782917    0.003669458   -0.017420388
     10        6          -0.013713728    0.000461219    0.000451087
     11        1           0.010773089    0.000053032    0.012617491
     12        1           0.005266256   -0.000616116   -0.015753102
     13        1           0.016493975   -0.000624647   -0.003239723
     14        6           0.006396719   -0.012018911   -0.004769622
     15        6          -0.002461678    0.007197720    0.008412530
     16        6          -0.001137709    0.000600485   -0.005743077
     17        6          -0.000095397    0.001238372    0.012344476
     18        1           0.016123771   -0.019307878   -0.011805403
     19        6           0.004651694   -0.011295404   -0.006167391
     20        1           0.001796806   -0.000794588    0.017498328
     21        6           0.005893097   -0.011997363    0.003131325
     22        1          -0.001943448    0.001333614   -0.016561678
     23        1          -0.004817306    0.012187312    0.010272178
     24        1          -0.007002910    0.013838357   -0.006463411
     25        6           0.005910797    0.013504188    0.002967074
     26        6          -0.012132700    0.000507512    0.001064836
     27        6           0.006054192   -0.005320251   -0.002837181
     28        6          -0.002596278    0.011704732    0.004495931
     29        1           0.021744764    0.001528857   -0.003451035
     30        6           0.012257902   -0.002138680   -0.002803606
     31        1          -0.007497285    0.015734049    0.006548631
     32        6           0.005314789    0.012181698    0.003576611
     33        1           0.007660172   -0.013678771   -0.005692496
     34        1          -0.016501903    0.000160817    0.002224097
     35        1          -0.008979183   -0.013593083   -0.003348803
 -------------------------------------------------------------------
 Cartesian Forces:  Max     0.024916050 RMS     0.009551424

 GradGradGradGradGradGradGradGradGradGradGradGradGradGradGradGradGradGrad
 Berny optimization.
 Internal  Forces:  Max     0.028835771 RMS     0.007786956
 Search for a local minimum.
 Step number   1 out of a maximum of  197
 All quantities printed in internal units (Hartrees-Bohrs-Radians)
 Mixed Optimization -- RFO/linear search
 Second derivative matrix not updated -- first step.
     Eigenvalues ---    0.00635   0.00649   0.00657   0.01533   0.01538
     Eigenvalues ---    0.01539   0.02137   0.02142   0.02146   0.02171
     Eigenvalues ---    0.02172   0.02173   0.02182   0.02183   0.02184
     Eigenvalues ---    0.02201   0.02201   0.02202   0.02211   0.02211
     Eigenvalues ---    0.02213   0.02214   0.02214   0.02216   0.02217
     Eigenvalues ---    0.02217   0.02219   0.02219   0.02220   0.02226
     Eigenvalues ---    0.04556   0.06390   0.06638   0.15997   0.15998
     Eigenvalues ---    0.16000   0.16000   0.16000   0.16000   0.16000
     Eigenvalues ---    0.16000   0.16000   0.16000   0.16000   0.16000
     Eigenvalues ---    0.16000   0.16000   0.16000   0.18860   0.19347
     Eigenvalues ---    0.22000   0.22000   0.22000   0.22000   0.22000
     Eigenvalues ---    0.22000   0.23467   0.23477   0.23478   0.24971
     Eigenvalues ---    0.24999   0.25000   0.31256   0.31357   0.31467
     Eigenvalues ---    0.31529   0.33509   0.33608   0.33967   0.34059
     Eigenvalues ---    0.34082   0.34096   0.34253   0.34256   0.34261
     Eigenvalues ---    0.34265   0.34273   0.34278   0.34279   0.34282
     Eigenvalues ---    0.34291   0.42384   0.42472   0.42485   0.42560
     Eigenvalues ---    0.42571   0.42621   0.46317   0.46397   0.46435
     Eigenvalues ---    0.46746   0.46751   0.46818   0.47200   0.47205
     Eigenvalues ---    0.47226   0.47334   0.47344   0.474481000.00000
     Eigenvalues --- 1000.000001000.000001000.000001000.000001000.00000
     Eigenvalues --- 1000.000001000.000001000.000001000.000001000.00000
     Eigenvalues --- 1000.000001000.000001000.000001000.000001000.00000
     Eigenvalues --- 1000.000001000.000001000.000001000.000001000.00000
     Eigenvalues --- 1000.000001000.000001000.000001000.000001000.00000
     Eigenvalues --- 1000.000001000.000001000.000001000.000001000.00000
     Eigenvalues --- 1000.000001000.000001000.000001000.000001000.00000
     Eigenvalues --- 1000.000001000.000001000.000001000.000001000.00000
     Eigenvalues --- 1000.000001000.000001000.000001000.000001000.00000
     Eigenvalues --- 1000.000001000.000001000.000001000.000001000.00000
     Eigenvalues --- 1000.000001000.000001000.000001000.000001000.00000
     Eigenvalues --- 1000.000001000.000001000.000001000.000001000.00000
     Eigenvalues --- 1000.000001000.000001000.000001000.000001000.00000
     Eigenvalues --- 1000.000001000.000001000.000001000.000001000.00000
     Eigenvalues --- 1000.000001000.000001000.000001000.000001000.00000
     Eigenvalues --- 1000.000001000.000001000.000001000.000001000.00000
     Eigenvalues --- 1000.000001000.000001000.000001000.000001000.00000
     Eigenvalues --- 1000.000001000.00000
 RFO step:  Lambda=-4.19114411D-02 EMin= 6.34568675D-03
 Linear search not attempted -- first point.
 Maximum step size (   0.300) exceeded in Quadratic search.
    -- Step size scaled by   0.590
 Iteration  1 RMS(Cart)=  0.12562754 RMS(Int)=  0.00303502
 Iteration  2 RMS(Cart)=  0.00613087 RMS(Int)=  0.00028161
 Iteration  3 RMS(Cart)=  0.00001071 RMS(Int)=  0.00028155
 Iteration  4 RMS(Cart)=  0.00000000 RMS(Int)=  0.00028155
 Variable       Old X    -DE/DX   Delta X   Delta X   Delta X     New X
                                 (Linear)    (Quad)   (Total)
    R1        2.12227  -0.02499   0.00000  -0.04162  -0.04162   2.08065
    R2        2.85014   0.02375   0.00000   0.03926   0.03926   2.88940
    R3        2.85336   0.02282   0.00000   0.03789   0.03789   2.89125
    R4        2.85131   0.02336   0.00000   0.03868   0.03868   2.88999
    R5        2.63933  -0.00417   0.00000  -0.00482  -0.00480   2.63453
    R6        2.63951   0.00086   0.00000   0.00115   0.00116   2.64067
    R7        2.62788  -0.00249   0.00000  -0.00294  -0.00293   2.62495
    R8        2.07169  -0.01769   0.00000  -0.02729  -0.02729   2.04440
    R9        2.62561  -0.00440   0.00000  -0.00495  -0.00496   2.62066
   R10        2.08167  -0.02884   0.00000  -0.04516  -0.04516   2.03651
   R11        2.62693  -0.00899   0.00000  -0.01045  -0.01047   2.61646
   R12        2.06872  -0.01659   0.00000  -0.02547  -0.02547   2.04325
   R13        2.62851  -0.00559   0.00000  -0.00648  -0.00650   2.62200
   R14        2.06862  -0.01662   0.00000  -0.02551  -0.02551   2.04311
   R15        2.06863  -0.01682   0.00000  -0.02582  -0.02582   2.04282
   R16        2.63869  -0.00008   0.00000   0.00001   0.00003   2.63872
   R17        2.63889  -0.00430   0.00000  -0.00498  -0.00497   2.63392
   R18        2.62569  -0.00473   0.00000  -0.00536  -0.00536   2.62033
   R19        2.07997  -0.02641   0.00000  -0.04126  -0.04126   2.03871
   R20        2.62795  -0.00235   0.00000  -0.00275  -0.00276   2.62520
   R21        2.07192  -0.01760   0.00000  -0.02714  -0.02714   2.04478
   R22        2.62866  -0.00531   0.00000  -0.00616  -0.00618   2.62249
   R23        2.06885  -0.01673   0.00000  -0.02568  -0.02568   2.04317
   R24        2.62749  -0.00876   0.00000  -0.01016  -0.01018   2.61732
   R25        2.06905  -0.01665   0.00000  -0.02557  -0.02557   2.04348
   R26        2.06857  -0.01680   0.00000  -0.02578  -0.02578   2.04279
   R27        2.63474  -0.00233   0.00000  -0.00259  -0.00258   2.63216
   R28        2.64424  -0.00215   0.00000  -0.00249  -0.00248   2.64176
   R29        2.62940  -0.00129   0.00000  -0.00141  -0.00141   2.62799
   R30        2.07386  -0.02199   0.00000  -0.03402  -0.03402   2.03984
   R31        2.62375  -0.00494   0.00000  -0.00572  -0.00572   2.61804
   R32        2.07231  -0.01859   0.00000  -0.02870  -0.02870   2.04361
   R33        2.62542  -0.00756   0.00000  -0.00870  -0.00870   2.61671
   R34        2.06901  -0.01668   0.00000  -0.02561  -0.02561   2.04339
   R35        2.62972  -0.00484   0.00000  -0.00570  -0.00571   2.62401
   R36        2.06892  -0.01665   0.00000  -0.02557  -0.02557   2.04335
   R37        2.06842  -0.01663   0.00000  -0.02552  -0.02552   2.04291
    A1        1.87514  -0.01005   0.00000  -0.05145  -0.05053   1.82461
    A2        1.88332  -0.00853   0.00000  -0.04767  -0.04686   1.83646
    A3        1.82931   0.00369   0.00000  -0.00047  -0.00022   1.82909
    A4        1.93027   0.01540   0.00000   0.05446   0.05330   1.98357
    A5        1.99483   0.00101   0.00000   0.02192   0.02002   2.01485
    A6        1.94367  -0.00342   0.00000   0.01166   0.00948   1.95315
    A7        2.07910  -0.01123   0.00000  -0.02267  -0.02269   2.05641
    A8        2.12539   0.02307   0.00000   0.04670   0.04667   2.17206
    A9        2.07868  -0.01184   0.00000  -0.02399  -0.02396   2.05472
   A10        2.10036   0.00815   0.00000   0.01786   0.01788   2.11824
   A11        2.09450  -0.00470   0.00000  -0.01076  -0.01078   2.08372
   A12        2.08832  -0.00345   0.00000  -0.00709  -0.00711   2.08122
   A13        2.10244   0.00452   0.00000   0.01020   0.01019   2.11263
   A14        2.07805   0.00442   0.00000   0.01450   0.01447   2.09252
   A15        2.10260  -0.00893   0.00000  -0.02454  -0.02457   2.07803
   A16        2.09792  -0.00023   0.00000  -0.00144  -0.00145   2.09648
   A17        2.09113   0.00026   0.00000   0.00114   0.00114   2.09227
   A18        2.09413  -0.00003   0.00000   0.00030   0.00030   2.09444
   A19        2.09644   0.00237   0.00000   0.00491   0.00489   2.10134
   A20        2.09138  -0.00110   0.00000  -0.00222  -0.00221   2.08917
   A21        2.09536  -0.00126   0.00000  -0.00269  -0.00268   2.09268
   A22        2.09052  -0.00296   0.00000  -0.00753  -0.00757   2.08295
   A23        2.09643   0.00146   0.00000   0.00371   0.00372   2.10015
   A24        2.09623   0.00150   0.00000   0.00383   0.00385   2.10008
   A25        2.11770   0.01839   0.00000   0.03723   0.03717   2.15486
   A26        2.08462  -0.00774   0.00000  -0.01562  -0.01568   2.06894
   A27        2.08086  -0.01066   0.00000  -0.02167  -0.02166   2.05920
   A28        2.10157   0.00415   0.00000   0.00932   0.00927   2.11084
   A29        2.07774   0.00373   0.00000   0.01246   0.01236   2.09009
   A30        2.10372  -0.00784   0.00000  -0.02137  -0.02148   2.08224
   A31        2.09890   0.00735   0.00000   0.01616   0.01617   2.11506
   A32        2.09533  -0.00437   0.00000  -0.01012  -0.01013   2.08520
   A33        2.08896  -0.00298   0.00000  -0.00604  -0.00606   2.08290
   A34        2.09598   0.00224   0.00000   0.00463   0.00462   2.10059
   A35        2.09178  -0.00103   0.00000  -0.00204  -0.00205   2.08973
   A36        2.09543  -0.00121   0.00000  -0.00258  -0.00258   2.09284
   A37        2.09788  -0.00030   0.00000  -0.00140  -0.00142   2.09646
   A38        2.09101   0.00036   0.00000   0.00132   0.00133   2.09234
   A39        2.09430  -0.00006   0.00000   0.00008   0.00009   2.09439
   A40        2.09117  -0.00277   0.00000  -0.00698  -0.00701   2.08416
   A41        2.09588   0.00142   0.00000   0.00360   0.00360   2.09948
   A42        2.09614   0.00135   0.00000   0.00339   0.00340   2.09953
   A43        2.13859   0.00749   0.00000   0.01507   0.01506   2.15365
   A44        2.06703   0.00038   0.00000   0.00068   0.00067   2.06770
   A45        2.07663  -0.00789   0.00000  -0.01598  -0.01597   2.06066
   A46        2.10135   0.00347   0.00000   0.00794   0.00794   2.10930
   A47        2.09292  -0.00008   0.00000   0.00085   0.00085   2.09377
   A48        2.08891  -0.00338   0.00000  -0.00879  -0.00880   2.08011
   A49        2.10359   0.00472   0.00000   0.01028   0.01028   2.11387
   A50        2.08433  -0.00133   0.00000  -0.00213  -0.00213   2.08220
   A51        2.09525  -0.00339   0.00000  -0.00816  -0.00816   2.08709
   A52        2.09934   0.00111   0.00000   0.00227   0.00226   2.10160
   A53        2.08881  -0.00049   0.00000  -0.00095  -0.00094   2.08787
   A54        2.09503  -0.00062   0.00000  -0.00133  -0.00132   2.09371
   A55        2.09651   0.00081   0.00000   0.00111   0.00111   2.09762
   A56        2.09195  -0.00041   0.00000  -0.00057  -0.00056   2.09139
   A57        2.09472  -0.00040   0.00000  -0.00055  -0.00054   2.09418
[...]
 71,0.00002191,0.00001166,-0.00000548,0.00001081,0.00000357,-0.00000395
 ,0.00025259,-0.00013645,0.00008037,-0.00000418,0.00014422,0.00013503,-
 0.00005888,0.00001470,0.00001682,-0.00004939,0.00000601,-0.00001955,-0
 .00000333,-0.00002935,-0.00007722,0.00003692,-0.00005961,-0.00000437,-
 0.00003737,-0.00004516,-0.00001692,-0.00004844,0.00001480,-0.00004198,
 -0.00001133,0.00001418,-0.00002965,0.00000136,0.00001588,-0.00000156,-
 0.00000054,0.00000873,-0.00001606,-0.00629558,0.02220886,0.02113699,-0
 .00328876,-0.00360751,0.00524939,-0.11008839,0.06935942,0.08132788,-0.
 00081850,-0.00065650,-0.00049192,-0.00042672,0.00114657,0.00094097,0.0
 1167485,-0.01509047,-0.01293261,0.10875575,0.00011105,-0.00064545,0.00
 167454,-0.00022746,0.00062749,0.00056551,0.00006585,0.00020131,0.00016
 918,0.00009309,0.00004904,-0.00011568,-0.00001076,0.00003411,0.0000340
 1,-0.00002293,-0.00001566,0.00000827,0.00000559,-0.00000562,0.00002331
 ,-0.00000287,-0.00003755,0.00002820,-0.00000386,-0.00000282,0.00000666
 ,0.00002864,0.00000804,-0.00000703,0.00001582,-0.00000650,0.00000453,0
 .00000329,-0.00000529,-0.00000692,0.00000434,-0.00000155,0.00000218,-0
 .00004826,-0.00005741,0.00015601,-0.00001831,-0.00002531,-0.00003886,0
 .00003972,-0.00004365,-0.00004232,0.00001420,0.00002255,0.00003663,0.0
 0000967,0.00003313,-0.00000919,-0.00000682,-0.00004203,0.00000366,-0.0
 0000234,-0.00000617,-0.00000219,-0.00002540,0.00001258,-0.00000526,0.0
 0000054,-0.00000238,-0.00001115,-0.00000058,0.00001317,0.00000318,-0.0
 0000049,0.00001226,-0.00000728,-0.00532498,0.00797145,0.00499940,-0.00
 332368,0.00221193,-0.00137404,0.06955955,-0.19668626,-0.13465784,-0.00
 057576,-0.00020294,0.00082784,-0.00017061,0.00020903,0.00031681,0.0151
 0385,-0.01381948,-0.02120909,-0.07146367,0.20342120,-0.00226214,0.0014
 3050,-0.00172452,0.00042636,0.00019158,0.00013155,-0.00003876,-0.00022
 348,0.00027564,-0.00005786,0.00002756,0.00009042,-0.00014133,0.0000307
 9,0.00001487,-0.00000486,0.00002991,-0.00003709,0.00000791,-0.00001890
 ,-0.00003320,-0.00003230,0.00001026,0.00003508,0.00000795,-0.00002057,
 -0.00003558,-0.00000923,-0.00000591,0.00000652,-0.00001455,-0.00000354
 ,-0.00000466,-0.00001122,-0.00000131,-0.00000187,-0.00000182,-0.000003
 65,-0.00000455,0.00026560,0.00043611,0.00032276,-0.00021797,-0.0001495
 9,-0.00005533,-0.00020212,0.00038498,0.00001443,-0.00014489,0.00016752
 ,-0.00005396,0.00015233,-0.00010980,-0.00003321,0.00006178,0.00004793,
 0.00013716,0.00002931,-0.00001293,-0.00002844,-0.00002253,-0.00005554,
 -0.00008794,0.00002303,0.00000333,-0.00000197,0.00000299,-0.00000424,-
 0.00001835,0.00001517,-0.00001111,0.00000076,0.00374524,-0.01400047,-0
 .00540266,0.00535961,-0.00094961,0.00404618,0.08161150,-0.13368544,-0.
 18240615,-0.00044115,0.00092255,-0.00013358,0.00020534,-0.00058105,-0.
 00053235,0.00526717,-0.00220776,0.00095165,-0.09256161,0.14969964,0.18
 216290,-0.00035809,0.00198014,0.00015447,-0.00001002,-0.00013590,-0.00
 085264,0.00027302,-0.00024132,0.00045684,-0.00038264,-0.00016884,-0.00
 007970,0.00030478,-0.00004902,-0.00022008,0.00036145,0.,-0.00016213,-0
 .00001245,0.00003469,0.00005708,-0.00026746,0.00012116,-0.00012039,0.0
 0001896,0.00002474,-0.00002113,-0.00004524,-0.00012156,0.00031621,-0.0
 0001387,0.00000144,-0.00002269,-0.00001845,0.00000007,0.00001699,-0.00
 002058,-0.00000292,0.00000075,0.00075055,0.00045344,-0.00030128,0.0001
 8299,0.00004178,-0.00009716,0.00028986,-0.00031130,0.00002147,0.000025
 45,-0.00040573,-0.00005227,-0.00030637,-0.00017654,-0.00024683,-0.0002
 0087,0.00006940,-0.00021538,0.00000371,0.00001326,-0.00000313,0.000096
 72,0.00014618,0.00022916,0.00002856,-0.00002811,0.00001755,-0.00002868
 ,-0.00001500,0.00002458,0.00000289,-0.00001764,-0.00000166,-0.06042580
 ,0.02314254,0.04896692,-0.02793623,-0.08543661,-0.02811301,0.07595475,
 0.03398909,-0.02060912,-0.30156444,-0.01794399,0.13023821,0.00196068,-
 0.00419059,0.00179051,-0.17112813,-0.00199527,0.05604101,0.00061587,-0
 .00569355,0.00195832,0.63329032,0.00114943,-0.00104780,0.00010459,-0.0
 0025897,-0.00011717,0.00045315,0.00006891,-0.00012916,-0.00026643,0.00
 004546,0.00002354,0.00011357,-0.00015863,0.00003167,-0.00006773,-0.000
 07721,0.00002712,0.00008335,0.00005551,-0.00004599,-0.00000397,0.00009
 293,-0.00002480,0.00000666,0.00000188,-0.00001247,-0.00000260,-0.00007
 130,0.00005295,-0.00005488,-0.00003855,-0.00000837,-0.00002134,-0.0000
 2281,-0.00001160,0.00000712,-0.00001526,-0.00000599,-0.00000222,-0.001
 06568,-0.00012090,-0.00018882,-0.00000307,-0.00026980,-0.00007154,-0.0
 0000141,-0.00003691,0.00027866,-0.00000648,0.00018303,0.00006003,0.000
 05279,-0.00001254,0.00002008,0.00011696,-0.00004822,0.00003341,-0.0000
 2117,0.00002815,0.00000089,-0.00000867,-0.00013657,-0.00006231,0.00000
 544,-0.00003307,0.00004750,0.00003057,-0.00003545,0.00000293,0.0000096
 6,-0.00000246,0.00001077,0.02399640,-0.00892509,-0.01746747,-0.0329779
 8,0.01964728,0.02737710,-0.01822733,-0.04840934,-0.02418566,-0.0852903
 4,-0.15499973,0.01269279,-0.00433673,-0.00302013,-0.00423814,0.0648517
 3,-0.23518597,-0.13435962,-0.00520123,-0.00201885,-0.00342354,0.171455
 79,0.69882548,0.00029746,-0.00145017,-0.00079737,-0.00028763,-0.000183
 48,0.00078769,-0.00013892,-0.00000844,-0.00045845,0.00027358,0.0001969
 9,0.00009519,-0.00036365,0.00004717,0.00014175,-0.00031478,0.00002910,
 0.00015287,0.00001047,-0.00004777,-0.00006529,0.00025339,-0.00010538,0
 .00009204,-0.00001093,-0.00001185,0.00000081,-0.00001241,0.00011367,-0
 .00025869,0.00000109,-0.00000354,0.00001078,-0.00000169,-0.00000624,-0
 .00000557,0.00000782,0.00000033,-0.00000574,-0.00092165,-0.00019358,0.
 00023631,-0.00016882,-0.00032844,0.00010696,-0.00024145,0.00029716,0.0
 0015418,-0.00006678,0.00039247,0.00000226,0.00017464,-0.00002827,0.000
 06400,0.00022669,-0.00008874,0.00021824,-0.00000494,0.00000594,0.00000
 232,-0.00006537,-0.00023062,-0.00021140,-0.00001204,-0.00002038,0.0000
 4548,0.00003636,-0.00000771,-0.00001534,0.00000627,-0.00000060,0.00000
 305,0.04946649,-0.01577257,-0.04994707,0.00456401,0.06122996,0.0444544
 5,-0.05415857,-0.05773977,0.00871089,0.09015262,-0.03113183,-0.1606726
 9,0.00154150,-0.00458150,0.00528634,0.09666011,-0.09041973,-0.20191663
 ,0.00232831,-0.00294005,0.00577206,-0.19465702,0.20600754,0.42671262,0
 .00045846,-0.00028755,-0.00056442,-0.00004954,-0.00013136,-0.00009337,
 0.00007142,0.00006204,0.00001076,-0.00002916,0.00000500,0.00000222,0.0
 0002951,0.00001480,0.00002495,0.00000793,0.00001568,-0.00000954,0.0000
 0090,-0.00001014,-0.00001042,-0.00002719,0.00001195,0.00000603,0.00000
 289,-0.00000871,-0.00000353,-0.00002632,0.00000503,0.00001706,-0.00000
 613,-0.00000500,-0.00000541,-0.00000191,-0.00000615,-0.00000371,-0.000
 00062,-0.00000593,-0.00000252,-0.00004940,-0.00004527,-0.00001630,0.00
 001030,0.00003468,0.00001315,-0.00001024,-0.00002303,0.00000136,0.0000
 1300,-0.00000091,0.00001073,0.00000605,-0.00000947,0.00002778,0.000009
 28,-0.00000705,-0.00000230,-0.00000497,0.00000094,0.00000316,-0.000001
 41,-0.00000176,-0.00000275,-0.00000460,0.00000593,-0.00000459,0.000001
 84,-0.00000137,-0.00000118,-0.00000240,0.00000148,0.00000116,0.0005419
 7,-0.00540377,0.00205088,0.01155850,-0.01465462,-0.01275606,-0.0009477
 3,-0.00068989,-0.00045680,-0.11136559,0.07048883,0.08282472,-0.0001261
 6,0.00188819,-0.00200249,-0.00292274,-0.00383424,0.00538239,-0.0002404
 6,0.00034675,-0.00044406,-0.00515037,0.02365489,0.02116288,0.10899347,
 0.00083020,-0.00038127,-0.00079437,-0.00016069,-0.00038088,-0.00008879
 ,0.00031220,0.00001850,0.00001931,-0.00004014,0.00003367,-0.00000184,-
 0.00009718,0.00004185,0.00000802,-0.00000217,-0.00000002,0.00001922,0.
 00001337,-0.00001425,0.00002454,0.00001048,0.00001118,0.00001855,0.000
 01570,-0.00002085,-0.00001002,-0.00005395,0.00002329,0.00000374,-0.000
 01365,-0.00000018,-0.00001021,-0.00002542,-0.00002015,0.00001015,-0.00
 001693,-0.00000701,-0.00000263,-0.00019777,0.00002604,-0.00020945,-0.0
 0000684,-0.00010899,0.00005029,0.00006446,-0.00009824,0.00010075,-0.00
 001553,0.00000600,-0.00001212,0.00000744,0.00001780,-0.00007022,0.0000
 0544,-0.00001140,-0.00000398,0.00000700,0.00002392,0.00001116,0.000011
 37,-0.00002755,0.00001173,0.00002055,-0.00001755,0.00002181,0.00000530
 ,-0.00001873,0.00000326,0.00000751,-0.00001087,0.00000428,-0.00552606,
 -0.00199633,-0.00281175,0.01495102,-0.01363416,-0.02120530,-0.00069875
 ,-0.00020294,0.00090228,0.07048256,-0.19842893,-0.13583675,0.00086703,
 -0.00001855,0.00243984,-0.00347583,0.00249638,-0.00163166,0.00036235,-
 0.00028223,0.00034858,-0.00612734,0.00939893,0.00623634,-0.07328012,0.
 20348862,0.00039903,0.00022180,-0.00022577,-0.00000472,-0.00005926,-0.
 00005441,0.00005044,-0.00007589,0.00000928,-0.00007192,-0.00001515,0.0
 0000802,0.00001940,0.00000611,-0.00003896,0.00004144,0.00001990,0.0000
 0106,0.00002042,-0.00001627,-0.00000234,-0.00003113,0.00002472,-0.0000
 1165,0.00000838,0.00000633,-0.00000958,-0.00003880,0.00000105,0.000044
 01,-0.00002146,-0.00000537,-0.00002188,-0.00000876,-0.00000585,0.00000
 354,-0.00001504,-0.00000818,-0.00000131,-0.00012626,-0.00005170,-0.000
 01843,0.00002862,0.00001784,0.00004424,-0.00000105,-0.00002278,0.00004
 060,-0.00001248,0.00000017,-0.00002020,-0.00000271,-0.00000491,-0.0000
 2274,0.00001713,-0.00001282,0.00000321,-0.00000532,0.00000608,-0.00000
 419,-0.00000199,-0.00001791,-0.00000667,0.00000513,0.00000326,0.000003
 62,0.00000447,-0.00001319,-0.00000397,0.00000267,-0.00001078,0.0000035
 4,0.00181771,-0.00337834,0.00544763,0.00508480,-0.00190851,0.00107686,
 -0.00057778,0.00084663,-0.00007616,0.08258452,-0.13576835,-0.18393554,
 -0.00243443,0.00188964,-0.00229427,0.00563425,-0.00133266,0.00450024,-
 0.00044468,0.00035495,-0.00076379,0.00336738,-0.01306979,-0.00441835,-
 0.09349895,0.15043896,0.18356369,-0.00057782,0.00032170,0.00048307,-0.
 00000696,-0.00004876,-0.00005039,0.00010485,-0.00022717,-0.00010414,-0
 .00005117,-0.00001957,0.00005411,-0.00009564,0.00002007,-0.00003109,-0
 .00000265,-0.00000359,0.00002496,0.00001665,-0.00000493,0.00000763,0.0
 0002619,0.00001093,0.00000009,0.00000625,0.00000698,-0.00000308,-0.000
 02550,0.00000876,-0.00001535,-0.00002012,0.00000991,-0.00000832,-0.000
 01317,-0.00000231,0.00001044,-0.00001451,0.00000071,0.00000087,-0.0001
 2459,0.00007037,-0.00010921,0.00003602,-0.00001252,0.00004650,0.000061
 17,-0.00005647,0.00004662,-0.00001120,-0.00000325,-0.00001888,-0.00001
 878,0.00001016,-0.00004267,0.00001009,-0.00001618,-0.00000791,-0.00001
 165,0.00001076,0.00000024,0.00001058,-0.00002353,-0.00000101,0.0000026
 5,-0.00000382,0.00001624,-0.00000231,-0.00002206,0.00000159,0.00000318
 ,-0.00001529,0.00000645,0.00221685,-0.00458360,0.00171064,0.00053582,0
 .00017174,-0.00084469,-0.00957254,0.00099638,0.01055157,0.00275595,0.0
 0037382,0.00410521,-0.00037172,0.00027929,-0.00041143,-0.29317754,-0.0
 5180346,0.12870813,-0.00027734,0.00091488,-0.00266162,-0.00572600,-0.0
 0647370,0.00341407,-0.00053073,-0.00017309,0.00017668,0.30510714,-0.00
 110062,0.00016173,0.00075525,0.00003914,0.00008072,-0.00002734,0.00000
 392,-0.00044397,-0.00003639,-0.00007292,0.00000681,-0.00000977,-0.0000
 6204,0.00002784,-0.00001292,0.00004112,0.00001369,0.00000756,0.0000080
 7,-0.00000393,-0.00000037,-0.00002419,0.00003751,0.00000254,0.00000229
 ,-0.00001764,-0.00000329,-0.00003599,-0.00001497,0.00003219,-0.0000085
 6,0.00000306,-0.00000663,-0.00001388,-0.00000209,0.00000847,-0.0000081
 2,-0.00000261,-0.00000063,-0.00012860,0.00005439,-0.00009227,0.0000423
 7,-0.00003244,0.00002190,0.00003794,-0.00006233,0.00003549,0.00001541,
 -0.00001216,-0.00000822,-0.00003696,0.00000139,-0.00001033,0.00001214,
 -0.00000544,-0.00001593,-0.00001156,0.00001009,0.00000937,0.00002377,-
 0.00002423,0.00001414,-0.00000139,-0.00000933,0.00002113,-0.00000290,-
 0.00001288,0.00000499,-0.00000366,-0.00000830,0.00000653,-0.00397631,-
 0.00294409,-0.00453121,0.00030304,-0.00115112,-0.00034504,-0.02871261,
 0.00054058,0.01577598,-0.00007077,-0.00133963,-0.00603363,0.00022002,-
 0.00018061,0.00049980,-0.05166063,-0.07744384,0.01629695,0.00191268,-0
 .00002651,0.00186551,0.02305320,0.00988804,-0.01240626,0.00106437,0.00
 020112,-0.00051647,0.05844313,0.07273481,-0.00038877,-0.00002937,0.000
 11176,0.00001301,0.00000553,-0.00004697,0.00002499,0.00003437,-0.00009
 570,0.00002226,0.00000809,0.00004313,-0.00002667,0.00001203,0.00003050
 ,-0.00004799,0.00000603,0.00000926,-0.00000237,-0.00000918,-0.00001653
 ,0.00003242,-0.00000725,0.00001876,-0.00000128,-0.00000484,-0.00000218
 ,-0.00000160,0.00002060,-0.00003902,-0.00000391,-0.00000142,0.00000193
 ,0.00000224,-0.00000361,-0.00000560,0.00000363,-0.00000195,-0.00000255
 ,0.00009087,0.00007855,0.00002084,-0.00002073,0.00002074,-0.00001669,0
 .00001689,-0.00000458,-0.00004274,-0.00000658,-0.00000648,0.00003194,0
 .00003764,-0.00001671,0.00000276,-0.00001666,0.00000266,-0.00000836,-0
 .00000086,-0.00000609,-0.00000443,-0.00001003,0.00002699,0.00000220,0.
 00000367,0.00000729,-0.00002152,-0.00000294,0.00000422,0.00000006,0.00
 000284,0.00000801,-0.00000410,0.00179574,-0.00435531,0.00531822,-0.000
 86349,-0.00034571,-0.00058612,-0.00741112,-0.00378093,0.00824142,0.003
 85526,-0.00627764,0.00230866,-0.00039604,0.00047526,-0.00071031,0.1288
 5044,0.01644364,-0.12337481,-0.00205114,0.00245729,-0.00233735,0.02127
 359,0.00700127,-0.00424525,0.00096051,0.00029401,-0.00051615,-0.143191
 01,-0.01374515,0.11805167,-0.00016595,0.00035982,-0.00041371,0.0000157
 0,-0.00010523,-0.00011699,0.00004629,-0.00003226,-0.00001823,0.0000026
 0,-0.00002200,0.00003596,-0.00003781,-0.00001838,-0.00004419,0.0000016
 4,-0.00000416,0.00001786,0.00001142,0.00000065,0.00000365,0.00003490,-
 0.00000794,-0.00001542,0.00000339,0.00002386,-0.00000282,-0.00000362,0
 .00001206,-0.00000802,-0.00001215,0.00000236,-0.00001072,-0.00000559,0
 .00000009,0.00000809,-0.00001268,-0.00000042,0.00000010,0.00001101,0.0
 0007650,0.00000878,0.00002167,0.00001355,0.00003548,0.00000264,0.00000
 157,0.00000526,-0.00001112,-0.00000748,-0.00001846,-0.00002019,0.00000
 244,-0.00002119,0.00000333,-0.00000240,0.00000506,-0.00000279,0.000002
 44,-0.00000186,-0.00000028,-0.00000767,-0.00000060,0.00000390,0.000001
 78,0.00000228,-0.00000087,-0.00000730,-0.00000202,0.00000273,-0.000007
 86,0.00000171,-0.00075339,0.00084408,0.00036991,-0.00253082,-0.0017847
 9,0.00639484,0.00154621,0.00040246,0.00493001,-0.00865150,-0.02892307,
 -0.00841909,-0.00064584,-0.00122578,-0.00037458,0.01152828,0.01424174,
 0.00437279,0.00029007,0.00060549,0.00013040,-0.14056487,-0.13133182,-0
 .01915112,-0.00020785,0.00193749,-0.00196498,-0.00026144,0.00070914,-0
 .00254281,0.14036300,0.00020057,-0.00023434,0.00037545,-0.00000949,0.0
 0004275,0.00008685,0.00004225,-0.00007275,0.00001404,-0.00002659,-0.00
 002994,-0.00000525,-0.00003889,0.00000396,-0.00004074,0.00001744,-0.00
 001340,0.00001701,0.00001109,0.00000217,0.00001917,0.00001420,0.000004
 03,-0.00001058,0.00000627,0.00001065,0.00000096,-0.00001649,0.00000439
 ,0.00000376,-0.00000824,0.00000707,-0.00000673,-0.00001083,-0.00000444
 ,0.00000994,-0.00001345,0.00000107,0.00000184,-0.00011831,-0.00002996,
 -0.00008848,0.00002104,-0.00003730,0.00003724,0.00003117,-0.00003113,0
 .00005657,-0.00001790,0.00000994,-0.00003949,-0.00002792,0.00001711,-0
 .00005001,0.00001213,-0.00000847,0.00000665,0.00000204,0.00001185,0.00
 000247,0.00000659,-0.00002541,-0.00000276,0.00000684,-0.00000907,0.000
 02201,0.00000180,-0.00001516,-0.00000034,0.00000327,-0.00001513,0.0000
 0529,0.00092240,0.00051624,0.00025534,-0.00233626,0.00307993,-0.002030
 05,0.00089474,0.00038674,-0.00562401,0.00097349,-0.00027109,-0.0039220
 2,-0.00000412,-0.00023274,-0.00008703,-0.01538196,-0.01352639,-0.00116
 778,-0.00059168,-0.00089366,-0.00012831,-0.13146571,-0.28344780,-0.056
 84977,0.00080578,-0.00010619,0.00245675,0.00184368,-0.00002367,0.00168
 962,0.14425103,0.29493017,-0.00042162,0.00046699,-0.00055959,0.0000843
 8,-0.00003577,-0.00005249,0.00005063,-0.00001830,0.00001713,-0.0000236
 6,0.00004004,0.00000651,-0.00003892,0.00001642,0.00003182,-0.00000053,
 0.00000754,-0.00000056,0.00001150,-0.00001088,-0.00000111,-0.00001764,
 0.00000033,0.00000570,0.00000197,-0.00000458,-0.00000845,-0.00000341,-
 0.00000626,0.00000273,-0.00000688,-0.00000191,-0.00000415,-0.00000113,
 0.00000210,0.00000030,-0.00000174,-0.00000112,0.00000042,0.00002110,0.
 00011329,0.00006707,-0.00001945,0.00000475,0.00001202,-0.00002503,0.00
 003215,-0.00001244,-0.00000380,0.00000371,0.00000301,0.00002645,-0.000
 01069,0.00000215,-0.00000001,0.00000767,0.00001169,0.00000435,0.000001
 76,-0.00000434,-0.00000091,-0.00000038,-0.00000662,0.00000025,0.000005
 31,-0.00000377,-0.00000053,-0.00000195,-0.00000364,0.00000209,-0.00000
 233,0.00000121,0.00033174,0.00014541,-0.00110374,0.00606175,-0.0023201
 0,0.00369274,0.00526359,-0.00531236,0.00199134,0.00936198,0.01545632,0
 .00844906,0.00032885,0.00069117,0.00011840,-0.01351849,-0.02066678,0.0
 0140993,-0.00063042,-0.00094488,-0.00026543,-0.01915543,-0.05681535,-0
 .07003245,-0.00262137,0.00172225,-0.00230320,-0.00186429,0.00244405,-0
 .00211673,0.01680465,0.06499237,0.06065550||0.00000723,-0.00001140,0.0
 0000235,-0.00000166,0.00000069,0.00000405,-0.00000596,0.00002587,-0.00
 002924,0.00003026,-0.00001927,0.00000789,-0.00002592,-0.00001252,0.000
 01521,-0.00002589,0.00000247,0.00001857,-0.00000259,0.00000074,-0.0000
 0027,0.00002838,-0.00000608,0.00001360,0.00000378,-0.00000036,-0.00000
 065,-0.00000313,0.00001027,-0.00002936,0.00000264,-0.00000073,-0.00000
 037,-0.00000207,0.00000164,-0.00000159,0.00000060,-0.00000122,0.000002
 20,-0.00000293,0.00000167,-0.00000383,-0.00000104,0.00000380,-0.000001
 83,-0.00000038,-0.00000479,-0.00000170,0.00000368,-0.00000144,0.000000
 82,-0.00000204,-0.00000006,0.00000027,0.00000097,0.00000134,-0.0000067
 2,-0.00000055,0.00000039,0.00000132,-0.00000105,0.00000179,0.00000541,
 -0.00000053,-0.00000006,-0.00000058,-0.00000042,0.00000081,0.00000098,
 -0.00000061,0.00000109,-0.00000026,0.00001588,0.00000012,-0.00002812,0
 .00000967,0.00003499,0.00002700,-0.00003077,-0.00002992,0.00001359,-0.
 00003370,-0.00002817,0.00000710,0.00000024,-0.00000174,-0.00000290,0.0
 0000584,0.00003893,0.00002207,0.00000225,0.00000150,-0.00000187,0.0000
 3111,-0.00000829,-0.00003345,0.00000326,0.00000184,-0.00000149,-0.0000
 0132,-0.00000411,-0.00000214,-0.00000323,0.00000020,0.00000395|||@


 THOUGH I SPEAK WITH THE TONGUES OF MEN AND OF ANGELS, 
 AND HAVE NOT LOVE,
 I AM BECOME AS SOUNDING BRASS, A TINKLING CYMBAL.
 AND THOUGH I HAVE THE GIFT OF PROPHECY,
 AND UNDERSTAND ALL MYSTERIES, AND ALL KNOWLEDGE.
 AND THOUGH I HAVE ALL FAITH, SO THAT I COULD REMOVE MOUNTAINS,
 AND HAVE NOT LOVE, I AM NOTHING.
 AND THOUGH I BESTOW ALL MY GOODS TO FEED THE POOR,
 AND THOUGH I GIVE MY BODY TO BE BURNED,
 AND HAVE NOT LOVE IT PROFITETH ME NOTHING.
 LOVE SUFFERETH LONG, AND IS KIND,
 LOVE ENVIETH NOT,
 LOVE VAUNTETH NOT ITSELF, IS NOT PUFFED UP,
 DOTH NOT BEHAVE ITSELF UNSEEMLY, SEEKETH NOT HER OWN,
 IS NOT EASILY PROVOKED, THINKETH NO EVIL,
 REJOICETH NOT IN INIQUITY, BUT REJOICETH IN THE TRUTH,
 BEARETH ALL THINGS, BELIEVETH ALL THINGS,
 HOPETH ALL THINGS, ENDURETH ALL THINGS.
 LOVE NEVER FAILETH, BUT WHETHER THERE BE PROPHECIES, THEY SHALL FAIL, 
 WHETHER THERE BE TONGUES, THEY SHALL CEASE,
 WHETHER THERE BE KNOWLEDGE, IT SHALL VANISH AWAY.
 FOR WE KNOW IN PART, AND WE PROPHESY IN PART.
 BUT WHEN THAT WHICH IS PERFECT IS COME, THEN THAT WHICH IS IN PART 
 SHALL BE DONE AWAY. 
 WHEN I WAS A CHILD, I SPAKE AS A CHILD, I UNDERSTOOD AS A CHILD, 
 I THOUGHT AS A CHILD.
 BUT WHEN I BECAME A MAN, I PUT AWAY CHILDISH THINGS.
 FOR NOW WE SEE THROUGH A GLASS, DARKLY, BUT THEN FACE TO FACE.
 NOW I KNOW IN PART. BUT THEN SHALL I KNOW EVEN AS ALSO I AM KNOWN.
 AND NOW ABIDETH FAITH, HOPE AND LOVE, THESE THREE.
 BUT THE GREATEST OF THESE IS LOVE.

                     I CORINTHIANS 13
 Job cpu time:  0 days  0 hours  6 minutes 15.0 seconds.
 File lengths (MBytes):  RWF=    350 Int=      0 D2E=      0 Chk=      7 Scr=      1
 Normal termination of Gaussian 09 at Tue Sep 07 00:24:23 2021.
