 Entering Link 1 = b:\programy\g09w\l1.exe PID=     19568.
  
 Copyright (c) 1988,1990,1992,1993,1995,1998,2003,2009, Gaussian, Inc.
                  All Rights Reserved.
  
 This is part of the Gaussian(R) 09 program.  It is based on
 the Gaussian(R) 03 system (copyright 2003, Gaussian, Inc.),
 the Gaussian(R) 98 system (copyright 1998, Gaussian, Inc.),
 the Gaussian(R) 94 system (copyright 1995, Gaussian, Inc.),
 the Gaussian 92(TM) system (copyright 1992, Gaussian, Inc.),
 the Gaussian 90(TM) system (copyright 1990, Gaussian, Inc.),
 the Gaussian 88(TM) system (copyright 1988, Gaussian, Inc.),
 the Gaussian 86(TM) system (copyright 1986, Carnegie Mellon
 University), and the Gaussian 82(TM) system (copyright 1983,
 Carnegie Mellon University). Gaussian is a federally registered
 trademark of Gaussian, Inc.
  
 This software contains proprietary and confidential information,
 including trade secrets, belonging to Gaussian, Inc.
  
 This software is provided under written license and may be
 used, copied, transmitted, or stored only in accord with that
 written license.
  
 The following legend is applicable only to US Government
 contracts under FAR:
  
                    RESTRICTED RIGHTS LEGEND
  
 Use, reproduction and disclosure by the US Government is
 subject to restrictions as set forth in subparagraphs (a)
 and (c) of the Commercial Computer Software - Restricted
 Rights clause in FAR 52.227-19.
  
 Gaussian, Inc.
 340 Quinnipiac St., Bldg. 40, Wallingford CT 06492
  
  
 ---------------------------------------------------------------
 Warning -- This program may not be used in any manner that
 competes with the business of Gaussian, Inc. or will provide
 assistance to any competitor of Gaussian, Inc.  The licensee
 of this program is prohibited from giving any competitor of
 Gaussian, Inc. access to this program.  By using this program,
 the user acknowledges that Gaussian, Inc. is engaged in the
 business of creating and licensing software in the field of
 computational chemistry and represents and warrants to the
 licensee that it is not a competitor of Gaussian, Inc. and that
 it will not use this program in any manner prohibited above.
 ---------------------------------------------------------------
  

 Cite this work as:
 Gaussian 09, Revision A.02,
 M. J. Frisch, G. W. Trucks, H. B. Schlegel, G. E. Scuseria, 
 M. A. Robb, J. R. Cheeseman, G. Scalmani, V. Barone, B. Mennucci, 
 G. A. Petersson, H. Nakatsuji, M. Caricato, X. Li, H. P. Hratchian, 
 A. F. Izmaylov, J. Bloino, G. Zheng, J. L. Sonnenberg, M. Hada, 
 M. Ehara, K. Toyota, R. Fukuda, J. Hasegawa, M. Ishida, T. Nakajima, 
 Y. Honda, O. Kitao, H. Nakai, T. Vreven, J. A. Montgomery, Jr., 
 J. E. Peralta, F. Ogliaro, M. Bearpark, J. J. Heyd, E. Brothers, 
 K. N. Kudin, V. N. Staroverov, R. Kobayashi, J. Normand, 
 K. Raghavachari, A. Rendell, J. C. Burant, S. S. Iyengar, J. Tomasi, 
 M. Cossi, N. Rega, J. M. Millam, M. Klene, J. E. Knox, J. B. Cross, 
 V. Bakken, C. Adamo, J. Jaramillo, R. Gomperts, R. E. Stratmann, 
 O. Yazyev, A. J. Austin, R. Cammi, C. Pomelli, J. W. Ochterski, 
 R. L. Martin, K. Morokuma, V. G. Zakrzewski, G. A. Voth, 
 P. Salvador, J. J. Dannenberg, S. Dapprich, A. D. Daniels, 
 O. Farkas, J. B. Foresman, J. V. Ortiz, J. Cioslowski, 
 and D. J. Fox, Gaussian, Inc., Wallingford CT, 2009.
 
 ******************************************
 Gaussian 09:  IA32W-G09RevA.02 11-Jun-2009
                07-Sep-2021 
 ******************************************
 %nprocshared=12
 Will use up to   12 processors via shared memory.
 ----------------------------------------------
 # opt freq=noraman hf/6-311g geom=connectivity
 ----------------------------------------------
 1/18=20,19=15,38=1,57=2/1,3;
 2/9=110,12=2,17=6,18=5,40=1/2;
 3/5=4,6=6,11=9,16=1,25=1,30=1,71=1/1,2,3;
 4//1;
 5/5=2,38=5/2;
 6/7=2,8=2,9=2,10=2,28=1/1;
 7//1,2,3,16;
 1/18=20,19=15/3(2);
 2/9=110/2;
 99//99;
 2/9=110/2;
 3/5=4,6=6,11=9,16=1,25=1,30=1,71=1/1,2,3;
 4/5=5,16=3/1;
 5/5=2,38=5/2;
 7//1,2,3,16;
 1/18=20,19=15/3(-5);
 2/9=110/2;
 6/7=2,8=2,9=2,10=2,19=2,28=1/1;
 99/9=1/99;
 -----
 M0001
 -----
 Symbolic Z-matrix:
 Charge =  0 Multiplicity = 1
 C                     0.06835   0.75531  -0.14308 
 H                     0.16323   1.8644   -0.29335 
 C                    -1.40177   0.52182   0.10524 
 C                    -2.20604  -0.21491  -0.76299 
 C                    -1.9844    1.11383   1.23156 
 C                    -3.56635  -0.36109  -0.50921 
 H                    -1.76656  -0.6821   -1.65352 
 C                    -3.34137   0.96526   1.48383 
 H                    -1.35848   1.69397   1.92005 
 C                    -4.13683   0.22664   0.61278 
 H                    -4.18712  -0.94155  -1.19928 
 H                    -3.78549   1.43088   2.36957 
 H                    -5.207     0.11057   0.81118 
 C                     0.6033    0.08725  -1.38473 
 C                     0.6964   -1.30207  -1.49386 
 C                     1.02464   0.88183  -2.45373 
 C                     1.20071  -1.88599  -2.64948 
 H                     0.37667  -1.92884  -0.64636 
 C                     1.52839   0.29557  -3.60963 
 H                     0.95953   1.97436  -2.38408 
 C                     1.61682  -1.08836  -3.71027 
 H                     1.27137  -2.97594  -2.72248 
 H                     1.85654   0.92723  -4.44205 
 H                     2.01418  -1.54848  -4.62064 
 C                     0.89099   0.381     1.06641 
 C                     1.70183   1.34534   1.66881 
 C                     0.8528   -0.90796   1.60176 
 C                     2.45803   1.02397   2.7907 
 H                     1.74477   2.36082   1.2578 
 C                     1.60689  -1.22602   2.72473 
 H                     0.23174  -1.67259   1.11115 
 C                     2.40998  -0.26006   3.32208 
 H                     3.09239   1.7855    3.256 
 H                     1.56832  -2.2391    3.13801 
 H                     3.00356  -0.5105    4.20709 
 

 GradGradGradGradGradGradGradGradGradGradGradGradGradGradGradGradGradGrad
 Berny optimization.
 Initialization pass.
                           ----------------------------
                           !    Initial Parameters    !
                           ! (Angstroms and Degrees)  !
 --------------------------                            --------------------------
 ! Name  Definition              Value          Derivative Info.                !
 --------------------------------------------------------------------------------
 ! R1    R(1,2)                  1.1232         estimate D2E/DX2                !
 ! R2    R(1,3)                  1.5091         estimate D2E/DX2                !
 ! R3    R(1,14)                 1.508          estimate D2E/DX2                !
 ! R4    R(1,25)                 1.5099         estimate D2E/DX2                !
 ! R5    R(3,4)                  1.3941         estimate D2E/DX2                !
 ! R6    R(3,5)                  1.3995         estimate D2E/DX2                !
 ! R7    R(4,6)                  1.3915         estimate D2E/DX2                !
 ! R8    R(4,7)                  1.0975         estimate D2E/DX2                !
 ! R9    R(5,8)                  1.3882         estimate D2E/DX2                !
 ! R10   R(5,9)                  1.0965         estimate D2E/DX2                !
 ! R11   R(6,10)                 1.3892         estimate D2E/DX2                !
 ! R12   R(6,11)                 1.0948         estimate D2E/DX2                !
 ! R13   R(8,10)                 1.3918         estimate D2E/DX2                !
 ! R14   R(8,12)                 1.0948         estimate D2E/DX2                !
 ! R15   R(10,13)                1.0946         estimate D2E/DX2                !
 ! R16   R(14,15)                1.3967         estimate D2E/DX2                !
 ! R17   R(14,16)                1.397          estimate D2E/DX2                !
 ! R18   R(15,17)                1.3895         estimate D2E/DX2                !
 ! R19   R(15,18)                1.1015         estimate D2E/DX2                !
 ! R20   R(16,19)                1.3905         estimate D2E/DX2                !
 ! R21   R(16,20)                1.0967         estimate D2E/DX2                !
 ! R22   R(17,21)                1.3909         estimate D2E/DX2                !
 ! R23   R(17,22)                1.0947         estimate D2E/DX2                !
 ! R24   R(19,21)                1.3904         estimate D2E/DX2                !
 ! R25   R(19,23)                1.0953         estimate D2E/DX2                !
 ! R26   R(21,24)                1.0947         estimate D2E/DX2                !
 ! R27   R(25,26)                1.3965         estimate D2E/DX2                !
 ! R28   R(25,27)                1.3962         estimate D2E/DX2                !
 ! R29   R(26,28)                1.3906         estimate D2E/DX2                !
 ! R30   R(26,29)                1.0963         estimate D2E/DX2                !
 ! R31   R(27,30)                1.3896         estimate D2E/DX2                !
 ! R32   R(27,31)                1.1005         estimate D2E/DX2                !
 ! R33   R(28,32)                1.3905         estimate D2E/DX2                !
 ! R34   R(28,33)                1.0949         estimate D2E/DX2                !
 ! R35   R(30,32)                1.391          estimate D2E/DX2                !
 ! R36   R(30,34)                1.0948         estimate D2E/DX2                !
 ! R37   R(32,35)                1.0947         estimate D2E/DX2                !
 ! A1    A(2,1,3)              104.8959         estimate D2E/DX2                !
 ! A2    A(2,1,14)             107.2956         estimate D2E/DX2                !
 ! A3    A(2,1,25)             107.8139         estimate D2E/DX2                !
 ! A4    A(3,1,14)             114.3628         estimate D2E/DX2                !
 ! A5    A(3,1,25)             111.1367         estimate D2E/DX2                !
 ! A6    A(14,1,25)            110.8831         estimate D2E/DX2                !
 ! A7    A(1,3,4)              122.7719         estimate D2E/DX2                !
 ! A8    A(1,3,5)              118.1998         estimate D2E/DX2                !
 ! A9    A(4,3,5)              118.9868         estimate D2E/DX2                !
 ! A10   A(3,4,6)              120.3934         estimate D2E/DX2                !
 ! A11   A(3,4,7)              119.9537         estimate D2E/DX2                !
 ! A12   A(6,4,7)              119.6529         estimate D2E/DX2                !
 ! A13   A(3,5,8)              120.5268         estimate D2E/DX2                !
 ! A14   A(3,5,9)              119.4391         estimate D2E/DX2                !
 ! A15   A(8,5,9)              120.0333         estimate D2E/DX2                !
 ! A16   A(4,6,10)             120.2865         estimate D2E/DX2                !
 ! A17   A(4,6,11)             119.6753         estimate D2E/DX2                !
 ! A18   A(10,6,11)            120.0382         estimate D2E/DX2                !
 ! A19   A(5,8,10)             120.116          estimate D2E/DX2                !
 ! A20   A(5,8,12)             119.8714         estimate D2E/DX2                !
 ! A21   A(10,8,12)            120.0127         estimate D2E/DX2                !
 ! A22   A(6,10,8)             119.6901         estimate D2E/DX2                !
 ! A23   A(6,10,13)            120.2016         estimate D2E/DX2                !
 ! A24   A(8,10,13)            120.1082         estimate D2E/DX2                !
 ! A25   A(1,14,15)            121.9126         estimate D2E/DX2                !
 ! A26   A(1,14,16)            119.0165         estimate D2E/DX2                !
 ! A27   A(15,14,16)           119.0699         estimate D2E/DX2                !
 ! A28   A(14,15,17)           120.4762         estimate D2E/DX2                !
 ! A29   A(14,15,18)           119.1139         estimate D2E/DX2                !
 ! A30   A(17,15,18)           120.4053         estimate D2E/DX2                !
 ! A31   A(14,16,19)           120.3678         estimate D2E/DX2                !
 ! A32   A(14,16,20)           120.007          estimate D2E/DX2                !
 ! A33   A(19,16,20)           119.6252         estimate D2E/DX2                !
 ! A34   A(15,17,21)           120.1239         estimate D2E/DX2                !
 ! A35   A(15,17,22)           119.8223         estimate D2E/DX2                !
 ! A36   A(21,17,22)           120.0537         estimate D2E/DX2                !
 ! A37   A(16,19,21)           120.1894         estimate D2E/DX2                !
 ! A38   A(16,19,23)           119.8125         estimate D2E/DX2                !
 ! A39   A(21,19,23)           119.9981         estimate D2E/DX2                !
 ! A40   A(17,21,19)           119.7728         estimate D2E/DX2                !
 ! A41   A(17,21,24)           120.1188         estimate D2E/DX2                !
 ! A42   A(19,21,24)           120.1083         estimate D2E/DX2                !
 ! A43   A(1,25,26)            119.3864         estimate D2E/DX2                !
 ! A44   A(1,25,27)            121.4058         estimate D2E/DX2                !
 ! A45   A(26,25,27)           119.2066         estimate D2E/DX2                !
 ! A46   A(25,26,28)           120.2752         estimate D2E/DX2                !
 ! A47   A(25,26,29)           120.0408         estimate D2E/DX2                !
 ! A48   A(28,26,29)           119.684          estimate D2E/DX2                !
 ! A49   A(25,27,30)           120.4192         estimate D2E/DX2                !
 ! A50   A(25,27,31)           119.0732         estimate D2E/DX2                !
 ! A51   A(30,27,31)           120.4982         estimate D2E/DX2                !
 ! A52   A(26,28,32)           120.1943         estimate D2E/DX2                !
 ! A53   A(26,28,33)           119.8128         estimate D2E/DX2                !
 ! A54   A(32,28,33)           119.9929         estimate D2E/DX2                !
 ! A55   A(27,30,32)           120.0939         estimate D2E/DX2                !
 ! A56   A(27,30,34)           119.8515         estimate D2E/DX2                !
 ! A57   A(32,30,34)           120.0545         estimate D2E/DX2                !
 ! A58   A(28,32,30)           119.8096         estimate D2E/DX2                !
 ! A59   A(28,32,35)           120.0993         estimate D2E/DX2                !
 ! A60   A(30,32,35)           120.091          estimate D2E/DX2                !
 ! D1    D(2,1,3,4)            115.3638         estimate D2E/DX2                !
 ! D2    D(2,1,3,5)            -62.2671         estimate D2E/DX2                !
 ! D3    D(14,1,3,4)            -1.9052         estimate D2E/DX2                !
 ! D4    D(14,1,3,5)          -179.5362         estimate D2E/DX2                !
 ! D5    D(25,1,3,4)          -128.3895         estimate D2E/DX2                !
 ! D6    D(25,1,3,5)            53.9796         estimate D2E/DX2                !
 ! D7    D(2,1,14,15)          176.4756         estimate D2E/DX2                !
 ! D8    D(2,1,14,16)           -3.1686         estimate D2E/DX2                !
 ! D9    D(3,1,14,15)          -67.6396         estimate D2E/DX2                !
 ! D10   D(3,1,14,16)          112.7162         estimate D2E/DX2                !
 ! D11   D(25,1,14,15)          58.976          estimate D2E/DX2                !
 ! D12   D(25,1,14,16)        -120.6682         estimate D2E/DX2                !
 ! D13   D(2,1,25,26)           -7.0518         estimate D2E/DX2                !
 ! D14   D(2,1,25,27)          172.5559         estimate D2E/DX2                !
 ! D15   D(3,1,25,26)         -121.4901         estimate D2E/DX2                !
 ! D16   D(3,1,25,27)           58.1176         estimate D2E/DX2                !
 ! D17   D(14,1,25,26)         110.1308         estimate D2E/DX2                !
 ! D18   D(14,1,25,27)         -70.2615         estimate D2E/DX2                !
 ! D19   D(1,3,4,6)           -177.7968         estimate D2E/DX2                !
 ! D20   D(1,3,4,7)              2.1067         estimate D2E/DX2                !
 ! D21   D(5,3,4,6)             -0.1837         estimate D2E/DX2                !
 ! D22   D(5,3,4,7)            179.7198         estimate D2E/DX2                !
 ! D23   D(1,3,5,8)            177.993          estimate D2E/DX2                !
 ! D24   D(1,3,5,9)             -2.3477         estimate D2E/DX2                !
 ! D25   D(4,3,5,8)              0.2702         estimate D2E/DX2                !
 ! D26   D(4,3,5,9)            179.9295         estimate D2E/DX2                !
 ! D27   D(3,4,6,10)             0.0188         estimate D2E/DX2                !
 ! D28   D(3,4,6,11)           179.9548         estimate D2E/DX2                !
 ! D29   D(7,4,6,10)          -179.885          estimate D2E/DX2                !
 ! D30   D(7,4,6,11)             0.051          estimate D2E/DX2                !
 ! D31   D(3,5,8,10)            -0.1913         estimate D2E/DX2                !
 ! D32   D(3,5,8,12)           179.8424         estimate D2E/DX2                !
 ! D33   D(9,5,8,10)          -179.8486         estimate D2E/DX2                !
 ! D34   D(9,5,8,12)             0.1851         estimate D2E/DX2                !
 ! D35   D(4,6,10,8)             0.0632         estimate D2E/DX2                !
 ! D36   D(4,6,10,13)         -179.9868         estimate D2E/DX2                !
 ! D37   D(11,6,10,8)         -179.8726         estimate D2E/DX2                !
 ! D38   D(11,6,10,13)           0.0774         estimate D2E/DX2                !
 ! D39   D(5,8,10,6)             0.0228         estimate D2E/DX2                !
 ! D40   D(5,8,10,13)         -179.9272         estimate D2E/DX2                !
 ! D41   D(12,8,10,6)          179.9891         estimate D2E/DX2                !
 ! D42   D(12,8,10,13)           0.039          estimate D2E/DX2                !
 ! D43   D(1,14,15,17)        -179.6582         estimate D2E/DX2                !
 ! D44   D(1,14,15,18)          -0.4348         estimate D2E/DX2                !
 ! D45   D(16,14,15,17)         -0.0142         estimate D2E/DX2                !
 ! D46   D(16,14,15,18)        179.2093         estimate D2E/DX2                !
 ! D47   D(1,14,16,19)         179.702          estimate D2E/DX2                !
 ! D48   D(1,14,16,20)          -0.2721         estimate D2E/DX2                !
 ! D49   D(15,14,16,19)          0.0476         estimate D2E/DX2                !
 ! D50   D(15,14,16,20)       -179.9266         estimate D2E/DX2                !
 ! D51   D(14,15,17,21)         -0.0594         estimate D2E/DX2                !
 ! D52   D(14,15,17,22)        179.8382         estimate D2E/DX2                !
 ! D53   D(18,15,17,21)       -179.2728         estimate D2E/DX2                !
 ! D54   D(18,15,17,22)          0.6248         estimate D2E/DX2                !
 ! D55   D(14,16,19,21)         -0.0075         estimate D2E/DX2                !
 ! D56   D(14,16,19,23)       -179.9726         estimate D2E/DX2                !
 ! D57   D(20,16,19,21)        179.9668         estimate D2E/DX2                !
 ! D58   D(20,16,19,23)          0.0017         estimate D2E/DX2                !
 ! D59   D(15,17,21,19)          0.0996         estimate D2E/DX2                !
 ! D60   D(15,17,21,24)        179.9959         estimate D2E/DX2                !
 ! D61   D(22,17,21,19)       -179.7978         estimate D2E/DX2                !
 ! D62   D(22,17,21,24)          0.0985         estimate D2E/DX2                !
 ! D63   D(16,19,21,17)         -0.0663         estimate D2E/DX2                !
 ! D64   D(16,19,21,24)       -179.9626         estimate D2E/DX2                !
 ! D65   D(23,19,21,17)        179.8988         estimate D2E/DX2                !
 ! D66   D(23,19,21,24)          0.0024         estimate D2E/DX2                !
 ! D67   D(1,25,26,28)         179.4269         estimate D2E/DX2                !
 ! D68   D(1,25,26,29)          -0.5884         estimate D2E/DX2                !
 ! D69   D(27,25,26,28)         -0.1896         estimate D2E/DX2                !
 ! D70   D(27,25,26,29)        179.7952         estimate D2E/DX2                !
 ! D71   D(1,25,27,30)        -179.2689         estimate D2E/DX2                !
 ! D72   D(1,25,27,31)           1.8387         estimate D2E/DX2                !
 ! D73   D(26,25,27,30)          0.3395         estimate D2E/DX2                !
 ! D74   D(26,25,27,31)       -178.5529         estimate D2E/DX2                !
 ! D75   D(25,26,28,32)         -0.1171         estimate D2E/DX2                !
 ! D76   D(25,26,28,33)        179.9026         estimate D2E/DX2                !
 ! D77   D(29,26,28,32)        179.8982         estimate D2E/DX2                !
 ! D78   D(29,26,28,33)         -0.0821         estimate D2E/DX2                !
 ! D79   D(25,27,30,32)         -0.183          estimate D2E/DX2                !
 ! D80   D(25,27,30,34)        179.8719         estimate D2E/DX2                !
 ! D81   D(31,27,30,32)        178.6936         estimate D2E/DX2                !
 ! D82   D(31,27,30,34)         -1.2516         estimate D2E/DX2                !
 ! D83   D(26,28,32,30)          0.276          estimate D2E/DX2                !
 ! D84   D(26,28,32,35)       -179.8135         estimate D2E/DX2                !
 ! D85   D(33,28,32,30)       -179.7437         estimate D2E/DX2                !
 ! D86   D(33,28,32,35)          0.1667         estimate D2E/DX2                !
 ! D87   D(27,30,32,28)         -0.1265         estimate D2E/DX2                !
 ! D88   D(27,30,32,35)        179.9631         estimate D2E/DX2                !
 ! D89   D(34,30,32,28)        179.8186         estimate D2E/DX2                !
 ! D90   D(34,30,32,35)         -0.0918         estimate D2E/DX2                !
 --------------------------------------------------------------------------------
 Trust Radius=3.00D-01 FncErr=1.00D-07 GrdErr=1.00D-07
 Number of steps in this run= 197 maximum allowed number of steps= 210.
 GradGradGradGradGradGradGradGradGradGradGradGradGradGradGradGradGradGrad

                          Input orientation:                          
 ---------------------------------------------------------------------
 Center     Atomic      Atomic             Coordinates (Angstroms)
 Number     Number       Type             X           Y           Z
 ---------------------------------------------------------------------
      1          6           0        0.068351    0.755306   -0.143083
      2          1           0        0.163228    1.864403   -0.293353
      3          6           0       -1.401767    0.521824    0.105240
      4          6           0       -2.206042   -0.214906   -0.762990
      5          6           0       -1.984399    1.113834    1.231561
      6          6           0       -3.566350   -0.361094   -0.509212
      7          1           0       -1.766558   -0.682098   -1.653522
      8          6           0       -3.341369    0.965263    1.483834
      9          1           0       -1.358482    1.693974    1.920050
     10          6           0       -4.136832    0.226641    0.612784
     11          1           0       -4.187123   -0.941555   -1.199280
     12          1           0       -3.785495    1.430877    2.369570
     13          1           0       -5.207004    0.110570    0.811184
     14          6           0        0.603303    0.087253   -1.384734
     15          6           0        0.696399   -1.302068   -1.493857
     16          6           0        1.024643    0.881831   -2.453733
     17          6           0        1.200707   -1.885992   -2.649481
     18          1           0        0.376665   -1.928842   -0.646364
     19          6           0        1.528389    0.295565   -3.609634
     20          1           0        0.959531    1.974356   -2.384075
     21          6           0        1.616821   -1.088358   -3.710272
     22          1           0        1.271369   -2.975944   -2.722485
     23          1           0        1.856543    0.927225   -4.442049
     24          1           0        2.014180   -1.548475   -4.620642
     25          6           0        0.890989    0.381004    1.066411
     26          6           0        1.701831    1.345345    1.668813
     27          6           0        0.852797   -0.907961    1.601761
     28          6           0        2.458029    1.023973    2.790703
     29          1           0        1.744768    2.360819    1.257798
     30          6           0        1.606889   -1.226019    2.724727
     31          1           0        0.231744   -1.672588    1.111147
     32          6           0        2.409979   -0.260056    3.322079
     33          1           0        3.092386    1.785503    3.256003
     34          1           0        1.568322   -2.239103    3.138010
     35          1           0        3.003558   -0.510504    4.207093
 ---------------------------------------------------------------------
                    Distance matrix (angstroms):
                    1          2          3          4          5
     1  C    0.000000
     2  H    1.123245   0.000000
     3  C    1.509114   2.100144   0.000000
     4  C    2.549208   3.187087   1.394077   0.000000
     5  C    2.496392   2.738799   1.399477   2.406846   0.000000
     6  C    3.819875   4.348469   2.417129   1.391478   2.776377
     7  H    2.777489   3.472579   2.162347   1.097480   3.405368
     8  C    3.783798   4.031011   2.420582   2.780285   1.388194
     9  H    2.678333   2.691431   2.160867   3.400130   1.096518
    10  C    4.305158   4.689762   2.797376   2.411569   2.408934
    11  H    4.701483   5.255440   3.406091   2.154773   3.871124
    12  H    4.649941   4.782418   3.411118   3.875074   2.153956
    13  H    5.399599   5.756329   3.891954   3.404369   3.401240
    14  C    1.508034   2.131441   2.535583   2.893145   3.820350
    15  C    2.540044   3.428122   3.207178   3.184377   4.522296
    16  C    2.503918   2.524821   3.544773   3.807725   4.763355
    17  C    3.813229   4.548974   4.489871   4.237608   5.848620
    18  H    2.748272   3.815610   3.119855   3.101864   4.284753
    19  C    3.789466   3.914414   4.736803   4.723340   6.037087
    20  H    2.702283   2.239935   3.725892   4.176319   4.741313
    21  C    4.303684   4.744161   5.124714   4.905475   6.499243
    22  H    4.692844   5.527894   5.232213   4.853384   6.554448
    23  H    4.659216   4.577914   5.608812   5.598619   6.854014
    24  H    5.398351   5.813707   6.187794   5.871130   7.571315
    25  C    1.509871   2.139875   2.490063   3.646014   2.971897
    26  C    2.509855   2.546923   3.571452   4.859992   3.719285
    27  C    2.535013   3.428260   3.060543   3.927960   3.503482
    28  C    3.793395   3.934951   4.728837   5.993089   4.708945
    29  H    2.711183   2.270191   3.822431   5.130969   3.932219
    30  C    3.810129   4.554522   4.355305   5.265450   4.538921
    31  H    2.737601   3.806261   2.914730   3.402944   3.562294
    32  C    4.303664   4.757369   5.048643   6.164209   5.056521
    33  H    4.664749   4.602621   5.632194   6.944586   5.506655
    34  H    4.688493   5.530578   5.063777   5.793185   5.243907
    35  H    5.398310   5.827664   6.107192   7.206180   6.030919
                    6          7          8          9         10
     6  C    0.000000
     7  H    2.156789   0.000000
     8  C    2.404594   3.877735   0.000000
     9  H    3.872893   4.310761   2.157115   0.000000
    10  C    1.389157   3.402962   1.391781   3.403123   0.000000
    11  H    1.094755   2.476446   3.398581   4.967640   2.156568
    12  H    3.398024   4.972529   1.094793   2.482273   2.158685
    13  H    2.158161   4.305783   2.159525   4.306724   1.094578
    14  C    4.284106   2.506071   4.955807   4.165543   5.145716
    15  C    4.475040   2.544802   5.505543   4.985335   5.489536
    16  C    5.138408   3.298032   5.879920   5.046666   6.039340
    17  C    5.443428   3.353500   6.770850   6.343991   6.602645
    18  H    4.245470   2.676219   5.170819   4.766761   5.157831
    19  C    6.000015   3.954602   7.078592   6.392729   7.065996
    20  H    5.427065   3.875825   5.871689   4.896661   6.165111
    21  C    6.135223   3.980267   7.468584   6.949412   7.315912
    22  H    5.927861   3.953911   7.382654   7.090654   7.115420
    23  H    6.821638   4.846923   7.882628   7.169421   7.871639
    24  H    7.032499   4.883482   8.500907   8.041702   8.268902
    25  C    4.785516   3.948516   4.292838   2.740932   5.050603
    26  C    5.950584   5.213268   5.060884   3.090336   6.037937
    27  C    4.927893   4.184364   4.594987   3.429450   5.211698
    28  C    7.007210   6.364665   5.945113   3.971484   6.990798
    29  H    6.224075   5.483114   5.278964   3.242440   6.289990
    30  C    6.161887   5.553833   5.552188   4.238783   6.289742
    31  H    4.332563   3.552138   4.456937   3.810102   4.789561
    32  C    7.099684   6.509853   6.161052   4.470482   7.101964
    33  H    7.945029   7.334973   6.723584   4.647942   7.853550
    34  H    6.572214   6.041893   6.091742   5.051603   6.708609
    35  H    8.088853   7.558457   7.060604   5.396080   8.027927
                   11         12         13         14         15
    11  H    0.000000
    12  H    4.304234   0.000000
    13  H    2.487788   2.488466   0.000000
    14  C    4.903164   5.929728   6.211462   0.000000
    15  C    4.905663   6.517854   6.492990   1.396706   0.000000
    16  C    5.662234   6.833969   7.077284   1.397011   2.408012
    17  C    5.658954   7.813751   7.551240   2.418713   1.389519
    18  H    4.701980   6.140615   6.120540   2.158980   1.101508
    19  C    6.325136   8.079430   8.058745   2.418545   2.778697
    20  H    6.032771   6.738530   7.190934   2.164888   3.405390
    21  C    6.325536   8.514461   8.273185   2.795963   2.409429
    22  H    6.021131   8.421458   7.998918   3.408674   2.154525
    23  H    7.108712   8.859143   8.840649   3.409302   3.873955
    24  H    7.108462   9.559071   9.187092   3.890666   3.402066
    25  C    5.715745   4.966886   6.109320   2.485390   3.070108
    26  C    6.937985   5.532551   7.070516   3.480475   4.245252
    27  C    5.766086   5.251042   6.195450   3.157824   3.124520
    28  C    7.996331   6.270926   7.969035   4.663875   5.183750
    29  H    7.220127   5.717048   7.320533   3.668108   4.699725
    30  C    7.003522   6.021879   7.202586   4.429395   4.316390
    31  H    5.039729   5.230041   5.731457   3.076446   2.671935
    32  C    8.026760   6.492336   8.028722   5.053592   5.216836
    33  H    8.959779   6.943829   8.812627   5.533175   6.151018
    34  H    7.322626   6.536253   7.539238   5.176718   4.805463
    35  H    9.006695   7.296347   8.906809   6.114497   6.200837
                   16         17         18         19         20
    16  C    0.000000
    17  C    2.780317   0.000000
    18  H    3.403871   2.166417   0.000000
    19  C    1.390531   2.405922   3.880133   0.000000
    20  H    1.096678   3.876969   4.312114   2.154978   0.000000
    21  C    2.410646   1.390916   3.410562   1.390393   3.401624
    22  H    3.874987   1.094676   2.491424   3.399392   4.971642
    23  H    2.155811   3.399649   4.975378   1.095260   2.477169
    24  H    3.403097   2.158965   4.315208   2.158383   4.304051
    25  C    3.558103   4.363834   2.921218   4.720061   3.801226
    26  C    4.203428   5.416671   4.223317   5.384619   4.168041
    27  C    4.436205   4.376145   2.514550   5.391061   4.919963
    28  C    5.438649   6.296377   4.986444   6.508389   5.470563
    29  H    4.059734   5.796398   4.888632   5.291879   3.745556
    30  C    5.621253   5.429794   3.656728   6.515022   6.063112
    31  H    4.456693   3.889314   1.781997   5.276428   5.103572
    32  C    6.048393   6.305992   4.761066   7.009605   6.297347
    33  H    6.139484   7.206460   6.033238   7.197429   6.032845
    34  H    6.426772   5.809895   3.979672   7.208109   6.972609
    35  H    7.086699   7.221831   5.698095   7.995443   7.334581
                   21         22         23         24         25
    21  C    0.000000
    22  H    2.158249   0.000000
    23  H    2.157671   4.305120   0.000000
    24  H    1.094703   2.488460   2.487135   0.000000
    25  C    5.050005   5.076368   5.619055   6.109584   0.000000
    26  C    5.904633   6.175947   6.127103   6.930295   1.396534
    27  C    5.369727   4.811533   6.395550   6.362182   1.396241
    28  C    6.887108   6.913953   7.258365   7.857642   2.417066
    29  H    6.049373   6.674413   5.878430   7.064787   2.164540
    30  C    6.436479   5.731224   7.487421   7.363716   2.417654
    31  H    5.050332   4.180466   6.343264   6.003823   2.157277
    32  C    7.125247   6.723781   7.873856   8.056270   2.793980
    33  H    7.678890   7.856831   7.843721   8.620875   3.407797
    34  H    6.944460   5.914095   8.219854   7.802079   3.408117
    35  H    8.058637   7.556317   8.842532   8.943442   3.888653
                   26         27         28         29         30
    26  C    0.000000
    27  C    2.408888   0.000000
    28  C    1.390595   2.778979   0.000000
    29  H    1.096341   3.405708   2.155388   0.000000
    30  C    2.781345   1.389557   2.406503   3.877667   0.000000
    31  H    3.402949   1.100483   3.879265   4.310350   2.166584
    32  C    2.410824   2.409168   1.390467   3.401874   1.390996
    33  H    2.155587   3.873890   1.094916   2.477879   3.399739
    34  H    3.876162   2.154988   3.399980   4.972485   1.094819
    35  H    3.403166   3.401691   2.158329   4.304346   2.158716
                   31         32         33         34         35
    31  H    0.000000
    32  C    3.410011   0.000000
    33  H    4.974140   2.157396   0.000000
    34  H    2.493101   2.158448   4.305130   0.000000
    35  H    4.314889   1.094674   2.486788   2.488151   0.000000
 Stoichiometry    C19H16
 Framework group  C1[X(C19H16)]
 Deg. of freedom    99
 Full point group                 C1      NOp   1
 Largest Abelian subgroup         C1      NOp   1
 Largest concise Abelian subgroup C1      NOp   1
                         Standard orientation:                         
 ---------------------------------------------------------------------
 Center     Atomic      Atomic             Coordinates (Angstroms)
 Number     Number       Type             X           Y           Z
 ---------------------------------------------------------------------
      1          6           0       -0.015084    0.010839   -0.757465
      2          1           0        0.017181    0.011888   -1.880246
      3          6           0        0.685603    1.283174   -0.348041
      4          6           0        0.035075    2.323509    0.313749
      5          6           0        2.032901    1.436918   -0.693998
      6          6           0        0.718287    3.494324    0.627796
      7          1           0       -1.022586    2.221708    0.588434
      8          6           0        2.713123    2.605092   -0.378169
      9          1           0        2.552167    0.622869   -1.213652
     10          6           0        2.056568    3.638180    0.284189
     11          1           0        0.195708    4.304140    1.147022
     12          1           0        3.767718    2.712904   -0.651628
     13          1           0        2.592717    4.559693    0.532098
     14          6           0       -1.465532   -0.059135   -0.350684
     15          6           0       -1.853347   -0.150252    0.988003
     16          6           0       -2.449175   -0.039562   -1.342503
     17          6           0       -3.198609   -0.220164    1.328806
     18          1           0       -1.077959   -0.178993    1.769838
     19          6           0       -3.794923   -0.108923   -0.999390
     20          1           0       -2.161881    0.030395   -2.398567
     21          6           0       -4.172320   -0.198597    0.335796
     22          1           0       -3.490449   -0.293998    2.381276
     23          1           0       -4.558520   -0.093331   -1.784419
     24          1           0       -5.232130   -0.253748    0.604379
     25          6           0        0.738517   -1.205250   -0.274845
     26          6           0        1.184388   -2.148277   -1.203395
     27          6           0        1.007007   -1.404201    1.080818
     28          6           0        1.890549   -3.269082   -0.780444
     29          1           0        0.978229   -2.007400   -2.270923
     30          6           0        1.715502   -2.523328    1.500886
     31          1           0        0.633899   -0.672149    1.812906
     32          6           0        2.159751   -3.457253    0.570674
     33          1           0        2.235177   -4.004462   -1.514807
     34          1           0        1.922651   -2.669022    2.566011
     35          1           0        2.718412   -4.338561    0.901590
 ---------------------------------------------------------------------
 Rotational constants (GHZ):      0.4049245      0.3790171      0.2330680
 Standard basis: 6-311G (5D, 7F)
 There are   295 symmetry adapted basis functions of A   symmetry.
 Integral buffers will be    262144 words long.
 Raffenetti 1 integral format.
 Two-electron integral symmetry is turned on.
   295 basis functions,   574 primitive gaussians,   295 cartesian basis functions
    65 alpha electrons       65 beta electrons
       nuclear repulsion energy      1290.2071602787 Hartrees.
 NAtoms=   35 NActive=   35 NUniq=   35 SFac= 7.50D-01 NAtFMM=   80 NAOKFM=F Big=F
 One-electron integrals computed using PRISM.
 PrsmSu:  requested number of processors reduced to:  10 ShMem   1 Linda.
 NBasis=   295 RedAO= T  NBF=   295
 NBsUse=   295 1.00D-06 NBFU=   295
 Harris functional with IExCor=  205 diagonalized for initial guess.
 ExpMin= 1.03D-01 ExpMax= 4.56D+03 ExpMxC= 6.82D+02 IAcc=1 IRadAn=         1 AccDes= 0.00D+00
 HarFok:  IExCor=  205 AccDes= 0.00D+00 IRadAn=         1 IDoV= 1
 ScaDFX=  1.000000  1.000000  1.000000  1.000000
 FoFCou: FMM=F IPFlag=           0 FMFlag=      100000 FMFlg1=           0
         NFxFlg=           0 DoJE=T BraDBF=F KetDBF=T FulRan=T
         Omega=  0.000000  0.000000  1.000000  0.000000  0.000000 ICntrl=     500 IOpCl=  0
         NMat0=    1 NMatS0=    1 NMatT0=    0 NMatD0=    1 NMtDS0=    0 NMtDT0=    0
         I1Cent=           4 NGrid=           0.
 Petite list used in FoFCou.
 Initial guess orbital symmetries:
       Occupied  (A) (A) (A) (A) (A) (A) (A) (A) (A) (A) (A) (A)
                 (A) (A) (A) (A) (A) (A) (A) (A) (A) (A) (A) (A)
                 (A) (A) (A) (A) (A) (A) (A) (A) (A) (A) (A) (A)
                 (A) (A) (A) (A) (A) (A) (A) (A) (A) (A) (A) (A)
                 (A) (A) (A) (A) (A) (A) (A) (A) (A) (A) (A) (A)
                 (A) (A) (A) (A) (A)
       Virtual   (A) (A) (A) (A) (A) (A) (A) (A) (A) (A) (A) (A)
                 (A) (A) (A) (A) (A) (A) (A) (A) (A) (A) (A) (A)
                 (A) (A) (A) (A) (A) (A) (A) (A) (A) (A) (A) (A)
                 (A) (A) (A) (A) (A) (A) (A) (A) (A) (A) (A) (A)
                 (A) (A) (A) (A) (A) (A) (A) (A) (A) (A) (A) (A)
                 (A) (A) (A) (A) (A) (A) (A) (A) (A) (A) (A) (A)
                 (A) (A) (A) (A) (A) (A) (A) (A) (A) (A) (A) (A)
                 (A) (A) (A) (A) (A) (A) (A) (A) (A) (A) (A) (A)
                 (A) (A) (A) (A) (A) (A) (A) (A) (A) (A) (A) (A)
                 (A) (A) (A) (A) (A) (A) (A) (A) (A) (A) (A) (A)
                 (A) (A) (A) (A) (A) (A) (A) (A) (A) (A) (A) (A)
                 (A) (A) (A) (A) (A) (A) (A) (A) (A) (A) (A) (A)
                 (A) (A) (A) (A) (A) (A) (A) (A) (A) (A) (A) (A)
                 (A) (A) (A) (A) (A) (A) (A) (A) (A) (A) (A) (A)
                 (A) (A) (A) (A) (A) (A) (A) (A) (A) (A) (A) (A)
                 (A) (A) (A) (A) (A) (A) (A) (A) (A) (A) (A) (A)
                 (A) (A) (A) (A) (A) (A) (A) (A) (A) (A) (A) (A)
                 (A) (A) (A) (A) (A) (A) (A) (A) (A) (A) (A) (A)
                 (A) (A) (A) (A) (A) (A) (A) (A) (A) (A) (A) (A)
                 (A) (A)
 The electronic state of the initial guess is 1-A.
 Requested convergence on RMS density matrix=1.00D-08 within 128 cycles.
 Requested convergence on MAX density matrix=1.00D-06.
 Requested convergence on             energy=1.00D-06.
 No special actions if energy rises.
 Integral accuracy reduced to 1.0D-05 until final iterations.
 Initial convergence to 1.0D-05 achieved.  Increase integral accuracy.
 SCF Done:  E(RHF) =  -728.672294913     A.U. after   14 cycles
             Convg  =    0.8283D-08             -V/T =  2.0001

 **********************************************************************

            Population analysis using the SCF density.

 **********************************************************************

 Orbital symmetries:
       Occupied  (A) (A) (A) (A) (A) (A) (A) (A) (A) (A) (A) (A)
                 (A) (A) (A) (A) (A) (A) (A) (A) (A) (A) (A) (A)
                 (A) (A) (A) (A) (A) (A) (A) (A) (A) (A) (A) (A)
                 (A) (A) (A) (A) (A) (A) (A) (A) (A) (A) (A) (A)
                 (A) (A) (A) (A) (A) (A) (A) (A) (A) (A) (A) (A)
                 (A) (A) (A) (A) (A)
       Virtual   (A) (A) (A) (A) (A) (A) (A) (A) (A) (A) (A) (A)
                 (A) (A) (A) (A) (A) (A) (A) (A) (A) (A) (A) (A)
                 (A) (A) (A) (A) (A) (A) (A) (A) (A) (A) (A) (A)
                 (A) (A) (A) (A) (A) (A) (A) (A) (A) (A) (A) (A)
                 (A) (A) (A) (A) (A) (A) (A) (A) (A) (A) (A) (A)
                 (A) (A) (A) (A) (A) (A) (A) (A) (A) (A) (A) (A)
                 (A) (A) (A) (A) (A) (A) (A) (A) (A) (A) (A) (A)
                 (A) (A) (A) (A) (A) (A) (A) (A) (A) (A) (A) (A)
                 (A) (A) (A) (A) (A) (A) (A) (A) (A) (A) (A) (A)
                 (A) (A) (A) (A) (A) (A) (A) (A) (A) (A) (A) (A)
                 (A) (A) (A) (A) (A) (A) (A) (A) (A) (A) (A) (A)
                 (A) (A) (A) (A) (A) (A) (A) (A) (A) (A) (A) (A)
                 (A) (A) (A) (A) (A) (A) (A) (A) (A) (A) (A) (A)
                 (A) (A) (A) (A) (A) (A) (A) (A) (A) (A) (A) (A)
                 (A) (A) (A) (A) (A) (A) (A) (A) (A) (A) (A) (A)
                 (A) (A) (A) (A) (A) (A) (A) (A) (A) (A) (A) (A)
                 (A) (A) (A) (A) (A) (A) (A) (A) (A) (A) (A) (A)
                 (A) (A) (A) (A) (A) (A) (A) (A) (A) (A) (A) (A)
                 (A) (A) (A) (A) (A) (A) (A) (A) (A) (A) (A) (A)
                 (A) (A)
 The electronic state is 1-A.
 Alpha  occ. eigenvalues --  -11.25773 -11.25247 -11.25197 -11.24945 -11.24526
 Alpha  occ. eigenvalues --  -11.24440 -11.24418 -11.24368 -11.24227 -11.24172
 Alpha  occ. eigenvalues --  -11.24145 -11.24115 -11.24077 -11.24054 -11.24025
 Alpha  occ. eigenvalues --  -11.23983 -11.23737 -11.23666 -11.23504  -1.18609
 Alpha  occ. eigenvalues --   -1.15872  -1.15581  -1.09027  -1.02385  -1.02230
 Alpha  occ. eigenvalues --   -1.01874  -1.01487  -1.01125  -0.92925  -0.84317
 Alpha  occ. eigenvalues --   -0.83312  -0.82371  -0.81871  -0.81188  -0.77604
 Alpha  occ. eigenvalues --   -0.70856  -0.70376  -0.68987  -0.65731  -0.63876
 Alpha  occ. eigenvalues --   -0.63596  -0.62495  -0.61727  -0.61629  -0.59701
 Alpha  occ. eigenvalues --   -0.58849  -0.58482  -0.58327  -0.56917  -0.54899
 Alpha  occ. eigenvalues --   -0.51727  -0.50947  -0.50281  -0.49834  -0.49382
 Alpha  occ. eigenvalues --   -0.48470  -0.47895  -0.47531  -0.46347  -0.34978
 Alpha  occ. eigenvalues --   -0.34312  -0.33899  -0.33348  -0.32711  -0.31386
 Alpha virt. eigenvalues --    0.11494   0.12268   0.12870   0.13627   0.14907
 Alpha virt. eigenvalues --    0.15011   0.15537   0.16237   0.16471   0.16937
 Alpha virt. eigenvalues --    0.18907   0.19166   0.19234   0.21261   0.21313
 Alpha virt. eigenvalues --    0.21560   0.23588   0.23970   0.25057   0.25461
 Alpha virt. eigenvalues --    0.27118   0.31120   0.33324   0.34280   0.35773
 Alpha virt. eigenvalues --    0.37472   0.39837   0.40343   0.41586   0.43191
 Alpha virt. eigenvalues --    0.44099   0.44424   0.44841   0.45456   0.45646
 Alpha virt. eigenvalues --    0.45881   0.46776   0.47148   0.48171   0.50512
 Alpha virt. eigenvalues --    0.51185   0.51473   0.51932   0.54877   0.55959
 Alpha virt. eigenvalues --    0.57357   0.57838   0.58449   0.59049   0.59445
 Alpha virt. eigenvalues --    0.60031   0.60403   0.60662   0.61188   0.61443
 Alpha virt. eigenvalues --    0.62100   0.62311   0.62914   0.63677   0.63772
 Alpha virt. eigenvalues --    0.64343   0.64540   0.65207   0.65896   0.66369
 Alpha virt. eigenvalues --    0.67144   0.67810   0.68614   0.69951   0.72323
 Alpha virt. eigenvalues --    0.73179   0.73916   0.74075   0.75110   0.75759
 Alpha virt. eigenvalues --    0.76658   0.78833   0.79281   0.79709   0.81435
 Alpha virt. eigenvalues --    0.81545   0.82169   0.82501   0.82952   0.83140
 Alpha virt. eigenvalues --    0.83803   0.84321   0.84697   0.84728   0.85458
 Alpha virt. eigenvalues --    0.86030   0.86299   0.86450   0.87594   0.88214
 Alpha virt. eigenvalues --    0.90280   0.90689   0.92348   0.93200   0.94793
 Alpha virt. eigenvalues --    0.96056   0.96519   0.97095   0.98194   0.99519
 Alpha virt. eigenvalues --    0.99780   1.02327   1.03029   1.04459   1.06161
 Alpha virt. eigenvalues --    1.06995   1.08347   1.08993   1.10187   1.10442
 Alpha virt. eigenvalues --    1.11144   1.11795   1.12521   1.12624   1.13881
 Alpha virt. eigenvalues --    1.14842   1.16704   1.18997   1.20666   1.20909
 Alpha virt. eigenvalues --    1.24000   1.25788   1.27180   1.28738   1.28775
 Alpha virt. eigenvalues --    1.29316   1.32432   1.33502   1.46519   1.47525
 Alpha virt. eigenvalues --    1.52309   1.54016   1.57414   2.53612   2.55664
 Alpha virt. eigenvalues --    2.56222   2.57762   2.62079   2.62204   2.63955
 Alpha virt. eigenvalues --    2.66154   2.67413   2.68515   2.71766   2.74395
 Alpha virt. eigenvalues --    2.78328   2.83536   2.86395   2.91339   2.94340
 Alpha virt. eigenvalues --    2.94555   2.94740   2.96068   2.97957   2.98492
 Alpha virt. eigenvalues --    3.00096   3.02115   3.03842   3.04650   3.06405
 Alpha virt. eigenvalues --    3.08550   3.09045   3.09607   3.10161   3.13183
 Alpha virt. eigenvalues --    3.15266   3.16298   3.17639   3.18341   3.19346
 Alpha virt. eigenvalues --    3.21648   3.24216   3.25302   3.27593   3.28744
 Alpha virt. eigenvalues --    3.31226   3.33854   3.34127   3.35634   3.41320
 Alpha virt. eigenvalues --    3.41638   3.44236   3.45132   3.49978   3.52156
 Alpha virt. eigenvalues --    3.53357   3.55750   3.57345   3.58253   3.59829
 Alpha virt. eigenvalues --    3.62179   3.64312   3.64909   3.66127   3.66386
 Alpha virt. eigenvalues --    3.67637   3.69246   3.71298   3.72680   3.73726
 Alpha virt. eigenvalues --    3.75748   3.77142   3.78805   3.85315   3.87762
 Alpha virt. eigenvalues --    3.91341  24.25880  24.30100  24.31861  24.50475
 Alpha virt. eigenvalues --   24.50810  24.51020  24.53254  24.54546  24.56542
 Alpha virt. eigenvalues --   24.76431  24.77135  24.79123  24.80183  24.80568
 Alpha virt. eigenvalues --   24.82586  24.86903  25.04717  25.05811  25.07089
          Condensed to atoms (all electrons):
              1          2          3          4          5          6
     1  C    6.071352   0.474285   0.045363  -0.026697  -0.084963   0.011644
     2  H    0.474285   0.505027  -0.062773   0.001621  -0.005105  -0.000151
     3  C    0.045363  -0.062773   5.354909   0.504099   0.469532  -0.070153
     4  C   -0.026697   0.001621   0.504099   5.090817  -0.081669   0.455033
     5  C   -0.084963  -0.005105   0.469532  -0.081669   5.117853  -0.033284
     6  C    0.011644  -0.000151  -0.070153   0.455033  -0.033284   5.077298
     7  H   -0.010655  -0.000274  -0.034651   0.393267   0.004890  -0.035982
     8  C    0.007533   0.000805  -0.056918  -0.029582   0.465365  -0.074359
     9  H   -0.001278  -0.000144  -0.046702   0.004358   0.397878  -0.000449
    10  C    0.000500   0.000026  -0.020254  -0.090855  -0.084964   0.497652
    11  H   -0.000358   0.000015   0.006485  -0.036802  -0.000411   0.395537
    12  H   -0.000353   0.000002   0.006186  -0.000456  -0.038666   0.006021
    13  H   -0.000014  -0.000002  -0.001461   0.007705   0.007426  -0.042082
    14  C    0.122815  -0.077101  -0.068288  -0.012314   0.011279  -0.001293
    15  C   -0.067953   0.004467   0.006116  -0.016996   0.000635  -0.000809
    16  C   -0.026286   0.006573  -0.000905   0.000879  -0.000223  -0.000122
    17  C    0.002128  -0.000229   0.000942  -0.001466   0.000018  -0.000040
    18  H    0.001161  -0.000059   0.001028   0.001326   0.000045   0.000059
    19  C    0.008337   0.001478  -0.000784   0.000382   0.000005   0.000003
    20  H   -0.002082   0.002812   0.000512   0.000157   0.000012   0.000007
    21  C    0.001743   0.000003  -0.000069   0.000105   0.000000   0.000004
    22  H   -0.000367   0.000012   0.000014   0.000010   0.000000  -0.000002
    23  H   -0.000418  -0.000033   0.000025  -0.000007   0.000000   0.000000
    24  H   -0.000025  -0.000002   0.000002  -0.000003   0.000000   0.000000
    25  C    0.155517  -0.071232  -0.104069  -0.001527  -0.005281  -0.000737
    26  C   -0.024366   0.001209  -0.002161  -0.000439   0.000765   0.000008
    27  C   -0.053894   0.005718  -0.008645   0.001692  -0.006654   0.000043
    28  C    0.006870   0.001608  -0.000406   0.000023  -0.000134   0.000000
    29  H    0.000037   0.002288   0.000113  -0.000039   0.000317   0.000000
    30  C    0.002912  -0.000269  -0.000581   0.000026  -0.000307   0.000006
    31  H    0.000538   0.000124   0.000956   0.000168   0.000006  -0.000040
    32  C    0.001258  -0.000003   0.000064  -0.000002   0.000087   0.000000
    33  H   -0.000341  -0.000039   0.000011   0.000000  -0.000001   0.000000
    34  H   -0.000343   0.000011   0.000021  -0.000001   0.000017   0.000000
    35  H   -0.000011  -0.000001   0.000000   0.000000   0.000000   0.000000
              7          8          9         10         11         12
     1  C   -0.010655   0.007533  -0.001278   0.000500  -0.000358  -0.000353
     2  H   -0.000274   0.000805  -0.000144   0.000026   0.000015   0.000002
     3  C   -0.034651  -0.056918  -0.046702  -0.020254   0.006485   0.006186
     4  C    0.393267  -0.029582   0.004358  -0.090855  -0.036802  -0.000456
     5  C    0.004890   0.465365   0.397878  -0.084964  -0.000411  -0.038666
     6  C   -0.035982  -0.074359  -0.000449   0.497652   0.395537   0.006021
     7  H    0.476493  -0.000398  -0.000203   0.004975  -0.003462   0.000017
     8  C   -0.000398   5.058572  -0.035189   0.480176   0.006019   0.397263
     9  H   -0.000203  -0.035189   0.492939   0.005247   0.000018  -0.003955
    10  C    0.004975   0.480176   0.005247   5.041965  -0.041196  -0.040830
    11  H   -0.003462   0.006019   0.000018  -0.041196   0.517761  -0.000212
    12  H    0.000017   0.397263  -0.003955  -0.040830  -0.000212   0.517745
    13  H   -0.000170  -0.043288  -0.000174   0.399482  -0.004475  -0.004410
    14  C    0.000231  -0.000877   0.000861   0.000112   0.000058   0.000012
    15  C   -0.001370  -0.000017  -0.000042  -0.000022   0.000032   0.000000
    16  C   -0.001255   0.000008  -0.000005  -0.000004   0.000004   0.000000
    17  C    0.000606   0.000000   0.000000   0.000000  -0.000001   0.000000
    18  H   -0.000050  -0.000029   0.000019   0.000002  -0.000002   0.000000
    19  C   -0.000119   0.000000   0.000000   0.000000   0.000000   0.000000
    20  H    0.000064  -0.000001  -0.000002   0.000000   0.000000   0.000000
    21  C    0.000073   0.000000   0.000000   0.000000  -0.000001   0.000000
    22  H    0.000043   0.000000   0.000000   0.000000   0.000000   0.000000
    23  H    0.000010   0.000000   0.000000   0.000000   0.000000   0.000000
    24  H    0.000008   0.000000   0.000000   0.000000   0.000000   0.000000
    25  C    0.000356  -0.001380   0.003566   0.000121   0.000011   0.000012
    26  C   -0.000019  -0.000046   0.001985  -0.000003   0.000000  -0.000005
    27  C    0.000102  -0.000126  -0.000467   0.000038   0.000000   0.000013
    28  C    0.000000   0.000013   0.000111   0.000000   0.000000   0.000000
    29  H    0.000001  -0.000008   0.000224   0.000001   0.000000   0.000000
    30  C   -0.000001  -0.000003  -0.000195   0.000002   0.000000   0.000002
    31  H    0.000005  -0.000002  -0.000084  -0.000047   0.000002   0.000004
    32  C    0.000000   0.000002  -0.000091   0.000000   0.000000   0.000000
    33  H    0.000000   0.000000   0.000003   0.000000   0.000000   0.000000
    34  H    0.000000   0.000002   0.000004   0.000000   0.000000   0.000000
    35  H    0.000000   0.000000   0.000000   0.000000   0.000000   0.000000
             13         14         15         16         17         18
     1  C   -0.000014   0.122815  -0.067953  -0.026286   0.002128   0.001161
     2  H   -0.000002  -0.077101   0.004467   0.006573  -0.000229  -0.000059
     3  C   -0.001461  -0.068288   0.006116  -0.000905   0.000942   0.001028
     4  C    0.007705  -0.012314  -0.016996   0.000879  -0.001466   0.001326
     5  C    0.007426   0.011279   0.000635  -0.000223   0.000018   0.000045
     6  C   -0.042082  -0.001293  -0.000809  -0.000122  -0.000040   0.000059
     7  H   -0.000170   0.000231  -0.001370  -0.001255   0.000606  -0.000050
     8  C   -0.043288  -0.000877  -0.000017   0.000008   0.000000  -0.000029
     9  H   -0.000174   0.000861  -0.000042  -0.000005   0.000000   0.000019
    10  C    0.399482   0.000112  -0.000022  -0.000004   0.000000   0.000002
    11  H   -0.004475   0.000058   0.000032   0.000004  -0.000001  -0.000002
    12  H   -0.004410   0.000012   0.000000   0.000000   0.000000   0.000000
    13  H    0.519318   0.000000   0.000001   0.000000   0.000000   0.000000
    14  C    0.000000   5.387066   0.450497   0.500953  -0.065325  -0.048727
    15  C    0.000001   0.450497   5.103247  -0.062208   0.479493   0.386360
    16  C    0.000000   0.500953  -0.062208   5.043490  -0.034457   0.004628
    17  C    0.000000  -0.065325   0.479493  -0.034457   5.047891  -0.026792
    18  H    0.000000  -0.048727   0.386360   0.004628  -0.026792   0.497540
    19  C    0.000000  -0.076987  -0.029779   0.469847  -0.077075  -0.000153
    20  H    0.000000  -0.045138   0.004766   0.393962  -0.000297  -0.000267
    21  C    0.000000  -0.015901  -0.093671  -0.088868   0.490280   0.004670
    22  H    0.000000   0.005969  -0.038470  -0.000369   0.396958  -0.003407
    23  H    0.000000   0.007060  -0.000630  -0.039502   0.006276   0.000017
    24  H    0.000000  -0.001665   0.007978   0.007548  -0.042889  -0.000173
    25  C    0.000002  -0.134960  -0.003476  -0.003880   0.001986  -0.003520
    26  C    0.000000  -0.001600   0.000546   0.000583   0.000047  -0.000219
    27  C    0.000000  -0.004016  -0.012517   0.000697  -0.000103   0.002392
    28  C    0.000000  -0.000516   0.000137  -0.000016   0.000001  -0.000071
    29  H    0.000000   0.000402  -0.000005   0.000248   0.000000   0.000000
    30  C    0.000000   0.001904  -0.000558   0.000030  -0.000101   0.001174
    31  H    0.000001  -0.002747  -0.001268  -0.000198   0.000849   0.001904
    32  C    0.000000  -0.000085  -0.000021  -0.000007   0.000001   0.000012
    33  H    0.000000   0.000025   0.000000   0.000001   0.000000   0.000001
    34  H    0.000000   0.000026   0.000055   0.000000   0.000002  -0.000066
    35  H    0.000000  -0.000003   0.000000   0.000000   0.000000   0.000000
             19         20         21         22         23         24
     1  C    0.008337  -0.002082   0.001743  -0.000367  -0.000418  -0.000025
     2  H    0.001478   0.002812   0.000003   0.000012  -0.000033  -0.000002
     3  C   -0.000784   0.000512  -0.000069   0.000014   0.000025   0.000002
     4  C    0.000382   0.000157   0.000105   0.000010  -0.000007  -0.000003
     5  C    0.000005   0.000012   0.000000   0.000000   0.000000   0.000000
     6  C    0.000003   0.000007   0.000004  -0.000002   0.000000   0.000000
     7  H   -0.000119   0.000064   0.000073   0.000043   0.000010   0.000008
     8  C    0.000000  -0.000001   0.000000   0.000000   0.000000   0.000000
     9  H    0.000000  -0.000002   0.000000   0.000000   0.000000   0.000000
    10  C    0.000000   0.000000   0.000000   0.000000   0.000000   0.000000
    11  H    0.000000   0.000000  -0.000001   0.000000   0.000000   0.000000
    12  H    0.000000   0.000000   0.000000   0.000000   0.000000   0.000000
    13  H    0.000000   0.000000   0.000000   0.000000   0.000000   0.000000
    14  C   -0.076987  -0.045138  -0.015901   0.005969   0.007060  -0.001665
    15  C   -0.029779   0.004766  -0.093671  -0.038470  -0.000630   0.007978
    16  C    0.469847   0.393962  -0.088868  -0.000369  -0.039502   0.007548
    17  C   -0.077075  -0.000297   0.490280   0.396958   0.006276  -0.042889
    18  H   -0.000153  -0.000267   0.004670  -0.003407   0.000017  -0.000173
    19  C    5.046076  -0.033772   0.499213   0.005898   0.396354  -0.042550
    20  H   -0.033772   0.506316   0.005086   0.000025  -0.004083  -0.000179
    21  C    0.499213   0.005086   5.033937  -0.039809  -0.041095   0.399398
    22  H    0.005898   0.000025  -0.039809   0.514496  -0.000206  -0.004355
    23  H    0.396354  -0.004083  -0.041095  -0.000206   0.517944  -0.004550
    24  H   -0.042550  -0.000179   0.399398  -0.004355  -0.004550   0.516868
    25  C   -0.000612   0.000178  -0.000043   0.000023   0.000019  -0.000003
    26  C   -0.000010   0.000154  -0.000013   0.000002   0.000001   0.000000
    27  C    0.000047  -0.000025  -0.000001   0.000034  -0.000001   0.000001
    28  C    0.000002  -0.000002   0.000000   0.000000   0.000000   0.000000
    29  H    0.000007   0.000048  -0.000002   0.000000   0.000000   0.000000
    30  C   -0.000001   0.000002   0.000002  -0.000001   0.000000   0.000000
    31  H    0.000005  -0.000003  -0.000013  -0.000036   0.000000   0.000000
    32  C    0.000000  -0.000001   0.000000   0.000000   0.000000   0.000000
    33  H    0.000000   0.000000   0.000000   0.000000   0.000000   0.000000
    34  H    0.000000   0.000000   0.000000   0.000001   0.000000   0.000000
    35  H    0.000000   0.000000   0.000000   0.000000   0.000000   0.000000
             25         26         27         28         29         30
     1  C    0.155517  -0.024366  -0.053894   0.006870   0.000037   0.002912
     2  H   -0.071232   0.001209   0.005718   0.001608   0.002288  -0.000269
     3  C   -0.104069  -0.002161  -0.008645  -0.000406   0.000113  -0.000581
     4  C   -0.001527  -0.000439   0.001692   0.000023  -0.000039   0.000026
     5  C   -0.005281   0.000765  -0.006654  -0.000134   0.000317  -0.000307
     6  C   -0.000737   0.000008   0.000043   0.000000   0.000000   0.000006
     7  H    0.000356  -0.000019   0.000102   0.000000   0.000001  -0.000001
     8  C   -0.001380  -0.000046  -0.000126   0.000013  -0.000008  -0.000003
     9  H    0.003566   0.001985  -0.000467   0.000111   0.000224  -0.000195
    10  C    0.000121  -0.000003   0.000038   0.000000   0.000001   0.000002
    11  H    0.000011   0.000000   0.000000   0.000000   0.000000   0.000000
    12  H    0.000012  -0.000005   0.000013   0.000000   0.000000   0.000002
    13  H    0.000002   0.000000   0.000000   0.000000   0.000000   0.000000
    14  C   -0.134960  -0.001600  -0.004016  -0.000516   0.000402   0.001904
    15  C   -0.003476   0.000546  -0.012517   0.000137  -0.000005  -0.000558
    16  C   -0.003880   0.000583   0.000697  -0.000016   0.000248   0.000030
    17  C    0.001986   0.000047  -0.000103   0.000001   0.000000  -0.000101
    18  H   -0.003520  -0.000219   0.002392  -0.000071   0.000000   0.001174
    19  C   -0.000612  -0.000010   0.000047   0.000002   0.000007  -0.000001
    20  H    0.000178   0.000154  -0.000025  -0.000002   0.000048   0.000002
    21  C   -0.000043  -0.000013  -0.000001   0.000000  -0.000002   0.000002
    22  H    0.000023   0.000002   0.000034   0.000000   0.000000  -0.000001
    23  H    0.000019   0.000001  -0.000001   0.000000   0.000000   0.000000
    24  H   -0.000003   0.000000   0.000001   0.000000   0.000000   0.000000
    25  C    5.383637   0.493891   0.444125  -0.073090  -0.050738  -0.058543
    26  C    0.493891   5.092665  -0.071762   0.453471   0.400490  -0.030618
    27  C    0.444125  -0.071762   5.072488  -0.026810   0.004326   0.479371
    28  C   -0.073090   0.453471  -0.026810   5.060404  -0.035037  -0.078359
    29  H   -0.050738   0.400490   0.004326  -0.035037   0.510182  -0.000282
    30  C   -0.058543  -0.030618   0.479371  -0.078359  -0.000282   5.039043
    31  H   -0.045017   0.004051   0.389307  -0.000006  -0.000271  -0.028250
    32  C   -0.018807  -0.086028  -0.090966   0.497006   0.005258   0.491347
    33  H    0.006941  -0.039710  -0.000680   0.396978  -0.004214   0.006233
    34  H    0.006029  -0.000483  -0.038984   0.005989   0.000024   0.397206
    35  H   -0.001540   0.007477   0.007874  -0.042547  -0.000185  -0.042889
             31         32         33         34         35
     1  C    0.000538   0.001258  -0.000341  -0.000343  -0.000011
     2  H    0.000124  -0.000003  -0.000039   0.000011  -0.000001
     3  C    0.000956   0.000064   0.000011   0.000021   0.000000
     4  C    0.000168  -0.000002   0.000000  -0.000001   0.000000
     5  C    0.000006   0.000087  -0.000001   0.000017   0.000000
     6  C   -0.000040   0.000000   0.000000   0.000000   0.000000
     7  H    0.000005   0.000000   0.000000   0.000000   0.000000
     8  C   -0.000002   0.000002   0.000000   0.000002   0.000000
     9  H   -0.000084  -0.000091   0.000003   0.000004   0.000000
    10  C   -0.000047   0.000000   0.000000   0.000000   0.000000
    11  H    0.000002   0.000000   0.000000   0.000000   0.000000
    12  H    0.000004   0.000000   0.000000   0.000000   0.000000
    13  H    0.000001   0.000000   0.000000   0.000000   0.000000
    14  C   -0.002747  -0.000085   0.000025   0.000026  -0.000003
    15  C   -0.001268  -0.000021   0.000000   0.000055   0.000000
    16  C   -0.000198  -0.000007   0.000001   0.000000   0.000000
    17  C    0.000849   0.000001   0.000000   0.000002   0.000000
    18  H    0.001904   0.000012   0.000001  -0.000066   0.000000
    19  C    0.000005   0.000000   0.000000   0.000000   0.000000
    20  H   -0.000003  -0.000001   0.000000   0.000000   0.000000
    21  C   -0.000013   0.000000   0.000000   0.000000   0.000000
    22  H   -0.000036   0.000000   0.000000   0.000001   0.000000
    23  H    0.000000   0.000000   0.000000   0.000000   0.000000
    24  H    0.000000   0.000000   0.000000   0.000000   0.000000
    25  C   -0.045017  -0.018807   0.006941   0.006029  -0.001540
    26  C    0.004051  -0.086028  -0.039710  -0.000483   0.007477
    27  C    0.389307  -0.090966  -0.000680  -0.038984   0.007874
    28  C   -0.000006   0.497006   0.396978   0.005989  -0.042547
    29  H   -0.000271   0.005258  -0.004214   0.000024  -0.000185
    30  C   -0.028250   0.491347   0.006233   0.397206  -0.042889
    31  H    0.496433   0.004556   0.000015  -0.003348  -0.000171
    32  C    0.004556   5.034175  -0.040675  -0.039823   0.399672
    33  H    0.000015  -0.040675   0.518124  -0.000206  -0.004583
    34  H   -0.003348  -0.039823  -0.000206   0.514931  -0.004478
    35  H   -0.000171   0.399672  -0.004583  -0.004478   0.517392
 Mulliken atomic charges:
              1
     1  C   -0.613589
     2  H    0.209335
     3  C    0.082440
     4  C   -0.162811
     5  C   -0.134464
     6  C   -0.183809
     7  H    0.207469
     8  C   -0.173534
     9  H    0.181767
    10  C   -0.152125
    11  H    0.160978
    12  H    0.161612
    13  H    0.162142
    14  C    0.068270
    15  C   -0.114521
    16  C   -0.171146
    17  C   -0.178701
    18  H    0.181197
    19  C   -0.165813
    20  H    0.171752
    21  C   -0.155026
    22  H    0.163537
    23  H    0.162820
    24  H    0.164592
    25  C    0.082042
    26  C   -0.199863
    27  C   -0.092616
    28  C   -0.165619
    29  H    0.166816
    30  C   -0.178303
    31  H    0.182579
    32  C   -0.156930
    33  H    0.162117
    34  H    0.163414
    35  H    0.163992
 Sum of Mulliken atomic charges =   0.00000
 Mulliken charges with hydrogens summed into heavy atoms:
              1
     1  C   -0.404254
     3  C    0.082440
     4  C    0.044658
     5  C    0.047303
     6  C   -0.022831
     8  C   -0.011923
    10  C    0.010017
    14  C    0.068270
    15  C    0.066676
    16  C    0.000606
    17  C   -0.015165
    19  C   -0.002993
    21  C    0.009566
    25  C    0.082042
    26  C   -0.033047
    27  C    0.089963
    28  C   -0.003502
    30  C   -0.014889
    32  C    0.007062
 Sum of Mulliken charges with hydrogens summed into heavy atoms =   0.00000
 Electronic spatial extent (au):  <R**2>=           4934.8649
 Charge=              0.0000 electrons
 Dipole moment (field-independent basis, Debye):
    X=             -0.0900    Y=             -0.1591    Z=             -0.0215  Tot=              0.1841
 Quadrupole moment (field-independent basis, Debye-Ang):
   XX=           -107.9534   YY=           -113.4374   ZZ=           -106.3371
   XY=             -2.6174   XZ=             -1.3473   YZ=              2.5533
 Traceless Quadrupole moment (field-independent basis, Debye-Ang):
   XX=              1.2892   YY=             -4.1948   ZZ=              2.9055
   XY=             -2.6174   XZ=             -1.3473   YZ=              2.5533
 Octapole moment (field-independent basis, Debye-Ang**2):
  XXX=            -29.2038  YYY=              6.6099  ZZZ=              0.4859  XYY=             38.3500
  XXY=              2.9656  XXZ=             -4.4469  XZZ=             -9.3877  YZZ=            -16.8668
  YYZ=             12.9688  XYZ=             -1.4618
 Hexadecapole moment (field-independent basis, Debye-Ang**3):
 XXXX=          -3066.7687 YYYY=          -2902.3701 ZZZZ=           -683.1778 XXXY=             57.9521
 XXXZ=            -19.6255 YYYX=            -59.9151 YYYZ=             78.9680 ZZZX=              6.3201
 ZZZY=             -3.5522 XXYY=          -1016.6844 XXZZ=           -629.8968 YYZZ=           -628.6607
 XXYZ=            -15.9622 YYXZ=              8.7207 ZZXY=            -32.9972
 N-N= 1.290207160279D+03 E-N=-4.276480191467D+03  KE= 7.285990639884D+02
 PrsmSu:  requested number of processors reduced to:  10 ShMem   1 Linda.
 Calling FoFJK, ICntrl=      2127 FMM=F ISym2X=0 I1Cent= 0 IOpClX= 0 NMat=1 NMatS=1 NMatT=0.
 ***** Axes restored to original set *****
 -------------------------------------------------------------------
 Center     Atomic                   Forces (Hartrees/Bohr)
 Number     Number              X              Y              Z
 -------------------------------------------------------------------
      1        6           0.003110394    0.022818062   -0.003960284
      2        1           0.001929031   -0.025346358    0.003352443
      3        6          -0.014941898   -0.001820112   -0.000062590
      4        6           0.004962001   -0.004630696   -0.010297206
      5        6           0.002159539    0.004715243    0.006355658
      6        6          -0.009845808   -0.006075335   -0.005459931
      7        1          -0.010527866    0.009776592    0.016994327
      8        6          -0.003014501    0.006436009    0.010629474
      9        1          -0.011070150   -0.009651574   -0.010933133
     10        6          -0.013481281   -0.002926912    0.000458381
     11        1           0.009358893    0.008830006    0.010494671
     12        1           0.006728718   -0.006992962   -0.013503694
     13        1           0.016282010    0.001697964   -0.003023525
     14        6           0.005219688    0.004522076   -0.011940723
     15        6          -0.001327616   -0.009069494    0.008662605
     16        6          -0.000924112    0.006058296    0.000645623
     17        6          -0.000168177   -0.012336836    0.001180083
     18        1           0.007520075    0.011122049   -0.026592982
     19        6           0.004640571    0.005844714   -0.011584735
     20        1           0.000718112   -0.017939997   -0.000595375
     21        6           0.005183622   -0.003649119   -0.012106701
     22        1          -0.001067558    0.016562226    0.001031756
     23        1          -0.004983117   -0.009903317    0.012827044
     24        1          -0.006063842    0.007078974    0.014027496
     25        6           0.008514054    0.006657412    0.009621573
     26        6           0.000347430    0.005260310   -0.002544698
     27        6          -0.005972677   -0.009097943   -0.003033752
     28        6           0.008618173    0.007609287    0.007309932
     29        1          -0.001104049   -0.016427127    0.006100127
     30        6          -0.001825834   -0.011998078    0.002401610
     31        1           0.011041846    0.016221812    0.019320711
     32        6           0.008159786   -0.001053288    0.010970462
     33        1          -0.009683752   -0.011689329   -0.006882759
     34        1           0.000659152    0.015512123   -0.006286481
     35        1          -0.009150856    0.003885323   -0.013575406
 -------------------------------------------------------------------
 Cartesian Forces:  Max     0.026592982 RMS     0.009565991

 GradGradGradGradGradGradGradGradGradGradGradGradGradGradGradGradGradGrad
 Berny optimization.
 Internal  Forces:  Max     0.028971920 RMS     0.007795076
 Search for a local minimum.
 Step number   1 out of a maximum of  197
 All quantities printed in internal units (Hartrees-Bohrs-Radians)
 Mixed Optimization -- RFO/linear search
 Second derivative matrix not updated -- first step.
     Eigenvalues ---    0.00635   0.00645   0.00660   0.01533   0.01536
     Eigenvalues ---    0.01538   0.02136   0.02141   0.02146   0.02169
     Eigenvalues ---    0.02172   0.02172   0.02181   0.02184   0.02184
     Eigenvalues ---    0.02200   0.02201   0.02202   0.02210   0.02211
     Eigenvalues ---    0.02212   0.02214   0.02214   0.02215   0.02215
     Eigenvalues ---    0.02217   0.02219   0.02219   0.02219   0.02227
     Eigenvalues ---    0.04539   0.06380   0.06657   0.15997   0.15999
     Eigenvalues ---    0.16000   0.16000   0.16000   0.16000   0.16000
     Eigenvalues ---    0.16000   0.16000   0.16000   0.16000   0.16000
     Eigenvalues ---    0.16000   0.16000   0.16000   0.18879   0.19369
     Eigenvalues ---    0.22000   0.22000   0.22000   0.22000   0.22000
     Eigenvalues ---    0.22000   0.23469   0.23477   0.23478   0.24978
     Eigenvalues ---    0.24999   0.25000   0.31237   0.31363   0.31440
     Eigenvalues ---    0.31549   0.33516   0.33629   0.33962   0.34052
     Eigenvalues ---    0.34070   0.34090   0.34212   0.34251   0.34262
     Eigenvalues ---    0.34265   0.34269   0.34275   0.34278   0.34278
     Eigenvalues ---    0.34289   0.42376   0.42454   0.42484   0.42553
     Eigenvalues ---    0.42570   0.42627   0.46308   0.46377   0.46434
     Eigenvalues ---    0.46728   0.46752   0.46816   0.47201   0.47210
     Eigenvalues ---    0.47214   0.47325   0.47333   0.474771000.00000
     Eigenvalues --- 1000.000001000.000001000.000001000.000001000.00000
     Eigenvalues --- 1000.000001000.000001000.000001000.000001000.00000
     Eigenvalues --- 1000.000001000.000001000.000001000.000001000.00000
     Eigenvalues --- 1000.000001000.000001000.000001000.000001000.00000
     Eigenvalues --- 1000.000001000.000001000.000001000.000001000.00000
     Eigenvalues --- 1000.000001000.000001000.000001000.000001000.00000
     Eigenvalues --- 1000.000001000.000001000.000001000.000001000.00000
     Eigenvalues --- 1000.000001000.000001000.000001000.000001000.00000
     Eigenvalues --- 1000.000001000.000001000.000001000.000001000.00000
     Eigenvalues --- 1000.000001000.000001000.000001000.000001000.00000
     Eigenvalues --- 1000.000001000.000001000.000001000.000001000.00000
     Eigenvalues --- 1000.000001000.000001000.000001000.000001000.00000
     Eigenvalues --- 1000.000001000.000001000.000001000.000001000.00000
     Eigenvalues --- 1000.000001000.000001000.000001000.000001000.00000
     Eigenvalues --- 1000.000001000.000001000.000001000.000001000.00000
     Eigenvalues --- 1000.000001000.000001000.000001000.000001000.00000
     Eigenvalues --- 1000.000001000.000001000.000001000.000001000.00000
     Eigenvalues --- 1000.000001000.00000
 RFO step:  Lambda=-4.19894168D-02 EMin= 6.35372120D-03
 Linear search not attempted -- first point.
 Maximum step size (   0.300) exceeded in Quadratic search.
    -- Step size scaled by   0.589
 Iteration  1 RMS(Cart)=  0.12533064 RMS(Int)=  0.00300916
 Iteration  2 RMS(Cart)=  0.00606827 RMS(Int)=  0.00028004
 Iteration  3 RMS(Cart)=  0.00001053 RMS(Int)=  0.00027997
 Iteration  4 RMS(Cart)=  0.00000000 RMS(Int)=  0.00027997
 Variable       Old X    -DE/DX   Delta X   Delta X   Delta X     New X
                                 (Linear)    (Quad)   (Total)
    R1        2.12263  -0.02531   0.00000  -0.04205  -0.04205   2.08058
    R2        2.85181   0.02316   0.00000   0.03825   0.03825   2.89006
    R3        2.84977   0.02399   0.00000   0.03950   0.03950   2.88927
    R4        2.85324   0.02277   0.00000   0.03769   0.03769   2.89093
    R5        2.63442  -0.00255   0.00000  -0.00283  -0.00283   2.63160
    R6        2.64463  -0.00230   0.00000  -0.00268  -0.00268   2.64195
    R7        2.62951  -0.00105   0.00000  -0.00111  -0.00111   2.62840
    R8        2.07394  -0.02217   0.00000  -0.03419  -0.03419   2.03975
    R9        2.62331  -0.00503   0.00000  -0.00580  -0.00580   2.61751
   R10        2.07212  -0.01829   0.00000  -0.02813  -0.02813   2.04399
   R11        2.62513  -0.00762   0.00000  -0.00871  -0.00872   2.61641
   R12        2.06879  -0.01660   0.00000  -0.02541  -0.02541   2.04338
   R13        2.63008  -0.00482   0.00000  -0.00566  -0.00567   2.62442
   R14        2.06886  -0.01663   0.00000  -0.02545  -0.02545   2.04341
   R15        2.06845  -0.01665   0.00000  -0.02546  -0.02546   2.04299
   R16        2.63939   0.00087   0.00000   0.00117   0.00119   2.64058
   R17        2.63997  -0.00423   0.00000  -0.00488  -0.00486   2.63511
   R18        2.62581  -0.00428   0.00000  -0.00479  -0.00480   2.62101
   R19        2.08155  -0.02897   0.00000  -0.04522  -0.04522   2.03633
   R20        2.62772  -0.00260   0.00000  -0.00306  -0.00306   2.62466
   R21        2.07242  -0.01795   0.00000  -0.02763  -0.02763   2.04480
   R22        2.62845  -0.00580   0.00000  -0.00671  -0.00673   2.62173
   R23        2.06864  -0.01663   0.00000  -0.02544  -0.02544   2.04320
   R24        2.62746  -0.00919   0.00000  -0.01066  -0.01068   2.61678
   R25        2.06974  -0.01695   0.00000  -0.02598  -0.02598   2.04376
   R26        2.06869  -0.01684   0.00000  -0.02577  -0.02577   2.04292
   R27        2.63907  -0.00429   0.00000  -0.00495  -0.00493   2.63413
   R28        2.63851  -0.00005   0.00000   0.00005   0.00007   2.63858
   R29        2.62784  -0.00240   0.00000  -0.00279  -0.00280   2.62504
   R30        2.07178  -0.01755   0.00000  -0.02697  -0.02697   2.04481
   R31        2.62588  -0.00477   0.00000  -0.00540  -0.00539   2.62049
   R32        2.07961  -0.02612   0.00000  -0.04064  -0.04064   2.03897
   R33        2.62760  -0.00872   0.00000  -0.01008  -0.01010   2.61750
   R34        2.06909  -0.01667   0.00000  -0.02551  -0.02551   2.04358
   R35        2.62860  -0.00534   0.00000  -0.00618  -0.00619   2.62241
   R36        2.06891  -0.01675   0.00000  -0.02564  -0.02564   2.04327
   R37        2.06863  -0.01683   0.00000  -0.02574  -0.02574   2.04289
    A1        1.83078   0.00338   0.00000  -0.00188  -0.00165   1.82913
    A2        1.87266  -0.01008   0.00000  -0.05105  -0.05013   1.82253
    A3        1.88171  -0.00814   0.00000  -0.04608  -0.04529   1.83642
    A4        1.99601   0.00155   0.00000   0.02301   0.02116   2.01717
    A5        1.93970  -0.00392   0.00000   0.01030   0.00810   1.94780
    A6        1.93528   0.01531   0.00000   0.05414   0.05300   1.98827
    A7        2.14277   0.00808   0.00000   0.01625   0.01624   2.15901
    A8        2.06297  -0.00024   0.00000  -0.00054  -0.00055   2.06243
    A9        2.07671  -0.00785   0.00000  -0.01587  -0.01585   2.06086
   A10        2.10126   0.00337   0.00000   0.00769   0.00769   2.10895
   A11        2.09359  -0.00002   0.00000   0.00101   0.00101   2.09459
   A12        2.08834  -0.00335   0.00000  -0.00870  -0.00870   2.07963
   A13        2.10359   0.00485   0.00000   0.01050   0.01051   2.11409
   A14        2.08460  -0.00157   0.00000  -0.00277  -0.00277   2.08183
   A15        2.09498  -0.00328   0.00000  -0.00774  -0.00774   2.08723
   A16        2.09940   0.00116   0.00000   0.00242   0.00241   2.10180
   A17        2.08873  -0.00051   0.00000  -0.00101  -0.00100   2.08772
   A18        2.09506  -0.00065   0.00000  -0.00141  -0.00140   2.09366
   A19        2.09642   0.00073   0.00000   0.00092   0.00091   2.09733
   A20        2.09215  -0.00036   0.00000  -0.00046  -0.00046   2.09169
   A21        2.09462  -0.00036   0.00000  -0.00046  -0.00045   2.09416
   A22        2.08899  -0.00225   0.00000  -0.00566  -0.00568   2.08331
   A23        2.09791   0.00108   0.00000   0.00271   0.00271   2.10063
   A24        2.09628   0.00117   0.00000   0.00296   0.00296   2.09925
   A25        2.12778   0.02336   0.00000   0.04711   0.04709   2.17487
   A26        2.07723  -0.01139   0.00000  -0.02294  -0.02296   2.05427
   A27        2.07816  -0.01197   0.00000  -0.02415  -0.02412   2.05404
   A28        2.10271   0.00453   0.00000   0.01022   0.01021   2.11292
   A29        2.07893   0.00441   0.00000   0.01439   0.01437   2.09330
   A30        2.10147  -0.00893   0.00000  -0.02448  -0.02450   2.07697
   A31        2.10081   0.00820   0.00000   0.01790   0.01793   2.11874
   A32        2.09452  -0.00476   0.00000  -0.01088  -0.01089   2.08362
   A33        2.08785  -0.00344   0.00000  -0.00702  -0.00704   2.08082
   A34        2.09656   0.00239   0.00000   0.00497   0.00494   2.10150
   A35        2.09129  -0.00112   0.00000  -0.00226  -0.00225   2.08904
   A36        2.09533  -0.00127   0.00000  -0.00270  -0.00269   2.09264
   A37        2.09770  -0.00014   0.00000  -0.00127  -0.00128   2.09642
   A38        2.09112   0.00023   0.00000   0.00111   0.00111   2.09223
   A39        2.09436  -0.00009   0.00000   0.00016   0.00017   2.09453
   A40        2.09043  -0.00301   0.00000  -0.00765  -0.00768   2.08275
   A41        2.09647   0.00150   0.00000   0.00382   0.00384   2.10031
   A42        2.09628   0.00151   0.00000   0.00383   0.00385   2.10013
   A43        2.08369  -0.00729   0.00000  -0.01468  -0.01474   2.06895
   A44        2.11893   0.01782   0.00000   0.03593   0.03586   2.15480
   A45        2.08055  -0.01054   0.00000  -0.02135  -0.02135   2.05920
   A46        2.09920   0.00723   0.00000   0.01586   0.01587   2.11507
   A47        2.09511  -0.00430   0.00000  -0.00992  -0.00993   2.08518
   A48        2.08888  -0.00293   0.00000  -0.00595  -0.00596   2.08292
   A49        2.10171   0.00411   0.00000   0.00920   0.00914   2.11085
   A50        2.07822   0.00364   0.00000   0.01215   0.01203   2.09025
   A51        2.10309  -0.00770   0.00000  -0.02092  -0.02103   2.08206
   A52        2.09779  -0.00027   0.00000  -0.00131  -0.00134   2.09645
   A53        2.09113   0.00034   0.00000   0.00124   0.00125   2.09238
   A54        2.09427  -0.00007   0.00000   0.00007   0.00008   2.09435
   A55        2.09603   0.00222   0.00000   0.00455   0.00454   2.10058
   A56        2.09180  -0.00103   0.00000  -0.00205  -0.00206   2.08974
   A57        2.09535  -0.00118   0.00000  -0.00249  -0.00250   2.09285
[...]
 00019228,0.00036215,0.00019232,-0.00008362,-0.00015174,-0.00002294,0.0
 0000378,-0.00002799,-0.00036641,-0.00016668,0.00006305,0.00002227,0.00
 019016,-0.00010074,-0.00000089,0.00026250,0.00013032,0.00001220,0.0000
 1998,0.00001665,-0.00000981,-0.00000874,-0.00001717,0.00003164,0.00000
 280,0.00000160,-0.00041612,-0.00059309,0.00029514,-0.00021251,0.000026
 48,-0.00020493,-0.00029140,0.00004740,0.00032420,0.00008282,-0.0001724
 2,0.00039568,0.00025229,-0.00027275,-0.00012641,0.00015979,-0.00022858
 ,-0.00002636,0.00003945,-0.00003776,0.00003403,-0.00007582,0.00019271,
 -0.00009485,-0.00002429,-0.00000391,-0.00000515,0.00002214,0.00001620,
 0.00002356,-0.00000338,-0.00001426,0.00002837,0.03289071,0.06191233,-0
 .03673664,-0.04868273,-0.00555253,-0.03705608,-0.13631643,0.05516954,-
 0.25544245,0.02669940,-0.02395258,0.05903903,-0.00054710,-0.00091484,-
 0.00037793,0.12727480,-0.26012321,0.58111154,-0.00147134,0.00176082,0.
 00082075,-0.00011018,0.00008704,-0.00014596,-0.00020196,0.00168047,-0.
 00145576,-0.00044868,0.00063180,-0.00086326,0.00032534,0.00000151,-0.0
 0059125,0.00019551,-0.00003693,-0.00022918,0.00004501,-0.00002285,0.00
 027857,-0.00015647,-0.00006825,0.00006772,0.00001470,-0.00002690,0.000
 05173,-0.00011261,0.00012450,0.00025672,0.00001154,-0.00000477,0.00001
 196,-0.00001380,0.00000020,-0.00000541,-0.00000214,0.00000331,0.000006
 55,0.00035513,-0.00041207,0.00024333,0.00024117,-0.00015565,0.00027329
 ,-0.00005018,0.00012311,0.00015653,-0.00001267,0.00010411,-0.00003425,
 -0.00031681,0.00001540,-0.00006729,0.00000195,-0.00003144,-0.00001580,
 -0.00000913,0.00001149,-0.00001438,-0.00001499,0.00000985,-0.00000879,
 -0.00001400,0.00000103,0.00001734,-0.00001159,0.00000691,0.00000484,-0
 .00000496,0.00000359,-0.00001749,-0.00562361,-0.00325946,-0.00461190,0
 .00258090,-0.00320051,-0.00055580,-0.30437175,-0.12493985,-0.05175978,
 0.00052561,0.00078050,0.00025204,-0.00036379,-0.00015013,-0.00015792,-
 0.01044824,-0.01087514,0.00013298,0.31904853,0.00080147,-0.00169522,-0
 .00240825,0.00016560,0.00002411,0.00021856,-0.00003203,-0.00019477,0.0
 0070165,0.00024778,0.00053773,0.00004276,0.00027409,-0.00023241,-0.000
 52550,0.00022678,0.00005176,0.00003850,-0.00002110,-0.00004005,-0.0000
 7769,0.00013851,-0.00011561,-0.00016066,-0.00004450,-0.00005497,0.0000
 8050,-0.00006586,0.00005955,0.00014891,-0.00005327,-0.00003064,-0.0000
 4528,-0.00001624,0.00000162,0.00003310,-0.00004355,-0.00000317,-0.0000
 0231,-0.00018464,0.00041301,-0.00028132,-0.00005116,0.00012631,-0.0001
 1041,0.00005485,-0.00009141,-0.00010631,0.00003196,-0.00002700,0.00005
 494,0.00005322,-0.00004533,0.00003510,0.00001910,0.00000621,0.00000779
 ,-0.00001764,-0.00003705,0.00000614,-0.00000350,0.00000070,-0.00001706
 ,0.00000809,-0.00001241,-0.00001567,0.00000462,-0.00000520,-0.00000654
 ,-0.00000369,-0.00000892,0.00000470,-0.02426364,-0.00532815,-0.0060933
 8,-0.00357446,0.00048920,0.00665344,-0.12290292,-0.11913878,-0.0135703
 3,0.00084209,-0.00080021,0.00041598,-0.00110975,-0.00056838,-0.0003606
 7,0.01165297,0.00973335,0.00401793,0.13632855,0.11505799,0.00117374,-0
 .00233241,-0.00096595,0.00008611,-0.00025814,0.00056258,-0.00063168,0.
 00111843,-0.00112154,-0.00031159,0.00033720,-0.00037288,-0.00030579,0.
 00025943,-0.00009212,-0.00043903,-0.00004056,0.00010379,-0.00001462,-0
 .00001241,-0.00028506,0.00039481,0.00012808,-0.00009800,0.00000113,-0.
 00016745,0.00003680,0.00004494,-0.00024022,-0.00020201,0.00001011,0.00
 001064,0.00002021,0.00004283,-0.00004510,-0.00000245,0.00004814,-0.000
 03082,0.00000437,-0.00024569,0.00032670,-0.00038815,-0.00013951,0.0001
 1942,-0.00009396,0.00003897,-0.00008622,-0.00012407,0.00001574,-0.0000
 8167,-0.00001255,0.00022793,-0.00000613,0.00008196,-0.00000672,0.00005
 460,0.00001805,0.00000419,-0.00000667,0.00000084,0.00001378,-0.0000220
 0,0.00002162,0.00000127,0.00001073,-0.00000114,0.00000946,-0.00000760,
 0.00000322,-0.00000071,-0.00000069,0.00001948,0.02030274,0.00982298,0.
 00976480,-0.00097937,0.00652475,0.00024900,-0.05181453,-0.01386608,-0.
 07360670,0.00034495,0.00024295,-0.00102604,0.00103642,0.00049658,0.000
 18212,-0.02687621,-0.01371128,0.00040398,0.06127050,0.00931833,0.06949
 748,-0.00017563,-0.00042035,0.00188454,-0.00003718,0.00083360,-0.00002
 754,0.00026232,-0.00039793,-0.00032217,0.00028991,0.00023093,-0.000032
 82,-0.00038800,0.00009047,-0.00013287,-0.00025374,0.00009924,0.0001493
 7,0.00002032,0.00001798,0.00002546,0.00035443,0.00015875,0.00000254,-0
 .00000710,-0.00006045,0.00002420,-0.00005534,-0.00029324,-0.00015648,-
 0.00001972,-0.00001734,-0.00000185,-0.00001610,0.00002335,0.00000513,-
 0.00002157,-0.00000038,-0.00000207,0.00070776,0.00025527,0.00044293,0.
 00018280,0.00009853,0.00002758,0.00026975,0.00000778,-0.00033051,0.000
 00145,0.00010209,-0.00038340,-0.00031292,0.00026355,-0.00012416,-0.000
 18933,0.00019915,0.00010564,0.00000332,0.00000103,0.00001503,0.0001044
 3,-0.00023993,0.00009933,0.00002705,-0.00001585,-0.00003421,-0.0000276
 1,-0.00002240,-0.00001872,0.00000242,0.00000346,-0.00001762,-0.0571790
 1,-0.05097941,0.01914221,0.07619857,0.01837185,0.02925805,-0.03477808,
 0.03719776,-0.07768135,-0.16721351,-0.04659343,-0.01280349,-0.00001971
 ,-0.00095834,-0.00600822,-0.30652413,-0.12877880,-0.02700494,0.0014510
 2,-0.00092305,-0.00463797,0.65259682,-0.00035825,-0.00099355,0.0015037
 8,0.00032839,0.00082036,0.00029208,0.00013383,-0.00049281,-0.00005264,
 0.00038122,0.00014377,-0.00005502,-0.00029326,0.00013392,-0.00016657,-
 0.00026017,0.00007471,0.00013619,0.00001157,-0.00000109,0.00001303,0.0
 0032351,0.00017117,-0.00002851,-0.00001470,-0.00007282,0.00004540,0.00
 001514,-0.00024806,-0.00015777,0.00000504,-0.00000571,0.00000677,0.000
 00427,0.00000735,0.00000547,-0.00000584,-0.00000607,-0.00000003,0.0010
 7693,0.00019251,0.00017802,0.00019045,0.00004874,0.00036191,0.00022432
 ,0.00023137,-0.00027745,0.00004251,0.00006874,-0.00041596,-0.00018192,
 0.00006238,0.00004747,-0.00023740,0.00020528,0.00013877,0.00000726,0.0
 0000382,-0.00000959,0.00008222,-0.00025152,0.00021185,0.00001276,0.000
 04765,0.00003047,-0.00003967,-0.00001706,0.00001245,-0.00000745,0.0000
 0429,0.00000178,-0.05168832,-0.05483751,0.01279470,0.06063889,-0.00262
 616,0.06093692,-0.00425652,0.05640835,-0.05696640,-0.09845656,-0.23466
 017,0.09641259,-0.00142002,0.00473576,0.00389833,-0.07738273,-0.165371
 14,0.03414350,-0.00063681,0.00391302,0.00553676,0.15726790,0.49126882,
 0.00105930,-0.00005958,-0.00103381,-0.00021936,-0.00037679,-0.00012275
 ,0.00006393,0.00024125,-0.00008432,-0.00012304,0.00006783,0.00004468,0
 .00003027,-0.00010343,-0.00000997,0.00007156,0.00000222,-0.00002126,0.
 00000153,0.00000314,-0.00001192,-0.00005252,-0.00007394,0.00001599,0.0
 0005169,0.00000449,-0.00004387,-0.00006362,0.00003007,0.00005228,-0.00
 002182,-0.00000554,-0.00001021,-0.00003794,0.00002174,-0.00000270,-0.0
 0001530,0.00000206,-0.00000467,-0.00097689,0.00020533,-0.00003404,-0.0
 0000404,0.00010973,-0.00021128,0.00001222,-0.00024258,-0.00009412,0.00
 001035,-0.00008204,0.00014043,0.00004610,-0.00002483,-0.00000444,0.000
 09376,-0.00000895,-0.00004680,-0.00001890,-0.00000454,0.00002704,-0.00
 001193,0.00006067,-0.00010406,0.00000383,-0.00003543,-0.00003372,0.000
 02492,0.00000127,-0.00003482,0.00000846,-0.00000996,-0.00000322,0.0198
 9958,0.01445816,-0.00728087,-0.01751030,0.02925183,-0.03731708,-0.0305
 5811,-0.02493000,0.01453424,0.04737617,0.13809756,-0.20624176,-0.00557
 651,0.00436059,-0.00034408,-0.08775358,-0.00745795,-0.14545007,-0.0047
 4485,0.00520856,-0.00114007,0.19825228,-0.24235224,0.61495529,-0.00062
 044,-0.00057434,0.00029190,-0.00000733,0.00005751,-0.00003602,0.000089
 62,0.00014101,-0.00024144,-0.00009786,0.00002734,0.00003157,-0.0000561
 5,-0.00005106,-0.00002303,0.00002555,-0.00000181,0.00001147,0.00000670
 ,0.00000251,0.00000593,-0.00000047,-0.00002477,-0.00000620,0.00001678,
 -0.00000658,-0.00000714,-0.00002709,0.00001204,0.00001130,-0.00001404,
 -0.00001062,-0.00000310,-0.00002000,0.00000701,0.00001234,-0.00001489,
 -0.00000105,0.00000130,-0.00012742,0.00010180,0.00009612,0.00003761,-0
 .00004482,-0.00002293,0.00005985,-0.00003914,-0.00006970,-0.00001057,0
 .00001948,-0.00000071,-0.00002031,0.00004117,0.00001719,0.00000971,0.0
 0001114,-0.00001568,-0.00001161,-0.00000245,0.00001180,0.00001044,0.00
 000369,-0.00002522,0.00000237,-0.00001661,-0.00000682,-0.00000382,0.00
 000122,-0.00002262,0.00000206,-0.00000456,-0.00001666,0.00170651,-0.00
 077243,-0.00502395,-0.01115015,-0.01164198,0.00008129,0.00055232,0.000
 84930,0.00018820,-0.29769203,-0.12344457,-0.05621049,-0.00012493,0.002
 40354,0.00126936,0.00278147,-0.00372160,-0.00040095,-0.00034408,0.0003
 3908,0.00033998,-0.00462420,-0.00188823,-0.00591107,0.31026217,0.00052
 800,0.00021101,0.00000841,-0.00001914,-0.00004712,-0.00002261,-0.00002
 241,-0.00010119,0.00001166,0.00003278,0.00003102,-0.00001334,-0.000013
 31,0.00004152,-0.00000274,-0.00002840,0.00001814,0.00000641,0.00000146
 ,-0.00000353,0.00000679,0.00004134,0.00001137,-0.00000886,0.00000204,-
 0.00001765,0.00000712,0.00000523,-0.00003120,-0.00002310,-0.00000023,-
 0.00000499,0.00000320,0.00000487,0.00000099,0.00000096,-0.00000250,-0.
 00000294,0.00000206,-0.00007873,0.00001986,-0.00007794,0.00001422,-0.0
 0001153,-0.00001887,-0.00002034,-0.00003957,0.00000830,0.00000466,0.00
 002938,0.00001190,-0.00003142,-0.00000083,0.00001841,0.00001484,-0.000
 00982,-0.00000433,0.00000258,-0.00000371,0.00000416,0.00000539,0.00000
 738,-0.00002325,-0.00000371,-0.00001766,-0.00000827,0.00000312,0.00000
 112,-0.00000273,-0.00000267,-0.00000229,-0.00000720,-0.00094940,0.0039
 3711,0.00531809,0.01132030,0.00972659,0.00439404,0.00085022,-0.0006719
 7,0.00036419,-0.12361268,-0.12078722,-0.01569683,0.00162889,-0.0016622
 2,-0.00277441,-0.00339957,0.00048558,0.00674631,0.00033339,-0.00056031
 ,-0.00054512,-0.02471581,-0.00501172,-0.00767480,0.13690212,0.11648604
 ,-0.00098926,-0.00072802,0.00010538,0.00004203,0.00000676,0.00008123,-
 0.00003102,0.00007538,-0.00042320,-0.00005067,0.00001107,0.00002955,-0
 .00007174,0.00001681,0.00001342,-0.00002763,-0.00000538,0.00003878,0.0
 0000105,0.00000512,-0.00001673,0.00004809,-0.00000596,0.00000937,0.000
 00719,-0.00000105,-0.00000294,-0.00003480,-0.00003560,-0.00002118,-0.0
 0001331,-0.00000841,-0.00000182,-0.00000662,0.00000585,0.00000388,-0.0
 0000782,0.00000056,-0.00000184,-0.00013018,0.00008019,0.00005820,0.000
 04064,-0.00001590,-0.00003919,0.00002833,-0.00002967,-0.00006419,0.000
 01607,0.00001299,-0.00001024,-0.00004040,0.00000717,0.00000651,0.00001
 334,0.00001483,-0.00000360,-0.00000999,-0.00001127,0.00000935,0.000022
 72,-0.00000975,-0.00002929,-0.00000254,-0.00002135,-0.00001291,-0.0000
 0302,-0.00000317,-0.00001243,-0.00000466,-0.00000548,-0.00000900,-0.00
 443594,0.00549102,-0.00105037,-0.02667700,-0.01416572,0.00063570,0.000
 32083,0.00036445,-0.00108177,-0.05608959,-0.01555871,-0.07551271,0.002
 16806,-0.00221631,-0.00085567,-0.00080462,0.00651592,0.00045505,0.0002
 7940,-0.00057075,-0.00035816,0.02068194,0.01074185,0.00954957,0.063752
 39,0.01233516,0.06914187,0.00048675,0.00065298,-0.00025110,-0.00006819
 ,0.00011801,-0.00013513,0.00009337,-0.00001937,0.00005526,0.00002485,-
 0.00002712,0.00001222,-0.00003122,-0.00000341,0.00000839,-0.00002581,-
 0.00000903,0.00001310,0.00000323,0.00000550,-0.00000945,0.00000880,0.0
 0000625,0.00001623,0.00000107,0.00001040,-0.00000976,-0.00002909,-0.00
 001843,0.00000565,-0.00000387,0.00000403,-0.00000664,-0.00000729,0.000
 00662,-0.00000373,-0.00000204,0.00000350,-0.00000582,-0.00006386,0.000
 03365,-0.00003583,0.00001167,-0.00001981,0.00002516,-0.00000810,-0.000
 00347,-0.00002915,0.00001201,-0.00000964,-0.00000262,0.00000604,-0.000
 02210,-0.00001192,0.00000915,0.00000367,-0.00000787,-0.00000441,-0.000
 00414,0.00000209,-0.00000096,0.00000251,-0.00000306,-0.00000308,0.0000
 0256,0.00000549,0.00000201,0.00000135,-0.00000247,-0.00000189,-0.00000
 154,0.00000071,-0.00009781,-0.00112377,-0.00573340,-0.00102977,0.00048
 348,-0.00057781,0.01146069,0.01609147,-0.01406878,-0.00329824,-0.00477
 281,-0.00418963,-0.00020165,0.00037356,0.00039799,-0.10293736,-0.08257
 615,0.05365450,0.00002318,0.00158560,0.00212805,-0.00399543,-0.0246318
 4,0.02123300,-0.00047239,-0.00111788,0.00095847,0.10019996,-0.00051168
 ,-0.00030516,-0.00018441,0.00003268,-0.00007901,0.00009765,-0.00008735
 ,0.00000060,0.00007945,-0.00000617,-0.00003590,-0.00001632,0.00007687,
 0.00000700,0.00000697,0.00002757,-0.00000513,-0.00002852,-0.00001057,-
 0.00001035,-0.00000436,-0.00004176,0.00000597,-0.00001644,-0.00002095,
 -0.00000156,0.00001919,0.00004506,0.00004459,-0.00000073,0.00001259,0.
 00000386,0.00000836,0.00002340,-0.00002326,0.00000074,0.00001771,-0.00
 000265,0.00000768,0.00015416,-0.00005098,0.00003143,-0.00002756,0.0000
 5009,0.00000612,-0.00000593,0.00004849,0.00004317,0.00001461,-0.000021
 28,-0.00000481,0.00000197,-0.00003241,-0.00000225,-0.00001675,0.000000
 50,0.00001540,0.00000371,-0.00000133,-0.00000978,0.00000168,-0.0000078
 5,0.00002054,-0.00000799,0.00000657,0.00000061,-0.00000420,-0.00000563
 ,0.00001526,-0.00000299,0.00000234,0.00001282,-0.00084409,0.00444374,0
 .00426251,0.00060807,0.00017150,-0.00083996,-0.00672164,-0.00223920,0.
 00371991,-0.00508840,0.00395199,0.00179563,0.00037176,-0.00065091,-0.0
 0042469,-0.08234128,-0.22297019,0.13829264,0.00218448,-0.00162046,-0.0
 0222213,-0.00183948,-0.00538147,0.01142669,-0.00012633,-0.00054677,0.0
 0043350,0.09258703,0.22690533,0.00071334,0.00077677,-0.00033051,-0.000
 17658,0.00012180,-0.00033769,0.00029872,-0.00001718,0.00000523,-0.0000
 9789,-0.00001825,0.00004345,-0.00002604,-0.00000208,0.00003676,0.00001
 663,-0.00002019,0.00000329,0.00001292,0.00001134,-0.00002043,-0.000008
 42,-0.00001882,-0.00000580,0.00000976,-0.00002330,-0.00001521,-0.00004
 511,-0.00000033,0.00002549,-0.00002486,-0.00000737,-0.00001852,-0.0000
 1015,0.00000650,0.00000236,-0.00001495,0.00000284,-0.00000425,-0.00017
 364,0.00019495,0.00007308,-0.00001776,-0.00002733,-0.00011622,0.000059
 19,-0.00007974,-0.00010827,-0.00001406,0.00000877,0.00000808,0.0000082
 7,0.00006482,0.00002749,0.00000194,0.00000547,-0.00000857,0.00000930,-
 0.00001433,0.00002049,0.00001016,-0.00000906,-0.00002683,0.00001886,-0
 .00001844,-0.00002202,0.00000355,-0.00000148,-0.00001724,0.00000664,-0
 .00000229,-0.00001018,-0.00581688,0.00371004,-0.00035490,-0.00056924,-
 0.00088877,-0.00036853,0.01260651,0.02202585,-0.01022140,-0.00387244,0
 .00208066,0.00342316,0.00041345,-0.00041824,-0.00043402,0.05368071,0.1
 3837601,-0.16782067,0.00118172,-0.00274917,-0.00084011,-0.00562378,-0.
 00689266,0.00920953,-0.00015119,-0.00033328,0.00017334,-0.05458054,-0.
 15378453,0.16893712,-0.00013572,0.00033991,0.00040579,0.00000895,0.000
 12498,-0.00008710,0.00004657,0.00002268,-0.00003660,-0.00004130,0.0000
 4800,-0.00000917,-0.00000033,-0.00003204,-0.00002827,0.00003506,0.0000
 1728,-0.00000747,0.00000518,-0.00000054,0.00002432,0.00000242,-0.00001
 795,-0.00000760,0.00001213,-0.00000470,-0.00000062,-0.00000389,0.00000
 598,0.00001348,-0.00000619,-0.00000862,-0.00000099,-0.00001248,0.00001
 049,0.00000499,-0.00001346,-0.00000031,0.00000040,0.00000852,-0.000013
 91,0.00007338,0.00002356,-0.00003858,0.00000475,0.00000440,-0.00000838
 ,-0.00000159,-0.00001261,0.00002135,-0.00000326,-0.00002156,0.00002316
 ,0.00000793,0.00000387,-0.00000499,-0.00000382,-0.00000247,0.00000125,
 0.00000349,-0.00000044,0.00000203,-0.00000895,0.00000438,-0.00000365,0
 .00000051,-0.00000125,0.00000314,-0.00000777,0.00000240,-0.00000078,-0
 .00000909,-0.00064306,-0.00050413,0.00085172,0.00164771,-0.00459082,-0
 .00031920,-0.00271445,-0.00602731,-0.00229690,0.01134094,-0.00596646,0
 .01200871,0.00028500,-0.00019277,0.00051152,-0.01025737,0.01236989,-0.
 02684658,-0.00071661,0.00053663,-0.00113235,-0.15663406,0.04101347,-0.
 13463917,-0.00012338,0.00232276,0.00105025,-0.00006030,0.00154176,0.00
 217187,0.15796980,0.00036418,-0.00043120,-0.00051259,-0.00008017,-0.00
 004324,0.00002752,-0.00005372,0.00001456,0.00003318,0.00004229,0.00002
 901,-0.00001572,0.00002490,0.00001047,-0.00003627,0.00001582,0.0000046
 4,-0.00000127,-0.00000254,-0.00000862,0.00000235,-0.00000216,0.0000023
 1,-0.00000530,-0.00001214,-0.00000011,0.00001132,0.00000590,0.00000254
 ,0.00000580,0.00000244,0.00000178,-0.00000139,0.00000786,-0.00000491,-
 0.00000019,0.00000346,0.00000056,0.00000084,-0.00001115,0.00006834,-0.
 00009840,0.00001658,0.00001656,0.00000182,0.00001892,-0.00000064,-0.00
 002911,0.00000577,-0.00000141,-0.00000571,-0.00002207,-0.00000579,0.00
 000889,-0.00000202,0.00001317,-0.00000461,-0.00000479,-0.00000350,-0.0
 0000357,0.00000024,-0.00000737,0.00000276,-0.00000137,-0.00000022,-0.0
 0000400,0.00000051,-0.00000413,0.00000336,-0.00000223,0.00000127,0.000
 00464,-0.00047112,-0.00102976,-0.00032167,-0.00500628,0.00036607,0.005
 62052,-0.00560526,0.00296205,0.00262135,0.01691104,-0.00171914,0.02148
 827,0.00077076,-0.00041675,0.00097337,-0.01042835,0.00987742,-0.013787
 09,-0.00037133,0.00019590,-0.00062488,0.04103349,-0.08856514,0.0798894
 2,0.00145299,-0.00147287,-0.00272611,0.00238834,-0.00165105,-0.0020589
 8,-0.04098878,0.08179918,0.00024809,-0.00042122,-0.00039299,-0.0000183
 6,-0.00010641,0.00004026,0.00002817,-0.00000286,-0.00007041,-0.0000308
 4,0.00004099,0.00001025,-0.00002519,0.00001246,-0.00003098,0.00001463,
 0.00000981,0.00000494,0.00000630,-0.00000352,0.00000903,0.00001642,-0.
 00001361,-0.00001706,0.00000899,-0.00001912,0.00000046,-0.00001533,-0.
 00000457,0.00000483,-0.00001046,-0.00000870,-0.00000532,-0.00000609,0.
 00000437,0.00000816,-0.00001223,-0.00000204,0.00000170,-0.00012355,0.0
 0010170,-0.00002875,0.00002003,-0.00002734,-0.00004373,0.00003214,-0.0
 0005162,-0.00004471,-0.00001605,0.00003651,0.00001586,-0.00002910,0.00
 004525,0.00002643,0.00001126,-0.00000325,-0.00001052,0.00000226,-0.000
 00464,0.00001069,0.00000519,0.00000520,-0.00002450,0.00000599,-0.00002
 053,-0.00001310,0.00000106,0.00000169,-0.00001429,0.00000196,-0.000002
 96,-0.00001487,0.00093587,-0.00042890,0.00033199,0.00011948,0.00591349
 ,0.00190762,-0.00279433,0.00234993,0.00399682,-0.01467502,0.00298158,-
 0.01021339,-0.00056134,0.00019917,-0.00073732,0.00012449,0.00460533,-0
 .00009110,-0.00002691,0.00011443,-0.00023935,-0.13477206,0.07992475,-0
 .24884318,0.00207276,-0.00200949,-0.00080393,0.00114839,-0.00275731,-0
 .00090749,0.14831338,-0.09045859,0.25617796||0.00000029,-0.00000174,0.
 00001408,-0.00000102,-0.00000056,-0.00000096,-0.00000033,0.00003032,0.
 00001221,-0.00003275,-0.00001940,-0.00000510,0.00003197,-0.00001475,-0
 .00001156,0.00003506,-0.00001204,-0.00001332,0.00000344,0.00000048,0.0
 0000018,-0.00003371,-0.00001900,-0.00000706,-0.00000227,0.00000164,0.0
 0000149,-0.00000036,0.00003331,0.00002213,-0.00000311,0.00000117,0.000
 00040,0.00000316,0.00000223,0.00000086,-0.00000036,-0.00000345,-0.0000
 0218,-0.00000486,0.00000930,-0.00001425,0.00000797,-0.00000942,-0.0000
 0368,0.00000122,0.00000023,0.00001368,-0.00000803,-0.00000501,0.000011
 78,0.00000053,0.00000100,0.00000285,-0.00000327,-0.00001172,-0.0000073
 0,0.00000066,0.00000106,-0.00000113,0.00000546,0.00001517,-0.00000219,
 0.00000019,-0.00000030,-0.00000098,0.00000028,0.00000102,0.00000024,-0
 .00000058,-0.00000117,-0.00000014,0.00000234,0.00000207,-0.00000595,0.
 00000318,-0.00000228,-0.00000171,-0.00000074,-0.00000101,0.00000221,-0
 .00000060,0.00000219,-0.00000002,-0.00000020,0.00000104,0.00000061,-0.
 00000047,-0.00000270,-0.00000424,-0.00000266,-0.00000028,-0.00000220,-
 0.00000096,0.00000238,0.00000059,0.00000084,-0.00000007,0.00000015,-0.
 00000073,0.00000042,0.00000084,0.00000043,-0.00000011,-0.00000030|||@


 I DO NOT DEFINE TIME, SPACE, PLACE, AND MOTION, AS BEING WELL KNOWN TO ALL.
                                            -- NEWTON (1642-1726), PRINCIPIA
 Job cpu time:  0 days  0 hours  6 minutes 25.0 seconds.
 File lengths (MBytes):  RWF=    350 Int=      0 D2E=      0 Chk=      7 Scr=      1
 Normal termination of Gaussian 09 at Tue Sep 07 07:23:47 2021.
