 Entering Link 1 = b:\programy\g09w\l1.exe PID=     22376.
  
 Copyright (c) 1988,1990,1992,1993,1995,1998,2003,2009, Gaussian, Inc.
                  All Rights Reserved.
  
 This is part of the Gaussian(R) 09 program.  It is based on
 the Gaussian(R) 03 system (copyright 2003, Gaussian, Inc.),
 the Gaussian(R) 98 system (copyright 1998, Gaussian, Inc.),
 the Gaussian(R) 94 system (copyright 1995, Gaussian, Inc.),
 the Gaussian 92(TM) system (copyright 1992, Gaussian, Inc.),
 the Gaussian 90(TM) system (copyright 1990, Gaussian, Inc.),
 the Gaussian 88(TM) system (copyright 1988, Gaussian, Inc.),
 the Gaussian 86(TM) system (copyright 1986, Carnegie Mellon
 University), and the Gaussian 82(TM) system (copyright 1983,
 Carnegie Mellon University). Gaussian is a federally registered
 trademark of Gaussian, Inc.
  
 This software contains proprietary and confidential information,
 including trade secrets, belonging to Gaussian, Inc.
  
 This software is provided under written license and may be
 used, copied, transmitted, or stored only in accord with that
 written license.
  
 The following legend is applicable only to US Government
 contracts under FAR:
  
                    RESTRICTED RIGHTS LEGEND
  
 Use, reproduction and disclosure by the US Government is
 subject to restrictions as set forth in subparagraphs (a)
 and (c) of the Commercial Computer Software - Restricted
 Rights clause in FAR 52.227-19.
  
 Gaussian, Inc.
 340 Quinnipiac St., Bldg. 40, Wallingford CT 06492
  
  
 ---------------------------------------------------------------
 Warning -- This program may not be used in any manner that
 competes with the business of Gaussian, Inc. or will provide
 assistance to any competitor of Gaussian, Inc.  The licensee
 of this program is prohibited from giving any competitor of
 Gaussian, Inc. access to this program.  By using this program,
 the user acknowledges that Gaussian, Inc. is engaged in the
 business of creating and licensing software in the field of
 computational chemistry and represents and warrants to the
 licensee that it is not a competitor of Gaussian, Inc. and that
 it will not use this program in any manner prohibited above.
 ---------------------------------------------------------------
  

 Cite this work as:
 Gaussian 09, Revision A.02,
 M. J. Frisch, G. W. Trucks, H. B. Schlegel, G. E. Scuseria, 
 M. A. Robb, J. R. Cheeseman, G. Scalmani, V. Barone, B. Mennucci, 
 G. A. Petersson, H. Nakatsuji, M. Caricato, X. Li, H. P. Hratchian, 
 A. F. Izmaylov, J. Bloino, G. Zheng, J. L. Sonnenberg, M. Hada, 
 M. Ehara, K. Toyota, R. Fukuda, J. Hasegawa, M. Ishida, T. Nakajima, 
 Y. Honda, O. Kitao, H. Nakai, T. Vreven, J. A. Montgomery, Jr., 
 J. E. Peralta, F. Ogliaro, M. Bearpark, J. J. Heyd, E. Brothers, 
 K. N. Kudin, V. N. Staroverov, R. Kobayashi, J. Normand, 
 K. Raghavachari, A. Rendell, J. C. Burant, S. S. Iyengar, J. Tomasi, 
 M. Cossi, N. Rega, J. M. Millam, M. Klene, J. E. Knox, J. B. Cross, 
 V. Bakken, C. Adamo, J. Jaramillo, R. Gomperts, R. E. Stratmann, 
 O. Yazyev, A. J. Austin, R. Cammi, C. Pomelli, J. W. Ochterski, 
 R. L. Martin, K. Morokuma, V. G. Zakrzewski, G. A. Voth, 
 P. Salvador, J. J. Dannenberg, S. Dapprich, A. D. Daniels, 
 O. Farkas, J. B. Foresman, J. V. Ortiz, J. Cioslowski, 
 and D. J. Fox, Gaussian, Inc., Wallingford CT, 2009.
 
 ******************************************
 Gaussian 09:  IA32W-G09RevA.02 11-Jun-2009
                06-Sep-2021 
 ******************************************
 %nprocshared=12
 Will use up to   12 processors via shared memory.
 ----------------------------------------------
 # opt freq=noraman hf/6-311g geom=connectivity
 ----------------------------------------------
 1/18=20,19=15,38=1,57=2/1,3;
 2/9=110,12=2,17=6,18=5,40=1/2;
 3/5=4,6=6,11=9,16=1,25=1,30=1,71=1/1,2,3;
 4//1;
 5/5=2,38=5/2;
 6/7=2,8=2,9=2,10=2,28=1/1;
 7//1,2,3,16;
 1/18=20,19=15/3(2);
 2/9=110/2;
 99//99;
 2/9=110/2;
 3/5=4,6=6,11=9,16=1,25=1,30=1,71=1/1,2,3;
 4/5=5,16=3/1;
 5/5=2,38=5/2;
 7//1,2,3,16;
 1/18=20,19=15/3(-5);
 2/9=110/2;
 6/7=2,8=2,9=2,10=2,19=2,28=1/1;
 99/9=1/99;
 -----
 M0001
 -----
 Symbolic Z-matrix:
 Charge =  0 Multiplicity = 1
 C                     0.        0.        0.79516 
 H                     0.        0.        1.91785 
 C                    -0.97865   1.06099   0.35531 
 C                    -1.21663   2.14991   1.19843 
 C                    -1.64784   0.98804  -0.86722 
 C                    -2.10788   3.14752   0.82171 
 H                    -0.69713   2.22124   2.1611 
 C                    -2.54071   1.98653  -1.2404 
 H                    -1.47228   0.13058  -1.53015 
 C                    -2.77177   3.06796  -0.39796 
 H                    -2.28736   3.99751   1.48797 
 H                    -3.06266   1.91811  -2.20041 
 H                    -3.47462   3.85365  -0.69272 
 C                     1.40817   0.31704   0.35531 
 C                     1.67959   0.93305  -0.86722 
 C                     2.47019  -0.02132   1.19843 
 C                     2.99074   1.20706  -1.2404 
 H                     0.84922   1.20974  -1.53015 
 C                     3.77978   0.25171   0.82171 
 H                     2.27221  -0.50689   2.1611 
 C                     4.04282   0.86644  -0.39796 
 H                     3.19247   1.69329  -2.20041 
 H                     4.60562  -0.01784   1.48797 
 H                     5.07467   1.08228  -0.69272 
 C                    -0.42952  -1.37803   0.35531 
 C                    -0.03175  -1.92109  -0.86722 
 C                    -1.25356  -2.12858   1.19843 
 C                    -0.45003  -3.19359  -1.2404 
 H                     0.62305  -1.34032  -1.53015 
 C                    -1.6719   -3.39924   0.82171 
 H                    -1.57509  -1.71435   2.1611 
 C                    -1.27105  -3.9344   -0.39796 
 H                    -0.1298   -3.6114   -2.20041 
 H                    -2.31826  -3.97967   1.48797 
 H                    -1.60005  -4.93593  -0.69272 
 

 GradGradGradGradGradGradGradGradGradGradGradGradGradGradGradGradGradGrad
 Berny optimization.
 Initialization pass.
                           ----------------------------
                           !    Initial Parameters    !
                           ! (Angstroms and Degrees)  !
 --------------------------                            --------------------------
 ! Name  Definition              Value          Derivative Info.                !
 --------------------------------------------------------------------------------
 ! R1    R(1,2)                  1.1227         estimate D2E/DX2                !
 ! R2    R(1,3)                  1.5089         estimate D2E/DX2                !
 ! R3    R(1,14)                 1.5089         estimate D2E/DX2                !
 ! R4    R(1,25)                 1.5089         estimate D2E/DX2                !
 ! R5    R(3,4)                  1.3976         estimate D2E/DX2                !
 ! R6    R(3,5)                  1.3956         estimate D2E/DX2                !
 ! R7    R(4,6)                  1.3898         estimate D2E/DX2                !
 ! R8    R(4,7)                  1.0962         estimate D2E/DX2                !
 ! R9    R(5,8)                  1.3905         estimate D2E/DX2                !
 ! R10   R(5,9)                  1.098          estimate D2E/DX2                !
 ! R11   R(6,10)                 1.3909         estimate D2E/DX2                !
 ! R12   R(6,11)                 1.0948         estimate D2E/DX2                !
 ! R13   R(8,10)                 1.3902         estimate D2E/DX2                !
 ! R14   R(8,12)                 1.0949         estimate D2E/DX2                !
 ! R15   R(10,13)                1.0946         estimate D2E/DX2                !
 ! R16   R(14,15)                1.3956         estimate D2E/DX2                !
 ! R17   R(14,16)                1.3976         estimate D2E/DX2                !
 ! R18   R(15,17)                1.3905         estimate D2E/DX2                !
 ! R19   R(15,18)                1.098          estimate D2E/DX2                !
 ! R20   R(16,19)                1.3898         estimate D2E/DX2                !
 ! R21   R(16,20)                1.0962         estimate D2E/DX2                !
 ! R22   R(17,21)                1.3902         estimate D2E/DX2                !
 ! R23   R(17,22)                1.0949         estimate D2E/DX2                !
 ! R24   R(19,21)                1.3909         estimate D2E/DX2                !
 ! R25   R(19,23)                1.0948         estimate D2E/DX2                !
 ! R26   R(21,24)                1.0946         estimate D2E/DX2                !
 ! R27   R(25,26)                1.3956         estimate D2E/DX2                !
 ! R28   R(25,27)                1.3976         estimate D2E/DX2                !
 ! R29   R(26,28)                1.3905         estimate D2E/DX2                !
 ! R30   R(26,29)                1.098          estimate D2E/DX2                !
 ! R31   R(27,30)                1.3898         estimate D2E/DX2                !
 ! R32   R(27,31)                1.0962         estimate D2E/DX2                !
 ! R33   R(28,32)                1.3902         estimate D2E/DX2                !
 ! R34   R(28,33)                1.0949         estimate D2E/DX2                !
 ! R35   R(30,32)                1.3909         estimate D2E/DX2                !
 ! R36   R(30,34)                1.0948         estimate D2E/DX2                !
 ! R37   R(32,35)                1.0946         estimate D2E/DX2                !
 ! A1    A(2,1,3)              106.9474         estimate D2E/DX2                !
 ! A2    A(2,1,14)             106.9474         estimate D2E/DX2                !
 ! A3    A(2,1,25)             106.9474         estimate D2E/DX2                !
 ! A4    A(3,1,14)             111.8728         estimate D2E/DX2                !
 ! A5    A(3,1,25)             111.8728         estimate D2E/DX2                !
 ! A6    A(14,1,25)            111.8728         estimate D2E/DX2                !
 ! A7    A(1,3,4)              118.8441         estimate D2E/DX2                !
 ! A8    A(1,3,5)              121.9769         estimate D2E/DX2                !
 ! A9    A(4,3,5)              119.1788         estimate D2E/DX2                !
 ! A10   A(3,4,6)              120.3286         estimate D2E/DX2                !
 ! A11   A(3,4,7)              119.9857         estimate D2E/DX2                !
 ! A12   A(6,4,7)              119.6855         estimate D2E/DX2                !
 ! A13   A(3,5,8)              120.3621         estimate D2E/DX2                !
 ! A14   A(3,5,9)              119.5411         estimate D2E/DX2                !
 ! A15   A(8,5,9)              120.0941         estimate D2E/DX2                !
 ! A16   A(4,6,10)             120.1801         estimate D2E/DX2                !
 ! A17   A(4,6,11)             119.8331         estimate D2E/DX2                !
 ! A18   A(10,6,11)            119.9869         estimate D2E/DX2                !
 ! A19   A(5,8,10)             120.1783         estimate D2E/DX2                !
 ! A20   A(5,8,12)             119.7736         estimate D2E/DX2                !
 ! A21   A(10,8,12)            120.0481         estimate D2E/DX2                !
 ! A22   A(6,10,8)             119.772          estimate D2E/DX2                !
 ! A23   A(6,10,13)            120.102          estimate D2E/DX2                !
 ! A24   A(8,10,13)            120.126          estimate D2E/DX2                !
 ! A25   A(1,14,15)            121.9769         estimate D2E/DX2                !
 ! A26   A(1,14,16)            118.8441         estimate D2E/DX2                !
 ! A27   A(15,14,16)           119.1788         estimate D2E/DX2                !
 ! A28   A(14,15,17)           120.3621         estimate D2E/DX2                !
 ! A29   A(14,15,18)           119.541          estimate D2E/DX2                !
 ! A30   A(17,15,18)           120.0941         estimate D2E/DX2                !
 ! A31   A(14,16,19)           120.3286         estimate D2E/DX2                !
 ! A32   A(14,16,20)           119.9857         estimate D2E/DX2                !
 ! A33   A(19,16,20)           119.6855         estimate D2E/DX2                !
 ! A34   A(15,17,21)           120.1783         estimate D2E/DX2                !
 ! A35   A(15,17,22)           119.7736         estimate D2E/DX2                !
 ! A36   A(21,17,22)           120.0481         estimate D2E/DX2                !
 ! A37   A(16,19,21)           120.1801         estimate D2E/DX2                !
 ! A38   A(16,19,23)           119.8331         estimate D2E/DX2                !
 ! A39   A(21,19,23)           119.9869         estimate D2E/DX2                !
 ! A40   A(17,21,19)           119.772          estimate D2E/DX2                !
 ! A41   A(17,21,24)           120.126          estimate D2E/DX2                !
 ! A42   A(19,21,24)           120.102          estimate D2E/DX2                !
 ! A43   A(1,25,26)            121.9769         estimate D2E/DX2                !
 ! A44   A(1,25,27)            118.8441         estimate D2E/DX2                !
 ! A45   A(26,25,27)           119.1788         estimate D2E/DX2                !
 ! A46   A(25,26,28)           120.3621         estimate D2E/DX2                !
 ! A47   A(25,26,29)           119.541          estimate D2E/DX2                !
 ! A48   A(28,26,29)           120.0941         estimate D2E/DX2                !
 ! A49   A(25,27,30)           120.3286         estimate D2E/DX2                !
 ! A50   A(25,27,31)           119.9857         estimate D2E/DX2                !
 ! A51   A(30,27,31)           119.6855         estimate D2E/DX2                !
 ! A52   A(26,28,32)           120.1783         estimate D2E/DX2                !
 ! A53   A(26,28,33)           119.7736         estimate D2E/DX2                !
 ! A54   A(32,28,33)           120.0481         estimate D2E/DX2                !
 ! A55   A(27,30,32)           120.1801         estimate D2E/DX2                !
 ! A56   A(27,30,34)           119.8331         estimate D2E/DX2                !
 ! A57   A(32,30,34)           119.9869         estimate D2E/DX2                !
 ! A58   A(28,32,30)           119.772          estimate D2E/DX2                !
 ! A59   A(28,32,35)           120.126          estimate D2E/DX2                !
 ! A60   A(30,32,35)           120.102          estimate D2E/DX2                !
 ! D1    D(2,1,3,4)             27.3996         estimate D2E/DX2                !
 ! D2    D(2,1,3,5)           -152.7878         estimate D2E/DX2                !
 ! D3    D(14,1,3,4)           -89.3888         estimate D2E/DX2                !
 ! D4    D(14,1,3,5)            90.4238         estimate D2E/DX2                !
 ! D5    D(25,1,3,4)           144.188          estimate D2E/DX2                !
 ! D6    D(25,1,3,5)           -35.9994         estimate D2E/DX2                !
 ! D7    D(2,1,14,15)         -152.7878         estimate D2E/DX2                !
 ! D8    D(2,1,14,16)           27.3996         estimate D2E/DX2                !
 ! D9    D(3,1,14,15)          -35.9994         estimate D2E/DX2                !
 ! D10   D(3,1,14,16)          144.188          estimate D2E/DX2                !
 ! D11   D(25,1,14,15)          90.4238         estimate D2E/DX2                !
 ! D12   D(25,1,14,16)         -89.3888         estimate D2E/DX2                !
 ! D13   D(2,1,25,26)         -152.7878         estimate D2E/DX2                !
 ! D14   D(2,1,25,27)           27.3996         estimate D2E/DX2                !
 ! D15   D(3,1,25,26)           90.4238         estimate D2E/DX2                !
 ! D16   D(3,1,25,27)          -89.3888         estimate D2E/DX2                !
 ! D17   D(14,1,25,26)         -35.9994         estimate D2E/DX2                !
 ! D18   D(14,1,25,27)         144.188          estimate D2E/DX2                !
 ! D19   D(1,3,4,6)            179.747          estimate D2E/DX2                !
 ! D20   D(1,3,4,7)             -0.0964         estimate D2E/DX2                !
 ! D21   D(5,3,4,6)             -0.0709         estimate D2E/DX2                !
 ! D22   D(5,3,4,7)           -179.9143         estimate D2E/DX2                !
 ! D23   D(1,3,5,8)           -179.8522         estimate D2E/DX2                !
 ! D24   D(1,3,5,9)              0.7431         estimate D2E/DX2                !
 ! D25   D(4,3,5,8)             -0.0402         estimate D2E/DX2                !
 ! D26   D(4,3,5,9)           -179.445          estimate D2E/DX2                !
 ! D27   D(3,4,6,10)             0.101          estimate D2E/DX2                !
 ! D28   D(3,4,6,11)          -179.9321         estimate D2E/DX2                !
 ! D29   D(7,4,6,10)           179.945          estimate D2E/DX2                !
 ! D30   D(7,4,6,11)            -0.0882         estimate D2E/DX2                !
 ! D31   D(3,5,8,10)             0.1217         estimate D2E/DX2                !
 ! D32   D(3,5,8,12)          -179.8219         estimate D2E/DX2                !
 ! D33   D(9,5,8,10)           179.5232         estimate D2E/DX2                !
 ! D34   D(9,5,8,12)            -0.4205         estimate D2E/DX2                !
 ! D35   D(4,6,10,8)            -0.0194         estimate D2E/DX2                !
 ! D36   D(4,6,10,13)          179.9067         estimate D2E/DX2                !
 ! D37   D(11,6,10,8)         -179.9863         estimate D2E/DX2                !
 ! D38   D(11,6,10,13)          -0.0602         estimate D2E/DX2                !
 ! D39   D(5,8,10,6)            -0.0916         estimate D2E/DX2                !
 ! D40   D(5,8,10,13)          179.9823         estimate D2E/DX2                !
 ! D41   D(12,8,10,6)          179.8519         estimate D2E/DX2                !
 ! D42   D(12,8,10,13)          -0.0742         estimate D2E/DX2                !
 ! D43   D(1,14,15,17)        -179.8522         estimate D2E/DX2                !
 ! D44   D(1,14,15,18)           0.7431         estimate D2E/DX2                !
 ! D45   D(16,14,15,17)         -0.0402         estimate D2E/DX2                !
 ! D46   D(16,14,15,18)       -179.445          estimate D2E/DX2                !
 ! D47   D(1,14,16,19)         179.747          estimate D2E/DX2                !
 ! D48   D(1,14,16,20)          -0.0964         estimate D2E/DX2                !
 ! D49   D(15,14,16,19)         -0.0709         estimate D2E/DX2                !
 ! D50   D(15,14,16,20)       -179.9143         estimate D2E/DX2                !
 ! D51   D(14,15,17,21)          0.1217         estimate D2E/DX2                !
 ! D52   D(14,15,17,22)       -179.8219         estimate D2E/DX2                !
 ! D53   D(18,15,17,21)        179.5232         estimate D2E/DX2                !
 ! D54   D(18,15,17,22)         -0.4205         estimate D2E/DX2                !
 ! D55   D(14,16,19,21)          0.101          estimate D2E/DX2                !
 ! D56   D(14,16,19,23)       -179.9321         estimate D2E/DX2                !
 ! D57   D(20,16,19,21)        179.945          estimate D2E/DX2                !
 ! D58   D(20,16,19,23)         -0.0882         estimate D2E/DX2                !
 ! D59   D(15,17,21,19)         -0.0916         estimate D2E/DX2                !
 ! D60   D(15,17,21,24)        179.9823         estimate D2E/DX2                !
 ! D61   D(22,17,21,19)        179.8519         estimate D2E/DX2                !
 ! D62   D(22,17,21,24)         -0.0742         estimate D2E/DX2                !
 ! D63   D(16,19,21,17)         -0.0194         estimate D2E/DX2                !
 ! D64   D(16,19,21,24)        179.9067         estimate D2E/DX2                !
 ! D65   D(23,19,21,17)       -179.9863         estimate D2E/DX2                !
 ! D66   D(23,19,21,24)         -0.0602         estimate D2E/DX2                !
 ! D67   D(1,25,26,28)        -179.8522         estimate D2E/DX2                !
 ! D68   D(1,25,26,29)           0.7431         estimate D2E/DX2                !
 ! D69   D(27,25,26,28)         -0.0402         estimate D2E/DX2                !
 ! D70   D(27,25,26,29)       -179.445          estimate D2E/DX2                !
 ! D71   D(1,25,27,30)         179.747          estimate D2E/DX2                !
 ! D72   D(1,25,27,31)          -0.0964         estimate D2E/DX2                !
 ! D73   D(26,25,27,30)         -0.0709         estimate D2E/DX2                !
 ! D74   D(26,25,27,31)       -179.9143         estimate D2E/DX2                !
 ! D75   D(25,26,28,32)          0.1217         estimate D2E/DX2                !
 ! D76   D(25,26,28,33)       -179.8219         estimate D2E/DX2                !
 ! D77   D(29,26,28,32)        179.5232         estimate D2E/DX2                !
 ! D78   D(29,26,28,33)         -0.4205         estimate D2E/DX2                !
 ! D79   D(25,27,30,32)          0.101          estimate D2E/DX2                !
 ! D80   D(25,27,30,34)       -179.9321         estimate D2E/DX2                !
 ! D81   D(31,27,30,32)        179.945          estimate D2E/DX2                !
 ! D82   D(31,27,30,34)         -0.0882         estimate D2E/DX2                !
 ! D83   D(26,28,32,30)         -0.0916         estimate D2E/DX2                !
 ! D84   D(26,28,32,35)        179.9823         estimate D2E/DX2                !
 ! D85   D(33,28,32,30)        179.8519         estimate D2E/DX2                !
 ! D86   D(33,28,32,35)         -0.0742         estimate D2E/DX2                !
 ! D87   D(27,30,32,28)         -0.0194         estimate D2E/DX2                !
 ! D88   D(27,30,32,35)        179.9067         estimate D2E/DX2                !
 ! D89   D(34,30,32,28)       -179.9863         estimate D2E/DX2                !
 ! D90   D(34,30,32,35)         -0.0602         estimate D2E/DX2                !
 --------------------------------------------------------------------------------
 Trust Radius=3.00D-01 FncErr=1.00D-07 GrdErr=1.00D-07
 Number of steps in this run= 197 maximum allowed number of steps= 210.
 GradGradGradGradGradGradGradGradGradGradGradGradGradGradGradGradGradGrad

                          Input orientation:                          
 ---------------------------------------------------------------------
 Center     Atomic      Atomic             Coordinates (Angstroms)
 Number     Number       Type             X           Y           Z
 ---------------------------------------------------------------------
      1          6           0        0.000000    0.000000    0.795156
      2          1           0        0.000000    0.000000    1.917848
      3          6           0       -0.978649    1.060992    0.355306
      4          6           0       -1.216627    2.149906    1.198431
      5          6           0       -1.647842    0.988043   -0.867220
      6          6           0       -2.107880    3.147525    0.821708
      7          1           0       -0.697128    2.221240    2.161101
      8          6           0       -2.540713    1.986526   -1.240399
      9          1           0       -1.472276    0.130577   -1.530152
     10          6           0       -2.771771    3.067961   -0.397957
     11          1           0       -2.287363    3.997506    1.487973
     12          1           0       -3.062664    1.918113   -2.200408
     13          1           0       -3.474620    3.853651   -0.692717
     14          6           0        1.408171    0.317039    0.355306
     15          6           0        1.679592    0.933051   -0.867220
     16          6           0        2.470187   -0.021323    1.198431
     17          6           0        2.990739    1.207059   -1.240399
     18          1           0        0.849221    1.209739   -1.530152
     19          6           0        3.779776    0.251715    0.821708
     20          1           0        2.272214   -0.506890    2.161101
     21          6           0        4.042818    0.866444   -0.397957
     22          1           0        3.192467    1.693288   -2.200408
     23          1           0        4.605623   -0.017838    1.487973
     24          1           0        5.074670    1.082284   -0.692717
     25          6           0       -0.429522   -1.378031    0.355306
     26          6           0       -0.031750   -1.921095   -0.867220
     27          6           0       -1.253560   -2.128583    1.198431
     28          6           0       -0.450026   -3.193585   -1.240399
     29          1           0        0.623055   -1.340316   -1.530152
     30          6           0       -1.671897   -3.399240    0.821708
     31          1           0       -1.575086   -1.714350    2.161101
     32          6           0       -1.271047   -3.934405   -0.397957
     33          1           0       -0.129803   -3.611402   -2.200408
     34          1           0       -2.318260   -3.979668    1.487973
     35          1           0       -1.600049   -4.935935   -0.692717
 ---------------------------------------------------------------------
                    Distance matrix (angstroms):
                    1          2          3          4          5
     1  C    0.000000
     2  H    1.122692   0.000000
     3  C    1.508948   2.127203   0.000000
     4  C    2.502980   2.572905   1.397579   0.000000
     5  C    2.540690   3.383521   1.395604   2.408897   0.000000
     6  C    3.788242   3.943551   2.417915   1.389782   2.779833
     7  H    2.699204   2.340740   2.164792   1.096221   3.405196
     8  C    3.813790   4.513982   2.417216   2.779890   1.390485
     9  H    2.755304   3.751446   2.159698   3.404146   1.097976
    10  C    4.303326   4.738993   2.794748   2.410343   2.410287
    11  H    4.657476   4.625676   3.408633   2.154979   3.874633
    12  H    4.693876   5.478969   3.407265   3.874750   2.155028
    13  H    5.397905   5.808499   3.889366   3.402605   3.402834
    14  C    1.508949   2.127203   2.500075   3.310563   3.359171
    15  C    2.540690   3.383521   2.928683   3.759752   3.327888
    16  C    2.502980   2.572905   3.711702   4.278649   4.716344
    17  C    3.813790   4.513982   4.280613   4.953664   4.658718
    18  H    2.755304   3.751446   2.630245   3.549199   2.593058
    19  C    3.788242   3.943551   4.849234   5.358087   5.731814
    20  H    2.699204   2.340740   4.035747   4.489689   5.174204
    21  C    4.303326   4.738993   5.081376   5.644244   5.711269
    22  H    4.693876   5.478969   4.932513   5.585761   5.069847
    23  H    4.657476   4.625676   5.799216   6.219450   6.757555
    24  H    5.397905   5.808499   6.143409   6.655575   6.725436
    25  C    1.508948   2.127203   2.500075   3.711702   2.928683
    26  C    2.540690   3.383521   3.359171   4.716344   3.327888
    27  C    2.502980   2.572905   3.310563   4.278649   3.759752
    28  C    3.813790   4.513982   4.574620   5.923552   4.365781
    29  H    2.755304   3.751446   3.447708   4.797004   3.319293
    30  C    3.788242   3.943551   4.537818   5.580520   4.701203
    31  H    2.699204   2.340740   3.364396   3.998462   4.059428
    32  C    4.303326   4.738993   5.060325   6.290489   4.959100
    33  H    4.693876   5.478969   5.392910   6.776870   5.023617
    34  H    4.657476   4.625676   5.337204   6.234509   5.538461
    35  H    5.397905   5.808499   6.119447   7.343882   5.926741
                    6          7          8          9         10
     6  C    0.000000
     7  H    2.154576   0.000000
     8  C    2.405733   3.876094   0.000000
     9  H    3.877785   4.312433   2.161033   0.000000
    10  C    1.390923   3.401450   1.390179   3.405698   0.000000
    11  H    1.094801   2.477312   3.398858   4.972583   2.157646
    12  H    3.399449   4.970957   1.094866   2.484726   2.157683
    13  H    2.158721   4.303895   2.158308   4.309520   1.094618
    14  C    4.537818   3.364396   4.574620   3.447708   5.060325
    15  C    4.701203   4.059428   4.365781   3.319294   4.959100
    16  C    5.580520   3.998462   5.923552   4.797004   6.290489
    17  C    5.832118   5.118508   5.586101   4.600137   6.113852
    18  H    4.246257   4.127914   3.489843   2.560066   4.224504
    19  C    6.561266   5.071062   6.870985   5.755864   7.234749
    20  H    5.859517   4.032329   6.399343   5.296500   6.691048
    21  C    6.672480   5.554398   6.731060   5.677994   7.161375
    22  H    6.272293   5.867746   5.820391   4.964991   6.380493
    23  H    7.452151   5.795321   7.907693   6.787633   8.216132
    24  H    7.625465   6.538742   7.688411   6.668548   8.099162
    25  C    4.849234   4.035747   4.280613   2.630245   5.081376
    26  C    5.731814   5.174204   4.658718   2.593058   5.711269
    27  C    5.358087   4.489689   4.953664   3.549199   5.644244
    28  C    6.870985   6.399343   5.586101   3.489843   6.731060
    29  H    5.755864   5.296500   4.600137   2.560066   5.677994
    30  C    6.561266   5.859517   5.832118   4.246257   6.672480
    31  H    5.071062   4.032329   5.118508   4.127914   5.554398
    32  C    7.234749   6.691048   6.113852   4.224504   7.161375
    33  H    7.663489   7.305089   6.170162   4.031610   7.405586
    34  H    7.161358   6.444566   6.564219   5.169031   7.309684
    35  H    8.239763   7.757880   7.007515   5.136844   8.094576
                   11         12         13         14         15
    11  H    0.000000
    12  H    4.304546   0.000000
    13  H    2.487103   2.487799   0.000000
    14  C    5.337204   5.392910   6.119447   0.000000
    15  C    5.538461   5.023617   5.926741   1.395604   0.000000
    16  C    6.234509   6.776870   7.343882   1.397579   2.408897
    17  C    6.564219   6.170162   7.007515   2.417216   1.390485
    18  H    5.169031   4.031610   5.136844   2.159698   1.097976
    19  C    7.161358   7.663489   8.239763   2.417914   2.779833
    20  H    6.444566   7.305089   7.757879   2.164792   3.405196
    21  C    7.309684   7.405586   8.094576   2.794748   2.410287
    22  H    6.995864   6.259170   7.168706   3.407265   2.155028
    23  H    7.977233   8.726666   9.221397   3.408633   3.874633
    24  H    8.213005   8.317929   8.987259   3.889366   3.402834
    25  C    5.799216   4.932513   6.143409   2.500075   3.359171
    26  C    6.757555   5.069847   6.725436   2.928683   3.327888
    27  C    6.219449   5.585761   6.655575   3.711702   4.716343
    28  C    7.907693   5.820391   7.688411   4.280613   4.658718
    29  H    6.787633   4.964991   6.668548   2.630245   2.593058
    30  C    7.452151   6.272294   7.625465   4.849234   5.731814
    31  H    5.795320   5.867746   6.538742   4.035747   5.174204
    32  C    8.216132   6.380493   8.099162   5.081376   5.711269
    33  H    8.726666   6.259170   8.317929   4.932513   5.069847
    34  H    7.977233   6.995864   8.213005   5.799216   6.757555
    35  H    9.221397   7.168706   8.987259   6.143409   6.725436
                   16         17         18         19         20
    16  C    0.000000
    17  C    2.779890   0.000000
    18  H    3.404147   2.161033   0.000000
    19  C    1.389782   2.405733   3.877785   0.000000
    20  H    1.096221   3.876094   4.312433   2.154576   0.000000
    21  C    2.410343   1.390179   3.405698   1.390923   3.401450
    22  H    3.874750   1.094866   2.484726   3.399449   4.970957
    23  H    2.154979   3.398858   4.972583   1.094802   2.477312
    24  H    3.402605   2.158308   4.309520   2.158721   4.303895
    25  C    3.310563   4.574620   3.447708   4.537818   3.364396
    26  C    3.759752   4.365781   3.319294   4.701203   4.059428
    27  C    4.278649   5.923552   4.797004   5.580520   3.998462
    28  C    4.953664   5.586101   4.600137   5.832118   5.118508
    29  H    3.549198   3.489843   2.560066   4.246257   4.127914
    30  C    5.358087   6.870985   5.755864   6.561266   5.071062
    31  H    4.489689   6.399343   5.296500   5.859517   4.032329
    32  C    5.644244   6.731060   5.677994   6.672480   5.554398
    33  H    5.585761   5.820391   4.964991   6.272293   5.867746
    34  H    6.219449   7.907693   6.787633   7.452151   5.795320
    35  H    6.655575   7.688411   6.668548   7.625465   6.538742
                   21         22         23         24         25
    21  C    0.000000
    22  H    2.157684   0.000000
    23  H    2.157646   4.304546   0.000000
    24  H    1.094618   2.487799   2.487103   0.000000
    25  C    5.060325   5.392910   5.337204   6.119447   0.000000
    26  C    4.959100   5.023617   5.538461   5.926741   1.395604
    27  C    6.290489   6.776870   6.234509   7.343882   1.397579
    28  C    6.113852   6.170162   6.564219   7.007515   2.417216
    29  H    4.224504   4.031610   5.169031   5.136844   2.159698
    30  C    7.234749   7.663489   7.161358   8.239763   2.417915
    31  H    6.691048   7.305089   6.444566   7.757879   2.164792
    32  C    7.161375   7.405586   7.309684   8.094576   2.794748
    33  H    6.380493   6.259170   6.995864   7.168706   3.407265
    34  H    8.216132   8.726666   7.977233   9.221397   3.408633
    35  H    8.099162   8.317929   8.213005   8.987259   3.889366
                   26         27         28         29         30
    26  C    0.000000
    27  C    2.408897   0.000000
    28  C    1.390485   2.779890   0.000000
    29  H    1.097976   3.404147   2.161033   0.000000
    30  C    2.779833   1.389782   2.405733   3.877785   0.000000
    31  H    3.405196   1.096221   3.876094   4.312433   2.154576
    32  C    2.410287   2.410343   1.390179   3.405698   1.390923
    33  H    2.155027   3.874750   1.094866   2.484726   3.399449
    34  H    3.874633   2.154979   3.398858   4.972583   1.094801
    35  H    3.402834   3.402605   2.158308   4.309520   2.158721
                   31         32         33         34         35
    31  H    0.000000
    32  C    3.401450   0.000000
    33  H    4.970957   2.157684   0.000000
    34  H    2.477312   2.157646   4.304546   0.000000
    35  H    4.303895   1.094618   2.487799   2.487103   0.000000
 Stoichiometry    C19H16
 Framework group  C3[C3(CH),X(C18H15)]
 Deg. of freedom    33
 Full point group                 C3      NOp   3
 Largest Abelian subgroup         C1      NOp   1
 Largest concise Abelian subgroup C1      NOp   1
                         Standard orientation:                         
 ---------------------------------------------------------------------
 Center     Atomic      Atomic             Coordinates (Angstroms)
 Number     Number       Type             X           Y           Z
 ---------------------------------------------------------------------
      1          6           0        0.000000    0.000000    0.779588
      2          1           0        0.000000    0.000000    1.902280
      3          6           0        0.000000    1.443419    0.339739
      4          6           0        0.563364    2.405182    1.182864
      5          6           0       -0.541354    1.843515   -0.882788
      6          6           0        0.584638    3.742762    0.806140
      7          1           0        0.993590    2.105391    2.145533
      8          6           0       -0.520684    3.182828   -1.255967
      9          1           0       -0.993671    1.094195   -1.545720
     10          6           0        0.042696    4.134401   -0.413525
     11          1           0        1.029001    4.489236    1.472405
     12          1           0       -0.950731    3.486428   -2.215976
     13          1           0        0.058767    5.188464   -0.708285
     14          6           0        1.250037   -0.721709    0.339739
     15          6           0        1.867208   -0.452932   -0.882788
     16          6           0        1.801266   -1.690479    1.182864
     17          6           0        3.016752   -1.140488   -1.255967
     18          1           0        1.444436    0.313447   -1.545720
     19          6           0        2.949008   -2.377692    0.806140
     20          1           0        1.326527   -1.913170    2.145533
     21          6           0        3.559149   -2.104177   -0.413525
     22          1           0        3.494701   -0.919856   -2.215976
     23          1           0        3.373292   -3.135759    1.472405
     24          1           0        4.463958   -2.645125   -0.708285
     25          6           0       -1.250037   -0.721709    0.339739
     26          6           0       -1.325854   -1.390584   -0.882788
     27          6           0       -2.364631   -0.714703    1.182864
     28          6           0       -2.496068   -2.042340   -1.255967
     29          1           0       -0.450765   -1.407642   -1.545720
     30          6           0       -3.533646   -1.365070    0.806140
     31          1           0       -2.320117   -0.192222    2.145533
     32          6           0       -3.601845   -2.030225   -0.413525
     33          1           0       -2.543969   -2.566572   -2.215976
     34          1           0       -4.402293   -1.353477    1.472405
     35          1           0       -4.522725   -2.543338   -0.708285
 ---------------------------------------------------------------------
 Rotational constants (GHZ):      0.3902668      0.3902668      0.2359293
 Standard basis: 6-311G (5D, 7F)
 There are   295 symmetry adapted basis functions of A   symmetry.
 Integral buffers will be    262144 words long.
 Raffenetti 1 integral format.
 Two-electron integral symmetry is turned on.
   295 basis functions,   574 primitive gaussians,   295 cartesian basis functions
    65 alpha electrons       65 beta electrons
       nuclear repulsion energy      1290.3574730988 Hartrees.
 NAtoms=   35 NActive=   35 NUniq=   13 SFac= 3.00D+00 NAtFMM=   80 NAOKFM=F Big=F
 One-electron integrals computed using PRISM.
 PrsmSu:  requested number of processors reduced to:  10 ShMem   1 Linda.
 NBasis=   295 RedAO= T  NBF=   295
 NBsUse=   295 1.00D-06 NBFU=   295
 Harris functional with IExCor=  205 diagonalized for initial guess.
 ExpMin= 1.03D-01 ExpMax= 4.56D+03 ExpMxC= 6.82D+02 IAcc=1 IRadAn=         1 AccDes= 0.00D+00
 HarFok:  IExCor=  205 AccDes= 0.00D+00 IRadAn=         1 IDoV= 1
 ScaDFX=  1.000000  1.000000  1.000000  1.000000
 FoFCou: FMM=F IPFlag=           0 FMFlag=      100000 FMFlg1=           0
         NFxFlg=           0 DoJE=T BraDBF=F KetDBF=T FulRan=T
         Omega=  0.000000  0.000000  1.000000  0.000000  0.000000 ICntrl=     500 IOpCl=  0
         NMat0=    1 NMatS0=    1 NMatT0=    0 NMatD0=    1 NMtDS0=    0 NMtDT0=    0
         I1Cent=           4 NGrid=           0.
 Petite list used in FoFCou.
 Initial guess orbital symmetries:
       Occupied  (E) (E) (A) (A) (E) (E) (A) (E) (E) (E) (E) (A)
                 (E) (E) (A) (E) (E) (A) (A) (A) (E) (E) (A) (A)
                 (E) (E) (E) (E) (A) (A) (E) (E) (E) (E) (A) (E)
                 (E) (A) (A) (E) (E) (E) (E) (A) (E) (E) (A) (E)
                 (E) (A) (E) (E) (A) (A) (E) (E) (E) (E) (A) (E)
                 (E) (A) (E) (E) (A)
       Virtual   (E) (E) (A) (E) (E) (A) (A) (A) (E) (E) (E) (E)
                 (A) (A) (E) (E) (E) (E) (A) (A) (E) (E) (E) (E)
                 (A) (A) (E) (E) (A) (E) (E) (A) (E) (E) (E) (E)
                 (A) (E) (E) (A) (E) (E) (A) (E) (E) (A) (A) (E)
                 (E) (E) (E) (A) (A) (E) (E) (A) (E) (E) (E) (E)
                 (A) (E) (E) (A) (E) (E) (A) (A) (E) (E) (E) (E)
                 (A) (A) (E) (E) (A) (A) (E) (E) (A) (E) (E) (A)
                 (E) (E) (A) (A) (E) (E) (E) (E) (A) (E) (E) (A)
                 (E) (E) (A) (E) (E) (A) (E) (E) (E) (E) (A) (E)
                 (E) (A) (E) (E) (E) (E) (A) (A) (E) (E) (A) (E)
                 (E) (A) (A) (E) (E) (E) (E) (A) (E) (E) (A) (A)
                 (E) (E) (A) (E) (E) (A) (E) (E) (A) (A) (E) (E)
                 (E) (E) (A) (A) (E) (E) (A) (E) (E) (A) (E) (E)
                 (A) (E) (E) (E) (E) (A) (A) (A) (E) (E) (A) (E)
                 (E) (A) (E) (E) (A) (E) (E) (A) (E) (E) (E) (E)
                 (A) (A) (E) (E) (E) (E) (A) (E) (E) (E) (E) (A)
                 (E) (E) (A) (A) (E) (E) (E) (E) (E) (E) (A) (A)
                 (E) (E) (A) (A) (E) (E) (A) (A) (E) (E) (E) (E)
                 (A) (A) (E) (E) (A) (E) (E) (A) (E) (E) (A) (A)
                 (E) (E)
 The electronic state of the initial guess is 1-A.
 Requested convergence on RMS density matrix=1.00D-08 within 128 cycles.
 Requested convergence on MAX density matrix=1.00D-06.
 Requested convergence on             energy=1.00D-06.
 No special actions if energy rises.
 Integral accuracy reduced to 1.0D-05 until final iterations.
 Initial convergence to 1.0D-05 achieved.  Increase integral accuracy.
 SCF Done:  E(RHF) =  -728.678102203     A.U. after   14 cycles
             Convg  =    0.6663D-08             -V/T =  2.0001

 **********************************************************************

            Population analysis using the SCF density.

 **********************************************************************

 Orbital symmetries:
       Occupied  (A) (E) (E) (A) (E) (E) (A) (A) (E) (E) (E) (E)
                 (A) (E) (E) (A) (E) (E) (A) (A) (E) (E) (A) (A)
                 (E) (E) (E) (E) (A) (A) (E) (E) (E) (E) (A) (E)
                 (E) (A) (A) (E) (E) (E) (E) (A) (A) (E) (E) (E)
                 (E) (A) (A) (E) (E) (A) (E) (E) (A) (E) (E) (E)
                 (E) (A) (E) (E) (A)
       Virtual   (E) (E) (A) (A) (E) (E) (A) (E) (E) (A) (A) (E)
                 (E) (E) (E) (A) (E) (E) (A) (E) (E) (A) (E) (E)
                 (A) (E) (E) (A) (A) (A) (E) (E) (E) (E) (E) (E)
                 (A) (A) (E) (E) (A) (E) (E) (E) (E) (A) (E) (E)
                 (A) (A) (E) (E) (A) (E) (E) (A) (E) (E) (A) (E)
                 (E) (E) (E) (A) (A) (E) (E) (A) (E) (E) (A) (E)
                 (E) (A) (E) (E) (A) (E) (E) (A) (A) (E) (E) (E)
                 (E) (A) (E) (E) (A) (E) (E) (A) (A) (E) (E) (A)
                 (E) (E) (A) (E) (E) (E) (E) (A) (E) (E) (A) (E)
                 (E) (A) (E) (E) (E) (E) (A) (A) (A) (E) (E) (A)
                 (E) (E) (A) (E) (E) (A) (E) (E) (A) (E) (E) (A)
                 (E) (E) (A) (E) (E) (A) (E) (E) (A) (E) (E) (A)
                 (E) (E) (A) (E) (E) (A) (A) (E) (E) (A) (A) (E)
                 (E) (E) (E) (A) (E) (E) (A) (A) (E) (E) (E) (E)
                 (A) (E) (E) (A) (A) (E) (E) (A) (E) (E) (E) (E)
                 (A) (A) (E) (E) (E) (E) (A) (E) (E) (A) (E) (E)
                 (A) (E) (E) (A) (E) (E) (E) (E) (E) (E) (A) (A)
                 (A) (E) (E) (A) (E) (E) (A) (A) (E) (E) (E) (E)
                 (A) (A) (E) (E) (A) (E) (E) (A) (E) (E) (A) (A)
                 (E) (E)
 The electronic state is 1-A.
 Alpha  occ. eigenvalues --  -11.25729 -11.25097 -11.25097 -11.25091 -11.24307
 Alpha  occ. eigenvalues --  -11.24307 -11.24307 -11.24284 -11.24284 -11.24284
 Alpha  occ. eigenvalues --  -11.24021 -11.24021 -11.24021 -11.23962 -11.23962
 Alpha  occ. eigenvalues --  -11.23962 -11.23819 -11.23819 -11.23818  -1.18573
 Alpha  occ. eigenvalues --   -1.15714  -1.15714  -1.09014  -1.02190  -1.02042
 Alpha  occ. eigenvalues --   -1.02042  -1.01368  -1.01368  -0.92879  -0.84081
 Alpha  occ. eigenvalues --   -0.82988  -0.82988  -0.81455  -0.81455  -0.77514
 Alpha  occ. eigenvalues --   -0.70623  -0.70623  -0.68786  -0.65638  -0.63786
 Alpha  occ. eigenvalues --   -0.63786  -0.61932  -0.61932  -0.61743  -0.59102
 Alpha  occ. eigenvalues --   -0.58734  -0.58734  -0.58058  -0.58058  -0.54331
 Alpha  occ. eigenvalues --   -0.51185  -0.50837  -0.50837  -0.49663  -0.49106
 Alpha  occ. eigenvalues --   -0.49106  -0.47446  -0.47175  -0.47175  -0.34452
 Alpha  occ. eigenvalues --   -0.34452  -0.34001  -0.33234  -0.33234  -0.31223
 Alpha virt. eigenvalues --    0.12199   0.12199   0.12413   0.14454   0.14457
 Alpha virt. eigenvalues --    0.14457   0.15129   0.16316   0.16316   0.17104
 Alpha virt. eigenvalues --    0.19068   0.19127   0.19127   0.21254   0.21254
 Alpha virt. eigenvalues --    0.21552   0.23849   0.23849   0.24467   0.26753
 Alpha virt. eigenvalues --    0.26753   0.28548   0.34019   0.34019   0.35098
 Alpha virt. eigenvalues --    0.39172   0.39172   0.39322   0.41074   0.43773
 Alpha virt. eigenvalues --    0.43880   0.43880   0.44970   0.44970   0.45565
 Alpha virt. eigenvalues --    0.45565   0.45803   0.48372   0.49761   0.49761
 Alpha virt. eigenvalues --    0.50693   0.50883   0.50883   0.55385   0.55385
 Alpha virt. eigenvalues --    0.57207   0.58703   0.58703   0.58765   0.59457
 Alpha virt. eigenvalues --    0.60068   0.60068   0.61452   0.61551   0.61551
 Alpha virt. eigenvalues --    0.61701   0.62243   0.62243   0.63516   0.63791
 Alpha virt. eigenvalues --    0.63791   0.65416   0.65416   0.66727   0.67125
 Alpha virt. eigenvalues --    0.67855   0.67855   0.69133   0.70657   0.70657
 Alpha virt. eigenvalues --    0.73041   0.74588   0.74588   0.74982   0.75564
 Alpha virt. eigenvalues --    0.75564   0.78167   0.80246   0.80246   0.80275
 Alpha virt. eigenvalues --    0.81938   0.82008   0.82008   0.82960   0.82960
 Alpha virt. eigenvalues --    0.83734   0.84365   0.84365   0.85146   0.86014
 Alpha virt. eigenvalues --    0.86014   0.86224   0.87304   0.87734   0.87734
 Alpha virt. eigenvalues --    0.88540   0.90859   0.90859   0.92771   0.94591
 Alpha virt. eigenvalues --    0.94591   0.97235   0.97235   0.97802   1.00013
 Alpha virt. eigenvalues --    1.00013   1.00718   1.04014   1.04014   1.06247
 Alpha virt. eigenvalues --    1.07012   1.07012   1.08764   1.08764   1.09877
 Alpha virt. eigenvalues --    1.11122   1.12257   1.12923   1.12923   1.14212
 Alpha virt. eigenvalues --    1.14668   1.14668   1.17908   1.20731   1.20731
 Alpha virt. eigenvalues --    1.26760   1.27468   1.27468   1.28623   1.30046
 Alpha virt. eigenvalues --    1.30046   1.39697   1.40602   1.40602   1.49064
 Alpha virt. eigenvalues --    1.52286   1.52286   1.54939   2.55824   2.55824
 Alpha virt. eigenvalues --    2.56437   2.61667   2.61667   2.61684   2.66491
 Alpha virt. eigenvalues --    2.66491   2.67956   2.70416   2.70416   2.70921
 Alpha virt. eigenvalues --    2.78508   2.84834   2.84834   2.88612   2.94544
 Alpha virt. eigenvalues --    2.94634   2.94634   2.97623   2.97623   2.97663
 Alpha virt. eigenvalues --    3.01441   3.01441   3.04373   3.06186   3.07549
 Alpha virt. eigenvalues --    3.07549   3.08650   3.08650   3.09331   3.15395
 Alpha virt. eigenvalues --    3.15395   3.15674   3.17431   3.18970   3.18970
 Alpha virt. eigenvalues --    3.23295   3.25379   3.25379   3.28849   3.28849
 Alpha virt. eigenvalues --    3.29662   3.33093   3.34956   3.34956   3.42279
 Alpha virt. eigenvalues --    3.42279   3.43280   3.48608   3.48608   3.53945
 Alpha virt. eigenvalues --    3.54076   3.54076   3.59987   3.60366   3.60366
 Alpha virt. eigenvalues --    3.63120   3.63595   3.63595   3.65834   3.65834
 Alpha virt. eigenvalues --    3.69780   3.69780   3.70540   3.70700   3.75210
 Alpha virt. eigenvalues --    3.75866   3.75866   3.84502   3.87404   3.87404
 Alpha virt. eigenvalues --    3.91513  24.25932  24.31570  24.31570  24.50735
 Alpha virt. eigenvalues --   24.50735  24.51244  24.54550  24.55827  24.55827
 Alpha virt. eigenvalues --   24.77628  24.79317  24.79317  24.79932  24.80800
 Alpha virt. eigenvalues --   24.80800  24.83300  25.05344  25.06151  25.06151
          Condensed to atoms (all electrons):
              1          2          3          4          5          6
     1  C    5.857310   0.483042   0.146163  -0.054598  -0.041109   0.007222
     2  H    0.483042   0.515475  -0.072009  -0.001082   0.005315   0.001486
     3  C    0.146163  -0.072009   5.357341   0.484061   0.479645  -0.065806
     4  C   -0.054598  -0.001082   0.484061   5.058899  -0.068603   0.463601
     5  C   -0.041109   0.005315   0.479645  -0.068603   5.114128  -0.029422
     6  C    0.007222   0.001486  -0.065806   0.463601  -0.029422   5.054997
     7  H    0.000508   0.001478  -0.048754   0.399197   0.004436  -0.036060
     8  C    0.004211  -0.000241  -0.067512  -0.031777   0.469019  -0.075885
     9  H   -0.000816  -0.000118  -0.042542   0.004181   0.392252  -0.000227
    10  C    0.001166  -0.000011  -0.016429  -0.087554  -0.093827   0.490347
    11  H   -0.000371  -0.000026   0.006685  -0.039650  -0.000534   0.397086
    12  H   -0.000336   0.000014   0.006119  -0.000381  -0.037822   0.005934
    13  H   -0.000017  -0.000001  -0.001541   0.007433   0.007823  -0.042927
    14  C    0.146163  -0.072009  -0.097426  -0.001136  -0.008206  -0.000630
    15  C   -0.041109   0.005315  -0.018467   0.000259  -0.005044   0.000380
    16  C   -0.054598  -0.001082   0.005681   0.000838  -0.000166   0.000003
    17  C    0.004211  -0.000241   0.000106  -0.000164  -0.000021  -0.000009
    18  H   -0.000816  -0.000118  -0.001968  -0.000871   0.001502  -0.000190
    19  C    0.007222   0.001486  -0.000774  -0.000034   0.000027   0.000002
    20  H    0.000508   0.001478   0.000483   0.000044  -0.000031   0.000001
    21  C    0.001166  -0.000011   0.000096  -0.000009  -0.000017   0.000000
    22  H   -0.000336   0.000014   0.000028   0.000007   0.000018   0.000001
    23  H   -0.000371  -0.000026   0.000011   0.000001   0.000000   0.000000
    24  H   -0.000017  -0.000001  -0.000001   0.000000   0.000000   0.000000
    25  C    0.146163  -0.072009  -0.097426   0.005681  -0.018467  -0.000774
    26  C   -0.041109   0.005315  -0.008206  -0.000166  -0.005044   0.000027
    27  C   -0.054598  -0.001082  -0.001136   0.000838   0.000259  -0.000034
    28  C    0.004211  -0.000241   0.000685   0.000022  -0.001070   0.000000
    29  H   -0.000816  -0.000118  -0.000797  -0.000018   0.000738   0.000003
    30  C    0.007222   0.001486  -0.000630   0.000003   0.000380   0.000002
    31  H    0.000508   0.001478   0.000941   0.000234   0.000219  -0.000005
    32  C    0.001166  -0.000011   0.000039  -0.000001   0.000068   0.000000
    33  H   -0.000336   0.000014  -0.000003   0.000000   0.000016   0.000000
    34  H   -0.000371  -0.000026   0.000023   0.000000   0.000003   0.000000
    35  H   -0.000017  -0.000001   0.000000   0.000000  -0.000001   0.000000
              7          8          9         10         11         12
     1  C    0.000508   0.004211  -0.000816   0.001166  -0.000371  -0.000336
     2  H    0.001478  -0.000241  -0.000118  -0.000011  -0.000026   0.000014
     3  C   -0.048754  -0.067512  -0.042542  -0.016429   0.006685   0.006119
     4  C    0.399197  -0.031777   0.004181  -0.087554  -0.039650  -0.000381
     5  C    0.004436   0.469019   0.392252  -0.093827  -0.000534  -0.037822
     6  C   -0.036060  -0.075885  -0.000227   0.490347   0.397086   0.005934
     7  H    0.507669  -0.000422  -0.000239   0.005354  -0.004230   0.000022
     8  C   -0.000422   5.051863  -0.029854   0.496668   0.006119   0.396194
     9  H   -0.000239  -0.029854   0.474315   0.004628   0.000018  -0.003313
    10  C    0.005354   0.496668   0.004628   5.033003  -0.040647  -0.040225
    11  H   -0.004230   0.006119   0.000018  -0.040647   0.517983  -0.000211
    12  H    0.000022   0.396194  -0.003313  -0.040225  -0.000211   0.515669
    13  H   -0.000179  -0.042469  -0.000174   0.399531  -0.004495  -0.004404
    14  C    0.000941   0.000685  -0.000797   0.000039   0.000023  -0.000003
    15  C    0.000219  -0.001070   0.000738   0.000068   0.000003   0.000016
    16  C    0.000234   0.000022  -0.000018  -0.000001   0.000000   0.000000
    17  C    0.000007  -0.000022   0.000043   0.000005   0.000000   0.000001
    18  H   -0.000038   0.000919   0.000226   0.000002   0.000003   0.000007
    19  C   -0.000005   0.000000   0.000003   0.000000   0.000000   0.000000
    20  H   -0.000001   0.000000   0.000000   0.000000   0.000000   0.000000
    21  C   -0.000009   0.000000   0.000000   0.000000   0.000000   0.000000
    22  H    0.000000   0.000000  -0.000007  -0.000001   0.000000   0.000000
    23  H    0.000000   0.000000   0.000000   0.000000   0.000000   0.000000
    24  H    0.000000   0.000000   0.000000   0.000000   0.000000   0.000000
    25  C    0.000483   0.000106  -0.001968   0.000096   0.000011   0.000028
    26  C   -0.000031  -0.000021   0.001502  -0.000017   0.000000   0.000018
    27  C    0.000044  -0.000164  -0.000871  -0.000009   0.000001   0.000007
    28  C    0.000000  -0.000022   0.000919   0.000000   0.000000   0.000000
    29  H    0.000000   0.000043   0.000226   0.000000   0.000000  -0.000007
    30  C    0.000001  -0.000009  -0.000190   0.000000   0.000000   0.000001
    31  H   -0.000001   0.000007  -0.000038  -0.000009   0.000000   0.000000
    32  C    0.000000   0.000005   0.000002   0.000000   0.000000  -0.000001
    33  H    0.000000   0.000001   0.000007   0.000000   0.000000   0.000000
    34  H    0.000000   0.000000   0.000003   0.000000   0.000000   0.000000
    35  H    0.000000   0.000000   0.000000   0.000000   0.000000   0.000000
             13         14         15         16         17         18
     1  C   -0.000017   0.146163  -0.041109  -0.054598   0.004211  -0.000816
     2  H   -0.000001  -0.072009   0.005315  -0.001082  -0.000241  -0.000118
     3  C   -0.001541  -0.097426  -0.018467   0.005681   0.000106  -0.001968
     4  C    0.007433  -0.001136   0.000259   0.000838  -0.000164  -0.000871
     5  C    0.007823  -0.008206  -0.005044  -0.000166  -0.000021   0.001502
     6  C   -0.042927  -0.000630   0.000380   0.000003  -0.000009  -0.000190
     7  H   -0.000179   0.000941   0.000219   0.000234   0.000007  -0.000038
     8  C   -0.042469   0.000685  -0.001070   0.000022  -0.000022   0.000919
     9  H   -0.000174  -0.000797   0.000738  -0.000018   0.000043   0.000226
    10  C    0.399531   0.000039   0.000068  -0.000001   0.000005   0.000002
    11  H   -0.004495   0.000023   0.000003   0.000000   0.000000   0.000003
    12  H   -0.004404  -0.000003   0.000016   0.000000   0.000001   0.000007
    13  H    0.517924   0.000000  -0.000001   0.000000   0.000000   0.000000
    14  C    0.000000   5.357341   0.479645   0.484061  -0.067512  -0.042542
    15  C   -0.000001   0.479645   5.114128  -0.068603   0.469019   0.392252
    16  C    0.000000   0.484061  -0.068603   5.058899  -0.031777   0.004181
    17  C    0.000000  -0.067512   0.469019  -0.031777   5.051863  -0.029854
    18  H    0.000000  -0.042542   0.392252   0.004181  -0.029854   0.474315
    19  C    0.000000  -0.065806  -0.029422   0.463601  -0.075885  -0.000227
    20  H    0.000000  -0.048754   0.004436   0.399197  -0.000422  -0.000239
    21  C    0.000000  -0.016429  -0.093827  -0.087554   0.496668   0.004628
    22  H    0.000000   0.006119  -0.037822  -0.000381   0.396194  -0.003313
    23  H    0.000000   0.006685  -0.000534  -0.039650   0.006119   0.000018
    24  H    0.000000  -0.001541   0.007823   0.007433  -0.042469  -0.000174
    25  C   -0.000001  -0.097426  -0.008206  -0.001136   0.000685  -0.000797
    26  C    0.000000  -0.018467  -0.005044   0.000259  -0.001070   0.000738
    27  C    0.000000   0.005681  -0.000166   0.000838   0.000022  -0.000018
    28  C    0.000000   0.000106  -0.000021  -0.000164  -0.000022   0.000043
    29  H    0.000000  -0.001968   0.001502  -0.000871   0.000919   0.000226
    30  C    0.000000  -0.000774   0.000027  -0.000034   0.000000   0.000003
    31  H    0.000000   0.000483  -0.000031   0.000044   0.000000   0.000000
    32  C    0.000000   0.000096  -0.000017  -0.000009   0.000000   0.000000
    33  H    0.000000   0.000028   0.000018   0.000007   0.000000  -0.000007
    34  H    0.000000   0.000011   0.000000   0.000001   0.000000   0.000000
    35  H    0.000000  -0.000001   0.000000   0.000000   0.000000   0.000000
             19         20         21         22         23         24
     1  C    0.007222   0.000508   0.001166  -0.000336  -0.000371  -0.000017
     2  H    0.001486   0.001478  -0.000011   0.000014  -0.000026  -0.000001
     3  C   -0.000774   0.000483   0.000096   0.000028   0.000011  -0.000001
     4  C   -0.000034   0.000044  -0.000009   0.000007   0.000001   0.000000
     5  C    0.000027  -0.000031  -0.000017   0.000018   0.000000   0.000000
     6  C    0.000002   0.000001   0.000000   0.000001   0.000000   0.000000
     7  H   -0.000005  -0.000001  -0.000009   0.000000   0.000000   0.000000
     8  C    0.000000   0.000000   0.000000   0.000000   0.000000   0.000000
     9  H    0.000003   0.000000   0.000000  -0.000007   0.000000   0.000000
    10  C    0.000000   0.000000   0.000000  -0.000001   0.000000   0.000000
    11  H    0.000000   0.000000   0.000000   0.000000   0.000000   0.000000
    12  H    0.000000   0.000000   0.000000   0.000000   0.000000   0.000000
    13  H    0.000000   0.000000   0.000000   0.000000   0.000000   0.000000
    14  C   -0.065806  -0.048754  -0.016429   0.006119   0.006685  -0.001541
    15  C   -0.029422   0.004436  -0.093827  -0.037822  -0.000534   0.007823
    16  C    0.463601   0.399197  -0.087554  -0.000381  -0.039650   0.007433
    17  C   -0.075885  -0.000422   0.496668   0.396194   0.006119  -0.042469
    18  H   -0.000227  -0.000239   0.004628  -0.003313   0.000018  -0.000174
    19  C    5.054997  -0.036060   0.490347   0.005934   0.397086  -0.042927
    20  H   -0.036060   0.507669   0.005354   0.000022  -0.004230  -0.000179
    21  C    0.490347   0.005354   5.033003  -0.040225  -0.040647   0.399531
    22  H    0.005934   0.000022  -0.040225   0.515669  -0.000211  -0.004404
    23  H    0.397086  -0.004230  -0.040647  -0.000211   0.517983  -0.004495
    24  H   -0.042927  -0.000179   0.399531  -0.004404  -0.004495   0.517924
    25  C   -0.000630   0.000941   0.000039  -0.000003   0.000023   0.000000
    26  C    0.000380   0.000219   0.000068   0.000016   0.000003  -0.000001
    27  C    0.000003   0.000234  -0.000001   0.000000   0.000000   0.000000
    28  C   -0.000009   0.000007   0.000005   0.000001   0.000000   0.000000
    29  H   -0.000190  -0.000038   0.000002   0.000007   0.000003   0.000000
    30  C    0.000002  -0.000005   0.000000   0.000000   0.000000   0.000000
    31  H    0.000001  -0.000001   0.000000   0.000000   0.000000   0.000000
    32  C    0.000000  -0.000009   0.000000   0.000000   0.000000   0.000000
    33  H    0.000001   0.000000  -0.000001   0.000000   0.000000   0.000000
    34  H    0.000000   0.000000   0.000000   0.000000   0.000000   0.000000
    35  H    0.000000   0.000000   0.000000   0.000000   0.000000   0.000000
             25         26         27         28         29         30
     1  C    0.146163  -0.041109  -0.054598   0.004211  -0.000816   0.007222
     2  H   -0.072009   0.005315  -0.001082  -0.000241  -0.000118   0.001486
     3  C   -0.097426  -0.008206  -0.001136   0.000685  -0.000797  -0.000630
     4  C    0.005681  -0.000166   0.000838   0.000022  -0.000018   0.000003
     5  C   -0.018467  -0.005044   0.000259  -0.001070   0.000738   0.000380
     6  C   -0.000774   0.000027  -0.000034   0.000000   0.000003   0.000002
     7  H    0.000483  -0.000031   0.000044   0.000000   0.000000   0.000001
     8  C    0.000106  -0.000021  -0.000164  -0.000022   0.000043  -0.000009
     9  H   -0.001968   0.001502  -0.000871   0.000919   0.000226  -0.000190
    10  C    0.000096  -0.000017  -0.000009   0.000000   0.000000   0.000000
    11  H    0.000011   0.000000   0.000001   0.000000   0.000000   0.000000
    12  H    0.000028   0.000018   0.000007   0.000000  -0.000007   0.000001
    13  H   -0.000001   0.000000   0.000000   0.000000   0.000000   0.000000
    14  C   -0.097426  -0.018467   0.005681   0.000106  -0.001968  -0.000774
    15  C   -0.008206  -0.005044  -0.000166  -0.000021   0.001502   0.000027
    16  C   -0.001136   0.000259   0.000838  -0.000164  -0.000871  -0.000034
    17  C    0.000685  -0.001070   0.000022  -0.000022   0.000919   0.000000
    18  H   -0.000797   0.000738  -0.000018   0.000043   0.000226   0.000003
    19  C   -0.000630   0.000380   0.000003  -0.000009  -0.000190   0.000002
    20  H    0.000941   0.000219   0.000234   0.000007  -0.000038  -0.000005
    21  C    0.000039   0.000068  -0.000001   0.000005   0.000002   0.000000
    22  H   -0.000003   0.000016   0.000000   0.000001   0.000007   0.000000
    23  H    0.000023   0.000003   0.000000   0.000000   0.000003   0.000000
    24  H    0.000000  -0.000001   0.000000   0.000000   0.000000   0.000000
    25  C    5.357341   0.479645   0.484061  -0.067512  -0.042542  -0.065806
    26  C    0.479645   5.114128  -0.068603   0.469019   0.392252  -0.029422
    27  C    0.484061  -0.068603   5.058899  -0.031777   0.004181   0.463601
    28  C   -0.067512   0.469019  -0.031777   5.051863  -0.029854  -0.075885
    29  H   -0.042542   0.392252   0.004181  -0.029854   0.474315  -0.000227
    30  C   -0.065806  -0.029422   0.463601  -0.075885  -0.000227   5.054997
    31  H   -0.048754   0.004436   0.399197  -0.000422  -0.000239  -0.036060
    32  C   -0.016429  -0.093827  -0.087554   0.496668   0.004628   0.490347
    33  H    0.006119  -0.037822  -0.000381   0.396194  -0.003313   0.005934
    34  H    0.006685  -0.000534  -0.039650   0.006119   0.000018   0.397086
    35  H   -0.001541   0.007823   0.007433  -0.042469  -0.000174  -0.042927
             31         32         33         34         35
     1  C    0.000508   0.001166  -0.000336  -0.000371  -0.000017
     2  H    0.001478  -0.000011   0.000014  -0.000026  -0.000001
     3  C    0.000941   0.000039  -0.000003   0.000023   0.000000
     4  C    0.000234  -0.000001   0.000000   0.000000   0.000000
     5  C    0.000219   0.000068   0.000016   0.000003  -0.000001
     6  C   -0.000005   0.000000   0.000000   0.000000   0.000000
     7  H   -0.000001   0.000000   0.000000   0.000000   0.000000
     8  C    0.000007   0.000005   0.000001   0.000000   0.000000
     9  H   -0.000038   0.000002   0.000007   0.000003   0.000000
    10  C   -0.000009   0.000000   0.000000   0.000000   0.000000
    11  H    0.000000   0.000000   0.000000   0.000000   0.000000
    12  H    0.000000  -0.000001   0.000000   0.000000   0.000000
    13  H    0.000000   0.000000   0.000000   0.000000   0.000000
    14  C    0.000483   0.000096   0.000028   0.000011  -0.000001
    15  C   -0.000031  -0.000017   0.000018   0.000000   0.000000
    16  C    0.000044  -0.000009   0.000007   0.000001   0.000000
    17  C    0.000000   0.000000   0.000000   0.000000   0.000000
    18  H    0.000000   0.000000  -0.000007   0.000000   0.000000
    19  C    0.000001   0.000000   0.000001   0.000000   0.000000
    20  H   -0.000001  -0.000009   0.000000   0.000000   0.000000
    21  C    0.000000   0.000000  -0.000001   0.000000   0.000000
    22  H    0.000000   0.000000   0.000000   0.000000   0.000000
    23  H    0.000000   0.000000   0.000000   0.000000   0.000000
    24  H    0.000000   0.000000   0.000000   0.000000   0.000000
    25  C   -0.048754  -0.016429   0.006119   0.006685  -0.001541
    26  C    0.004436  -0.093827  -0.037822  -0.000534   0.007823
    27  C    0.399197  -0.087554  -0.000381  -0.039650   0.007433
    28  C   -0.000422   0.496668   0.396194   0.006119  -0.042469
    29  H   -0.000239   0.004628  -0.003313   0.000018  -0.000174
    30  C   -0.036060   0.490347   0.005934   0.397086  -0.042927
    31  H    0.507669   0.005354   0.000022  -0.004230  -0.000179
    32  C    0.005354   5.033003  -0.040225  -0.040647   0.399531
    33  H    0.000022  -0.040225   0.515669  -0.000211  -0.004404
    34  H   -0.004230  -0.040647  -0.000211   0.517983  -0.004495
    35  H   -0.000179   0.399531  -0.004404  -0.004495   0.517924
 Mulliken atomic charges:
              1
     1  C   -0.526421
     2  H    0.197074
     3  C    0.053317
     4  C   -0.139252
     5  C   -0.166464
     6  C   -0.169125
     7  H    0.169377
     8  C   -0.176398
     9  H    0.202105
    10  C   -0.152178
    11  H    0.162232
    12  H    0.162671
    13  H    0.163499
    14  C    0.053317
    15  C   -0.166464
    16  C   -0.139252
    17  C   -0.176398
    18  H    0.202105
    19  C   -0.169125
    20  H    0.169377
    21  C   -0.152178
    22  H    0.162671
    23  H    0.162232
    24  H    0.163499
    25  C    0.053317
    26  C   -0.166464
    27  C   -0.139252
    28  C   -0.176398
    29  H    0.202105
    30  C   -0.169125
    31  H    0.169377
    32  C   -0.152178
    33  H    0.162671
    34  H    0.162232
    35  H    0.163499
 Sum of Mulliken atomic charges =   0.00000
 Mulliken charges with hydrogens summed into heavy atoms:
              1
     1  C   -0.329347
     3  C    0.053317
     4  C    0.030124
     5  C    0.035640
     6  C   -0.006892
     8  C   -0.013727
    10  C    0.011321
    14  C    0.053317
    15  C    0.035640
    16  C    0.030124
    17  C   -0.013727
    19  C   -0.006892
    21  C    0.011321
    25  C    0.053317
    26  C    0.035640
    27  C    0.030124
    28  C   -0.013727
    30  C   -0.006892
    32  C    0.011321
 Sum of Mulliken charges with hydrogens summed into heavy atoms =   0.00000
 Electronic spatial extent (au):  <R**2>=           4917.6721
 Charge=              0.0000 electrons
 Dipole moment (field-independent basis, Debye):
    X=              0.0000    Y=              0.0000    Z=              0.0236  Tot=              0.0236
 Quadrupole moment (field-independent basis, Debye-Ang):
   XX=           -111.4889   YY=           -111.4889   ZZ=           -104.6709
   XY=              0.0000   XZ=              0.0000   YZ=              0.0000
 Traceless Quadrupole moment (field-independent basis, Debye-Ang):
   XX=             -2.2727   YY=             -2.2727   ZZ=              4.5454
   XY=              0.0000   XZ=              0.0000   YZ=              0.0000
 Octapole moment (field-independent basis, Debye-Ang**2):
  XXX=            -13.8674  YYY=             39.5607  ZZZ=              0.7711  XYY=             13.8674
  XXY=            -39.5607  XXZ=             -3.6102  XZZ=              0.0000  YZZ=              0.0000
  YYZ=             -3.6102  XYZ=              0.0000
 Hexadecapole moment (field-independent basis, Debye-Ang**3):
 XXXX=          -2985.5745 YYYY=          -2985.5745 ZZZZ=           -747.0001 XXXY=              0.0000
 XXXZ=            -75.8633 YYYX=              0.0000 YYYZ=            -17.6521 ZZZX=              0.0000
 ZZZY=              0.0000 XXYY=           -995.1915 XXZZ=           -612.6994 YYZZ=           -612.6994
 XXYZ=             17.6521 YYXZ=             75.8633 ZZXY=              0.0000
 N-N= 1.290357473099D+03 E-N=-4.276814414205D+03  KE= 7.285946518246D+02
 PrsmSu:  requested number of processors reduced to:  10 ShMem   1 Linda.
 Calling FoFJK, ICntrl=      2127 FMM=F ISym2X=1 I1Cent= 0 IOpClX= 0 NMat=1 NMatS=1 NMatT=0.
 ***** Axes restored to original set *****
 -------------------------------------------------------------------
 Center     Atomic                   Forces (Hartrees/Bohr)
 Number     Number              X              Y              Z
 -------------------------------------------------------------------
      1        6           0.000000000    0.000000000    0.022558760
      2        1           0.000000000    0.000000000   -0.025899482
      3        6          -0.010113298    0.008429601    0.003108730
      4        6           0.002394437    0.001676093    0.005442805
      5        6           0.000013038   -0.008387855   -0.006197124
      6        6          -0.001816864    0.010376174    0.007746488
      7        1          -0.007957375   -0.001783360   -0.015323173
      8        6          -0.005263335   -0.000060040   -0.011202290
      9        1          -0.005888610    0.016911462    0.012021987
     10        6          -0.008680550    0.009817978   -0.003680245
     11        1           0.002523111   -0.012941939   -0.010116102
     12        1           0.007879549    0.001097132    0.014695839
     13        1           0.010605551   -0.012105553    0.004616659
     14        6           0.012356897    0.004543572    0.003108730
     15        6          -0.007270614    0.004182636   -0.006197124
     16        6           0.000254321   -0.002911689    0.005442805
     17        6           0.002579671    0.004588202   -0.011202290
     18        1           0.017590061   -0.003356045    0.012021987
     19        6           0.009894462   -0.003614637    0.007746488
     20        1           0.002434252    0.007782969   -0.015323173
     21        6           0.012842893    0.002608587   -0.003680245
     22        1          -0.002989630   -0.007372455    0.014695839
     23        1          -0.012469603    0.004285891   -0.010116102
     24        1          -0.015786492   -0.003131900    0.004616659
     25        6          -0.002243600   -0.012973173    0.003108730
     26        6           0.007257576    0.004205219   -0.006197124
     27        6          -0.002648757    0.001235596    0.005442805
     28        6           0.002683664   -0.004528162   -0.011202290
     29        1          -0.011701451   -0.013555417    0.012021987
     30        6          -0.008077598   -0.006761537    0.007746488
     31        1           0.005523123   -0.005999609   -0.015323173
     32        6          -0.004162344   -0.012426566   -0.003680245
     33        1          -0.004889918    0.006275324    0.014695839
     34        1           0.009946492    0.008656047   -0.010116102
     35        1           0.005180941    0.015237453    0.004616659
 -------------------------------------------------------------------
 Cartesian Forces:  Max     0.025899482 RMS     0.008999852

 GradGradGradGradGradGradGradGradGradGradGradGradGradGradGradGradGradGrad
 Berny optimization.
 Internal  Forces:  Max     0.025899482 RMS     0.006552897
 Search for a local minimum.
 Step number   1 out of a maximum of  197
 All quantities printed in internal units (Hartrees-Bohrs-Radians)
 Mixed Optimization -- RFO/linear search
 Second derivative matrix not updated -- first step.
     Eigenvalues ---    0.00648   0.00648   0.00648   0.01536   0.01536
     Eigenvalues ---    0.01536   0.02143   0.02143   0.02143   0.02171
     Eigenvalues ---    0.02171   0.02171   0.02182   0.02182   0.02182
     Eigenvalues ---    0.02201   0.02201   0.02201   0.02213   0.02213
     Eigenvalues ---    0.02213   0.02215   0.02215   0.02215   0.02217
     Eigenvalues ---    0.02217   0.02217   0.02218   0.02218   0.02218
     Eigenvalues ---    0.04647   0.06496   0.06496   0.15999   0.15999
     Eigenvalues ---    0.15999   0.16000   0.16000   0.16000   0.16000
     Eigenvalues ---    0.16000   0.16000   0.16000   0.16000   0.16000
     Eigenvalues ---    0.16000   0.16000   0.16000   0.19014   0.19014
     Eigenvalues ---    0.22000   0.22000   0.22000   0.22000   0.22000
     Eigenvalues ---    0.22000   0.23478   0.23478   0.23478   0.25000
     Eigenvalues ---    0.25000   0.25000   0.31292   0.31456   0.31456
     Eigenvalues ---    0.31456   0.33907   0.33907   0.33907   0.34103
     Eigenvalues ---    0.34103   0.34103   0.34256   0.34256   0.34256
     Eigenvalues ---    0.34264   0.34264   0.34264   0.34284   0.34284
     Eigenvalues ---    0.34284   0.42459   0.42459   0.42459   0.42575
     Eigenvalues ---    0.42575   0.42575   0.46396   0.46396   0.46396
     Eigenvalues ---    0.46772   0.46772   0.46772   0.47231   0.47231
     Eigenvalues ---    0.47231   0.47309   0.47309   0.473091000.00000
     Eigenvalues --- 1000.000001000.000001000.000001000.000001000.00000
     Eigenvalues --- 1000.000001000.000001000.000001000.000001000.00000
     Eigenvalues --- 1000.000001000.000001000.000001000.000001000.00000
     Eigenvalues --- 1000.000001000.000001000.000001000.000001000.00000
     Eigenvalues --- 1000.000001000.000001000.000001000.000001000.00000
     Eigenvalues --- 1000.000001000.000001000.000001000.000001000.00000
     Eigenvalues --- 1000.000001000.000001000.000001000.000001000.00000
     Eigenvalues --- 1000.000001000.000001000.000001000.000001000.00000
     Eigenvalues --- 1000.000001000.000001000.000001000.000001000.00000
     Eigenvalues --- 1000.000001000.000001000.000001000.000001000.00000
     Eigenvalues --- 1000.000001000.000001000.000001000.000001000.00000
     Eigenvalues --- 1000.000001000.000001000.000001000.000001000.00000
     Eigenvalues --- 1000.000001000.000001000.000001000.000001000.00000
     Eigenvalues --- 1000.000001000.000001000.000001000.000001000.00000
     Eigenvalues --- 1000.000001000.000001000.000001000.000001000.00000
     Eigenvalues --- 1000.000001000.000001000.000001000.000001000.00000
     Eigenvalues --- 1000.000001000.000001000.000001000.000001000.00000
     Eigenvalues --- 1000.000001000.00000
 RFO step:  Lambda=-2.69685160D-02 EMin= 6.47575967D-03
 Linear search not attempted -- first point.
 Maximum step size (   0.300) exceeded in Quadratic search.
    -- Step size scaled by   0.785
 Iteration  1 RMS(Cart)=  0.10428820 RMS(Int)=  0.00168492
 Iteration  2 RMS(Cart)=  0.00450074 RMS(Int)=  0.00031812
 Iteration  3 RMS(Cart)=  0.00000477 RMS(Int)=  0.00031811
 Iteration  4 RMS(Cart)=  0.00000000 RMS(Int)=  0.00031811
 ClnCor:  largest displacement from symmetrization is 8.99D-11 for atom    35.
 Variable       Old X    -DE/DX   Delta X   Delta X   Delta X     New X
                                 (Linear)    (Quad)   (Total)
    R1        2.12158  -0.02590   0.00000  -0.05981  -0.05981   2.06177
    R2        2.85150   0.01941   0.00000   0.04461   0.04461   2.89611
    R3        2.85150   0.01941   0.00000   0.04461   0.04461   2.89611
    R4        2.85150   0.01941   0.00000   0.04461   0.04461   2.89611
    R5        2.64104  -0.00443   0.00000  -0.00718  -0.00717   2.63388
    R6        2.63731  -0.00245   0.00000  -0.00387  -0.00386   2.63345
    R7        2.62631  -0.00369   0.00000  -0.00588  -0.00588   2.62043
    R8        2.07156  -0.01734   0.00000  -0.03699  -0.03699   2.03456
    R9        2.62764  -0.00298   0.00000  -0.00459  -0.00459   2.62305
   R10        2.07487  -0.02141   0.00000  -0.04591  -0.04591   2.02897
   R11        2.62846  -0.00628   0.00000  -0.00994  -0.00995   2.61851
   R12        2.06887  -0.01662   0.00000  -0.03529  -0.03529   2.03358
   R13        2.62706  -0.00577   0.00000  -0.00902  -0.00904   2.61802
   R14        2.06900  -0.01671   0.00000  -0.03550  -0.03550   2.03350
   R15        2.06853  -0.01674   0.00000  -0.03554  -0.03554   2.03299
   R16        2.63731  -0.00245   0.00000  -0.00387  -0.00386   2.63345
   R17        2.64104  -0.00443   0.00000  -0.00718  -0.00717   2.63388
   R18        2.62764  -0.00298   0.00000  -0.00459  -0.00459   2.62305
   R19        2.07487  -0.02141   0.00000  -0.04591  -0.04591   2.02897
   R20        2.62631  -0.00369   0.00000  -0.00588  -0.00588   2.62043
   R21        2.07156  -0.01734   0.00000  -0.03699  -0.03699   2.03456
   R22        2.62706  -0.00577   0.00000  -0.00902  -0.00904   2.61802
   R23        2.06900  -0.01671   0.00000  -0.03550  -0.03550   2.03350
   R24        2.62846  -0.00628   0.00000  -0.00994  -0.00995   2.61851
   R25        2.06887  -0.01662   0.00000  -0.03529  -0.03529   2.03358
   R26        2.06853  -0.01674   0.00000  -0.03554  -0.03554   2.03299
   R27        2.63731  -0.00245   0.00000  -0.00387  -0.00386   2.63345
   R28        2.64104  -0.00443   0.00000  -0.00718  -0.00717   2.63388
   R29        2.62764  -0.00298   0.00000  -0.00459  -0.00459   2.62305
   R30        2.07487  -0.02141   0.00000  -0.04591  -0.04591   2.02897
   R31        2.62631  -0.00369   0.00000  -0.00588  -0.00588   2.62043
   R32        2.07156  -0.01734   0.00000  -0.03699  -0.03699   2.03456
   R33        2.62706  -0.00577   0.00000  -0.00902  -0.00904   2.61802
   R34        2.06900  -0.01671   0.00000  -0.03550  -0.03550   2.03350
   R35        2.62846  -0.00628   0.00000  -0.00994  -0.00995   2.61851
   R36        2.06887  -0.01662   0.00000  -0.03529  -0.03529   2.03358
   R37        2.06853  -0.01674   0.00000  -0.03554  -0.03554   2.03299
    A1        1.86658  -0.00344   0.00000  -0.03681  -0.03610   1.83049
    A2        1.86658  -0.00344   0.00000  -0.03681  -0.03610   1.83049
    A3        1.86658  -0.00344   0.00000  -0.03681  -0.03610   1.83049
    A4        1.95255   0.00310   0.00000   0.03318   0.03096   1.98351
    A5        1.95255   0.00310   0.00000   0.03318   0.03096   1.98351
    A6        1.95255   0.00310   0.00000   0.03318   0.03096   1.98351
    A7        2.07422  -0.00221   0.00000  -0.00609  -0.00610   2.06812
    A8        2.12890   0.00990   0.00000   0.02825   0.02824   2.15714
    A9        2.08006  -0.00769   0.00000  -0.02216  -0.02214   2.05792
   A10        2.10013   0.00547   0.00000   0.01666   0.01667   2.11680
   A11        2.09415  -0.00347   0.00000  -0.01140  -0.01140   2.08274
   A12        2.08891  -0.00201   0.00000  -0.00527  -0.00528   2.08363
   A13        2.10072   0.00327   0.00000   0.01028   0.01028   2.11099
   A14        2.08638   0.00071   0.00000   0.00469   0.00469   2.09108
   A15        2.09604  -0.00398   0.00000  -0.01501  -0.01501   2.08103
   A16        2.09754  -0.00007   0.00000  -0.00099  -0.00099   2.09655
   A17        2.09148   0.00015   0.00000   0.00100   0.00100   2.09248
   A18        2.09417  -0.00009   0.00000  -0.00001  -0.00001   2.09415
   A19        2.09751   0.00128   0.00000   0.00392   0.00389   2.10140
   A20        2.09044  -0.00054   0.00000  -0.00155  -0.00154   2.08890
   A21        2.09523  -0.00074   0.00000  -0.00237  -0.00236   2.09287
   A22        2.09041  -0.00227   0.00000  -0.00771  -0.00773   2.08268
   A23        2.09618   0.00111   0.00000   0.00375   0.00376   2.09993
   A24        2.09659   0.00116   0.00000   0.00396   0.00397   2.10056
   A25        2.12890   0.00990   0.00000   0.02825   0.02824   2.15714
   A26        2.07422  -0.00221   0.00000  -0.00609  -0.00610   2.06812
   A27        2.08006  -0.00769   0.00000  -0.02216  -0.02214   2.05792
   A28        2.10072   0.00327   0.00000   0.01028   0.01028   2.11099
   A29        2.08638   0.00071   0.00000   0.00469   0.00469   2.09108
   A30        2.09604  -0.00398   0.00000  -0.01501  -0.01501   2.08103
   A31        2.10013   0.00547   0.00000   0.01666   0.01667   2.11680
   A32        2.09415  -0.00347   0.00000  -0.01140  -0.01140   2.08274
   A33        2.08891  -0.00201   0.00000  -0.00527  -0.00528   2.08363
   A34        2.09751   0.00128   0.00000   0.00392   0.00389   2.10140
   A35        2.09044  -0.00054   0.00000  -0.00155  -0.00154   2.08890
   A36        2.09523  -0.00074   0.00000  -0.00237  -0.00236   2.09287
   A37        2.09754  -0.00007   0.00000  -0.00099  -0.00099   2.09655
   A38        2.09148   0.00015   0.00000   0.00100   0.00100   2.09248
   A39        2.09417  -0.00009   0.00000  -0.00001  -0.00001   2.09415
   A40        2.09041  -0.00227   0.00000  -0.00771  -0.00773   2.08268
   A41        2.09659   0.00116   0.00000   0.00396   0.00397   2.10056
   A42        2.09618   0.00111   0.00000   0.00375   0.00376   2.09993
   A43        2.12890   0.00990   0.00000   0.02825   0.02824   2.15714
   A44        2.07422  -0.00221   0.00000  -0.00609  -0.00610   2.06812
   A45        2.08006  -0.00769   0.00000  -0.02216  -0.02214   2.05792
   A46        2.10072   0.00327   0.00000   0.01028   0.01028   2.11099
   A47        2.08638   0.00071   0.00000   0.00469   0.00469   2.09108
   A48        2.09604  -0.00398   0.00000  -0.01501  -0.01501   2.08103
   A49        2.10013   0.00547   0.00000   0.01666   0.01667   2.11680
   A50        2.09415  -0.00347   0.00000  -0.01140  -0.01140   2.08274
   A51        2.08891  -0.00201   0.00000  -0.00527  -0.00528   2.08363
   A52        2.09751   0.00128   0.00000   0.00392   0.00389   2.10140
   A53        2.09044  -0.00054   0.00000  -0.00155  -0.00154   2.08890
   A54        2.09523  -0.00074   0.00000  -0.00237  -0.00236   2.09287
   A55        2.09754  -0.00007   0.00000  -0.00099  -0.00099   2.09655
[...]
 .00069125,-0.00075695,0.19039575,0.67739158,0.00589030,0.00104807,-0.0
 0037682,-0.00004286,-0.00004223,0.00002538,0.00037375,-0.00053980,-0.0
 0050647,0.00037003,-0.00028304,-0.00002741,0.00005029,0.00022196,-0.00
 008659,-0.00027260,0.00005784,-0.00019502,0.00002029,0.00002348,-0.000
 02463,0.00015402,-0.00037641,-0.00014622,-0.00019317,-0.00004210,-0.00
 010844,0.00010439,0.00015697,0.00024532,-0.00000608,-0.00002582,0.0000
 1371,0.00002041,0.00000274,0.00000236,0.00000705,-0.00001897,0.0000001
 0,0.00035355,0.00121900,0.00107048,0.00034970,0.00003462,-0.00014682,-
 0.00013478,-0.00009587,-0.00021853,-0.00022437,-0.00007647,-0.00006550
 ,0.00001111,0.00005996,0.00000220,0.00018884,-0.00000042,-0.00019502,0
 .00001641,0.00001765,0.00013128,0.00011519,-0.00008356,0.00018608,0.00
 000804,0.00000084,-0.00000190,0.00002131,0.00000326,-0.00000619,-0.000
 00505,0.00000336,0.00001222,-0.03544792,0.01699746,0.06386415,0.001071
 82,-0.05057685,-0.04309601,0.03671679,-0.03280702,-0.14875469,0.060290
 91,0.04531953,-0.03408902,-0.00077677,-0.00058817,-0.00057563,-0.27188
 360,0.10089824,0.58250722,-0.00112076,0.00275944,-0.00043469,-0.000230
 64,-0.00076041,-0.00131559,0.00031470,0.00003869,0.00004548,-0.0001175
 4,0.00006234,0.00006040,-0.00004293,0.00008355,0.00014912,0.00005931,-
 0.00002505,0.00000708,-0.00002118,-0.00004738,-0.00002314,-0.00008928,
 0.00001424,-0.00001969,0.00002146,-0.00003886,-0.00008837,-0.00005261,
 -0.00000499,-0.00004720,-0.00000190,0.00001180,-0.00000410,-0.00001471
 ,0.00001534,-0.00002177,-0.00000095,0.00000529,-0.00001286,-0.00011995
 ,-0.00008419,-0.00039899,0.00015048,-0.00003630,-0.00008742,0.00000370
 ,-0.00009108,0.00012665,0.00000850,0.00006410,-0.00003203,-0.00000964,
 0.00001362,-0.00000868,0.00000599,0.00002276,-0.00003048,-0.00004560,0
 .00003329,-0.00001957,0.00001190,-0.00000509,0.00000039,0.00001330,0.0
 0001687,-0.00000453,-0.00000125,0.00000076,0.00000483,0.00000671,0.000
 00594,-0.00000589,-0.00440159,0.01259276,0.02069118,0.00095018,-0.0050
 3396,0.00546352,-0.10813331,0.04712584,0.10427810,-0.00072207,-0.00049
 430,-0.00063180,-0.00039907,0.00071515,0.00089908,0.00945948,-0.007801
 43,-0.00990501,0.10278272,0.00076658,-0.00018786,0.00161299,-0.0004001
 7,0.00021939,0.00031726,0.00005133,-0.00015469,0.00010727,0.00005682,-
 0.00006267,-0.00005731,0.00000011,0.00003219,0.00000975,0.00000886,-0.
 00005856,-0.00002303,-0.00001161,-0.00001968,-0.00000351,0.00002250,0.
 00000369,0.00003309,-0.00002294,0.00003544,-0.00001753,-0.00003961,0.0
 0001291,0.00000316,-0.00000384,0.00001589,0.00000758,-0.00000878,0.000
 00186,-0.00001694,-0.00000821,0.00001539,-0.00000821,0.00000064,0.0002
 1540,0.00003839,0.00005423,0.00001786,0.00000954,0.00006463,0.00006195
 ,-0.00010363,0.00001908,-0.00002232,0.00000626,-0.00000548,0.00000152,
 0.00001108,-0.00001187,-0.00002170,0.00000584,-0.00000249,0.00000473,0
 .00002227,0.00002896,0.00001673,-0.00001122,0.00000880,0.00000204,-0.0
 0000955,0.00001997,-0.00000117,0.00000282,0.00000724,0.00000170,0.0000
 0039,-0.00848139,0.01132072,0.01442897,-0.00484171,-0.00002193,0.00055
 821,0.04712653,-0.12935730,-0.11237076,-0.00043710,-0.00073101,0.00068
 897,-0.00031023,0.00039712,0.00074409,0.01573198,-0.00887841,-0.028642
 54,-0.04677412,0.13158379,-0.00259236,0.00042437,-0.00084879,0.0003904
 3,0.00046522,0.00039299,0.00015758,0.00043592,0.00035783,-0.00026099,0
 .00030000,0.00009201,-0.00017740,-0.00021261,-0.00007424,0.00006431,0.
 00004538,0.00013128,0.00002907,0.00000581,-0.00003109,-0.00017346,0.00
 012826,0.00000475,0.00016246,-0.00004952,-0.00006017,-0.00001969,-0.00
 004738,-0.00008394,0.00000030,-0.00000149,-0.00001780,0.00002306,0.000
 00710,-0.00000283,0.00001691,-0.00000596,-0.00000195,0.00009564,-0.000
 22109,0.00032737,-0.00016570,-0.00000133,0.00006038,-0.00003863,0.0000
 2545,0.00006681,-0.00002662,-0.00001835,0.00004893,0.00000722,-0.00001
 621,-0.00003721,-0.00002202,0.00002540,-0.00002463,0.00001461,-0.00001
 828,-0.00003109,-0.00000507,-0.00000614,0.00000558,-0.00001253,-0.0000
 0722,-0.00000059,-0.00001156,-0.00000721,-0.00000358,-0.00000218,-0.00
 000449,-0.00000368,0.00594546,-0.01313683,-0.01064608,0.00548716,0.001
 04410,0.00204285,0.10430766,-0.11133833,-0.25165649,-0.00060033,0.0008
 0625,0.00029800,0.00028250,-0.00054046,-0.00074806,0.00593106,-0.00037
 134,-0.00177599,-0.11796609,0.12424664,0.25994108,-0.00099815,0.001630
 79,0.00036092,-0.00011513,-0.00003896,-0.00077356,0.00061872,0.0006425
 3,-0.00024360,0.00027111,-0.00015609,-0.00009045,0.00011426,0.00008584
 ,-0.00006756,-0.00021503,0.00003076,-0.00012996,0.00000519,0.00000896,
 -0.00000278,0.00008697,-0.00032886,-0.00012241,-0.00025912,-0.00020864
 ,-0.00020815,0.00008289,0.00012182,0.00019624,-0.00002092,-0.00001655,
 0.00002229,0.00003046,-0.00001681,0.00000613,0.00000483,-0.00001470,-0
 .00000647,0.00033269,-0.00018174,0.00033587,0.00022620,0.00004591,-0.0
 0020850,-0.00029174,-0.00019999,-0.00005484,-0.00026106,0.00004687,-0.
 00004458,0.00000511,0.00002964,-0.00001727,0.00026037,0.00009767,-0.00
 018813,-0.00002279,0.00002221,0.00005087,0.00004980,-0.00014093,0.0002
 4494,-0.00000956,-0.00000326,0.00001516,-0.00000676,0.00000337,-0.0000
 1294,-0.00001329,-0.00000508,0.00000213,-0.04852459,0.00085548,0.05197
 764,-0.00333770,-0.07287315,-0.03375691,0.05267533,0.05096103,-0.01647
 668,-0.22282624,-0.06334768,0.12834690,0.00478194,-0.00351193,0.002484
 24,-0.15253055,-0.01207910,0.07726641,0.00425133,-0.00506571,0.0024534
 6,0.46015778,0.00103644,-0.00005126,0.00003358,-0.00015346,-0.00019231
 ,0.00012019,-0.00073512,-0.00012825,-0.00016877,0.00018600,-0.00014895
 ,0.00020618,0.00009320,-0.00016836,-0.00014863,0.00002379,-0.00000172,
 -0.00005798,-0.00002508,0.00002345,0.00000747,0.00001157,0.00001587,0.
 00004383,-0.00004669,-0.00006124,-0.00005456,0.00004496,-0.00005752,0.
 00001196,0.00002754,-0.00003207,0.00000226,0.00003112,-0.00003658,0.00
 003542,0.00001233,-0.00000535,0.00000669,0.00017918,-0.00012822,-0.000
 13017,-0.00005499,0.00002039,-0.00013120,-0.00006173,-0.00007784,0.000
 08051,-0.00002471,0.00002121,-0.00003048,0.00000715,-0.00000049,-0.000
 00997,0.00005555,0.00003573,0.00001192,0.00005683,-0.00001692,0.000006
 64,-0.00006407,-0.00002443,0.00007439,-0.00002045,-0.00001845,0.000014
 12,-0.00004223,-0.00001457,-0.00002203,-0.00001865,-0.00001179,0.00000
 094,0.00134529,-0.00047665,0.00212667,-0.03228623,-0.02319148,0.017213
 70,0.01070876,-0.02292280,-0.03533858,-0.11570212,-0.19720927,0.066665
 10,-0.00356105,-0.00385081,-0.00406958,0.03968075,-0.19342284,-0.12303
 354,-0.00472059,-0.00394382,-0.00306812,0.18907343,0.74450982,0.000818
 81,-0.00156870,-0.00115343,-0.00007622,-0.00037013,0.00096818,-0.00101
 524,-0.00061402,0.00037605,-0.00031028,0.00021854,0.00028444,-0.000072
 29,-0.00041840,0.00007313,0.00033093,-0.00005693,0.00018608,-0.0000099
 2,0.00000527,0.00000558,-0.00017848,0.00043261,0.00010789,0.00023497,0
 .00004651,0.00006634,-0.00005804,-0.00024932,-0.00027670,0.00004179,0.
 00000368,-0.00002641,0.00000007,-0.00002995,0.00004701,0.00000737,0.00
 000300,0.00000410,-0.00026603,0.00002962,-0.00051962,-0.00038996,-0.00
 007774,0.00023180,0.00028554,0.00028705,0.00010569,0.00033966,-0.00005
 119,0.00003973,-0.00000767,-0.00002055,0.00000274,-0.00032887,-0.00009
 176,0.00024532,0.00002086,-0.00004246,-0.00008394,-0.00010847,0.000163
 97,-0.00027670,-0.00000178,-0.00000749,-0.00000760,0.00000026,-0.00000
 690,0.00000988,0.00000676,0.00000276,-0.00000719,0.05209796,0.00402134
 ,-0.07029771,-0.00545920,0.06739245,0.06269447,-0.04565875,-0.08540299
 ,0.00650352,0.09390145,0.00235638,-0.19712843,0.00232183,-0.00448570,0
 .00329745,0.11213297,-0.05857763,-0.26232281,0.00273373,-0.00242340,0.
 00405988,-0.22524980,0.14968030,0.55410429,0.00025389,-0.00000301,-0.0
 0044560,-0.00001258,-0.00003439,-0.00008124,-0.00000090,-0.00006641,0.
 00002517,-0.00002684,-0.00000718,-0.00001167,0.00000227,0.00006379,0.0
 0001620,0.00001165,-0.00000310,-0.00000330,-0.00000626,-0.00000557,0.0
 0000001,0.00001544,0.00000038,0.00000658,0.00001426,-0.00001736,0.0000
 3534,-0.00000596,0.00000118,-0.00000560,0.00000054,0.00000140,-0.00000
 267,-0.00001229,0.00000888,-0.00000577,-0.00000378,0.00000086,0.000001
 60,-0.00000736,0.00003765,0.00001345,0.00005424,0.00001801,0.00000628,
 -0.00002768,-0.00001507,0.00000779,-0.00003607,0.00000362,0.00000643,0
 .00000046,-0.00000144,-0.00000306,0.00000800,0.00002376,-0.00001258,0.
 00000056,-0.00000653,-0.00001767,-0.00001363,-0.00000864,0.00002590,0.
 00000207,-0.00000059,-0.00000594,-0.00000615,-0.00000645,-0.00000657,0
 .00000161,-0.00000482,-0.00000296,0.00409917,-0.00489714,0.00237880,0.
 00928972,-0.00744903,-0.00963274,-0.00081724,-0.00057193,-0.00059621,-
 0.10932345,0.04768754,0.10603421,-0.00184561,0.00219656,-0.00238811,0.
 00150525,-0.00529176,0.00560471,-0.00062070,0.00041443,-0.00049851,-0.
 00356309,0.01408073,0.02061514,0.10348890,0.00077270,-0.00010865,-0.00
 107246,-0.00008201,-0.00040781,-0.00013967,-0.00022134,-0.00000852,-0.
 00016538,0.00009735,-0.00008810,0.00006456,0.00002573,-0.00010007,0.00
 003038,0.00000725,-0.00000866,-0.00000738,0.00000249,0.00002160,0.0000
 1446,-0.00001192,0.00000333,-0.00000372,-0.00000591,0.00002354,-0.0000
 5440,0.00001837,-0.00002205,0.00000529,0.00000950,-0.00001501,-0.00000
 033,0.00002438,-0.00001234,0.00001343,0.00000880,-0.00000713,0.0000015
 2,0.00028964,0.00012292,-0.00002081,-0.00008988,0.00001568,0.00003889,
 -0.00004499,0.00002382,0.00000947,0.00000725,0.00000977,0.00002101,0.0
 0001791,-0.00001693,-0.00001518,-0.00000201,-0.00000138,0.00001630,0.0
 0001760,-0.00001341,0.00001642,-0.00005658,0.00000750,0.00001503,-0.00
 001609,-0.00002671,0.00000841,-0.00001299,-0.00000310,-0.00000670,-0.0
 0001264,-0.00001057,-0.00000192,-0.00489064,-0.00394795,-0.00237016,0.
 01552840,-0.00867634,-0.02854153,-0.00055316,-0.00077756,0.00078199,0.
 04770703,-0.13026635,-0.11315772,0.00135629,0.00030444,0.00188823,-0.0
 0502920,0.00023234,0.00035669,0.00042866,-0.00015433,0.00020885,-0.009
 07118,0.01265460,0.01580651,-0.04808882,0.13065934,0.00033331,0.000342
 67,-0.00029391,-0.00000791,-0.00009540,-0.00006466,-0.00014041,-0.0000
 7128,-0.00003217,0.00002966,-0.00003682,0.00004700,0.00003469,-0.00000
 455,0.00004327,0.00001913,-0.00000863,-0.00000190,-0.00000600,0.000008
 70,-0.00000059,-0.00002060,-0.00000053,-0.00001995,-0.00000932,0.00000
 342,-0.00003664,0.00000465,-0.00002019,-0.00000760,0.00000793,-0.00001
 331,-0.00000640,0.00001025,0.00000094,0.00000611,0.00000781,-0.0000112
 9,0.00000119,0.00010643,-0.00005417,-0.00001648,-0.00001173,0.00001439
 ,-0.00003752,-0.00006479,-0.00002983,0.00001639,-0.00003087,0.00001751
 ,-0.00000134,0.00000680,0.00000792,-0.00001107,0.00003379,0.00002600,0
 .00000236,0.00002556,-0.00001038,-0.00000283,-0.00003374,-0.00001240,0
 .00004701,-0.00000874,-0.00001171,0.00000611,-0.00002422,-0.00000766,-
 0.00001894,-0.00001472,-0.00001236,0.00000003,0.00229335,-0.00298978,0
 .00384417,0.00571094,-0.00019066,-0.00161174,-0.00069731,0.00069854,0.
 00036805,0.10578274,-0.11315057,-0.25411571,-0.00277334,0.00106521,-0.
 00089871,0.00580841,0.00076993,0.00233456,-0.00049899,0.00021786,-0.00
 051143,0.00529867,-0.01257778,-0.00926285,-0.11908832,0.12469515,0.261
 87366,-0.00034426,0.00011887,0.00038543,-0.00000667,-0.00005985,-0.000
 05742,-0.00009772,0.00005583,-0.00005342,0.00006437,-0.00002683,0.0000
 1241,0.00002575,0.00000107,0.00003167,0.00000560,-0.00001138,-0.000007
 83,-0.00001016,0.00000439,-0.00000047,-0.00001645,-0.00000433,-0.00000
 741,-0.00001020,0.00000985,-0.00003530,0.00000421,-0.00000971,-0.00000
 610,0.00000227,-0.00001685,-0.00000218,0.00000455,0.00000027,0.0000054
 8,0.00000764,-0.00000973,0.00000118,0.00010250,-0.00005583,-0.00013779
 ,-0.00008432,-0.00000538,-0.00000535,-0.00000896,-0.00003238,0.0000615
 1,0.00003573,0.00000943,-0.00000272,0.00000196,0.00001127,-0.00000162,
 -0.00001475,-0.00001397,0.00002540,0.00001489,-0.00000211,0.00000114,-
 0.00002453,0.00001447,-0.00002409,-0.00000640,-0.00000540,0.00000756,-
 0.00002009,0.00000394,-0.00000169,-0.00001071,-0.00000215,0.00000233,0
 .00506008,-0.00379069,0.00239550,0.00000642,0.00053349,-0.00078861,-0.
 00187018,-0.00176602,0.00810116,0.00444183,-0.00026919,0.00506882,-0.0
 0068053,0.00032904,-0.00049273,-0.20489179,-0.10222143,0.12505070,-0.0
 0204955,0.00138732,-0.00295220,-0.00386349,-0.00945375,0.00522350,-0.0
 0047703,-0.00033048,0.00025432,0.20661021,-0.00100427,-0.00017811,0.00
 103566,0.00001036,0.00007381,-0.00002813,-0.00019697,0.00002800,-0.000
 08133,0.00007625,-0.00006344,0.00003029,0.00006570,-0.00002518,0.00002
 041,0.00001476,-0.00000309,-0.00002009,-0.00001482,0.00000775,0.000013
 62,0.00001157,-0.00000590,-0.00002011,-0.00004818,-0.00000374,-0.00001
 329,0.00003589,-0.00002554,0.00000323,0.00000267,-0.00001936,0.0000024
 6,0.00000680,-0.00001380,0.00002480,0.00000196,-0.00001422,0.00000658,
 0.00013745,-0.00045394,-0.00013464,-0.00008998,0.00001005,-0.00000615,
 -0.00008191,-0.00002294,0.00001334,-0.00002854,0.00003251,0.00000973,0
 .00000664,-0.00001225,-0.00000659,0.00004171,0.00002129,0.00000765,0.0
 0001353,-0.00000090,0.00000100,-0.00002962,-0.00002847,0.00003435,-0.0
 0001350,-0.00000807,0.00001352,-0.00001558,0.00000300,-0.00000563,-0.0
 0001101,-0.00000524,0.00000145,-0.00324048,-0.00376894,-0.00443578,0.0
 0066406,-0.00076679,-0.00072376,-0.02477919,-0.00867374,0.02119131,-0.
 00062409,0.00022122,-0.00491340,0.00027260,-0.00015750,0.00038997,-0.1
 0212916,-0.13224182,0.07046475,0.00216912,0.00031377,0.00098987,0.0134
 2369,0.01265250,-0.01180541,0.00062290,0.00035651,-0.00047410,0.113536
 82,0.13251105,-0.00040416,-0.00019449,0.00021795,0.00000470,0.00003539
 ,-0.00004029,0.00006838,0.00009199,0.00002033,0.00000589,0.00000294,-0
 .00004488,-0.00002574,0.00001330,-0.00001369,-0.00001785,0.00000086,-0
 .00000619,0.00000003,-0.00000559,-0.00000358,0.00000603,-0.00001189,0.
 00003089,0.00003758,-0.00000869,-0.00000064,-0.00001261,0.00002222,0.0
 0000988,-0.00000403,0.00000428,0.00000196,-0.00000251,0.00000904,-0.00
 001894,-0.00000130,0.00000932,-0.00000264,-0.00000631,0.00000817,-0.00
 008307,-0.00001745,0.00000306,0.00003697,0.00001990,0.00001242,0.00003
 059,0.00002661,0.00000164,0.00001417,-0.00000003,-0.00000853,-0.000003
 26,-0.00003856,-0.00000314,0.00001371,-0.00000451,-0.00000734,-0.00001
 780,-0.00001310,0.00001818,-0.00002641,0.00000162,-0.00000215,-0.00000
 640,-0.00000103,-0.00000312,0.00000196,0.00000430,-0.00000080,-0.00000
 373,0.00250258,-0.00413230,0.00329798,-0.00079121,-0.00070328,-0.00044
 108,-0.00730174,-0.00745844,0.00975189,0.00484331,-0.00529145,-0.00093
 620,-0.00047845,0.00035917,-0.00042461,0.12516286,0.07066776,-0.156842
 07,-0.00241062,0.00189179,-0.00090426,0.02054693,0.01664086,-0.0088713
 9,0.00093083,0.00072413,-0.00072526,-0.13982716,-0.07352178,0.15675223
 ,-0.00050534,0.00045945,-0.00045271,0.00003324,-0.00008628,-0.00016319
 ,0.00002467,0.00010383,0.00005160,-0.00001524,0.00001321,-0.00000692,0
 .00001068,0.00002189,0.00002818,0.00000089,0.00000061,0.00000544,-0.00
 000276,-0.00000048,-0.00000280,-0.00000581,-0.00000947,-0.00000753,-0.
 00000747,-0.00000483,-0.00000686,-0.00000189,-0.00000150,-0.00000099,-
 0.00000090,-0.00000351,-0.00000285,0.00000003,0.00000573,-0.00000335,0
 .00000322,-0.00000351,-0.00000048,0.00004193,-0.00000197,-0.00002626,-
 0.00003337,-0.00002069,-0.00002263,0.00001261,-0.00000880,0.00003413,0
 .00002499,0.00000029,-0.00001611,-0.00000360,0.00001946,-0.00000160,-0
 .00000043,-0.00000151,0.00001290,0.00001004,0.00000105,-0.00000330,-0.
 00000383,0.00000971,-0.00000628,-0.00000211,0.00000010,0.00000588,-0.0
 0001212,-0.00000168,-0.00000743,-0.00000849,-0.00000326,0.00000098,-0.
 00099301,0.00042678,0.00032746,0.00144935,-0.00380631,0.00672521,0.003
 55078,-0.00084457,0.00581346,-0.00139847,-0.02455802,-0.00827277,-0.00
 034403,-0.00104494,-0.00037946,0.00928800,0.01504942,0.00483619,0.0001
 5546,0.00065528,0.00015645,-0.08709576,-0.08968370,-0.01192259,-0.0019
 4143,0.00220051,-0.00233743,-0.00190022,0.00119283,-0.00280318,0.07967
 038,0.00029124,-0.00015803,0.00024527,-0.00000717,0.00000516,0.0000612
 3,-0.00011906,-0.00004011,-0.00007401,0.00005073,-0.00002941,0.0000449
 5,0.00004314,-0.00002867,0.00003296,0.00001544,-0.00000658,0.00000270,
 -0.00000177,0.00001116,0.00000413,-0.00002859,0.00000652,-0.00003779,-
 0.00004819,0.00001431,-0.00004399,0.00001207,-0.00002320,-0.00000723,0
 .00000535,-0.00001504,-0.00000332,0.00001355,-0.00000899,0.00001893,0.
 00000844,-0.00001525,0.00000202,0.00006441,-0.00006078,-0.00001329,-0.
 00005033,-0.00000808,-0.00004716,-0.00001048,-0.00004387,0.00000074,0.
 00002062,0.00001010,-0.00001811,0.00000236,0.00001808,0.00000291,0.000
 02392,-0.00001204,0.00001559,0.00001455,0.00000440,0.00001763,-0.00001
 733,0.00000331,0.00000488,-0.00000784,-0.00000880,0.00001240,-0.000013
 37,0.00000554,-0.00000579,-0.00001521,-0.00000353,0.00000432,0.0005267
 3,0.00078918,0.00047822,-0.00424329,0.00171428,0.00036927,-0.00046742,
 0.00173549,-0.00409191,-0.00130417,-0.00928675,-0.00806344,-0.00008880
 ,-0.00064121,-0.00026339,-0.00790191,-0.00904250,0.00034639,-0.0002618
 0,-0.00065864,-0.00008622,-0.08981963,-0.32373959,-0.07414932,0.001317
 55,0.00023757,0.00191516,0.00207139,0.00026149,0.00083646,0.09992486,0
 .33901448,-0.00050384,0.00030029,-0.00029647,0.00007367,0.00001221,-0.
 00003243,-0.00001390,0.00008365,0.00006363,-0.00002576,0.00001996,0.00
 000368,-0.00001468,-0.00000993,0.00001432,0.00000201,0.00000519,0.0000
 1222,0.00000328,0.00000490,-0.00000368,-0.00000635,0.00000484,0.000001
 13,0.00002450,-0.00000076,-0.00000777,-0.00000025,-0.00000231,-0.00000
 719,0.00000009,-0.00000275,-0.00000373,-0.00000019,0.00000352,0.000000
 03,0.00000325,-0.00000301,0.00000083,0.00005697,-0.00001309,0.00000975
 ,-0.00003540,0.00000461,0.00003937,-0.00003568,0.00002835,0.00001033,-
 0.00001865,-0.00000406,0.00000949,0.00000241,-0.00000457,-0.00000887,0
 .00000053,0.00000617,0.00000010,0.00001354,-0.00000703,-0.00000195,-0.
 00000255,-0.00000895,0.00000410,-0.00000211,0.00000063,0.00000119,-0.0
 0000629,-0.00000227,-0.00000264,-0.00000151,-0.00000143,0.00000083,0.0
 0032839,0.00037943,-0.00113697,0.00642044,-0.00009457,0.00107628,0.006
 10706,-0.00362026,-0.00136021,0.00702482,0.02040856,0.01020944,0.00022
 718,0.00088137,0.00022490,-0.01049960,-0.02821643,-0.00083327,-0.00049
 206,-0.00127660,-0.00036583,-0.01195422,-0.07414134,-0.08317876,-0.002
 89993,0.00084067,-0.00091221,-0.00222401,0.00193619,-0.00076410,0.0084
 4884,0.08248881,0.07723446||0.,0.,-0.00004352,0.,0.,-0.00001835,-0.000
 00265,0.00002891,0.00007093,0.00001591,-0.00005407,-0.00001412,-0.0000
 4908,0.00004401,-0.00004708,-0.00003908,0.00002283,-0.00003957,0.00000
 787,0.00000829,0.00001140,0.00004288,-0.00005789,-0.00000543,0.0000027
 3,-0.00001265,-0.00000584,0.00002057,0.00002443,0.00005443,0.00000570,
 0.00000512,0.00000774,-0.00001062,0.00000059,-0.00000429,-0.00001159,0
 .00000405,-0.00000754,0.00002636,-0.00001216,0.00007093,0.00006265,0.0
 0002050,-0.00004708,-0.00005478,0.00001325,-0.00001412,-0.00007158,-0.
 00000819,-0.00000543,-0.00001232,0.00000396,-0.00000584,0.00003931,0.0
 0002243,-0.00003957,0.00000325,-0.00001097,0.00001140,0.00001087,-0.00
 003003,0.00005443,0.00000582,0.00000890,-0.00000429,0.00000158,-0.0000
 0749,0.00000774,0.00000930,0.00000801,-0.00000754,-0.00002371,-0.00001
 675,0.00007093,-0.00001357,-0.00006450,-0.00004708,0.00003887,0.000040
 82,-0.00001412,0.00002870,0.00006608,-0.00000543,0.00000959,0.00000869
 ,-0.00000584,-0.00000023,-0.00004526,-0.00003957,-0.00001112,0.0000026
 7,0.00001140,-0.00003144,0.00000560,0.00005443,0.00000480,-0.00000949,
 -0.00000429,-0.00000728,0.00000238,0.00000774,0.00000229,-0.00001206,-
 0.00000754|||@


 IF IT'S NOT TRUE, IT'S WELL INVENTED -- DANTE
 Job cpu time:  0 days  0 hours  3 minutes 31.0 seconds.
 File lengths (MBytes):  RWF=    178 Int=      0 D2E=      0 Chk=      7 Scr=      1
 Normal termination of Gaussian 09 at Mon Sep 06 13:46:11 2021.
