 Entering Link 1 = b:\programy\g09w\l1.exe PID=     20864.
  
 Copyright (c) 1988,1990,1992,1993,1995,1998,2003,2009, Gaussian, Inc.
                  All Rights Reserved.
  
 This is part of the Gaussian(R) 09 program.  It is based on
 the Gaussian(R) 03 system (copyright 2003, Gaussian, Inc.),
 the Gaussian(R) 98 system (copyright 1998, Gaussian, Inc.),
 the Gaussian(R) 94 system (copyright 1995, Gaussian, Inc.),
 the Gaussian 92(TM) system (copyright 1992, Gaussian, Inc.),
 the Gaussian 90(TM) system (copyright 1990, Gaussian, Inc.),
 the Gaussian 88(TM) system (copyright 1988, Gaussian, Inc.),
 the Gaussian 86(TM) system (copyright 1986, Carnegie Mellon
 University), and the Gaussian 82(TM) system (copyright 1983,
 Carnegie Mellon University). Gaussian is a federally registered
 trademark of Gaussian, Inc.
  
 This software contains proprietary and confidential information,
 including trade secrets, belonging to Gaussian, Inc.
  
 This software is provided under written license and may be
 used, copied, transmitted, or stored only in accord with that
 written license.
  
 The following legend is applicable only to US Government
 contracts under FAR:
  
                    RESTRICTED RIGHTS LEGEND
  
 Use, reproduction and disclosure by the US Government is
 subject to restrictions as set forth in subparagraphs (a)
 and (c) of the Commercial Computer Software - Restricted
 Rights clause in FAR 52.227-19.
  
 Gaussian, Inc.
 340 Quinnipiac St., Bldg. 40, Wallingford CT 06492
  
  
 ---------------------------------------------------------------
 Warning -- This program may not be used in any manner that
 competes with the business of Gaussian, Inc. or will provide
 assistance to any competitor of Gaussian, Inc.  The licensee
 of this program is prohibited from giving any competitor of
 Gaussian, Inc. access to this program.  By using this program,
 the user acknowledges that Gaussian, Inc. is engaged in the
 business of creating and licensing software in the field of
 computational chemistry and represents and warrants to the
 licensee that it is not a competitor of Gaussian, Inc. and that
 it will not use this program in any manner prohibited above.
 ---------------------------------------------------------------
  

 Cite this work as:
 Gaussian 09, Revision A.02,
 M. J. Frisch, G. W. Trucks, H. B. Schlegel, G. E. Scuseria, 
 M. A. Robb, J. R. Cheeseman, G. Scalmani, V. Barone, B. Mennucci, 
 G. A. Petersson, H. Nakatsuji, M. Caricato, X. Li, H. P. Hratchian, 
 A. F. Izmaylov, J. Bloino, G. Zheng, J. L. Sonnenberg, M. Hada, 
 M. Ehara, K. Toyota, R. Fukuda, J. Hasegawa, M. Ishida, T. Nakajima, 
 Y. Honda, O. Kitao, H. Nakai, T. Vreven, J. A. Montgomery, Jr., 
 J. E. Peralta, F. Ogliaro, M. Bearpark, J. J. Heyd, E. Brothers, 
 K. N. Kudin, V. N. Staroverov, R. Kobayashi, J. Normand, 
 K. Raghavachari, A. Rendell, J. C. Burant, S. S. Iyengar, J. Tomasi, 
 M. Cossi, N. Rega, J. M. Millam, M. Klene, J. E. Knox, J. B. Cross, 
 V. Bakken, C. Adamo, J. Jaramillo, R. Gomperts, R. E. Stratmann, 
 O. Yazyev, A. J. Austin, R. Cammi, C. Pomelli, J. W. Ochterski, 
 R. L. Martin, K. Morokuma, V. G. Zakrzewski, G. A. Voth, 
 P. Salvador, J. J. Dannenberg, S. Dapprich, A. D. Daniels, 
 O. Farkas, J. B. Foresman, J. V. Ortiz, J. Cioslowski, 
 and D. J. Fox, Gaussian, Inc., Wallingford CT, 2009.
 
 ******************************************
 Gaussian 09:  IA32W-G09RevA.02 11-Jun-2009
                07-Sep-2021 
 ******************************************
 %nprocshared=12
 Will use up to   12 processors via shared memory.
 ----------------------------------------------
 # opt freq=noraman hf/6-311g geom=connectivity
 ----------------------------------------------
 1/18=20,19=15,38=1,57=2/1,3;
 2/9=110,12=2,17=6,18=5,40=1/2;
 3/5=4,6=6,11=9,16=1,25=1,30=1,71=1/1,2,3;
 4//1;
 5/5=2,38=5/2;
 6/7=2,8=2,9=2,10=2,28=1/1;
 7//1,2,3,16;
 1/18=20,19=15/3(2);
 2/9=110/2;
 99//99;
 2/9=110/2;
 3/5=4,6=6,11=9,16=1,25=1,30=1,71=1/1,2,3;
 4/5=5,16=3/1;
 5/5=2,38=5/2;
 7//1,2,3,16;
 1/18=20,19=15/3(-5);
 2/9=110/2;
 6/7=2,8=2,9=2,10=2,19=2,28=1/1;
 99/9=1/99;
 -----
 M0001
 -----
 Symbolic Z-matrix:
 Charge =  0 Multiplicity = 1
 C                    -0.03222  -0.00721  -0.77519 
 H                    -0.08899  -0.06994  -1.89506 
 C                    -1.46677   0.10522  -0.32174 
 C                    -2.31876  -0.98471  -0.53181 
 C                    -1.98523   1.26823   0.2461 
 C                    -3.65823  -0.91203  -0.17379 
 H                    -1.91867  -1.90295  -0.97819 
 C                    -3.32825   1.33963   0.60263 
 H                    -1.33183   2.13374   0.41391 
 C                    -4.16689   0.25173   0.39509 
 H                    -4.31438  -1.77229  -0.34043 
 H                    -3.72287   2.25863   1.04786 
 H                    -5.22299   0.30915   0.6769 
 C                     0.60581  -1.27929  -0.27069 
 C                     0.67983  -1.56241   1.09457 
 C                     1.12945  -2.19454  -1.18635 
 C                     1.26158  -2.74395   1.53724 
 H                     0.28663  -0.82857   1.81453 
 C                     1.71352  -3.37524  -0.74067 
 H                     1.08184  -1.98415  -2.26093 
 C                     1.77821  -3.65331   0.62012 
 H                     1.31401  -2.95711   2.60973 
 H                     2.1237   -4.08664  -1.46471 
 H                     2.23614  -4.58437   0.96898 
 C                     0.82302   1.18684  -0.43227 
 C                     1.34127   1.97091  -1.46546 
 C                     1.11834   1.52442   0.89056 
 C                     2.13884   3.07333  -1.17834 
 H                     1.1205    1.71817  -2.50932 
 C                     1.91592   2.62599   1.17518 
 H                     0.72186   0.89653   1.70433 
 C                     2.42695   3.40342   0.14107 
 H                     2.54047   3.68196  -1.99504 
 H                     2.1429    2.87961   2.2157 
 H                     3.05529   4.27122   0.36551 
 

 GradGradGradGradGradGradGradGradGradGradGradGradGradGradGradGradGradGrad
 Berny optimization.
 Initialization pass.
                           ----------------------------
                           !    Initial Parameters    !
                           ! (Angstroms and Degrees)  !
 --------------------------                            --------------------------
 ! Name  Definition              Value          Derivative Info.                !
 --------------------------------------------------------------------------------
 ! R1    R(1,2)                  1.1231         estimate D2E/DX2                !
 ! R2    R(1,3)                  1.5087         estimate D2E/DX2                !
 ! R3    R(1,14)                 1.5099         estimate D2E/DX2                !
 ! R4    R(1,25)                 1.5082         estimate D2E/DX2                !
 ! R5    R(3,4)                  1.3993         estimate D2E/DX2                !
 ! R6    R(3,5)                  1.3942         estimate D2E/DX2                !
 ! R7    R(4,6)                  1.3884         estimate D2E/DX2                !
 ! R8    R(4,7)                  1.0966         estimate D2E/DX2                !
 ! R9    R(5,8)                  1.3914         estimate D2E/DX2                !
 ! R10   R(5,9)                  1.0974         estimate D2E/DX2                !
 ! R11   R(6,10)                 1.3917         estimate D2E/DX2                !
 ! R12   R(6,11)                 1.0947         estimate D2E/DX2                !
 ! R13   R(8,10)                 1.3892         estimate D2E/DX2                !
 ! R14   R(8,12)                 1.0948         estimate D2E/DX2                !
 ! R15   R(10,13)                1.0946         estimate D2E/DX2                !
 ! R16   R(14,15)                1.3963         estimate D2E/DX2                !
 ! R17   R(14,16)                1.3965         estimate D2E/DX2                !
 ! R18   R(15,17)                1.3894         estimate D2E/DX2                !
 ! R19   R(15,18)                1.1007         estimate D2E/DX2                !
 ! R20   R(16,19)                1.3906         estimate D2E/DX2                !
 ! R21   R(16,20)                1.096          estimate D2E/DX2                !
 ! R22   R(17,21)                1.391          estimate D2E/DX2                !
 ! R23   R(17,22)                1.0947         estimate D2E/DX2                !
 ! R24   R(19,21)                1.3904         estimate D2E/DX2                !
 ! R25   R(19,23)                1.0948         estimate D2E/DX2                !
 ! R26   R(21,24)                1.0947         estimate D2E/DX2                !
 ! R27   R(25,26)                1.3967         estimate D2E/DX2                !
 ! R28   R(25,27)                1.3968         estimate D2E/DX2                !
 ! R29   R(26,28)                1.3906         estimate D2E/DX2                !
 ! R30   R(26,29)                1.0965         estimate D2E/DX2                !
 ! R31   R(27,30)                1.3895         estimate D2E/DX2                !
 ! R32   R(27,31)                1.1017         estimate D2E/DX2                !
 ! R33   R(28,32)                1.3903         estimate D2E/DX2                !
 ! R34   R(28,33)                1.0949         estimate D2E/DX2                !
 ! R35   R(30,32)                1.391          estimate D2E/DX2                !
 ! R36   R(30,34)                1.0948         estimate D2E/DX2                !
 ! R37   R(32,35)                1.0946         estimate D2E/DX2                !
 ! A1    A(2,1,3)              104.8208         estimate D2E/DX2                !
 ! A2    A(2,1,14)             107.9076         estimate D2E/DX2                !
 ! A3    A(2,1,25)             107.4343         estimate D2E/DX2                !
 ! A4    A(3,1,14)             111.3553         estimate D2E/DX2                !
 ! A5    A(3,1,25)             114.3206         estimate D2E/DX2                !
 ! A6    A(14,1,25)            110.5732         estimate D2E/DX2                !
 ! A7    A(1,3,4)              118.4104         estimate D2E/DX2                !
 ! A8    A(1,3,5)              122.5584         estimate D2E/DX2                !
 ! A9    A(4,3,5)              118.9786         estimate D2E/DX2                !
 ! A10   A(3,4,6)              120.5263         estimate D2E/DX2                !
 ! A11   A(3,4,7)              119.4201         estimate D2E/DX2                !
 ! A12   A(6,4,7)              120.0528         estimate D2E/DX2                !
 ! A13   A(3,5,8)              120.405          estimate D2E/DX2                !
 ! A14   A(3,5,9)              119.9201         estimate D2E/DX2                !
 ! A15   A(8,5,9)              119.6749         estimate D2E/DX2                !
 ! A16   A(4,6,10)             120.1202         estimate D2E/DX2                !
 ! A17   A(4,6,11)             119.86           estimate D2E/DX2                !
 ! A18   A(10,6,11)            120.0198         estimate D2E/DX2                !
 ! A19   A(5,8,10)             120.2807         estimate D2E/DX2                !
 ! A20   A(5,8,12)             119.6843         estimate D2E/DX2                !
 ! A21   A(10,8,12)            120.035          estimate D2E/DX2                !
 ! A22   A(6,10,8)             119.6884         estimate D2E/DX2                !
 ! A23   A(6,10,13)            120.1177         estimate D2E/DX2                !
 ! A24   A(8,10,13)            120.1938         estimate D2E/DX2                !
 ! A25   A(1,14,15)            121.3285         estimate D2E/DX2                !
 ! A26   A(1,14,16)            119.4398         estimate D2E/DX2                !
 ! A27   A(15,14,16)           119.2314         estimate D2E/DX2                !
 ! A28   A(14,15,17)           120.4084         estimate D2E/DX2                !
 ! A29   A(14,15,18)           119.0422         estimate D2E/DX2                !
 ! A30   A(17,15,18)           120.5411         estimate D2E/DX2                !
 ! A31   A(14,16,19)           120.2511         estimate D2E/DX2                !
 ! A32   A(14,16,20)           120.0496         estimate D2E/DX2                !
 ! A33   A(19,16,20)           119.6993         estimate D2E/DX2                !
 ! A34   A(15,17,21)           120.0918         estimate D2E/DX2                !
 ! A35   A(15,17,22)           119.8529         estimate D2E/DX2                !
 ! A36   A(21,17,22)           120.0552         estimate D2E/DX2                !
 ! A37   A(16,19,21)           120.1989         estimate D2E/DX2                !
 ! A38   A(16,19,23)           119.8095         estimate D2E/DX2                !
 ! A39   A(21,19,23)           119.9916         estimate D2E/DX2                !
 ! A40   A(17,21,19)           119.8175         estimate D2E/DX2                !
 ! A41   A(17,21,24)           120.0854         estimate D2E/DX2                !
 ! A42   A(19,21,24)           120.097          estimate D2E/DX2                !
 ! A43   A(1,25,26)            119.1193         estimate D2E/DX2                !
 ! A44   A(1,25,27)            121.7726         estimate D2E/DX2                !
 ! A45   A(26,25,27)           119.1067         estimate D2E/DX2                !
 ! A46   A(25,26,28)           120.3372         estimate D2E/DX2                !
 ! A47   A(25,26,29)           120.0085         estimate D2E/DX2                !
 ! A48   A(28,26,29)           119.6543         estimate D2E/DX2                !
 ! A49   A(25,27,30)           120.4615         estimate D2E/DX2                !
 ! A50   A(25,27,31)           119.0596         estimate D2E/DX2                !
 ! A51   A(30,27,31)           120.4732         estimate D2E/DX2                !
 ! A52   A(26,28,32)           120.2002         estimate D2E/DX2                !
 ! A53   A(26,28,33)           119.805          estimate D2E/DX2                !
 ! A54   A(32,28,33)           119.9948         estimate D2E/DX2                !
 ! A55   A(27,30,32)           120.1124         estimate D2E/DX2                !
 ! A56   A(27,30,34)           119.8262         estimate D2E/DX2                !
 ! A57   A(32,30,34)           120.0613         estimate D2E/DX2                !
 ! A58   A(28,32,30)           119.7819         estimate D2E/DX2                !
 ! A59   A(28,32,35)           120.117          estimate D2E/DX2                !
 ! A60   A(30,32,35)           120.101          estimate D2E/DX2                !
 ! D1    D(2,1,3,4)             66.0108         estimate D2E/DX2                !
 ! D2    D(2,1,3,5)           -111.3213         estimate D2E/DX2                !
 ! D3    D(14,1,3,4)           -50.4106         estimate D2E/DX2                !
 ! D4    D(14,1,3,5)           132.2573         estimate D2E/DX2                !
 ! D5    D(25,1,3,4)          -176.622          estimate D2E/DX2                !
 ! D6    D(25,1,3,5)             6.0459         estimate D2E/DX2                !
 ! D7    D(2,1,14,15)         -172.8465         estimate D2E/DX2                !
 ! D8    D(2,1,14,16)            6.9536         estimate D2E/DX2                !
 ! D9    D(3,1,14,15)          -58.3282         estimate D2E/DX2                !
 ! D10   D(3,1,14,16)          121.4719         estimate D2E/DX2                !
 ! D11   D(25,1,14,15)          69.9211         estimate D2E/DX2                !
 ! D12   D(25,1,14,16)        -110.2789         estimate D2E/DX2                !
 ! D13   D(2,1,25,26)            1.14           estimate D2E/DX2                !
 ! D14   D(2,1,25,27)         -178.4146         estimate D2E/DX2                !
 ! D15   D(3,1,25,26)         -114.7187         estimate D2E/DX2                !
 ! D16   D(3,1,25,27)           65.7266         estimate D2E/DX2                !
 ! D17   D(14,1,25,26)         118.6637         estimate D2E/DX2                !
 ! D18   D(14,1,25,27)         -60.891          estimate D2E/DX2                !
 ! D19   D(1,3,4,6)           -177.7739         estimate D2E/DX2                !
 ! D20   D(1,3,4,7)              2.5551         estimate D2E/DX2                !
 ! D21   D(5,3,4,6)             -0.3442         estimate D2E/DX2                !
 ! D22   D(5,3,4,7)            179.9848         estimate D2E/DX2                !
 ! D23   D(1,3,5,8)            177.5795         estimate D2E/DX2                !
 ! D24   D(1,3,5,9)             -2.4306         estimate D2E/DX2                !
 ! D25   D(4,3,5,8)              0.2618         estimate D2E/DX2                !
 ! D26   D(4,3,5,9)           -179.7482         estimate D2E/DX2                !
 ! D27   D(3,4,6,10)             0.2118         estimate D2E/DX2                !
 ! D28   D(3,4,6,11)          -179.8254         estimate D2E/DX2                !
 ! D29   D(7,4,6,10)           179.8807         estimate D2E/DX2                !
 ! D30   D(7,4,6,11)            -0.1565         estimate D2E/DX2                !
 ! D31   D(3,5,8,10)            -0.0476         estimate D2E/DX2                !
 ! D32   D(3,5,8,12)           179.9876         estimate D2E/DX2                !
 ! D33   D(9,5,8,10)           179.9624         estimate D2E/DX2                !
 ! D34   D(9,5,8,12)            -0.0024         estimate D2E/DX2                !
 ! D35   D(4,6,10,8)             0.007          estimate D2E/DX2                !
 ! D36   D(4,6,10,13)          179.9712         estimate D2E/DX2                !
 ! D37   D(11,6,10,8)         -179.9557         estimate D2E/DX2                !
 ! D38   D(11,6,10,13)           0.0085         estimate D2E/DX2                !
 ! D39   D(5,8,10,6)            -0.089          estimate D2E/DX2                !
 ! D40   D(5,8,10,13)          179.9469         estimate D2E/DX2                !
 ! D41   D(12,8,10,6)          179.8756         estimate D2E/DX2                !
 ! D42   D(12,8,10,13)          -0.0885         estimate D2E/DX2                !
 ! D43   D(1,14,15,17)         179.4809         estimate D2E/DX2                !
 ! D44   D(1,14,15,18)          -1.567          estimate D2E/DX2                !
 ! D45   D(16,14,15,17)         -0.3195         estimate D2E/DX2                !
 ! D46   D(16,14,15,18)        178.6325         estimate D2E/DX2                !
 ! D47   D(1,14,16,19)        -179.6085         estimate D2E/DX2                !
 ! D48   D(1,14,16,20)           0.4194         estimate D2E/DX2                !
 ! D49   D(15,14,16,19)          0.1957         estimate D2E/DX2                !
 ! D50   D(15,14,16,20)       -179.7763         estimate D2E/DX2                !
 ! D51   D(14,15,17,21)          0.1509         estimate D2E/DX2                !
 ! D52   D(14,15,17,22)       -179.9474         estimate D2E/DX2                !
 ! D53   D(18,15,17,21)       -178.7853         estimate D2E/DX2                !
 ! D54   D(18,15,17,22)          1.1163         estimate D2E/DX2                !
 ! D55   D(14,16,19,21)          0.0967         estimate D2E/DX2                !
 ! D56   D(14,16,19,23)       -179.868          estimate D2E/DX2                !
 ! D57   D(20,16,19,21)       -179.9311         estimate D2E/DX2                !
 ! D58   D(20,16,19,23)          0.1042         estimate D2E/DX2                !
 ! D59   D(15,17,21,19)          0.1441         estimate D2E/DX2                !
 ! D60   D(15,17,21,24)       -179.9738         estimate D2E/DX2                !
 ! D61   D(22,17,21,19)       -179.7573         estimate D2E/DX2                !
 ! D62   D(22,17,21,24)          0.1248         estimate D2E/DX2                !
 ! D63   D(16,19,21,17)         -0.2677         estimate D2E/DX2                !
 ! D64   D(16,19,21,24)        179.8503         estimate D2E/DX2                !
 ! D65   D(23,19,21,17)        179.697          estimate D2E/DX2                !
 ! D66   D(23,19,21,24)         -0.1851         estimate D2E/DX2                !
 ! D67   D(1,25,26,28)        -179.6503         estimate D2E/DX2                !
 ! D68   D(1,25,26,29)           0.3101         estimate D2E/DX2                !
 ! D69   D(27,25,26,28)         -0.0837         estimate D2E/DX2                !
 ! D70   D(27,25,26,29)        179.8768         estimate D2E/DX2                !
 ! D71   D(1,25,27,30)         179.6108         estimate D2E/DX2                !
 ! D72   D(1,25,27,31)           0.478          estimate D2E/DX2                !
 ! D73   D(26,25,27,30)          0.0561         estimate D2E/DX2                !
 ! D74   D(26,25,27,31)       -179.0766         estimate D2E/DX2                !
 ! D75   D(25,26,28,32)          0.0174         estimate D2E/DX2                !
 ! D76   D(25,26,28,33)       -179.9962         estimate D2E/DX2                !
 ! D77   D(29,26,28,32)       -179.9431         estimate D2E/DX2                !
 ! D78   D(29,26,28,33)          0.0432         estimate D2E/DX2                !
 ! D79   D(25,27,30,32)          0.0378         estimate D2E/DX2                !
 ! D80   D(25,27,30,34)       -179.8435         estimate D2E/DX2                !
 ! D81   D(31,27,30,32)        179.1583         estimate D2E/DX2                !
 ! D82   D(31,27,30,34)         -0.7231         estimate D2E/DX2                !
 ! D83   D(26,28,32,30)          0.0772         estimate D2E/DX2                !
 ! D84   D(26,28,32,35)        179.9716         estimate D2E/DX2                !
 ! D85   D(33,28,32,30)       -179.9091         estimate D2E/DX2                !
 ! D86   D(33,28,32,35)         -0.0148         estimate D2E/DX2                !
 ! D87   D(27,30,32,28)         -0.1047         estimate D2E/DX2                !
 ! D88   D(27,30,32,35)       -179.9991         estimate D2E/DX2                !
 ! D89   D(34,30,32,28)        179.7764         estimate D2E/DX2                !
 ! D90   D(34,30,32,35)         -0.118          estimate D2E/DX2                !
 --------------------------------------------------------------------------------
 Trust Radius=3.00D-01 FncErr=1.00D-07 GrdErr=1.00D-07
 Number of steps in this run= 197 maximum allowed number of steps= 210.
 GradGradGradGradGradGradGradGradGradGradGradGradGradGradGradGradGradGrad

                          Input orientation:                          
 ---------------------------------------------------------------------
 Center     Atomic      Atomic             Coordinates (Angstroms)
 Number     Number       Type             X           Y           Z
 ---------------------------------------------------------------------
      1          6           0       -0.032217   -0.007207   -0.775192
      2          1           0       -0.088991   -0.069942   -1.895063
      3          6           0       -1.466769    0.105221   -0.321738
      4          6           0       -2.318760   -0.984712   -0.531815
      5          6           0       -1.985227    1.268231    0.246096
      6          6           0       -3.658226   -0.912035   -0.173787
      7          1           0       -1.918669   -1.902954   -0.978193
      8          6           0       -3.328248    1.339627    0.602626
      9          1           0       -1.331835    2.133735    0.413907
     10          6           0       -4.166889    0.251729    0.395088
     11          1           0       -4.314383   -1.772295   -0.340430
     12          1           0       -3.722870    2.258632    1.047856
     13          1           0       -5.222995    0.309147    0.676898
     14          6           0        0.605813   -1.279291   -0.270686
     15          6           0        0.679827   -1.562415    1.094570
     16          6           0        1.129454   -2.194535   -1.186346
     17          6           0        1.261580   -2.743946    1.537236
     18          1           0        0.286627   -0.828566    1.814534
     19          6           0        1.713524   -3.375236   -0.740668
     20          1           0        1.081836   -1.984146   -2.260930
     21          6           0        1.778208   -3.653311    0.620122
     22          1           0        1.314010   -2.957111    2.609727
     23          1           0        2.123699   -4.086639   -1.464713
     24          1           0        2.236145   -4.584365    0.968978
     25          6           0        0.823024    1.186839   -0.432266
     26          6           0        1.341271    1.970906   -1.465461
     27          6           0        1.118343    1.524416    0.890562
     28          6           0        2.138843    3.073330   -1.178336
     29          1           0        1.120498    1.718167   -2.509325
     30          6           0        1.915915    2.625988    1.175178
     31          1           0        0.721857    0.896533    1.704327
     32          6           0        2.426948    3.403421    0.141073
     33          1           0        2.540470    3.681955   -1.995038
     34          1           0        2.142901    2.879610    2.215696
     35          1           0        3.055288    4.271218    0.365513
 ---------------------------------------------------------------------
                    Distance matrix (angstroms):
                    1          2          3          4          5
     1  C    0.000000
     2  H    1.123063   0.000000
     3  C    1.508709   2.098644   0.000000
     4  C    2.498605   2.768956   1.399276   0.000000
     5  C    2.546374   3.157686   1.394212   2.406687   0.000000
     6  C    3.785280   4.051092   2.420574   1.388393   2.780070
     7  H    2.682120   2.747418   2.160535   1.096583   3.399961
     8  C    3.817875   4.326444   2.417294   2.776432   1.391372
     9  H    2.772472   3.425229   2.162002   3.404868   1.097351
    10  C    4.304895   4.688018   2.797490   2.409049   2.411457
    11  H    4.652043   4.813401   3.410912   2.153933   3.874762
    12  H    4.698771   5.223802   3.406311   3.871197   2.154789
    13  H    5.399336   5.754710   3.892055   3.401417   3.404200
    14  C    1.509902   2.140999   2.493005   2.950948   3.670207
    15  C    2.534104   3.428770   3.065096   3.459825   3.979318
    16  C    2.510563   2.549664   3.574464   3.712446   4.872769
    17  C    3.809327   4.555768   4.360897   4.493852   5.320372
    18  H    2.735502   3.804959   2.917193   3.509669   3.466681
    19  C    3.793734   3.937850   4.733217   4.692285   6.017994
    20  H    2.712345   2.273515   3.823781   3.943698   5.125428
    21  C    4.303325   4.759529   5.054061   5.023298   6.206844
    22  H    4.687423   5.531482   5.069921   5.191980   5.858774
    23  H    4.665316   4.605980   5.636447   5.497971   6.963101
    24  H    5.397959   5.830009   6.113079   5.996419   7.252270
    25  C    1.508238   2.133318   2.534811   3.820517   2.890168
    26  C    2.505169   2.528887   3.560053   4.796165   3.806412
    27  C    2.538581   3.429190   3.188509   4.486931   3.180112
    28  C    3.790215   3.918814   4.748038   6.062666   4.721794
    29  H    2.704234   2.244441   3.752477   4.800479   4.176160
    30  C    3.812202   4.551272   4.476336   5.820950   4.233865
    31  H    2.744701   3.814074   3.085644   4.217199   3.097241
    32  C    4.303420   4.747637   5.123803   6.498480   4.902790
    33  H    4.660114   4.582662   5.625916   6.894267   5.597381
    34  H    4.691510   5.529877   5.212056   6.510624   4.849465
    35  H    5.398038   5.817419   6.186828   7.570362   5.868473
                    6          7          8          9         10
     6  C    0.000000
     7  H    2.157555   0.000000
     8  C    2.404514   3.873014   0.000000
     9  H    3.877395   4.310125   2.156823   0.000000
    10  C    1.391655   3.403388   1.389214   3.402915   0.000000
    11  H    1.094696   2.482591   3.397922   4.972091   2.158567
    12  H    3.398488   4.967777   1.094772   2.476800   2.156599
    13  H    2.159503   4.307120   2.158118   4.305742   1.094566
    14  C    4.280922   2.694909   4.806063   3.983954   5.056279
    15  C    4.566226   3.341332   4.972778   4.262817   5.222168
    16  C    5.058849   3.069104   5.963374   5.229978   6.044533
    17  C    5.521593   4.141092   6.214144   5.637326   6.304509
    18  H    4.418399   3.717118   4.386012   3.654641   4.797464
    19  C    5.936700   3.926431   7.032342   6.399689   7.001719
    20  H    5.289023   3.264205   6.220632   5.471517   6.293066
    21  C    6.140008   4.391499   7.141823   6.573035   7.116470
    22  H    6.054206   4.943140   6.636337   6.143194   6.726182
    23  H    6.721253   4.620165   7.965047   7.359550   7.864590
    24  H    7.038148   5.314501   8.135746   7.627021   8.044625
    25  C    4.955167   4.166742   4.281051   2.501207   5.143751
    26  C    5.913944   5.086397   5.145863   3.271702   6.062759
    27  C    5.466693   4.945963   4.459733   2.569405   5.458837
    28  C    7.106212   6.423929   6.005550   3.932389   7.085150
    29  H    5.933708   4.969247   5.442322   3.838218   6.208262
    30  C    6.738573   6.312873   5.429898   3.371903   6.576181
    31  H    5.097387   4.690994   4.220596   2.722775   5.101933
    32  C    7.466702   6.949444   6.131440   3.976806   7.312754
    33  H    7.927517   7.218664   6.831999   4.816092   7.903658
    34  H    7.330708   7.040611   5.908216   3.984541   7.073459
    35  H    8.498718   8.041529   7.028511   4.880371   8.265410
                   11         12         13         14         15
    11  H    0.000000
    12  H    4.304137   0.000000
    13  H    2.488560   2.487665   0.000000
    14  C    4.945326   5.743948   6.115231   0.000000
    15  C    5.200520   5.829778   6.206488   1.396267   0.000000
    16  C    5.525325   6.954667   7.077690   1.396533   2.409215
    17  C    5.963313   7.078843   7.218813   2.417401   1.389391
    18  H    5.167571   5.118071   5.739733   2.157122   1.100676
    19  C    6.250222   8.030795   7.981194   2.416794   2.779020
    20  H    5.731700   7.213489   7.323996   2.164368   3.405708
    21  C    6.448299   8.086772   8.044945   2.793567   2.409023
    22  H    6.464211   7.417113   7.558882   3.407844   2.154778
    23  H    6.933188   8.986536   8.825153   3.407474   3.873810
    24  H    7.247876   9.074287   8.925835   3.888221   3.401483
    25  C    5.929406   4.899454   6.209261   2.480945   3.148036
    26  C    6.874858   5.660837   7.102164   3.540080   4.413119
    27  C    6.472878   4.899097   6.460270   3.077654   3.124490
    28  C    8.113340   6.322922   8.079558   4.703118   5.365161
    29  H    6.813616   6.033560   7.237213   3.776395   4.893308
    30  C    7.775512   5.652173   7.521973   4.365558   4.367737
    31  H    6.055361   4.694877   6.061510   2.940808   2.533770
    32  C    8.512663   6.320843   8.269418   5.041217   5.349871
    33  H    8.914908   7.107354   8.876174   5.597343   6.364832
    34  H    8.358859   6.013047   7.951830   5.083424   4.809272
    35  H    9.556906   7.103486   9.182861   6.100231   6.340789
                   16         17         18         19         20
    16  C    0.000000
    17  C    2.781584   0.000000
    18  H    3.403161   2.167050   0.000000
    19  C    1.390619   2.406581   3.879513   0.000000
    20  H    1.096021   3.877585   4.310119   2.155309   0.000000
    21  C    2.410857   1.391024   3.410369   1.390417   3.401691
    22  H    3.876307   1.094726   2.493702   3.399940   4.972310
    23  H    2.155474   3.399672   4.974267   1.094796   2.477886
    24  H    3.403156   2.158666   4.315277   2.158244   4.304169
    25  C    3.477963   4.418410   3.065565   4.658394   3.669624
    26  C    4.180152   5.590382   4.439334   5.407877   4.042587
    27  C    4.259609   4.319446   2.661202   5.198244   4.716274
    28  C    5.363705   6.479554   5.254785   6.477380   5.278952
    29  H    4.130326   6.025364   5.086938   5.424259   3.710838
    30  C    5.425197   5.421755   3.872635   6.302866   5.809979
    31  H    4.251685   3.684061   1.782565   5.020898   4.914382
    32  C    5.897682   6.410732   5.029032   6.872892   6.050192
    33  H    6.097384   7.443435   6.319608   7.215347   5.856877
    34  H    6.192569   5.732488   4.166204   6.931635   6.694935
    35  H    6.922648   7.335042   5.981048   7.841698   7.065570
                   21         22         23         24         25
    21  C    0.000000
    22  H    2.158404   0.000000
    23  H    2.157237   4.304938   0.000000
    24  H    1.094655   2.488041   2.486609   0.000000
    25  C    5.044497   5.164021   5.528768   6.104687   0.000000
    26  C    6.014348   6.394783   6.107867   7.049743   1.396722
    27  C    5.226606   4.803945   6.167819   6.210703   1.396798
    28  C    6.972245   7.169099   7.165709   7.953661   2.418025
    29  H    6.251303   6.935443   5.982759   7.284585   2.164480
    30  C    6.305287   5.795792   7.216062   7.220406   2.418561
    31  H    4.795045   4.002619   6.069594   5.733589   2.158597
    32  C    7.102663   6.912977   7.666258   8.032843   2.795447
    33  H    7.824719   8.172225   7.797820   8.786925   3.408443
    34  H    6.734828   5.908437   7.878731   7.567954   3.408702
    35  H    8.030810   7.766420   8.606471   8.913838   3.890096
                   26         27         28         29         30
    26  C    0.000000
    27  C    2.408298   0.000000
    28  C    1.390647   2.778650   0.000000
    29  H    1.096480   3.405404   2.155232   0.000000
    30  C    2.780706   1.389457   2.406001   3.877163   0.000000
    31  H    3.403749   1.101658   3.880211   4.311479   2.167207
    32  C    2.410756   2.409325   1.390253   3.401691   1.391018
    33  H    2.155509   3.873514   1.094866   2.477353   3.399324
    34  H    3.875470   2.154589   3.399558   4.971929   1.094771
    35  H    3.403197   3.401816   2.158304   4.304204   2.158821
                   31         32         33         34         35
    31  H    0.000000
    32  C    3.411097   0.000000
    33  H    4.975060   2.157182   0.000000
    34  H    2.492681   2.158500   4.304892   0.000000
    35  H    4.315764   1.094648   2.486858   2.488413   0.000000
 Stoichiometry    C19H16
 Framework group  C1[X(C19H16)]
 Deg. of freedom    99
 Full point group                 C1      NOp   1
 Largest Abelian subgroup         C1      NOp   1
 Largest concise Abelian subgroup C1      NOp   1
                         Standard orientation:                         
 ---------------------------------------------------------------------
 Center     Atomic      Atomic             Coordinates (Angstroms)
 Number     Number       Type             X           Y           Z
 ---------------------------------------------------------------------
      1          6           0        0.011897    0.013594   -0.761296
      2          1           0       -0.018249    0.015117   -1.883953
      3          6           0       -0.700681    1.279632   -0.354380
      4          6           0       -2.067676    1.392523   -0.631068
      5          6           0       -0.039516    2.356610    0.234523
      6          6           0       -2.756899    2.556264   -0.317520
      7          1           0       -2.594847    0.549965   -1.094405
      8          6           0       -0.731684    3.522606    0.546408
      9          1           0        1.033278    2.286347    0.454424
     10          6           0       -2.089795    3.625474    0.272790
     11          1           0       -3.826879    2.631726   -0.536170
     12          1           0       -0.200829    4.360996    1.008814
     13          1           0       -2.633096    4.543087    0.519534
     14          6           0       -0.726073   -1.212095   -0.278708
     15          6           0       -0.987207   -1.415089    1.077819
     16          6           0       -1.160783   -2.161183   -1.206373
     17          6           0       -1.677352   -2.544715    1.499781
     18          1           0       -0.623390   -0.676546    1.808352
     19          6           0       -1.849110   -3.292261   -0.781294
     20          1           0       -0.959834   -2.017133   -2.274142
     21          6           0       -2.110916   -3.484731    0.570619
     22          1           0       -1.877888   -2.694333    2.565532
     23          1           0       -2.184687   -4.032738   -1.514546
     24          1           0       -2.655024   -4.374474    0.903144
     25          6           0        1.461346   -0.043571   -0.348245
     26          6           0        2.449348   -0.057859   -1.335402
     27          6           0        1.842023   -0.091835    0.994812
     28          6           0        3.793335   -0.117596   -0.983221
     29          1           0        2.167067   -0.022551   -2.394336
     30          6           0        3.185418   -0.152066    1.344458
     31          1           0        1.061616   -0.096030    1.772369
     32          6           0        4.163973   -0.163966    0.355913
     33          1           0        4.560603   -0.128288   -1.764192
     34          1           0        3.471997   -0.192120    2.400295
     35          1           0        5.222277   -0.211436    0.631583
 ---------------------------------------------------------------------
 Rotational constants (GHZ):      0.4044276      0.3810145      0.2328513
 Standard basis: 6-311G (5D, 7F)
 There are   295 symmetry adapted basis functions of A   symmetry.
 Integral buffers will be    262144 words long.
 Raffenetti 1 integral format.
 Two-electron integral symmetry is turned on.
   295 basis functions,   574 primitive gaussians,   295 cartesian basis functions
    65 alpha electrons       65 beta electrons
       nuclear repulsion energy      1290.6197172938 Hartrees.
 NAtoms=   35 NActive=   35 NUniq=   35 SFac= 7.50D-01 NAtFMM=   80 NAOKFM=F Big=F
 One-electron integrals computed using PRISM.
 PrsmSu:  requested number of processors reduced to:  10 ShMem   1 Linda.
 NBasis=   295 RedAO= T  NBF=   295
 NBsUse=   295 1.00D-06 NBFU=   295
 Harris functional with IExCor=  205 diagonalized for initial guess.
 ExpMin= 1.03D-01 ExpMax= 4.56D+03 ExpMxC= 6.82D+02 IAcc=1 IRadAn=         1 AccDes= 0.00D+00
 HarFok:  IExCor=  205 AccDes= 0.00D+00 IRadAn=         1 IDoV= 1
 ScaDFX=  1.000000  1.000000  1.000000  1.000000
 FoFCou: FMM=F IPFlag=           0 FMFlag=      100000 FMFlg1=           0
         NFxFlg=           0 DoJE=T BraDBF=F KetDBF=T FulRan=T
         Omega=  0.000000  0.000000  1.000000  0.000000  0.000000 ICntrl=     500 IOpCl=  0
         NMat0=    1 NMatS0=    1 NMatT0=    0 NMatD0=    1 NMtDS0=    0 NMtDT0=    0
         I1Cent=           4 NGrid=           0.
 Petite list used in FoFCou.
 Initial guess orbital symmetries:
       Occupied  (A) (A) (A) (A) (A) (A) (A) (A) (A) (A) (A) (A)
                 (A) (A) (A) (A) (A) (A) (A) (A) (A) (A) (A) (A)
                 (A) (A) (A) (A) (A) (A) (A) (A) (A) (A) (A) (A)
                 (A) (A) (A) (A) (A) (A) (A) (A) (A) (A) (A) (A)
                 (A) (A) (A) (A) (A) (A) (A) (A) (A) (A) (A) (A)
                 (A) (A) (A) (A) (A)
       Virtual   (A) (A) (A) (A) (A) (A) (A) (A) (A) (A) (A) (A)
                 (A) (A) (A) (A) (A) (A) (A) (A) (A) (A) (A) (A)
                 (A) (A) (A) (A) (A) (A) (A) (A) (A) (A) (A) (A)
                 (A) (A) (A) (A) (A) (A) (A) (A) (A) (A) (A) (A)
                 (A) (A) (A) (A) (A) (A) (A) (A) (A) (A) (A) (A)
                 (A) (A) (A) (A) (A) (A) (A) (A) (A) (A) (A) (A)
                 (A) (A) (A) (A) (A) (A) (A) (A) (A) (A) (A) (A)
                 (A) (A) (A) (A) (A) (A) (A) (A) (A) (A) (A) (A)
                 (A) (A) (A) (A) (A) (A) (A) (A) (A) (A) (A) (A)
                 (A) (A) (A) (A) (A) (A) (A) (A) (A) (A) (A) (A)
                 (A) (A) (A) (A) (A) (A) (A) (A) (A) (A) (A) (A)
                 (A) (A) (A) (A) (A) (A) (A) (A) (A) (A) (A) (A)
                 (A) (A) (A) (A) (A) (A) (A) (A) (A) (A) (A) (A)
                 (A) (A) (A) (A) (A) (A) (A) (A) (A) (A) (A) (A)
                 (A) (A) (A) (A) (A) (A) (A) (A) (A) (A) (A) (A)
                 (A) (A) (A) (A) (A) (A) (A) (A) (A) (A) (A) (A)
                 (A) (A) (A) (A) (A) (A) (A) (A) (A) (A) (A) (A)
                 (A) (A) (A) (A) (A) (A) (A) (A) (A) (A) (A) (A)
                 (A) (A) (A) (A) (A) (A) (A) (A) (A) (A) (A) (A)
                 (A) (A)
 The electronic state of the initial guess is 1-A.
 Requested convergence on RMS density matrix=1.00D-08 within 128 cycles.
 Requested convergence on MAX density matrix=1.00D-06.
 Requested convergence on             energy=1.00D-06.
 No special actions if energy rises.
 Integral accuracy reduced to 1.0D-05 until final iterations.
 Initial convergence to 1.0D-05 achieved.  Increase integral accuracy.
 SCF Done:  E(RHF) =  -728.672376496     A.U. after   14 cycles
             Convg  =    0.8617D-08             -V/T =  2.0001

 **********************************************************************

            Population analysis using the SCF density.

 **********************************************************************

 Orbital symmetries:
       Occupied  (A) (A) (A) (A) (A) (A) (A) (A) (A) (A) (A) (A)
                 (A) (A) (A) (A) (A) (A) (A) (A) (A) (A) (A) (A)
                 (A) (A) (A) (A) (A) (A) (A) (A) (A) (A) (A) (A)
                 (A) (A) (A) (A) (A) (A) (A) (A) (A) (A) (A) (A)
                 (A) (A) (A) (A) (A) (A) (A) (A) (A) (A) (A) (A)
                 (A) (A) (A) (A) (A)
       Virtual   (A) (A) (A) (A) (A) (A) (A) (A) (A) (A) (A) (A)
                 (A) (A) (A) (A) (A) (A) (A) (A) (A) (A) (A) (A)
                 (A) (A) (A) (A) (A) (A) (A) (A) (A) (A) (A) (A)
                 (A) (A) (A) (A) (A) (A) (A) (A) (A) (A) (A) (A)
                 (A) (A) (A) (A) (A) (A) (A) (A) (A) (A) (A) (A)
                 (A) (A) (A) (A) (A) (A) (A) (A) (A) (A) (A) (A)
                 (A) (A) (A) (A) (A) (A) (A) (A) (A) (A) (A) (A)
                 (A) (A) (A) (A) (A) (A) (A) (A) (A) (A) (A) (A)
                 (A) (A) (A) (A) (A) (A) (A) (A) (A) (A) (A) (A)
                 (A) (A) (A) (A) (A) (A) (A) (A) (A) (A) (A) (A)
                 (A) (A) (A) (A) (A) (A) (A) (A) (A) (A) (A) (A)
                 (A) (A) (A) (A) (A) (A) (A) (A) (A) (A) (A) (A)
                 (A) (A) (A) (A) (A) (A) (A) (A) (A) (A) (A) (A)
                 (A) (A) (A) (A) (A) (A) (A) (A) (A) (A) (A) (A)
                 (A) (A) (A) (A) (A) (A) (A) (A) (A) (A) (A) (A)
                 (A) (A) (A) (A) (A) (A) (A) (A) (A) (A) (A) (A)
                 (A) (A) (A) (A) (A) (A) (A) (A) (A) (A) (A) (A)
                 (A) (A) (A) (A) (A) (A) (A) (A) (A) (A) (A) (A)
                 (A) (A) (A) (A) (A) (A) (A) (A) (A) (A) (A) (A)
                 (A) (A)
 The electronic state is 1-A.
 Alpha  occ. eigenvalues --  -11.25763 -11.25236 -11.25187 -11.24926 -11.24524
 Alpha  occ. eigenvalues --  -11.24434 -11.24416 -11.24368 -11.24223 -11.24169
 Alpha  occ. eigenvalues --  -11.24144 -11.24116 -11.24071 -11.24038 -11.24028
 Alpha  occ. eigenvalues --  -11.23973 -11.23733 -11.23644 -11.23500  -1.18616
 Alpha  occ. eigenvalues --   -1.15871  -1.15576  -1.09029  -1.02381  -1.02234
 Alpha  occ. eigenvalues --   -1.01876  -1.01490  -1.01099  -0.92922  -0.84299
 Alpha  occ. eigenvalues --   -0.83342  -0.82341  -0.81907  -0.81151  -0.77592
 Alpha  occ. eigenvalues --   -0.70866  -0.70369  -0.68988  -0.65699  -0.63891
 Alpha  occ. eigenvalues --   -0.63607  -0.62509  -0.61714  -0.61598  -0.59717
 Alpha  occ. eigenvalues --   -0.58851  -0.58489  -0.58321  -0.56816  -0.55020
 Alpha  occ. eigenvalues --   -0.51725  -0.50932  -0.50239  -0.49854  -0.49381
 Alpha  occ. eigenvalues --   -0.48439  -0.47940  -0.47510  -0.46325  -0.35012
 Alpha  occ. eigenvalues --   -0.34321  -0.33935  -0.33336  -0.32594  -0.31429
 Alpha virt. eigenvalues --    0.11517   0.12284   0.12793   0.13544   0.14969
 Alpha virt. eigenvalues --    0.15092   0.15605   0.16241   0.16480   0.16921
 Alpha virt. eigenvalues --    0.18904   0.19186   0.19230   0.21247   0.21299
 Alpha virt. eigenvalues --    0.21583   0.23572   0.23987   0.24988   0.25431
 Alpha virt. eigenvalues --    0.26893   0.31390   0.33199   0.34253   0.35777
 Alpha virt. eigenvalues --    0.37542   0.39837   0.40482   0.41522   0.43127
 Alpha virt. eigenvalues --    0.44093   0.44427   0.44904   0.45456   0.45622
 Alpha virt. eigenvalues --    0.45851   0.46744   0.47212   0.48029   0.50573
 Alpha virt. eigenvalues --    0.51098   0.51448   0.52107   0.54939   0.56039
 Alpha virt. eigenvalues --    0.57341   0.57846   0.58487   0.58964   0.59368
 Alpha virt. eigenvalues --    0.60157   0.60446   0.60628   0.61145   0.61462
 Alpha virt. eigenvalues --    0.62077   0.62253   0.62954   0.63495   0.63717
 Alpha virt. eigenvalues --    0.64287   0.64552   0.65218   0.65938   0.66419
 Alpha virt. eigenvalues --    0.67202   0.67812   0.68586   0.69872   0.72364
 Alpha virt. eigenvalues --    0.73123   0.73939   0.74344   0.75264   0.75738
 Alpha virt. eigenvalues --    0.76715   0.78871   0.79319   0.79882   0.81312
 Alpha virt. eigenvalues --    0.81514   0.82196   0.82497   0.82915   0.83249
 Alpha virt. eigenvalues --    0.83827   0.84358   0.84794   0.84870   0.85465
 Alpha virt. eigenvalues --    0.85976   0.86237   0.86447   0.87685   0.88174
 Alpha virt. eigenvalues --    0.90306   0.90781   0.92182   0.93415   0.94981
 Alpha virt. eigenvalues --    0.95968   0.96382   0.97056   0.98187   0.99684
 Alpha virt. eigenvalues --    0.99912   1.02333   1.03027   1.04700   1.06203
 Alpha virt. eigenvalues --    1.07111   1.08216   1.09234   1.10228   1.10715
 Alpha virt. eigenvalues --    1.11431   1.11747   1.12460   1.12712   1.13837
 Alpha virt. eigenvalues --    1.14977   1.16582   1.19534   1.20590   1.20982
 Alpha virt. eigenvalues --    1.23878   1.25835   1.27276   1.28277   1.29006
 Alpha virt. eigenvalues --    1.29441   1.32095   1.33043   1.46715   1.47637
 Alpha virt. eigenvalues --    1.52127   1.54156   1.57142   2.53557   2.55693
 Alpha virt. eigenvalues --    2.56109   2.57759   2.62084   2.62286   2.63919
 Alpha virt. eigenvalues --    2.66339   2.67189   2.68502   2.71949   2.74293
 Alpha virt. eigenvalues --    2.78348   2.83451   2.86570   2.91624   2.94355
 Alpha virt. eigenvalues --    2.94595   2.94737   2.96031   2.98056   2.98565
 Alpha virt. eigenvalues --    2.99998   3.02210   3.03888   3.04473   3.06429
 Alpha virt. eigenvalues --    3.08528   3.09191   3.09753   3.10122   3.13196
 Alpha virt. eigenvalues --    3.15186   3.16229   3.17701   3.18411   3.19387
 Alpha virt. eigenvalues --    3.21619   3.24116   3.25134   3.27653   3.28773
 Alpha virt. eigenvalues --    3.31376   3.33868   3.34254   3.35680   3.41010
 Alpha virt. eigenvalues --    3.41434   3.44164   3.45129   3.49905   3.52417
 Alpha virt. eigenvalues --    3.53512   3.55922   3.57490   3.58257   3.59674
 Alpha virt. eigenvalues --    3.62346   3.64147   3.65022   3.66249   3.66663
 Alpha virt. eigenvalues --    3.67678   3.69220   3.71271   3.72461   3.74096
 Alpha virt. eigenvalues --    3.76157   3.77462   3.78584   3.85508   3.87922
 Alpha virt. eigenvalues --    3.91174  24.26005  24.30037  24.31794  24.50518
 Alpha virt. eigenvalues --   24.50796  24.51034  24.53098  24.54594  24.56513
 Alpha virt. eigenvalues --   24.76266  24.77075  24.79110  24.80210  24.80684
 Alpha virt. eigenvalues --   24.82742  24.87300  25.04650  25.05806  25.07127
          Condensed to atoms (all electrons):
              1          2          3          4          5          6
     1  C    6.097090   0.473307   0.036609  -0.085745  -0.029002   0.008085
     2  H    0.473307   0.503435  -0.062604  -0.004877   0.001085   0.000680
     3  C    0.036609  -0.062604   5.353474   0.470929   0.501620  -0.056841
     4  C   -0.085745  -0.004877   0.470929   5.122522  -0.083082   0.464221
     5  C   -0.029002   0.001085   0.501620  -0.083082   5.094884  -0.029962
     6  C    0.008085   0.000680  -0.056841   0.464221  -0.029962   5.060817
     7  H   -0.002436  -0.000144  -0.045631   0.397620   0.004445  -0.035149
     8  C    0.012069  -0.000129  -0.069381  -0.033313   0.454560  -0.074057
     9  H   -0.011116  -0.000278  -0.034753   0.004943   0.393769  -0.000424
    10  C    0.000426   0.000030  -0.020510  -0.085047  -0.090275   0.480369
    11  H   -0.000355   0.000004   0.006157  -0.038434  -0.000443   0.397158
    12  H   -0.000361   0.000014   0.006482  -0.000407  -0.036820   0.006015
    13  H   -0.000014  -0.000002  -0.001458   0.007439   0.007680  -0.043240
    14  C    0.151093  -0.070588  -0.097526  -0.006483   0.000331  -0.001546
    15  C   -0.055133   0.005550  -0.007722  -0.008203   0.001656  -0.000230
    16  C   -0.024642   0.001497  -0.001599   0.000636  -0.000443  -0.000048
    17  C    0.003188  -0.000264  -0.000582  -0.000333   0.000022  -0.000007
    18  H    0.000278   0.000113   0.001094   0.000201  -0.000075   0.000044
    19  C    0.006847   0.001571  -0.000422  -0.000111   0.000021   0.000013
    20  H   -0.000039   0.002335   0.000136   0.000299  -0.000036  -0.000008
    21  C    0.001266  -0.000001   0.000050   0.000104  -0.000002   0.000002
    22  H   -0.000348   0.000011   0.000023   0.000017   0.000000   0.000001
    23  H   -0.000340  -0.000039   0.000011  -0.000002   0.000000   0.000000
    24  H   -0.000012  -0.000001   0.000000   0.000000   0.000000   0.000000
    25  C    0.119766  -0.075855  -0.066239   0.011385  -0.012229  -0.000878
    26  C   -0.024663   0.006469  -0.000520  -0.000264   0.000898   0.000009
    27  C   -0.070867   0.004450   0.006594   0.000785  -0.018151  -0.000021
    28  C    0.008255   0.001464  -0.000776   0.000005   0.000364   0.000000
    29  H   -0.002076   0.002811   0.000506   0.000013   0.000132  -0.000001
    30  C    0.002409  -0.000226   0.000828   0.000016  -0.001461   0.000000
    31  H    0.000963  -0.000034   0.001289   0.000023   0.001561  -0.000046
    32  C    0.001726   0.000004  -0.000069   0.000000   0.000124   0.000000
    33  H   -0.000413  -0.000034   0.000024   0.000000  -0.000007   0.000000
    34  H   -0.000372   0.000012   0.000018   0.000000   0.000006   0.000000
    35  H   -0.000026  -0.000002   0.000002   0.000000  -0.000003   0.000000
              7          8          9         10         11         12
     1  C   -0.002436   0.012069  -0.011116   0.000426  -0.000355  -0.000361
     2  H   -0.000144  -0.000129  -0.000278   0.000030   0.000004   0.000014
     3  C   -0.045631  -0.069381  -0.034753  -0.020510   0.006157   0.006482
     4  C    0.397620  -0.033313   0.004943  -0.085047  -0.038434  -0.000407
     5  C    0.004445   0.454560   0.393769  -0.090275  -0.000443  -0.036820
     6  C   -0.035149  -0.074057  -0.000424   0.480369   0.397158   0.006015
     7  H    0.490805  -0.000463  -0.000198   0.005234  -0.003896   0.000017
     8  C   -0.000463   5.078167  -0.036237   0.496370   0.006006   0.395593
     9  H   -0.000198  -0.036237   0.477010   0.005015   0.000017  -0.003502
    10  C    0.005234   0.496370   0.005015   5.042532  -0.040843  -0.041234
    11  H   -0.003896   0.006006   0.000017  -0.040843   0.517615  -0.000213
    12  H    0.000017   0.395593  -0.003502  -0.041234  -0.000213   0.517795
    13  H   -0.000173  -0.042125  -0.000170   0.399487  -0.004407  -0.004471
    14  C    0.003946  -0.000792   0.000409   0.000126   0.000014   0.000012
    15  C   -0.000561   0.000052   0.000072   0.000036   0.000014   0.000000
    16  C    0.001742   0.000007  -0.000017  -0.000003  -0.000005   0.000000
    17  C   -0.000234   0.000005  -0.000001   0.000002   0.000002   0.000000
    18  H   -0.000071  -0.000088   0.000020  -0.000043   0.000005   0.000000
    19  C    0.000117   0.000000   0.000000   0.000000  -0.000001   0.000000
    20  H    0.000207   0.000000   0.000001   0.000001   0.000000   0.000000
    21  C   -0.000091   0.000000   0.000000   0.000000   0.000000   0.000000
    22  H    0.000005   0.000000   0.000000   0.000000   0.000000   0.000000
    23  H    0.000005   0.000000   0.000000   0.000000   0.000000   0.000000
    24  H    0.000001   0.000000   0.000000   0.000000   0.000000   0.000000
    25  C    0.000832  -0.001471   0.000754   0.000118   0.000012   0.000059
    26  C   -0.000005  -0.000113  -0.001133  -0.000004   0.000000   0.000004
    27  C   -0.000041  -0.000918  -0.001159  -0.000019   0.000000   0.000028
    28  C    0.000000   0.000004  -0.000122   0.000000   0.000000   0.000000
    29  H   -0.000002   0.000005   0.000079   0.000000   0.000000   0.000000
    30  C    0.000000  -0.000041   0.000402   0.000000   0.000000  -0.000001
    31  H    0.000021   0.000100  -0.000012   0.000001  -0.000001   0.000000
    32  C    0.000000   0.000004   0.000090   0.000000   0.000000  -0.000001
    33  H    0.000000   0.000000   0.000010   0.000000   0.000000   0.000000
    34  H    0.000000  -0.000002   0.000041   0.000000   0.000000   0.000000
    35  H    0.000000   0.000000   0.000009   0.000000   0.000000   0.000000
             13         14         15         16         17         18
     1  C   -0.000014   0.151093  -0.055133  -0.024642   0.003188   0.000278
     2  H   -0.000002  -0.070588   0.005550   0.001497  -0.000264   0.000113
     3  C   -0.001458  -0.097526  -0.007722  -0.001599  -0.000582   0.001094
     4  C    0.007439  -0.006483  -0.008203   0.000636  -0.000333   0.000201
     5  C    0.007680   0.000331   0.001656  -0.000443   0.000022  -0.000075
     6  C   -0.043240  -0.001546  -0.000230  -0.000048  -0.000007   0.000044
     7  H   -0.000173   0.003946  -0.000561   0.001742  -0.000234  -0.000071
     8  C   -0.042125  -0.000792   0.000052   0.000007   0.000005  -0.000088
     9  H   -0.000170   0.000409   0.000072  -0.000017  -0.000001   0.000020
    10  C    0.399487   0.000126   0.000036  -0.000003   0.000002  -0.000043
    11  H   -0.004407   0.000014   0.000014  -0.000005   0.000002   0.000005
    12  H   -0.004471   0.000012   0.000000   0.000000   0.000000   0.000000
    13  H    0.519356   0.000002   0.000000   0.000000   0.000000   0.000001
    14  C    0.000002   5.389915   0.446593   0.492844  -0.058273  -0.044660
    15  C    0.000000   0.446593   5.069592  -0.072037   0.478960   0.388873
    16  C    0.000000   0.492844  -0.072037   5.092003  -0.030677   0.004078
    17  C    0.000000  -0.058273   0.478960  -0.030677   5.040122  -0.028400
    18  H    0.000001  -0.044660   0.388873   0.004078  -0.028400   0.496839
    19  C    0.000000  -0.073506  -0.026561   0.454008  -0.078529   0.000017
    20  H    0.000000  -0.050755   0.004327   0.400528  -0.000282  -0.000272
    21  C    0.000000  -0.018833  -0.091187  -0.086251   0.491232   0.004548
    22  H    0.000000   0.006023  -0.038929  -0.000478   0.397229  -0.003325
    23  H    0.000000   0.006936  -0.000685  -0.039697   0.006241   0.000015
    24  H    0.000000  -0.001546   0.007891   0.007487  -0.042919  -0.000172
    25  C    0.000001  -0.140170  -0.003551  -0.001998   0.001912  -0.002831
    26  C    0.000000  -0.004396   0.000744   0.000625   0.000029  -0.000200
    27  C    0.000001  -0.003331  -0.011969   0.000518  -0.000436  -0.001054
    28  C    0.000000  -0.000595   0.000053  -0.000012  -0.000001   0.000002
    29  H    0.000000   0.000160  -0.000026   0.000199   0.000001  -0.000002
    30  C    0.000000   0.001990  -0.000103   0.000045  -0.000102   0.000870
    31  H    0.000000  -0.003685   0.002061  -0.000216   0.001145   0.001658
    32  C    0.000000  -0.000056  -0.000004  -0.000013   0.000002  -0.000014
    33  H    0.000000   0.000020  -0.000001   0.000001   0.000000   0.000000
    34  H    0.000000   0.000026   0.000037   0.000002  -0.000001  -0.000034
    35  H    0.000000  -0.000003   0.000001   0.000000   0.000000   0.000000
             19         20         21         22         23         24
     1  C    0.006847  -0.000039   0.001266  -0.000348  -0.000340  -0.000012
     2  H    0.001571   0.002335  -0.000001   0.000011  -0.000039  -0.000001
     3  C   -0.000422   0.000136   0.000050   0.000023   0.000011   0.000000
     4  C   -0.000111   0.000299   0.000104   0.000017  -0.000002   0.000000
     5  C    0.000021  -0.000036  -0.000002   0.000000   0.000000   0.000000
     6  C    0.000013  -0.000008   0.000002   0.000001   0.000000   0.000000
     7  H    0.000117   0.000207  -0.000091   0.000005   0.000005   0.000001
     8  C    0.000000   0.000000   0.000000   0.000000   0.000000   0.000000
     9  H    0.000000   0.000001   0.000000   0.000000   0.000000   0.000000
    10  C    0.000000   0.000001   0.000000   0.000000   0.000000   0.000000
    11  H   -0.000001   0.000000   0.000000   0.000000   0.000000   0.000000
    12  H    0.000000   0.000000   0.000000   0.000000   0.000000   0.000000
    13  H    0.000000   0.000000   0.000000   0.000000   0.000000   0.000000
    14  C   -0.073506  -0.050755  -0.018833   0.006023   0.006936  -0.001546
    15  C   -0.026561   0.004327  -0.091187  -0.038929  -0.000685   0.007891
    16  C    0.454008   0.400528  -0.086251  -0.000478  -0.039697   0.007487
    17  C   -0.078529  -0.000282   0.491232   0.397229   0.006241  -0.042919
    18  H    0.000017  -0.000272   0.004548  -0.003325   0.000015  -0.000172
    19  C    5.059691  -0.034896   0.497552   0.005975   0.396961  -0.042564
    20  H   -0.034896   0.509855   0.005244   0.000025  -0.004208  -0.000184
    21  C    0.497552   0.005244   5.034129  -0.039832  -0.040685   0.399676
    22  H    0.005975   0.000025  -0.039832   0.514851  -0.000206  -0.004474
    23  H    0.396961  -0.004208  -0.040685  -0.000206   0.518140  -0.004587
    24  H   -0.042564  -0.000184   0.399676  -0.004474  -0.004587   0.517430
    25  C   -0.000513   0.000364  -0.000088   0.000027   0.000025  -0.000003
    26  C   -0.000018   0.000269  -0.000009   0.000000   0.000001   0.000000
    27  C    0.000131  -0.000007  -0.000024   0.000057   0.000000   0.000000
    28  C    0.000002   0.000007   0.000000   0.000000   0.000000   0.000000
    29  H   -0.000002   0.000063  -0.000001   0.000000   0.000000   0.000000
    30  C    0.000001  -0.000001   0.000001   0.000002   0.000000   0.000000
    31  H   -0.000061   0.000001   0.000006  -0.000061   0.000001   0.000000
    32  C    0.000000  -0.000002   0.000000   0.000000   0.000000   0.000000
    33  H    0.000000   0.000000   0.000000   0.000000   0.000000   0.000000
    34  H    0.000000   0.000000   0.000000   0.000001   0.000000   0.000000
    35  H    0.000000   0.000000   0.000000   0.000000   0.000000   0.000000
             25         26         27         28         29         30
     1  C    0.119766  -0.024663  -0.070867   0.008255  -0.002076   0.002409
     2  H   -0.075855   0.006469   0.004450   0.001464   0.002811  -0.000226
     3  C   -0.066239  -0.000520   0.006594  -0.000776   0.000506   0.000828
     4  C    0.011385  -0.000264   0.000785   0.000005   0.000013   0.000016
     5  C   -0.012229   0.000898  -0.018151   0.000364   0.000132  -0.001461
     6  C   -0.000878   0.000009  -0.000021   0.000000  -0.000001   0.000000
     7  H    0.000832  -0.000005  -0.000041   0.000000  -0.000002   0.000000
     8  C   -0.001471  -0.000113  -0.000918   0.000004   0.000005  -0.000041
     9  H    0.000754  -0.001133  -0.001159  -0.000122   0.000079   0.000402
    10  C    0.000118  -0.000004  -0.000019   0.000000   0.000000   0.000000
    11  H    0.000012   0.000000   0.000000   0.000000   0.000000   0.000000
    12  H    0.000059   0.000004   0.000028   0.000000   0.000000  -0.000001
    13  H    0.000001   0.000000   0.000001   0.000000   0.000000   0.000000
    14  C   -0.140170  -0.004396  -0.003331  -0.000595   0.000160   0.001990
    15  C   -0.003551   0.000744  -0.011969   0.000053  -0.000026  -0.000103
    16  C   -0.001998   0.000625   0.000518  -0.000012   0.000199   0.000045
    17  C    0.001912   0.000029  -0.000436  -0.000001   0.000001  -0.000102
    18  H   -0.002831  -0.000200  -0.001054   0.000002  -0.000002   0.000870
    19  C   -0.000513  -0.000018   0.000131   0.000002  -0.000002   0.000001
    20  H    0.000364   0.000269  -0.000007   0.000007   0.000063  -0.000001
    21  C   -0.000088  -0.000009  -0.000024   0.000000  -0.000001   0.000001
    22  H    0.000027   0.000000   0.000057   0.000000   0.000000   0.000002
    23  H    0.000025   0.000001   0.000000   0.000000   0.000000   0.000000
    24  H   -0.000003   0.000000   0.000000   0.000000   0.000000   0.000000
    25  C    5.391440   0.499444   0.450670  -0.076821  -0.045521  -0.064398
    26  C    0.499444   5.046885  -0.063077   0.468691   0.394378  -0.034066
    27  C    0.450670  -0.063077   5.100145  -0.029610   0.004763   0.480138
    28  C   -0.076821   0.468691  -0.029610   5.046920  -0.033763  -0.077315
    29  H   -0.045521   0.394378   0.004763  -0.033763   0.506530  -0.000287
    30  C   -0.064398  -0.034066   0.480138  -0.077315  -0.000287   5.046641
    31  H   -0.047915   0.004595   0.386379  -0.000132  -0.000270  -0.026956
    32  C   -0.016005  -0.088969  -0.093572   0.499685   0.005068   0.490196
    33  H    0.007032  -0.039470  -0.000633   0.396370  -0.004076   0.006278
    34  H    0.005971  -0.000374  -0.038560   0.005898   0.000025   0.397000
    35  H   -0.001678   0.007564   0.007984  -0.042544  -0.000179  -0.042957
             31         32         33         34         35
     1  C    0.000963   0.001726  -0.000413  -0.000372  -0.000026
     2  H   -0.000034   0.000004  -0.000034   0.000012  -0.000002
     3  C    0.001289  -0.000069   0.000024   0.000018   0.000002
     4  C    0.000023   0.000000   0.000000   0.000000   0.000000
     5  C    0.001561   0.000124  -0.000007   0.000006  -0.000003
     6  C   -0.000046   0.000000   0.000000   0.000000   0.000000
     7  H    0.000021   0.000000   0.000000   0.000000   0.000000
     8  C    0.000100   0.000004   0.000000  -0.000002   0.000000
     9  H   -0.000012   0.000090   0.000010   0.000041   0.000009
    10  C    0.000001   0.000000   0.000000   0.000000   0.000000
    11  H   -0.000001   0.000000   0.000000   0.000000   0.000000
    12  H    0.000000  -0.000001   0.000000   0.000000   0.000000
    13  H    0.000000   0.000000   0.000000   0.000000   0.000000
    14  C   -0.003685  -0.000056   0.000020   0.000026  -0.000003
    15  C    0.002061  -0.000004  -0.000001   0.000037   0.000001
    16  C   -0.000216  -0.000013   0.000001   0.000002   0.000000
    17  C    0.001145   0.000002   0.000000  -0.000001   0.000000
    18  H    0.001658  -0.000014   0.000000  -0.000034   0.000000
    19  C   -0.000061   0.000000   0.000000   0.000000   0.000000
    20  H    0.000001  -0.000002   0.000000   0.000000   0.000000
    21  C    0.000006   0.000000   0.000000   0.000000   0.000000
    22  H   -0.000061   0.000000   0.000000   0.000001   0.000000
    23  H    0.000001   0.000000   0.000000   0.000000   0.000000
    24  H    0.000000   0.000000   0.000000   0.000000   0.000000
    25  C   -0.047915  -0.016005   0.007032   0.005971  -0.001678
    26  C    0.004595  -0.088969  -0.039470  -0.000374   0.007564
    27  C    0.386379  -0.093572  -0.000633  -0.038560   0.007984
    28  C   -0.000132   0.499685   0.396370   0.005898  -0.042544
    29  H   -0.000270   0.005068  -0.004076   0.000025  -0.000179
    30  C   -0.026956   0.490196   0.006278   0.397000  -0.042957
    31  H    0.497118   0.004632   0.000017  -0.003389  -0.000171
    32  C    0.004632   5.033714  -0.041066  -0.039793   0.399443
    33  H    0.000017  -0.041066   0.517985  -0.000206  -0.004556
    34  H   -0.003389  -0.039793  -0.000206   0.514431  -0.004364
    35  H   -0.000171   0.399443  -0.004556  -0.004364   0.516896
 Mulliken atomic charges:
              1
     1  C   -0.615418
     2  H    0.210235
     3  C    0.080786
     4  C   -0.134855
     5  C   -0.161166
     6  C   -0.174959
     7  H    0.184100
     8  C   -0.183811
     9  H    0.206482
    10  C   -0.151770
    11  H    0.161591
    12  H    0.160990
    13  H    0.162093
    14  C    0.076303
    15  C   -0.089610
    16  C   -0.198082
    17  C   -0.179051
    18  H    0.182585
    19  C   -0.165722
    20  H    0.167029
    21  C   -0.156806
    22  H    0.163407
    23  H    0.162113
    24  H    0.163979
    25  C    0.068351
    26  C   -0.173324
    27  C   -0.109195
    28  C   -0.166029
    29  H    0.171472
    30  C   -0.178904
    31  H    0.181378
    32  C   -0.155124
    33  H    0.162725
    34  H    0.163627
    35  H    0.164583
 Sum of Mulliken atomic charges =   0.00000
 Mulliken charges with hydrogens summed into heavy atoms:
              1
     1  C   -0.405184
     3  C    0.080786
     4  C    0.049244
     5  C    0.045315
     6  C   -0.013368
     8  C   -0.022822
    10  C    0.010323
    14  C    0.076303
    15  C    0.092975
    16  C   -0.031053
    17  C   -0.015644
    19  C   -0.003609
    21  C    0.007172
    25  C    0.068351
    26  C   -0.001852
    27  C    0.072183
    28  C   -0.003304
    30  C   -0.015277
    32  C    0.009459
 Sum of Mulliken charges with hydrogens summed into heavy atoms =   0.00000
 Electronic spatial extent (au):  <R**2>=           4931.5281
 Charge=              0.0000 electrons
 Dipole moment (field-independent basis, Debye):
    X=              0.0973    Y=             -0.1650    Z=             -0.0180  Tot=              0.1924
 Quadrupole moment (field-independent basis, Debye-Ang):
   XX=           -107.8650   YY=           -113.2110   ZZ=           -106.6835
   XY=              2.7859   XZ=              1.0099   YZ=              2.6929
 Traceless Quadrupole moment (field-independent basis, Debye-Ang):
   XX=              1.3881   YY=             -3.9578   ZZ=              2.5697
   XY=              2.7859   XZ=              1.0099   YZ=              2.6929
 Octapole moment (field-independent basis, Debye-Ang**2):
  XXX=             28.1048  YYY=              6.5589  ZZZ=              0.7150  XYY=            -37.2843
  XXY=              3.5811  XXZ=             -3.4437  XZZ=             10.1466  YZZ=            -17.8961
  YYZ=             12.3406  XYZ=              1.3437
 Hexadecapole moment (field-independent basis, Debye-Ang**3):
 XXXX=          -3052.5785 YYYY=          -2905.0330 ZZZZ=           -671.4413 XXXY=            -60.2736
 XXXZ=             17.1602 YYYX=             63.6324 YYYZ=             75.5512 ZZZX=             -6.6227
 ZZZY=             -2.6721 XXYY=          -1021.9740 XXZZ=           -629.6519 YYZZ=           -632.5105
 XXYZ=             -9.8577 YYXZ=            -11.6781 ZZXY=             33.7783
 N-N= 1.290619717294D+03 E-N=-4.277314103619D+03  KE= 7.286028149169D+02
 PrsmSu:  requested number of processors reduced to:  10 ShMem   1 Linda.
 Calling FoFJK, ICntrl=      2127 FMM=F ISym2X=0 I1Cent= 0 IOpClX= 0 NMat=1 NMatS=1 NMatT=0.
 ***** Axes restored to original set *****
 -------------------------------------------------------------------
 Center     Atomic                   Forces (Hartrees/Bohr)
 Number     Number              X              Y              Z
 -------------------------------------------------------------------
      1        6           0.000212842   -0.000712700   -0.023270123
      2        1           0.005603006    0.000652537    0.024753996
      3        6          -0.014225162    0.003290405    0.003866231
      4        6           0.000407689   -0.007834264   -0.003300673
      5        6           0.007021155    0.009914832    0.001274292
      6        6          -0.005838248   -0.010802538   -0.003117194
      7        1          -0.007627778    0.015046827    0.007795175
      8        6          -0.007507188    0.008821908    0.005376739
      9        1          -0.014547126   -0.016160168   -0.003690789
     10        6          -0.012754753    0.002827458    0.004378045
     11        1           0.009913603    0.013045965    0.002457070
     12        1           0.005936236   -0.013962066   -0.006773763
     13        1           0.016065424   -0.000868618   -0.004215069
     14        6           0.005496417   -0.012152360   -0.005746834
     15        6          -0.003884067    0.005883710    0.008925107
     16        6          -0.000135856    0.001574572   -0.005367700
     17        6          -0.000279744    0.000137582    0.012393667
     18        1           0.005107029   -0.023854627   -0.013311526
     19        6           0.005888285   -0.010148988   -0.006950840
     20        1           0.000438392   -0.002763570    0.017127787
     21        6           0.006174469   -0.012075604    0.002211382
     22        1          -0.000785027    0.003161819   -0.016366202
     23        1          -0.006291057    0.010586099    0.011109356
     24        1          -0.007064338    0.014270570   -0.005388015
     25        6           0.006458399    0.009563588   -0.007385913
     26        6          -0.001853633   -0.001571618   -0.005515525
     27        6          -0.001759255   -0.006309233    0.010659721
     28        6           0.006056899    0.008932185   -0.008406530
     29        1           0.003127758    0.003727664    0.017158016
     30        6           0.001150088    0.000927677    0.012415203
     31        1           0.010617327    0.022072475   -0.016865737
     32        6           0.007910165    0.011120061    0.000579735
     33        1          -0.005985661   -0.009221791    0.012557080
     34        1          -0.003432437   -0.003781380   -0.015891268
     35        1          -0.009613853   -0.013338413   -0.003474899
 -------------------------------------------------------------------
 Cartesian Forces:  Max     0.024753996 RMS     0.009547459

 GradGradGradGradGradGradGradGradGradGradGradGradGradGradGradGradGradGrad
 Berny optimization.
 Internal  Forces:  Max     0.028859487 RMS     0.007791125
 Search for a local minimum.
 Step number   1 out of a maximum of  197
 All quantities printed in internal units (Hartrees-Bohrs-Radians)
 Mixed Optimization -- RFO/linear search
 Second derivative matrix not updated -- first step.
     Eigenvalues ---    0.00635   0.00651   0.00657   0.01533   0.01538
     Eigenvalues ---    0.01539   0.02137   0.02142   0.02146   0.02170
     Eigenvalues ---    0.02172   0.02172   0.02181   0.02184   0.02185
     Eigenvalues ---    0.02200   0.02202   0.02203   0.02211   0.02211
     Eigenvalues ---    0.02212   0.02214   0.02214   0.02215   0.02215
     Eigenvalues ---    0.02218   0.02219   0.02220   0.02220   0.02226
     Eigenvalues ---    0.04557   0.06389   0.06640   0.15997   0.15998
     Eigenvalues ---    0.16000   0.16000   0.16000   0.16000   0.16000
     Eigenvalues ---    0.16000   0.16000   0.16000   0.16000   0.16000
     Eigenvalues ---    0.16000   0.16000   0.16000   0.18856   0.19350
     Eigenvalues ---    0.22000   0.22000   0.22000   0.22000   0.22000
     Eigenvalues ---    0.22000   0.23467   0.23477   0.23478   0.24972
     Eigenvalues ---    0.24999   0.25000   0.31255   0.31360   0.31481
     Eigenvalues ---    0.31528   0.33499   0.33607   0.33977   0.34063
     Eigenvalues ---    0.34074   0.34126   0.34256   0.34264   0.34267
     Eigenvalues ---    0.34267   0.34272   0.34276   0.34280   0.34281
     Eigenvalues ---    0.34290   0.42387   0.42463   0.42482   0.42554
     Eigenvalues ---    0.42576   0.42622   0.46321   0.46390   0.46434
     Eigenvalues ---    0.46733   0.46751   0.46816   0.47202   0.47212
     Eigenvalues ---    0.47214   0.47335   0.47342   0.474561000.00000
     Eigenvalues --- 1000.000001000.000001000.000001000.000001000.00000
     Eigenvalues --- 1000.000001000.000001000.000001000.000001000.00000
     Eigenvalues --- 1000.000001000.000001000.000001000.000001000.00000
     Eigenvalues --- 1000.000001000.000001000.000001000.000001000.00000
     Eigenvalues --- 1000.000001000.000001000.000001000.000001000.00000
     Eigenvalues --- 1000.000001000.000001000.000001000.000001000.00000
     Eigenvalues --- 1000.000001000.000001000.000001000.000001000.00000
     Eigenvalues --- 1000.000001000.000001000.000001000.000001000.00000
     Eigenvalues --- 1000.000001000.000001000.000001000.000001000.00000
     Eigenvalues --- 1000.000001000.000001000.000001000.000001000.00000
     Eigenvalues --- 1000.000001000.000001000.000001000.000001000.00000
     Eigenvalues --- 1000.000001000.000001000.000001000.000001000.00000
     Eigenvalues --- 1000.000001000.000001000.000001000.000001000.00000
     Eigenvalues --- 1000.000001000.000001000.000001000.000001000.00000
     Eigenvalues --- 1000.000001000.000001000.000001000.000001000.00000
     Eigenvalues --- 1000.000001000.000001000.000001000.000001000.00000
     Eigenvalues --- 1000.000001000.000001000.000001000.000001000.00000
     Eigenvalues --- 1000.000001000.00000
 RFO step:  Lambda=-4.19360332D-02 EMin= 6.34962854D-03
 Linear search not attempted -- first point.
 Maximum step size (   0.300) exceeded in Quadratic search.
    -- Step size scaled by   0.591
 Iteration  1 RMS(Cart)=  0.12573939 RMS(Int)=  0.00303235
 Iteration  2 RMS(Cart)=  0.00613377 RMS(Int)=  0.00028273
 Iteration  3 RMS(Cart)=  0.00001066 RMS(Int)=  0.00028267
 Iteration  4 RMS(Cart)=  0.00000000 RMS(Int)=  0.00028267
 Variable       Old X    -DE/DX   Delta X   Delta X   Delta X     New X
                                 (Linear)    (Quad)   (Total)
    R1        2.12228  -0.02500   0.00000  -0.04167  -0.04167   2.08061
    R2        2.85105   0.02348   0.00000   0.03889   0.03889   2.88993
    R3        2.85330   0.02290   0.00000   0.03805   0.03805   2.89135
    R4        2.85016   0.02375   0.00000   0.03928   0.03928   2.88944
    R5        2.64425  -0.00211   0.00000  -0.00245  -0.00244   2.64180
    R6        2.63468  -0.00232   0.00000  -0.00256  -0.00255   2.63212
    R7        2.62368  -0.00493   0.00000  -0.00571  -0.00571   2.61797
    R8        2.07224  -0.01856   0.00000  -0.02865  -0.02865   2.04359
    R9        2.62931  -0.00122   0.00000  -0.00132  -0.00132   2.62799
   R10        2.07369  -0.02197   0.00000  -0.03400  -0.03400   2.03969
   R11        2.62985  -0.00489   0.00000  -0.00577  -0.00578   2.62407
   R12        2.06868  -0.01657   0.00000  -0.02544  -0.02544   2.04323
   R13        2.62523  -0.00749   0.00000  -0.00862  -0.00862   2.61661
   R14        2.06882  -0.01662   0.00000  -0.02552  -0.02552   2.04330
   R15        2.06843  -0.01663   0.00000  -0.02553  -0.02553   2.04290
   R16        2.63856  -0.00004   0.00000   0.00006   0.00008   2.63864
   R17        2.63906  -0.00436   0.00000  -0.00506  -0.00505   2.63402
   R18        2.62557  -0.00467   0.00000  -0.00529  -0.00528   2.62028
   R19        2.07998  -0.02644   0.00000  -0.04131  -0.04131   2.03866
   R20        2.62789  -0.00232   0.00000  -0.00272  -0.00273   2.62516
   R21        2.07118  -0.01734   0.00000  -0.02673  -0.02673   2.04444
   R22        2.62866  -0.00532   0.00000  -0.00617  -0.00619   2.62247
   R23        2.06873  -0.01669   0.00000  -0.02563  -0.02563   2.04311
   R24        2.62751  -0.00876   0.00000  -0.01016  -0.01018   2.61732
   R25        2.06886  -0.01658   0.00000  -0.02547  -0.02547   2.04339
   R26        2.06860  -0.01681   0.00000  -0.02581  -0.02581   2.04279
   R27        2.63942  -0.00422   0.00000  -0.00489  -0.00487   2.63455
   R28        2.63957   0.00083   0.00000   0.00112   0.00114   2.64071
   R29        2.62794  -0.00252   0.00000  -0.00298  -0.00298   2.62497
   R30        2.07205  -0.01782   0.00000  -0.02751  -0.02751   2.04453
   R31        2.62569  -0.00444   0.00000  -0.00500  -0.00500   2.62069
   R32        2.08183  -0.02886   0.00000  -0.04523  -0.04523   2.03660
   R33        2.62720  -0.00914   0.00000  -0.01063  -0.01065   2.61655
   R34        2.06900  -0.01669   0.00000  -0.02564  -0.02564   2.04336
   R35        2.62864  -0.00567   0.00000  -0.00658  -0.00660   2.62204
   R36        2.06882  -0.01669   0.00000  -0.02564  -0.02564   2.04318
   R37        2.06859  -0.01681   0.00000  -0.02580  -0.02580   2.04278
    A1        1.82947   0.00363   0.00000  -0.00072  -0.00047   1.82900
    A2        1.88334  -0.00852   0.00000  -0.04775  -0.04694   1.83640
    A3        1.87508  -0.01003   0.00000  -0.05138  -0.05046   1.82462
    A4        1.94352  -0.00343   0.00000   0.01166   0.00946   1.95298
    A5        1.99527   0.00113   0.00000   0.02228   0.02038   2.01565
    A6        1.92987   0.01532   0.00000   0.05434   0.05317   1.98304
    A7        2.06665   0.00028   0.00000   0.00048   0.00047   2.06712
    A8        2.13905   0.00761   0.00000   0.01533   0.01532   2.15437
    A9        2.07657  -0.00791   0.00000  -0.01603  -0.01602   2.06055
   A10        2.10358   0.00476   0.00000   0.01038   0.01038   2.11396
   A11        2.08427  -0.00135   0.00000  -0.00217  -0.00217   2.08210
   A12        2.09532  -0.00342   0.00000  -0.00821  -0.00822   2.08710
   A13        2.10146   0.00344   0.00000   0.00788   0.00789   2.10935
   A14        2.09300  -0.00006   0.00000   0.00091   0.00090   2.09390
   A15        2.08872  -0.00338   0.00000  -0.00879  -0.00880   2.07993
   A16        2.09649   0.00080   0.00000   0.00109   0.00109   2.09758
   A17        2.09195  -0.00040   0.00000  -0.00054  -0.00054   2.09141
   A18        2.09474  -0.00040   0.00000  -0.00055  -0.00055   2.09419
   A19        2.09930   0.00113   0.00000   0.00234   0.00233   2.10162
   A20        2.08888  -0.00051   0.00000  -0.00101  -0.00100   2.08788
   A21        2.09501  -0.00062   0.00000  -0.00133  -0.00133   2.09368
   A22        2.08896  -0.00223   0.00000  -0.00567  -0.00569   2.08327
   A23        2.09645   0.00114   0.00000   0.00292   0.00293   2.09938
   A24        2.09778   0.00109   0.00000   0.00275   0.00276   2.10054
   A25        2.11758   0.01845   0.00000   0.03737   0.03730   2.15488
   A26        2.08462  -0.00776   0.00000  -0.01568  -0.01573   2.06888
   A27        2.08098  -0.01069   0.00000  -0.02174  -0.02173   2.05925
   A28        2.10152   0.00417   0.00000   0.00936   0.00931   2.11083
   A29        2.07768   0.00374   0.00000   0.01249   0.01239   2.09006
   A30        2.10384  -0.00787   0.00000  -0.02146  -0.02156   2.08228
   A31        2.09878   0.00737   0.00000   0.01622   0.01623   2.11501
   A32        2.09526  -0.00437   0.00000  -0.01011  -0.01012   2.08514
   A33        2.08915  -0.00300   0.00000  -0.00612  -0.00613   2.08302
   A34        2.09600   0.00223   0.00000   0.00461   0.00461   2.10060
   A35        2.09183  -0.00103   0.00000  -0.00205  -0.00205   2.08978
   A36        2.09536  -0.00120   0.00000  -0.00256  -0.00256   2.09280
   A37        2.09787  -0.00029   0.00000  -0.00139  -0.00141   2.09646
   A38        2.09107   0.00035   0.00000   0.00130   0.00131   2.09238
   A39        2.09425  -0.00006   0.00000   0.00009   0.00010   2.09435
   A40        2.09121  -0.00278   0.00000  -0.00700  -0.00704   2.08417
   A41        2.09589   0.00142   0.00000   0.00360   0.00360   2.09949
   A42        2.09609   0.00136   0.00000   0.00342   0.00342   2.09951
   A43        2.07902  -0.01118   0.00000  -0.02259  -0.02261   2.05641
   A44        2.12533   0.02307   0.00000   0.04672   0.04670   2.17203
   A45        2.07880  -0.01189   0.00000  -0.02410  -0.02407   2.05474
   A46        2.10028   0.00817   0.00000   0.01792   0.01794   2.11822
   A47        2.09454  -0.00471   0.00000  -0.01080  -0.01081   2.08373
   A48        2.08836  -0.00346   0.00000  -0.00712  -0.00714   2.08123
   A49        2.10245   0.00452   0.00000   0.01022   0.01020   2.11265
   A50        2.07798   0.00442   0.00000   0.01451   0.01447   2.09246
   A51        2.10265  -0.00893   0.00000  -0.02455  -0.02458   2.07807
   A52        2.09789  -0.00021   0.00000  -0.00140  -0.00141   2.09648
   A53        2.09099   0.00028   0.00000   0.00121   0.00121   2.09220
   A54        2.09430  -0.00006   0.00000   0.00020   0.00020   2.09451
   A55        2.09636   0.00239   0.00000   0.00496   0.00494   2.10130
   A56        2.09136  -0.00110   0.00000  -0.00221  -0.00220   2.08916
   A57        2.09546  -0.00129   0.00000  -0.00275  -0.00274   2.09272
[...]
 -0.00008501,0.00000328,0.00004221,0.00003821,-0.00011336,0.00001503,0.
 00004646,-0.00006324,-0.00001351,0.00005251,0.00006652,0.00008437,0.00
 008272,-0.00000380,0.00000193,0.00001815,-0.00002004,0.00000633,-0.000
 00822,0.00001847,0.00000642,0.00000536,0.00020617,0.00117555,0.0003565
 2,0.00000672,0.00027858,0.00017595,0.00027434,-0.00033489,-0.00005094,
 0.00023466,-0.00026489,0.00013523,-0.00012272,-0.00005557,-0.00000503,
 -0.00006391,0.00013880,-0.00023853,-0.00000887,-0.00002812,0.00003747,
 -0.00016823,-0.00003774,0.00019543,0.00000539,0.00000026,-0.00001943,-
 0.00001013,0.00002445,0.00002457,-0.00001370,0.00003348,-0.00000345,-0
 .00864209,-0.04000498,0.02966414,0.01079836,0.03191109,-0.01573115,-0.
 06018868,-0.03287970,-0.14297348,-0.03701600,0.00593723,-0.04767047,0.
 00093924,0.00017509,0.00024251,0.26807318,-0.11991676,0.64927204,-0.00
 200868,0.00185783,0.00231932,0.00049875,0.00038945,0.00020277,-0.00028
 825,-0.00061253,-0.00033060,-0.00019292,0.00002975,0.00011045,-0.00009
 307,-0.00030249,-0.00009615,0.00002766,-0.00001536,-0.00005839,0.00000
 283,0.00001066,0.00001024,-0.00001192,0.00005241,0.00010135,-0.0000094
 8,0.00032668,-0.00008413,0.00001336,0.00003000,0.00001702,-0.00000397,
 0.00001483,0.00000549,-0.00000878,0.00000054,-0.00001014,0.00002260,0.
 00000938,0.00000142,-0.00029717,-0.00079797,-0.00030151,-0.00001138,-0
 .00018399,-0.00010408,0.00020157,-0.00037953,-0.00010952,0.00031319,-0
 .00035044,0.00015195,-0.00033510,-0.00014566,0.00002639,-0.00024969,0.
 00030904,-0.00025216,0.00001366,0.00004552,0.00014752,-0.00029106,0.00
 005498,0.00023703,0.00001132,0.00000309,-0.00000993,-0.00001551,0.0000
 5207,0.00002769,-0.00001439,0.00004799,0.00001633,0.00414652,0.0178618
 2,-0.01545900,0.00200153,-0.00358877,-0.00633921,-0.06257146,0.0138637
 6,-0.02871911,-0.00103780,-0.00012211,0.00004416,-0.00010999,0.0008430
 2,-0.00076023,0.00683000,-0.01629615,0.01451416,0.05347536,0.00151488,
 -0.00105162,-0.00092921,0.00003015,-0.00010455,0.00004837,0.00003977,0
 .00042716,0.00027323,0.00014599,-0.00003107,-0.00009322,0.00016235,0.0
 0028724,0.00006877,-0.00000881,-0.00000536,0.00001350,-0.00001169,-0.0
 0001174,-0.00001696,-0.00003752,-0.00005185,-0.00006499,0.00003371,-0.
 00022344,0.00004361,0.00000658,-0.00000616,0.00000088,0.00001004,-0.00
 000682,-0.00000264,0.00002385,-0.00000880,-0.00000400,-0.00000844,-0.0
 0000838,-0.00000392,-0.00151355,-0.00152073,-0.00168361,-0.00063594,-0
 .00097270,-0.00030559,-0.00041358,-0.00007821,-0.00016763,-0.00016566,
 -0.00007390,0.00007428,0.00015382,0.00010024,-0.00000495,0.00008744,-0
 .00002425,-0.00000094,0.00002049,0.00005373,0.00005220,0.00013749,-0.0
 0002493,0.00000143,0.00001984,0.00003385,-0.00001708,-0.00001747,0.000
 00511,0.00001309,-0.00000150,0.00002828,-0.00000199,-0.00188114,0.0074
 9321,-0.00432152,-0.00323329,0.00219216,0.00000047,0.01388880,-0.22823
 719,0.15613271,-0.00025928,-0.00005611,-0.00106092,-0.00007435,0.00025
 232,-0.00028251,0.00496017,-0.01483979,0.02272326,-0.00930436,0.239399
 92,0.00217120,0.00002505,-0.00107117,-0.00013318,-0.00016394,0.0000823
 1,0.00015089,0.00022138,0.00024093,0.00007225,-0.00003068,-0.00004156,
 0.00002665,0.00001572,0.00007939,0.00000301,-0.00001833,0.00000393,-0.
 00000559,0.00000765,-0.00003645,-0.00003096,-0.00003774,0.00001152,-0.
 00002403,0.00001540,-0.00004720,0.00001462,0.00001346,0.00000009,0.000
 00510,-0.00000050,-0.00000278,0.00001133,-0.00000322,-0.00000996,-0.00
 000102,0.00000237,-0.00000863,-0.00025702,0.00012560,0.00029942,0.0001
 9207,0.00019190,0.00069923,0.00076818,-0.00015055,-0.00012223,0.000108
 47,-0.00021535,0.00011184,0.00000147,-0.00000613,-0.00004547,0.0001693
 2,-0.00007888,-0.00009669,-0.00009563,-0.00001521,-0.00007075,-0.00023
 681,0.00003984,0.00006129,0.00002375,0.00004671,-0.00004404,-0.0000342
 2,0.00000664,-0.00000422,-0.00001291,0.00003590,-0.00001481,-0.0009600
 8,0.02242094,-0.01282741,-0.00670012,0.00028140,-0.00087680,-0.0283259
 7,0.15411264,-0.20631216,-0.00006409,-0.00116855,-0.00020676,0.0000354
 1,0.00098543,-0.00089237,-0.00171165,-0.00619487,0.00770068,0.03533757
 ,-0.16950743,0.21073255,-0.00172934,0.00043401,-0.00026862,-0.00006573
 ,-0.00001982,0.00059538,0.00020388,-0.00105575,0.00020180,0.00000310,0
 .00000719,0.00022302,-0.00015071,-0.00012658,-0.00005171,-0.00011197,0
 .00011365,0.00001877,0.00002447,-0.00000868,0.00000897,0.00020291,0.00
 011660,0.00009062,-0.00001310,0.00016182,0.00005981,-0.00008770,-0.000
 10711,-0.00009704,-0.00003352,0.00001601,-0.00001489,-0.00001786,-0.00
 000283,0.00002558,-0.00000024,0.00000985,0.00000772,0.00004782,-0.0000
 9907,-0.00030352,0.00010557,-0.00014837,0.00005304,-0.00003108,0.00016
 115,0.00007227,-0.00010001,0.00010581,-0.00001313,-0.00001634,-0.00000
 919,0.00000467,0.00004984,-0.00009207,0.00014555,-0.00005831,0.0000243
 9,-0.00003116,0.00010466,-0.00003778,-0.00009186,-0.00000357,-0.000015
 26,0.00000432,0.00000716,-0.00003232,-0.00000384,-0.00000086,-0.000008
 76,0.00000085,-0.02054645,0.01870128,-0.03466062,-0.02456709,-0.052729
 31,-0.00844363,0.03645521,0.00456554,0.03439918,-0.19387511,-0.0149516
 8,-0.14470014,0.00386814,-0.00554786,-0.00302952,-0.12086363,-0.038200
 22,-0.02162258,0.00278644,-0.00578920,-0.00380349,0.45730434,0.0007649
 7,0.00060223,-0.00000577,-0.00004801,-0.00034099,-0.00030898,0.0003326
 6,0.00004563,-0.00024271,-0.00030371,0.00012153,0.00008709,-0.00016766
 ,0.00001627,-0.00013348,0.00006886,-0.00008443,-0.00009225,0.00002539,
 0.00000402,0.00000242,-0.00016318,-0.00007879,-0.00003545,-0.00003507,
 -0.00029463,-0.00013479,-0.00003582,0.00009313,0.00009867,-0.00002947,
 -0.00001100,0.00001664,-0.00005770,0.00001432,0.00003289,-0.00001883,0
 .00000103,-0.00000022,-0.00036613,0.00013562,0.00007521,-0.00002165,0.
 00004568,-0.00021291,0.00001264,-0.00025633,0.00006873,0.00013023,-0.0
 0010720,-0.00002995,0.00001057,0.00001390,-0.00002176,-0.00004791,0.00
 017286,-0.00012784,-0.00001256,0.00002067,0.00002630,-0.00006221,-0.00
 004110,0.00019883,0.00000086,-0.00002152,0.00002305,0.00001304,-0.0000
 3216,-0.00001668,0.00000433,-0.00002221,0.00000480,0.01844503,-0.01603
 294,0.03269194,-0.01611588,0.03187012,-0.03896552,-0.03225992,-0.05481
 212,0.00460394,-0.06172185,-0.15160924,-0.03349354,-0.00583781,-0.0032
 8303,0.00136271,0.00912496,-0.26078821,0.15303210,-0.00577527,-0.00203
 887,0.00042230,0.22284488,0.71807109,-0.00188944,-0.00063028,-0.001075
 64,-0.00022811,-0.00006298,0.00106703,0.00009148,-0.00110896,0.0006170
 3,0.00042412,-0.00008142,0.00028221,-0.00025700,-0.00030414,0.00015457
 ,-0.00026173,0.00027059,0.00016548,0.00000585,-0.00000421,0.00000571,0
 .00048378,0.00015699,0.00008635,-0.00010373,0.00027379,0.00005268,-0.0
 0015824,-0.00026202,-0.00025639,-0.00001815,0.00003237,-0.00003497,-0.
 00001330,-0.00001277,0.00004454,0.00000103,0.00000811,0.00000269,0.000
 24733,-0.00030364,-0.00049839,0.00018765,-0.00032139,0.00032705,0.0000
 4872,0.00046263,0.00002335,-0.00027492,0.00026006,0.00000698,-0.000013
 22,-0.00002057,0.00000978,0.00014347,-0.00030194,0.00031892,-0.0000450
 0,-0.00002812,-0.00008606,0.00020565,-0.00002450,-0.00031478,-0.000005
 07,-0.00000348,-0.00001054,-0.00000788,0.00000353,0.00001355,-0.000002
 86,0.00000970,-0.00000923,-0.03318108,0.03395385,-0.08271965,-0.036350
 22,-0.09243252,0.02895330,0.06298996,0.05744293,0.05452282,-0.10713602
 ,0.03322148,-0.26272493,-0.00264362,0.00197917,0.00378442,-0.05942753,
 0.08674535,-0.23560219,-0.00403382,0.00003783,0.00347885,0.22336122,-0
 .11549744,0.58344864,0.00019573,-0.00048329,0.00066739,0.00006746,0.00
 006973,0.00000046,0.00004852,-0.00008485,-0.00001701,-0.00003840,-0.00
 000191,0.00001666,-0.00003801,0.00001455,-0.00000588,-0.00000141,0.000
 00711,-0.00001236,0.00000604,-0.00000027,0.00001110,-0.00001368,0.0000
 1187,-0.00001296,0.00001225,-0.00002781,0.00001623,-0.00002656,0.00001
 241,0.00000464,-0.00000410,-0.00000182,0.00000370,-0.00000997,-0.00000
 199,0.00001660,-0.00000195,-0.00000480,0.00000533,-0.00028100,-0.00016
 491,0.00000960,0.00002043,-0.00000786,-0.00000002,0.00003767,-0.000048
 83,-0.00001959,0.00004299,-0.00002074,0.00001275,-0.00001563,-0.000007
 76,-0.00000278,-0.00000585,0.00004599,-0.00001761,-0.00000044,0.000001
 38,-0.00000033,-0.00001897,-0.00001825,0.00004562,0.00000180,-0.000005
 98,0.00000699,-0.00000022,-0.00000051,-0.00000333,-0.00000097,-0.00000
 330,0.00000023,0.00292287,-0.00561942,-0.00407200,0.00693509,-0.015803
 95,0.01456342,-0.00105348,-0.00018994,-0.00004230,-0.06117258,0.008712
 04,-0.02477297,-0.00226085,0.00236628,0.00224952,0.00212105,-0.0034858
 4,-0.00653066,-0.00063741,0.00039474,0.00055455,0.00427843,0.01777049,
 -0.01588907,0.05109739,0.00055661,-0.00059987,0.00107725,0.00000156,-0
 .00000747,-0.00006823,0.00017251,-0.00011132,-0.00007143,-0.00010621,0
 .00004312,0.00001443,-0.00004359,0.00004159,0.00002848,-0.00001487,-0.
 00000175,-0.00001916,0.00001615,-0.00000748,0.00000854,-0.00000428,-0.
 00001126,-0.00001095,0.00002178,-0.00002762,-0.00003156,-0.00002937,0.
 00000589,-0.00000182,-0.00002062,-0.00001255,0.00000252,-0.00000954,0.
 00000431,0.00001572,-0.00001570,-0.00000278,0.00000518,-0.00035212,-0.
 00010212,-0.00018462,0.00007801,-0.00009427,0.00001382,0.00000456,-0.0
 0005346,0.00007107,0.00001237,0.00002928,0.00000113,-0.00000361,0.0000
 0321,-0.00000643,-0.00000305,0.00001118,0.00002520,-0.00001446,0.00001
 240,-0.00000353,0.00002191,-0.00003266,0.00000307,0.00000068,-0.000013
 55,0.00001552,0.00001898,-0.00001767,-0.00000161,0.00000493,-0.0000137
 5,0.00000440,-0.00613553,-0.00180960,0.00009294,0.00498066,-0.01504807
 ,0.02366452,-0.00031700,-0.00008281,-0.00112597,0.00863330,-0.22560092
 ,0.15364164,0.00164896,0.00012605,-0.00190773,-0.00315794,0.00255696,0
 .00038975,0.00044487,-0.00024654,-0.00018253,-0.00289527,0.00785694,-0
 .00601898,-0.00570306,0.23296659,0.00000299,-0.00029234,0.00010004,0.0
 0002386,0.00001913,-0.00003319,0.00000049,0.00013411,0.00001342,0.0000
 1684,-0.00000870,-0.00004866,0.00003458,-0.00002172,-0.00001670,0.0000
 1440,-0.00001436,-0.00000056,-0.00000736,-0.00000276,-0.00000452,-0.00
 001207,0.00000457,0.00003350,-0.00003443,0.00002917,0.00000074,0.00003
 107,0.00000436,0.00000921,0.00000955,0.00000197,0.00000151,0.00001034,
 -0.00000039,-0.00002253,0.00001094,0.00000480,-0.00000449,0.00007314,0
 .00000505,-0.00005160,0.00000014,0.00001079,0.00003653,-0.00000346,0.0
 0003833,0.00001457,-0.00001783,0.00001961,0.00001022,-0.00000603,-0.00
 000632,-0.00000115,0.00002242,-0.00003235,0.00001493,-0.00000072,-0.00
 001330,-0.00001576,0.00001890,0.00000216,-0.00002783,-0.00000294,0.000
 00123,-0.00000911,-0.00000508,0.00000064,0.00000276,-0.00000422,0.0000
 0464,-0.00000495,-0.00380629,0.00035750,0.00347768,-0.00219248,-0.0059
 1525,0.00732344,-0.00000415,-0.00111707,-0.00006516,-0.02467138,0.1538
 5428,-0.20722264,0.00275242,-0.00093229,-0.00050659,-0.00674684,-0.000
 01714,-0.00095347,0.00051221,-0.00018974,-0.00037861,0.00073734,0.0233
 7470,-0.01221998,0.03119720,-0.16847200,0.21183018,-0.00034946,0.00020
 667,-0.00061027,-0.00020137,-0.00023669,-0.00001820,0.00013298,-0.0001
 3990,-0.00012541,-0.00010838,0.00004276,0.00005307,-0.00010447,-0.0000
 5456,0.00002515,-0.00000314,-0.00000471,-0.00000301,0.00001267,0.00001
 887,0.00000812,0.00001359,-0.00001463,-0.00000495,0.00003069,-0.000003
 73,-0.00006569,-0.00002551,0.00000428,0.00000720,-0.00001450,-0.000001
 96,0.00000185,-0.00002840,0.00001402,0.00001227,-0.00001068,0.00000347
 ,-0.00000027,-0.00008724,0.00022093,-0.00006239,0.00006579,-0.00007567
 ,0.00003905,0.00003346,0.00000273,0.00000203,-0.00001260,0.00002707,0.
 00000818,-0.00001837,0.00000153,-0.00001038,-0.00000813,-0.00001076,0.
 00002287,-0.00001345,0.00001069,0.00002245,0.00003123,-0.00002209,-0.0
 0000031,-0.00000754,-0.00002173,0.00001432,0.00000525,-0.00000450,-0.0
 0000069,0.00000257,-0.00001186,0.00000233,0.00381212,-0.00555119,-0.00
 242644,-0.00022496,0.00006596,0.00099238,-0.00594325,0.00091256,-0.016
 82629,0.00567090,-0.00217100,-0.00289619,-0.00073257,0.00040602,0.0004
 1194,-0.17183366,-0.02515814,-0.15332157,-0.00218629,0.00151569,0.0027
 5690,0.00387731,-0.00317723,0.00007600,-0.00011017,-0.00003989,-0.0000
 0646,0.17058574,-0.00046654,0.00037719,-0.00112283,-0.00019250,-0.0002
 5100,-0.00011592,0.00004334,-0.00017999,-0.00005727,-0.00007782,0.0000
 0040,0.00003956,-0.00002357,0.00001724,0.00003619,-0.00001760,0.000006
 11,-0.00000834,0.00001087,0.00000436,0.00000795,0.00000099,0.00000222,
 -0.00000094,-0.00000261,0.00000339,-0.00001259,-0.00001707,-0.00000441
 ,-0.00000152,-0.00001279,-0.00000098,-0.00000310,-0.00000465,0.0000059
 7,0.00000382,-0.00000668,-0.00000009,0.00000248,-0.00004210,0.00020301
 ,-0.00003966,0.00002961,0.00000826,0.00002080,0.00003534,-0.00004527,0
 .00002222,0.00002720,-0.00001222,0.00001963,-0.00001571,0.00000120,-0.
 00001373,0.00001069,0.00002177,-0.00000331,-0.00002138,0.00000218,-0.0
 0000441,0.00002841,-0.00003557,0.00004359,-0.00000870,-0.00001859,0.00
 000486,0.00000381,-0.00002009,-0.00000914,-0.00000415,-0.00001498,-0.0
 0000089,-0.00562537,-0.00343809,0.00172003,0.00004664,-0.00131745,0.00
 030292,-0.01986338,0.00266906,-0.02571781,-0.00239949,-0.00219248,0.00
 543560,0.00039304,-0.00013468,-0.00033236,-0.02515231,-0.07171615,-0.0
 1747693,0.00228255,0.00027825,-0.00094046,0.01776827,0.00837255,0.0227
 5833,0.00082410,0.00014356,0.00102147,0.03094884,0.06711676,0.00014489
 ,0.00035605,-0.00017662,-0.00003662,-0.00003056,-0.00003253,0.00002203
 ,-0.00012762,0.00000527,-0.00003294,0.00000822,0.00004007,-0.00001979,
 0.00002963,0.00003279,-0.00001588,0.00000838,-0.00000190,0.00000870,-0
 .00000041,-0.00000228,0.00001200,-0.00002022,-0.00001701,0.00000836,-0
 .00001210,-0.00003296,-0.00001589,-0.00000942,-0.00000570,-0.00001331,
 -0.00000288,-0.00000538,-0.00000452,0.00000853,0.00000389,-0.00001263,
 -0.00000064,0.00000105,-0.00010202,0.00001032,-0.00001655,0.00001266,-
 0.00000741,-0.00004163,0.00001060,-0.00005882,0.00002433,0.00002879,-0
 .00001190,-0.00000283,0.00000483,0.00000811,-0.00001039,-0.00000219,0.
 00003942,-0.00000468,-0.00002053,0.00001274,-0.00000441,0.00000655,-0.
 00001974,0.00004531,-0.00000221,-0.00000962,0.00000760,0.00000818,-0.0
 0002355,-0.00001335,0.00000007,-0.00001651,0.00000347,-0.00285481,0.00
 127130,0.00361934,0.00099229,0.00017013,0.00031564,-0.00027166,0.00363
 260,0.00227594,-0.00265313,0.00584802,0.00059599,0.00042160,-0.0003274
 6,-0.00041934,-0.15316228,-0.01766989,-0.25018093,0.00220983,-0.001743
 49,-0.00053084,-0.01654857,-0.00658929,-0.01241889,-0.00068569,-0.0002
 4134,-0.00087922,0.16981288,0.01638406,0.25834256,-0.00064494,0.000249
 20,0.00044067,0.00006250,0.00004052,0.00014319,-0.00000815,-0.00015733
 ,-0.00006358,-0.00005433,0.00002589,0.00003636,-0.00004512,0.00000050,
 0.00000915,-0.00001152,0.00000545,-0.00000196,0.00000700,0.00000665,0.
 00000379,0.00002011,-0.00001226,-0.00002352,0.00003129,-0.00002215,-0.
 00002742,-0.00002025,-0.00000315,-0.00000446,-0.00001056,-0.00000234,-
 0.00000038,-0.00001471,0.00000469,0.00001654,-0.00001061,-0.00000204,0
 .00000239,-0.00005232,-0.00000779,0.00000792,0.00001677,-0.00001482,-0
 .00002063,-0.00001262,-0.00003370,-0.00001478,0.00000571,0.00000438,-0
 .00000505,-0.00000084,0.00000501,0.00000237,-0.00001841,0.00001039,0.0
 0000270,-0.00000101,0.00000852,0.00001465,0.00000429,-0.00000955,0.000
 00952,-0.00000240,-0.00000698,0.00000745,0.00000612,0.00000088,-0.0000
 0020,0.00000357,-0.00000520,0.00000370,-0.00035265,0.00104584,-0.00001
 152,0.00292681,-0.00197081,-0.00661677,0.00544211,-0.00163447,-0.00369
 251,-0.00569814,-0.01997674,0.00072679,-0.00054759,-0.00083565,-0.0000
 2116,0.00640981,0.00467205,-0.00200221,0.00002954,0.00020996,-0.000005
 96,-0.14704669,-0.14329106,-0.02632628,-0.00209603,0.00224829,0.002052
 90,-0.00225015,0.00150070,0.00275041,0.14393342,0.00042741,-0.00008650
 ,-0.00024564,-0.00007047,-0.00002733,-0.00009074,0.00008972,0.00000059
 ,0.00000483,-0.00001215,0.00001264,0.00002088,-0.00002104,0.00003108,0
 .00003985,-0.00000846,0.00000783,0.00000680,0.00000734,0.00000229,-0.0
 0000076,0.00001192,-0.00002422,-0.00002500,0.00002259,-0.00002673,-0.0
 0002950,-0.00001599,-0.00000610,-0.00000527,-0.00001133,-0.00000633,-0
 .00000372,-0.00000533,0.00000764,0.00000779,-0.00001487,-0.00000109,0.
 00000136,-0.00008254,0.00003374,-0.00003220,0.00002237,-0.00006746,-0.
 00002877,-0.00002067,-0.00001460,0.00003184,-0.00001355,0.00002206,-0.
 00002590,0.00002046,0.00001449,-0.00000370,-0.00001450,0.00000987,0.00
 001826,-0.00000982,0.00001741,0.00000505,0.00001492,-0.00000613,-0.000
 00034,0.00000025,-0.00000629,0.00001357,0.00001273,-0.00001505,-0.0000
 0740,0.00000612,-0.00001487,0.00000608,0.00093498,0.00028632,0.0002976
 0,-0.00231584,0.00289110,0.00134288,-0.00122656,-0.00050262,0.00580579
 ,0.00075072,0.00197305,0.00353004,-0.00000985,-0.00015961,0.00003454,-
 0.01636118,-0.01507074,-0.00696573,-0.00065564,-0.00092848,-0.00025596
 ,-0.14315335,-0.27760286,-0.02019734,0.00145639,0.00009641,-0.00185282
 ,0.00229815,0.00014855,-0.00086462,0.15794709,0.28901195,0.00048572,-0
 .00025011,-0.00022850,-0.00002540,0.00006417,-0.00002920,0.00006076,0.
 00005323,0.00005569,0.00003482,-0.00000978,0.00000072,0.00000557,-0.00
 002053,0.00001044,0.00000456,0.00000551,0.00001023,0.00000048,0.000004
 50,-0.00000458,0.00000562,0.00000248,0.00000594,-0.00002030,0.00002232
 ,-0.00000550,0.00000119,-0.00000180,-0.00000596,-0.00000022,-0.0000011
 5,-0.00000278,0.00000401,0.00000066,-0.00000187,-0.00000176,0.00000105
 ,0.00000050,-0.00003125,0.00003273,0.00000929,0.00002229,-0.00000648,0
 .00004863,0.00004876,-0.00000588,0.00000636,0.00001080,-0.00001936,0.0
 0001687,-0.00000875,-0.00000499,-0.00000805,0.00000730,0.00000239,-0.0
 0000381,-0.00001242,0.00000289,-0.00000392,-0.00000808,-0.00000567,0.0
 0000536,0.00000182,0.00000009,-0.00000103,-0.00000015,-0.00000422,-0.0
 0000029,-0.00000127,0.00000069,0.00000010,-0.00007278,0.00023728,-0.00
 127452,-0.00636548,0.00186126,-0.00189394,-0.00393932,0.00528436,-0.00
 069745,-0.01598868,-0.02594677,0.00313533,-0.00070580,-0.00120163,-0.0
 0016184,0.01471869,0.02241913,0.00818840,0.00067507,0.00091871,0.00013
 888,-0.02632581,-0.02021373,-0.06939432,0.00270258,-0.00072732,-0.0004
 0198,0.00210953,-0.00196228,-0.00051583,0.03260790,0.01946825,0.063002
 61||0.00000500,-0.00001368,0.00000191,0.00000049,0.00000151,0.00000379
 ,-0.00001104,-0.00001357,-0.00002842,0.00004531,0.00000642,0.00001176,
 -0.00003457,0.00001402,0.00003007,-0.00003469,0.00001840,0.00002620,-0
 .00000280,-0.00000107,-0.00000213,0.00004560,0.00000904,0.00000669,0.0
 0000097,-0.00000108,-0.00000305,-0.00001430,-0.00002851,-0.00003672,0.
 00000413,-0.00000168,-0.00000263,-0.00000382,-0.00000108,-0.00000133,0
 .00000191,0.00000273,0.00000432,-0.00000114,0.00000316,-0.00000457,-0.
 00000187,0.00000342,-0.00000154,0.00000454,-0.00000187,-0.00000168,0.0
 0000024,-0.00000303,0.00000114,0.00000077,0.00000184,0.00000035,-0.000
 00149,0.00000127,-0.00000616,-0.00000003,0.00000059,0.00000104,-0.0000
 0170,0.00000082,0.00000495,0.00000005,0.00000013,-0.00000051,-0.000000
 30,0.00000057,0.00000089,-0.00000038,0.00000099,-0.00000005,-0.0000186
 1,0.00002337,-0.00002918,-0.00000352,-0.00003753,0.00000748,0.00002704
 ,0.00001334,0.00001600,0.00001706,0.00002171,0.00001933,0.00000099,0.0
 0000265,-0.00000048,-0.00001193,-0.00002947,0.00001313,-0.00000194,-0.
 00000420,-0.00000069,-0.00000975,0.00001149,-0.00002991,-0.00000115,-0
 .00000229,-0.00000071,0.00000007,0.00000277,-0.00000139,0.00000084,-0.
 00000118,0.00000209|||@


 AS FAR AS THE LAWS OF MATHEMATICS REFER TO REALITY,
 THEY ARE NOT CERTAIN; AND AS FAR AS THEY ARE CERTAIN,
 THEY DO NOT REFER TO REALITY.

                                         -- ALBERT EINSTEIN
 Job cpu time:  0 days  0 hours  6 minutes 25.0 seconds.
 File lengths (MBytes):  RWF=    350 Int=      0 D2E=      0 Chk=      7 Scr=      1
 Normal termination of Gaussian 09 at Tue Sep 07 03:44:03 2021.
