 Entering Link 1 = b:\programy\g09w\l1.exe PID=     10928.
  
 Copyright (c) 1988,1990,1992,1993,1995,1998,2003,2009, Gaussian, Inc.
                  All Rights Reserved.
  
 This is part of the Gaussian(R) 09 program.  It is based on
 the Gaussian(R) 03 system (copyright 2003, Gaussian, Inc.),
 the Gaussian(R) 98 system (copyright 1998, Gaussian, Inc.),
 the Gaussian(R) 94 system (copyright 1995, Gaussian, Inc.),
 the Gaussian 92(TM) system (copyright 1992, Gaussian, Inc.),
 the Gaussian 90(TM) system (copyright 1990, Gaussian, Inc.),
 the Gaussian 88(TM) system (copyright 1988, Gaussian, Inc.),
 the Gaussian 86(TM) system (copyright 1986, Carnegie Mellon
 University), and the Gaussian 82(TM) system (copyright 1983,
 Carnegie Mellon University). Gaussian is a federally registered
 trademark of Gaussian, Inc.
  
 This software contains proprietary and confidential information,
 including trade secrets, belonging to Gaussian, Inc.
  
 This software is provided under written license and may be
 used, copied, transmitted, or stored only in accord with that
 written license.
  
 The following legend is applicable only to US Government
 contracts under FAR:
  
                    RESTRICTED RIGHTS LEGEND
  
 Use, reproduction and disclosure by the US Government is
 subject to restrictions as set forth in subparagraphs (a)
 and (c) of the Commercial Computer Software - Restricted
 Rights clause in FAR 52.227-19.
  
 Gaussian, Inc.
 340 Quinnipiac St., Bldg. 40, Wallingford CT 06492
  
  
 ---------------------------------------------------------------
 Warning -- This program may not be used in any manner that
 competes with the business of Gaussian, Inc. or will provide
 assistance to any competitor of Gaussian, Inc.  The licensee
 of this program is prohibited from giving any competitor of
 Gaussian, Inc. access to this program.  By using this program,
 the user acknowledges that Gaussian, Inc. is engaged in the
 business of creating and licensing software in the field of
 computational chemistry and represents and warrants to the
 licensee that it is not a competitor of Gaussian, Inc. and that
 it will not use this program in any manner prohibited above.
 ---------------------------------------------------------------
  

 Cite this work as:
 Gaussian 09, Revision A.02,
 M. J. Frisch, G. W. Trucks, H. B. Schlegel, G. E. Scuseria, 
 M. A. Robb, J. R. Cheeseman, G. Scalmani, V. Barone, B. Mennucci, 
 G. A. Petersson, H. Nakatsuji, M. Caricato, X. Li, H. P. Hratchian, 
 A. F. Izmaylov, J. Bloino, G. Zheng, J. L. Sonnenberg, M. Hada, 
 M. Ehara, K. Toyota, R. Fukuda, J. Hasegawa, M. Ishida, T. Nakajima, 
 Y. Honda, O. Kitao, H. Nakai, T. Vreven, J. A. Montgomery, Jr., 
 J. E. Peralta, F. Ogliaro, M. Bearpark, J. J. Heyd, E. Brothers, 
 K. N. Kudin, V. N. Staroverov, R. Kobayashi, J. Normand, 
 K. Raghavachari, A. Rendell, J. C. Burant, S. S. Iyengar, J. Tomasi, 
 M. Cossi, N. Rega, J. M. Millam, M. Klene, J. E. Knox, J. B. Cross, 
 V. Bakken, C. Adamo, J. Jaramillo, R. Gomperts, R. E. Stratmann, 
 O. Yazyev, A. J. Austin, R. Cammi, C. Pomelli, J. W. Ochterski, 
 R. L. Martin, K. Morokuma, V. G. Zakrzewski, G. A. Voth, 
 P. Salvador, J. J. Dannenberg, S. Dapprich, A. D. Daniels, 
 O. Farkas, J. B. Foresman, J. V. Ortiz, J. Cioslowski, 
 and D. J. Fox, Gaussian, Inc., Wallingford CT, 2009.
 
 ******************************************
 Gaussian 09:  IA32W-G09RevA.02 11-Jun-2009
                06-Sep-2021 
 ******************************************
 %nprocshared=12
 Will use up to   12 processors via shared memory.
 ----------------------------------------------
 # opt freq=noraman hf/6-311g geom=connectivity
 ----------------------------------------------
 1/18=20,19=15,38=1,57=2/1,3;
 2/9=110,12=2,17=6,18=5,40=1/2;
 3/5=4,6=6,11=9,16=1,25=1,30=1,71=1/1,2,3;
 4//1;
 5/5=2,38=5/2;
 6/7=2,8=2,9=2,10=2,28=1/1;
 7//1,2,3,16;
 1/18=20,19=15/3(2);
 2/9=110/2;
 99//99;
 2/9=110/2;
 3/5=4,6=6,11=9,16=1,25=1,30=1,71=1/1,2,3;
 4/5=5,16=3/1;
 5/5=2,38=5/2;
 7//1,2,3,16;
 1/18=20,19=15/3(-5);
 2/9=110/2;
 6/7=2,8=2,9=2,10=2,19=2,28=1/1;
 99/9=1/99;
 -----
 M0001
 -----
 Symbolic Z-matrix:
 Charge =  0 Multiplicity = 1
 C                     0.15597   0.20863   0.72247 
 H                     0.43874   0.47921   1.77612 
 C                     0.39062  -1.27656   0.58397 
 C                    -0.35649  -2.07919  -0.27757 
 C                     1.40552  -1.86198   1.34794 
 C                    -0.09519  -3.44198  -0.37447 
 H                    -1.16232  -1.6365   -0.8768 
 C                     1.66611  -3.22286   1.24809 
 H                     2.0036   -1.24429   2.02817 
 C                     0.91594  -4.01657   0.38629 
 H                    -0.69032  -4.06205  -1.05278 
 H                     2.46384  -3.67067   1.84959 
 H                     1.12103  -5.08896   0.30874 
 C                    -1.29294   0.59574   0.55999 
 C                    -1.896     0.75731  -0.68835 
 C                    -2.05976   0.7969    1.71183 
 C                    -3.23554   1.11684  -0.78453 
 H                    -1.29994   0.60568  -1.60258 
 C                    -3.39937   1.15369   1.61397 
 H                    -1.60452   0.67198   2.70153 
 C                    -3.99042   1.31559   0.36562 
 H                    -3.69463   1.24416  -1.77026 
 H                    -3.98952   1.30849   2.523 
 H                    -5.04495   1.59892   0.28921 
 C                     1.08136   0.97264  -0.19269 
 C                     1.09393   0.76136  -1.57235 
 C                     1.96547   1.9028    0.35938 
 C                     1.97954   1.45848  -2.38528 
 H                     0.37682   0.04957  -2.00884 
 C                     2.84869   2.60213  -0.45545 
 H                     1.96595   2.08399   1.44073 
 C                     2.86028   2.37911  -1.82793 
 H                     1.98171   1.28163  -3.46566 
 H                     3.53766   3.32929  -0.01349 
 H                     3.55913   2.92748  -2.46758 
 

 GradGradGradGradGradGradGradGradGradGradGradGradGradGradGradGradGradGrad
 Berny optimization.
 Initialization pass.
                           ----------------------------
                           !    Initial Parameters    !
                           ! (Angstroms and Degrees)  !
 --------------------------                            --------------------------
 ! Name  Definition              Value          Derivative Info.                !
 --------------------------------------------------------------------------------
 ! R1    R(1,2)                  1.124          estimate D2E/DX2                !
 ! R2    R(1,3)                  1.51           estimate D2E/DX2                !
 ! R3    R(1,14)                 1.5085         estimate D2E/DX2                !
 ! R4    R(1,25)                 1.5092         estimate D2E/DX2                !
 ! R5    R(3,4)                  1.3945         estimate D2E/DX2                !
 ! R6    R(3,5)                  1.3987         estimate D2E/DX2                !
 ! R7    R(4,6)                  1.391          estimate D2E/DX2                !
 ! R8    R(4,7)                  1.0975         estimate D2E/DX2                !
 ! R9    R(5,8)                  1.3892         estimate D2E/DX2                !
 ! R10   R(5,9)                  1.0963         estimate D2E/DX2                !
 ! R11   R(6,10)                 1.3897         estimate D2E/DX2                !
 ! R12   R(6,11)                 1.0949         estimate D2E/DX2                !
 ! R13   R(8,10)                 1.3912         estimate D2E/DX2                !
 ! R14   R(8,12)                 1.0949         estimate D2E/DX2                !
 ! R15   R(10,13)                1.0946         estimate D2E/DX2                !
 ! R16   R(14,15)                1.3958         estimate D2E/DX2                !
 ! R17   R(14,16)                1.3983         estimate D2E/DX2                !
 ! R18   R(15,17)                1.3903         estimate D2E/DX2                !
 ! R19   R(15,18)                1.1019         estimate D2E/DX2                !
 ! R20   R(16,19)                1.3898         estimate D2E/DX2                !
 ! R21   R(16,20)                1.0965         estimate D2E/DX2                !
 ! R22   R(17,21)                1.39           estimate D2E/DX2                !
 ! R23   R(17,22)                1.0948         estimate D2E/DX2                !
 ! R24   R(19,21)                1.3907         estimate D2E/DX2                !
 ! R25   R(19,23)                1.0948         estimate D2E/DX2                !
 ! R26   R(21,24)                1.0946         estimate D2E/DX2                !
 ! R27   R(25,26)                1.3958         estimate D2E/DX2                !
 ! R28   R(25,27)                1.397          estimate D2E/DX2                !
 ! R29   R(26,28)                1.3896         estimate D2E/DX2                !
 ! R30   R(26,29)                1.1006         estimate D2E/DX2                !
 ! R31   R(27,30)                1.3904         estimate D2E/DX2                !
 ! R32   R(27,31)                1.0964         estimate D2E/DX2                !
 ! R33   R(28,32)                1.3907         estimate D2E/DX2                !
 ! R34   R(28,33)                1.0948         estimate D2E/DX2                !
 ! R35   R(30,32)                1.3905         estimate D2E/DX2                !
 ! R36   R(30,34)                1.0949         estimate D2E/DX2                !
 ! R37   R(32,35)                1.0946         estimate D2E/DX2                !
 ! A1    A(2,1,3)              106.4789         estimate D2E/DX2                !
 ! A2    A(2,1,14)             106.3093         estimate D2E/DX2                !
 ! A3    A(2,1,25)             106.997          estimate D2E/DX2                !
 ! A4    A(3,1,14)             113.0656         estimate D2E/DX2                !
 ! A5    A(3,1,25)             110.306          estimate D2E/DX2                !
 ! A6    A(14,1,25)            113.187          estimate D2E/DX2                !
 ! A7    A(1,3,4)              122.6517         estimate D2E/DX2                !
 ! A8    A(1,3,5)              118.3161         estimate D2E/DX2                !
 ! A9    A(4,3,5)              119.031          estimate D2E/DX2                !
 ! A10   A(3,4,6)              120.4173         estimate D2E/DX2                !
 ! A11   A(3,4,7)              119.9041         estimate D2E/DX2                !
 ! A12   A(6,4,7)              119.6761         estimate D2E/DX2                !
 ! A13   A(3,5,8)              120.4551         estimate D2E/DX2                !
 ! A14   A(3,5,9)              119.9273         estimate D2E/DX2                !
 ! A15   A(8,5,9)              119.6172         estimate D2E/DX2                !
 ! A16   A(4,6,10)             120.2398         estimate D2E/DX2                !
 ! A17   A(4,6,11)             119.7297         estimate D2E/DX2                !
 ! A18   A(10,6,11)            120.0305         estimate D2E/DX2                !
 ! A19   A(5,8,10)             120.1503         estimate D2E/DX2                !
 ! A20   A(5,8,12)             119.8582         estimate D2E/DX2                !
 ! A21   A(10,8,12)            119.9916         estimate D2E/DX2                !
 ! A22   A(6,10,8)             119.7063         estimate D2E/DX2                !
 ! A23   A(6,10,13)            120.174          estimate D2E/DX2                !
 ! A24   A(8,10,13)            120.1196         estimate D2E/DX2                !
 ! A25   A(1,14,15)            122.7537         estimate D2E/DX2                !
 ! A26   A(1,14,16)            118.3548         estimate D2E/DX2                !
 ! A27   A(15,14,16)           118.8913         estimate D2E/DX2                !
 ! A28   A(14,15,17)           120.5378         estimate D2E/DX2                !
 ! A29   A(14,15,18)           119.5001         estimate D2E/DX2                !
 ! A30   A(17,15,18)           119.9602         estimate D2E/DX2                !
 ! A31   A(14,16,19)           120.5001         estimate D2E/DX2                !
 ! A32   A(14,16,20)           119.9629         estimate D2E/DX2                !
 ! A33   A(19,16,20)           119.537          estimate D2E/DX2                !
 ! A34   A(15,17,21)           120.1973         estimate D2E/DX2                !
 ! A35   A(15,17,22)           119.7612         estimate D2E/DX2                !
 ! A36   A(21,17,22)           120.0415         estimate D2E/DX2                !
 ! A37   A(16,19,21)           120.184          estimate D2E/DX2                !
 ! A38   A(16,19,23)           119.8306         estimate D2E/DX2                !
 ! A39   A(21,19,23)           119.9854         estimate D2E/DX2                !
 ! A40   A(17,21,19)           119.689          estimate D2E/DX2                !
 ! A41   A(17,21,24)           120.1617         estimate D2E/DX2                !
 ! A42   A(19,21,24)           120.1493         estimate D2E/DX2                !
 ! A43   A(1,25,26)            121.8896         estimate D2E/DX2                !
 ! A44   A(1,25,27)            119.0452         estimate D2E/DX2                !
 ! A45   A(26,25,27)           119.0574         estimate D2E/DX2                !
 ! A46   A(25,26,28)           120.5331         estimate D2E/DX2                !
 ! A47   A(25,26,29)           118.9475         estimate D2E/DX2                !
 ! A48   A(28,26,29)           120.5069         estimate D2E/DX2                !
 ! A49   A(25,27,30)           120.3536         estimate D2E/DX2                !
 ! A50   A(25,27,31)           120.0034         estimate D2E/DX2                !
 ! A51   A(30,27,31)           119.643          estimate D2E/DX2                !
 ! A52   A(26,28,32)           120.0833         estimate D2E/DX2                !
 ! A53   A(26,28,33)           119.8371         estimate D2E/DX2                !
 ! A54   A(32,28,33)           120.0796         estimate D2E/DX2                !
 ! A55   A(27,30,32)           120.2031         estimate D2E/DX2                !
 ! A56   A(27,30,34)           119.8173         estimate D2E/DX2                !
 ! A57   A(32,30,34)           119.9795         estimate D2E/DX2                !
 ! A58   A(28,32,30)           119.7675         estimate D2E/DX2                !
 ! A59   A(28,32,35)           120.1177         estimate D2E/DX2                !
 ! A60   A(30,32,35)           120.1147         estimate D2E/DX2                !
 ! D1    D(2,1,3,4)            150.0328         estimate D2E/DX2                !
 ! D2    D(2,1,3,5)            -30.3695         estimate D2E/DX2                !
 ! D3    D(14,1,3,4)            33.6567         estimate D2E/DX2                !
 ! D4    D(14,1,3,5)          -146.7457         estimate D2E/DX2                !
 ! D5    D(25,1,3,4)           -94.2133         estimate D2E/DX2                !
 ! D6    D(25,1,3,5)            85.3843         estimate D2E/DX2                !
 ! D7    D(2,1,14,15)          161.9206         estimate D2E/DX2                !
 ! D8    D(2,1,14,16)          -18.2252         estimate D2E/DX2                !
 ! D9    D(3,1,14,15)          -81.6027         estimate D2E/DX2                !
 ! D10   D(3,1,14,16)           98.2514         estimate D2E/DX2                !
 ! D11   D(25,1,14,15)          44.7481         estimate D2E/DX2                !
 ! D12   D(25,1,14,16)        -135.3978         estimate D2E/DX2                !
 ! D13   D(2,1,25,26)          173.2337         estimate D2E/DX2                !
 ! D14   D(2,1,25,27)           -5.7371         estimate D2E/DX2                !
 ! D15   D(3,1,25,26)           57.8052         estimate D2E/DX2                !
 ! D16   D(3,1,25,27)         -121.1656         estimate D2E/DX2                !
 ! D17   D(14,1,25,26)         -69.9981         estimate D2E/DX2                !
 ! D18   D(14,1,25,27)         111.0311         estimate D2E/DX2                !
 ! D19   D(1,3,4,6)            179.6077         estimate D2E/DX2                !
 ! D20   D(1,3,4,7)             -0.9671         estimate D2E/DX2                !
 ! D21   D(5,3,4,6)              0.0128         estimate D2E/DX2                !
 ! D22   D(5,3,4,7)            179.438          estimate D2E/DX2                !
 ! D23   D(1,3,5,8)           -179.5278         estimate D2E/DX2                !
 ! D24   D(1,3,5,9)              0.2357         estimate D2E/DX2                !
 ! D25   D(4,3,5,8)              0.0848         estimate D2E/DX2                !
 ! D26   D(4,3,5,9)            179.8482         estimate D2E/DX2                !
 ! D27   D(3,4,6,10)            -0.0993         estimate D2E/DX2                !
 ! D28   D(3,4,6,11)           179.8538         estimate D2E/DX2                !
 ! D29   D(7,4,6,10)          -179.5258         estimate D2E/DX2                !
 ! D30   D(7,4,6,11)             0.4273         estimate D2E/DX2                !
 ! D31   D(3,5,8,10)            -0.0964         estimate D2E/DX2                !
 ! D32   D(3,5,8,12)           179.9113         estimate D2E/DX2                !
 ! D33   D(9,5,8,10)          -179.8606         estimate D2E/DX2                !
 ! D34   D(9,5,8,12)             0.1471         estimate D2E/DX2                !
 ! D35   D(4,6,10,8)             0.0879         estimate D2E/DX2                !
 ! D36   D(4,6,10,13)         -179.963          estimate D2E/DX2                !
 ! D37   D(11,6,10,8)         -179.865          estimate D2E/DX2                !
 ! D38   D(11,6,10,13)           0.0841         estimate D2E/DX2                !
 ! D39   D(5,8,10,6)             0.0096         estimate D2E/DX2                !
 ! D40   D(5,8,10,13)         -179.9396         estimate D2E/DX2                !
 ! D41   D(12,8,10,6)         -179.9982         estimate D2E/DX2                !
 ! D42   D(12,8,10,13)           0.0527         estimate D2E/DX2                !
 ! D43   D(1,14,15,17)        -179.9235         estimate D2E/DX2                !
 ! D44   D(1,14,15,18)          -0.4184         estimate D2E/DX2                !
 ! D45   D(16,14,15,17)          0.2231         estimate D2E/DX2                !
 ! D46   D(16,14,15,18)        179.7282         estimate D2E/DX2                !
 ! D47   D(1,14,16,19)        -179.9558         estimate D2E/DX2                !
 ! D48   D(1,14,16,20)          -0.0276         estimate D2E/DX2                !
 ! D49   D(15,14,16,19)         -0.0959         estimate D2E/DX2                !
 ! D50   D(15,14,16,20)        179.8323         estimate D2E/DX2                !
 ! D51   D(14,15,17,21)         -0.1908         estimate D2E/DX2                !
 ! D52   D(14,15,17,22)        179.7477         estimate D2E/DX2                !
 ! D53   D(18,15,17,21)       -179.6936         estimate D2E/DX2                !
 ! D54   D(18,15,17,22)          0.2449         estimate D2E/DX2                !
 ! D55   D(14,16,19,21)         -0.0645         estimate D2E/DX2                !
 ! D56   D(14,16,19,23)       -179.9979         estimate D2E/DX2                !
 ! D57   D(20,16,19,21)       -179.9929         estimate D2E/DX2                !
 ! D58   D(20,16,19,23)          0.0737         estimate D2E/DX2                !
 ! D59   D(15,17,21,19)          0.0276         estimate D2E/DX2                !
 ! D60   D(15,17,21,24)        179.982          estimate D2E/DX2                !
 ! D61   D(22,17,21,19)       -179.9106         estimate D2E/DX2                !
 ! D62   D(22,17,21,24)          0.0437         estimate D2E/DX2                !
 ! D63   D(16,19,21,17)          0.0992         estimate D2E/DX2                !
 ! D64   D(16,19,21,24)       -179.8551         estimate D2E/DX2                !
 ! D65   D(23,19,21,17)       -179.9675         estimate D2E/DX2                !
 ! D66   D(23,19,21,24)          0.0782         estimate D2E/DX2                !
 ! D67   D(1,25,26,28)        -178.5017         estimate D2E/DX2                !
 ! D68   D(1,25,26,29)           2.778          estimate D2E/DX2                !
 ! D69   D(27,25,26,28)          0.469          estimate D2E/DX2                !
 ! D70   D(27,25,26,29)       -178.2513         estimate D2E/DX2                !
 ! D71   D(1,25,27,30)         178.6969         estimate D2E/DX2                !
 ! D72   D(1,25,27,31)          -1.2502         estimate D2E/DX2                !
 ! D73   D(26,25,27,30)         -0.3034         estimate D2E/DX2                !
 ! D74   D(26,25,27,31)        179.7495         estimate D2E/DX2                !
 ! D75   D(25,26,28,32)         -0.2257         estimate D2E/DX2                !
 ! D76   D(25,26,28,33)        179.8152         estimate D2E/DX2                !
 ! D77   D(29,26,28,32)        178.4745         estimate D2E/DX2                !
 ! D78   D(29,26,28,33)         -1.4846         estimate D2E/DX2                !
 ! D79   D(25,27,30,32)         -0.1054         estimate D2E/DX2                !
 ! D80   D(25,27,30,34)        179.9857         estimate D2E/DX2                !
 ! D81   D(31,27,30,32)        179.842          estimate D2E/DX2                !
 ! D82   D(31,27,30,34)         -0.067          estimate D2E/DX2                !
 ! D83   D(26,28,32,30)         -0.188          estimate D2E/DX2                !
 ! D84   D(26,28,32,35)        179.9106         estimate D2E/DX2                !
 ! D85   D(33,28,32,30)        179.771          estimate D2E/DX2                !
 ! D86   D(33,28,32,35)         -0.1304         estimate D2E/DX2                !
 ! D87   D(27,30,32,28)          0.3528         estimate D2E/DX2                !
 ! D88   D(27,30,32,35)       -179.7458         estimate D2E/DX2                !
 ! D89   D(34,30,32,28)       -179.7384         estimate D2E/DX2                !
 ! D90   D(34,30,32,35)          0.163          estimate D2E/DX2                !
 --------------------------------------------------------------------------------
 Trust Radius=3.00D-01 FncErr=1.00D-07 GrdErr=1.00D-07
 Number of steps in this run= 197 maximum allowed number of steps= 210.
 GradGradGradGradGradGradGradGradGradGradGradGradGradGradGradGradGradGrad

                          Input orientation:                          
 ---------------------------------------------------------------------
 Center     Atomic      Atomic             Coordinates (Angstroms)
 Number     Number       Type             X           Y           Z
 ---------------------------------------------------------------------
      1          6           0        0.155971    0.208629    0.722465
      2          1           0        0.438736    0.479206    1.776118
      3          6           0        0.390616   -1.276559    0.583974
      4          6           0       -0.356490   -2.079192   -0.277572
      5          6           0        1.405524   -1.861983    1.347936
      6          6           0       -0.095195   -3.441976   -0.374469
      7          1           0       -1.162316   -1.636500   -0.876804
      8          6           0        1.666107   -3.222862    1.248086
      9          1           0        2.003595   -1.244286    2.028169
     10          6           0        0.915940   -4.016567    0.386287
     11          1           0       -0.690320   -4.062054   -1.052777
     12          1           0        2.463844   -3.670667    1.849591
     13          1           0        1.121034   -5.088957    0.308741
     14          6           0       -1.292941    0.595739    0.559994
     15          6           0       -1.895999    0.757310   -0.688349
     16          6           0       -2.059758    0.796898    1.711828
     17          6           0       -3.235541    1.116835   -0.784534
     18          1           0       -1.299937    0.605680   -1.602584
     19          6           0       -3.399365    1.153691    1.613969
     20          1           0       -1.604523    0.671980    2.701529
     21          6           0       -3.990425    1.315585    0.365617
     22          1           0       -3.694628    1.244158   -1.770262
     23          1           0       -3.989524    1.308487    2.523001
     24          1           0       -5.044950    1.598924    0.289211
     25          6           0        1.081359    0.972638   -0.192686
     26          6           0        1.093933    0.761365   -1.572352
     27          6           0        1.965467    1.902800    0.359375
     28          6           0        1.979536    1.458479   -2.385280
     29          1           0        0.376823    0.049566   -2.008842
     30          6           0        2.848693    2.602132   -0.455447
     31          1           0        1.965949    2.083992    1.440729
     32          6           0        2.860284    2.379106   -1.827928
     33          1           0        1.981709    1.281633   -3.465661
     34          1           0        3.537662    3.329295   -0.013495
     35          1           0        3.559129    2.927475   -2.467577
 ---------------------------------------------------------------------
                    Distance matrix (angstroms):
                    1          2          3          4          5
     1  C    0.000000
     2  H    1.123989   0.000000
     3  C    1.509974   2.122789   0.000000
     4  C    2.548884   3.375711   1.394506   0.000000
     5  C    2.498005   2.568888   1.398713   2.407104   0.000000
     6  C    3.820113   4.503973   2.417365   1.390987   2.777627
     7  H    2.774895   3.752010   2.162181   1.097456   3.405013
     8  C    3.785752   3.935806   2.419921   2.779661   1.389196
     9  H    2.688780   2.341525   2.165281   3.403456   1.096338
    10  C    4.306140   4.729834   2.796907   2.411060   2.409708
    11  H    4.701747   5.468131   3.406811   2.155024   3.872505
    12  H    4.652486   4.618215   3.410544   3.874520   2.154770
    13  H    5.400642   5.798549   3.891483   3.403753   3.402090
    14  C    1.508508   2.119255   2.518023   2.955285   3.734028
    15  C    2.549908   3.406160   3.314217   3.253393   4.680513
    16  C    2.496868   2.519431   3.402295   3.889823   4.382949
    17  C    3.820764   4.523696   4.555235   4.331343   5.912721
    18  H    2.771853   3.801921   3.343924   3.139154   4.702600
    19  C    3.785279   3.900288   4.618546   4.825821   5.679087
    20  H    2.689001   2.251323   3.501632   4.242826   4.160958
    21  C    4.306424   4.722977   5.095136   5.014348   6.338624
    22  H    4.702459   5.499696   5.346556   4.941249   6.736677
    23  H    4.651531   4.566731   5.443153   5.702500   6.367040
    24  H    5.400945   5.790982   6.156352   5.985936   7.396445
    25  C    1.509157   2.128996   2.477743   3.374652   3.242480
    26  C    2.539975   3.423615   3.049184   3.442229   3.937908
    27  C    2.505260   2.522833   3.555126   4.653326   3.932478
    28  C    3.813869   4.544257   4.338383   4.734402   5.029101
    29  H    2.744835   3.809770   2.912300   2.840186   3.997525
    30  C    3.790394   3.910829   4.708161   5.676234   5.026256
    31  H    2.703500   2.240581   3.809069   5.067384   3.986654
    32  C    4.304508   4.739479   5.027964   5.712063   5.494477
    33  H    4.693087   5.522762   5.047323   5.189050   5.777978
    34  H    4.660046   4.574828   5.610236   6.669774   5.774848
    35  H    5.399072   5.808598   6.084845   6.722716   6.491153
                    6          7          8          9         10
     6  C    0.000000
     7  H    2.156579   0.000000
     8  C    2.404762   3.877071   0.000000
     9  H    3.873942   4.314591   2.153413   0.000000
    10  C    1.389712   3.402832   1.391192   3.400634   0.000000
    11  H    1.094885   2.477309   3.398671   4.968825   2.157092
    12  H    3.398150   4.971931   1.094861   2.476094   2.157988
    13  H    2.158364   4.305655   2.159116   4.303120   1.094577
    14  C    4.314042   2.657883   4.879667   4.050726   5.116903
    15  C    4.579893   2.510803   5.681562   5.156810   5.643735
    16  C    5.116658   3.664402   5.500509   4.558217   5.812166
    17  C    5.550918   3.447844   6.854974   6.398026   6.705031
    18  H    4.398090   2.360734   5.619740   5.245767   5.498262
    19  C    5.999299   4.358155   6.704260   5.925693   6.845483
    20  H    5.353921   4.281249   5.289548   4.140533   5.804787
    21  C    6.193136   4.272777   7.305656   6.726463   7.246012
    22  H    6.071574   3.938154   7.602774   7.286301   7.320059
    23  H    6.791762   5.312695   7.358308   6.532916   7.548862
    24  H    7.095860   5.186753   8.319096   7.796782   8.189956
    25  C    4.572323   3.508517   4.474369   3.270698   5.025409
    26  C    4.529572   3.365145   4.914908   4.220648   5.166873
    27  C    5.775074   4.882398   5.210742   3.562370   6.011750
    28  C    5.688789   4.661075   5.934184   5.175331   6.228077
    29  H    3.883921   2.548191   4.793602   4.540694   4.749814
    30  C    6.723412   5.850789   6.183129   4.655907   6.946310
    31  H    6.170865   5.385078   5.318808   3.379932   6.279425
    32  C    6.688228   5.762902   6.501536   5.360259   7.041865
    33  H    6.015105   5.010247   6.527595   6.046728   6.636588
    34  H    7.692727   6.891604   6.930012   5.238262   7.809925
    35  H    7.635777   6.756661   7.430769   6.327323   7.959316
                   11         12         13         14         15
    11  H    0.000000
    12  H    4.304146   0.000000
    13  H    2.487823   2.487751   0.000000
    14  C    4.965805   5.829126   6.181114   0.000000
    15  C    4.981239   6.712403   6.653985   1.395760   0.000000
    16  C    5.755677   6.359331   6.835889   1.398283   2.406083
    17  C    5.776764   7.895681   7.660735   2.419296   1.390282
    18  H    4.739374   6.661134   6.476354   2.162612   1.101864
    19  C    6.454027   7.596524   7.817180   2.420579   2.778111
    20  H    6.110782   6.011322   6.807532   2.165425   3.403456
    21  C    6.466958   8.289902   8.194414   2.798639   2.410215
    22  H    6.139751   8.670964   8.223211   3.408613   2.154674
    23  H    7.246630   8.178717   8.482219   3.410714   3.872908
    24  H    7.267077   9.305126   9.096565   3.893235   3.402916
    25  C    5.406175   5.257608   6.082429   2.519102   3.026005
    26  C    5.169032   5.764482   6.145365   3.204917   3.117878
    27  C    6.680334   5.790739   7.042748   3.516515   4.161826
    28  C    6.275347   6.669094   7.131879   4.486431   4.288471
    29  H    4.354111   5.751808   5.685901   3.112127   2.722190
    30  C    7.569201   6.693976   7.919700   4.712734   5.096048
    31  H    7.144734   5.790610   7.310710   3.689302   4.605182
    32  C    7.395688   7.090914   7.960045   5.111931   5.152775
    33  H    6.443350   7.280772   7.454616   5.234471   4.798437
    34  H    8.578344   7.322816   8.764182   5.579958   6.049397
    35  H    8.301385   7.960720   8.826972   6.176225   6.134630
                   16         17         18         19         20
    16  C    0.000000
    17  C    2.777885   0.000000
    18  H    3.405762   2.162648   0.000000
    19  C    1.389758   2.404374   3.879965   0.000000
    20  H    1.096518   3.874370   4.315385   2.153204   0.000000
    21  C    2.410144   1.390035   3.408299   1.390663   3.400476
    22  H    3.872698   1.094820   2.484011   3.398292   4.969188
    23  H    2.154930   3.397794   4.974762   1.094800   2.474922
    24  H    3.402713   2.158541   4.311675   2.158973   4.302910
    25  C    3.677590   4.359668   2.791602   4.834633   3.959903
    26  C    4.553335   4.414902   2.399118   5.522345   5.055265
    27  C    4.388005   5.383006   4.024260   5.560270   4.443583
    28  C    5.791363   5.465907   3.477761   6.709655   6.272136
    29  H    4.509858   3.960703   1.812687   5.348220   5.147885
    30  C    5.661170   6.271548   4.744773   6.739340   5.789915
    31  H    4.235141   5.739572   4.702464   5.448125   4.041245
    32  C    6.264189   6.311979   4.528052   7.247862   6.585192
    33  H    6.585956   5.868161   3.833690   7.401012   7.160096
    34  H    6.381291   7.166991   5.774569   7.450116   6.393335
    35  H    7.319745   7.230394   5.454307   8.259901   7.646581
                   21         22         23         24         25
    21  C    0.000000
    22  H    2.157447   0.000000
    23  H    2.157396   4.303860   0.000000
    24  H    1.094597   2.488104   2.487588   0.000000
    25  C    5.113932   5.037114   5.762083   6.177064   0.000000
    26  C    5.469330   4.816904   6.550785   6.469374   1.395805
    27  C    5.984773   6.083242   6.363678   7.017351   1.397004
    28  C    6.574822   5.711420   7.729385   7.517715   2.418726
    29  H    5.129690   4.249786   6.417746   6.089104   2.155657
    30  C    7.007345   6.810864   7.570065   7.991905   2.418215
    31  H    6.101205   6.561853   6.102489   7.121376   2.164637
    32  C    7.271515   6.652691   8.185150   8.220930   2.795844
    33  H    7.095508   5.924237   8.456975   7.973311   3.408589
    34  H    7.801977   7.729168   8.196096   8.760539   3.408719
    35  H    8.223195   7.479090   9.192886   9.132092   3.890484
                   26         27         28         29         30
    26  C    0.000000
    27  C    2.407076   0.000000
    28  C    1.389645   2.780423   0.000000
    29  H    1.100649   3.400988   2.166894   0.000000
    30  C    2.777604   1.390356   2.405750   3.877985   0.000000
    31  H    3.404175   1.096429   3.876829   4.308567   2.154806
    32  C    2.408818   2.410780   1.390652   3.409848   1.390532
    33  H    2.154866   3.875179   1.094761   2.493185   3.399524
    34  H    3.872481   2.155392   3.398982   4.972819   1.094882
    35  H    3.401566   3.403142   2.158665   4.315074   2.158526
                   31         32         33         34         35
    31  H    0.000000
    32  C    3.401624   0.000000
    33  H    4.971589   2.158358   0.000000
    34  H    2.477060   2.157283   4.304807   0.000000
    35  H    4.304015   1.094643   2.488618   2.486853   0.000000
 Stoichiometry    C19H16
 Framework group  C1[X(C19H16)]
 Deg. of freedom    99
 Full point group                 C1      NOp   1
 Largest Abelian subgroup         C1      NOp   1
 Largest concise Abelian subgroup C1      NOp   1
                         Standard orientation:                         
 ---------------------------------------------------------------------
 Center     Atomic      Atomic             Coordinates (Angstroms)
 Number     Number       Type             X           Y           Z
 ---------------------------------------------------------------------
      1          6           0       -0.023394   -0.012317   -0.753624
      2          1           0       -0.000984   -0.006220   -1.877373
      3          6           0        0.494815    1.333980   -0.307570
      4          6           0        0.082442    1.944229    0.876573
      5          6           0        1.432201    1.985158   -1.116070
      6          6           0        0.596533    3.182575    1.246780
      7          1           0       -0.659290    1.450336    1.517131
      8          6           0        1.945830    3.220943   -0.743397
      9          1           0        1.768557    1.517602   -2.048921
     10          6           0        1.528958    3.822990    0.439470
     11          1           0        0.263075    3.652588    2.177730
     12          1           0        2.680234    3.721314   -1.382929
     13          1           0        1.933247    4.797155    0.732131
     14          6           0       -1.459604   -0.252825   -0.359857
     15          6           0       -1.830920   -0.686785    0.913701
     16          6           0       -2.456527   -0.027023   -1.313981
     17          6           0       -3.169377   -0.895439    1.226560
     18          1           0       -1.053214   -0.872146    1.671935
     19          6           0       -3.794238   -0.233542   -0.998852
     20          1           0       -2.184788    0.316745   -2.319134
     21          6           0       -4.154031   -0.669251    0.271837
     22          1           0       -3.446025   -1.239912    2.228276
     23          1           0       -4.565814   -0.053371   -1.754361
     24          1           0       -5.207625   -0.833999    0.518697
     25          6           0        0.908805   -1.108920   -0.299729
     26          6           0        1.223370   -1.298955    1.046825
     27          6           0        1.489997   -1.944378   -1.256727
     28          6           0        2.109508   -2.298249    1.430602
     29          1           0        0.742175   -0.658725    1.801798
     30          6           0        2.373808   -2.946034   -0.871170
     31          1           0        1.250638   -1.811521   -2.318430
     32          6           0        2.688144   -3.122736    0.471792
     33          1           0        2.350467   -2.435287    2.489687
     34          1           0        2.824055   -3.595969   -1.628552
     35          1           0        3.387366   -3.909123    0.773333
 ---------------------------------------------------------------------
 Rotational constants (GHZ):      0.4000313      0.3718626      0.2369132
 Standard basis: 6-311G (5D, 7F)
 There are   295 symmetry adapted basis functions of A   symmetry.
 Integral buffers will be    262144 words long.
 Raffenetti 1 integral format.
 Two-electron integral symmetry is turned on.
   295 basis functions,   574 primitive gaussians,   295 cartesian basis functions
    65 alpha electrons       65 beta electrons
       nuclear repulsion energy      1288.3183782264 Hartrees.
 NAtoms=   35 NActive=   35 NUniq=   35 SFac= 7.50D-01 NAtFMM=   80 NAOKFM=F Big=F
 One-electron integrals computed using PRISM.
 PrsmSu:  requested number of processors reduced to:  10 ShMem   1 Linda.
 NBasis=   295 RedAO= T  NBF=   295
 NBsUse=   295 1.00D-06 NBFU=   295
 Harris functional with IExCor=  205 diagonalized for initial guess.
 ExpMin= 1.03D-01 ExpMax= 4.56D+03 ExpMxC= 6.82D+02 IAcc=1 IRadAn=         1 AccDes= 0.00D+00
 HarFok:  IExCor=  205 AccDes= 0.00D+00 IRadAn=         1 IDoV= 1
 ScaDFX=  1.000000  1.000000  1.000000  1.000000
 FoFCou: FMM=F IPFlag=           0 FMFlag=      100000 FMFlg1=           0
         NFxFlg=           0 DoJE=T BraDBF=F KetDBF=T FulRan=T
         Omega=  0.000000  0.000000  1.000000  0.000000  0.000000 ICntrl=     500 IOpCl=  0
         NMat0=    1 NMatS0=    1 NMatT0=    0 NMatD0=    1 NMtDS0=    0 NMtDT0=    0
         I1Cent=           4 NGrid=           0.
 Petite list used in FoFCou.
 Initial guess orbital symmetries:
       Occupied  (A) (A) (A) (A) (A) (A) (A) (A) (A) (A) (A) (A)
                 (A) (A) (A) (A) (A) (A) (A) (A) (A) (A) (A) (A)
                 (A) (A) (A) (A) (A) (A) (A) (A) (A) (A) (A) (A)
                 (A) (A) (A) (A) (A) (A) (A) (A) (A) (A) (A) (A)
                 (A) (A) (A) (A) (A) (A) (A) (A) (A) (A) (A) (A)
                 (A) (A) (A) (A) (A)
       Virtual   (A) (A) (A) (A) (A) (A) (A) (A) (A) (A) (A) (A)
                 (A) (A) (A) (A) (A) (A) (A) (A) (A) (A) (A) (A)
                 (A) (A) (A) (A) (A) (A) (A) (A) (A) (A) (A) (A)
                 (A) (A) (A) (A) (A) (A) (A) (A) (A) (A) (A) (A)
                 (A) (A) (A) (A) (A) (A) (A) (A) (A) (A) (A) (A)
                 (A) (A) (A) (A) (A) (A) (A) (A) (A) (A) (A) (A)
                 (A) (A) (A) (A) (A) (A) (A) (A) (A) (A) (A) (A)
                 (A) (A) (A) (A) (A) (A) (A) (A) (A) (A) (A) (A)
                 (A) (A) (A) (A) (A) (A) (A) (A) (A) (A) (A) (A)
                 (A) (A) (A) (A) (A) (A) (A) (A) (A) (A) (A) (A)
                 (A) (A) (A) (A) (A) (A) (A) (A) (A) (A) (A) (A)
                 (A) (A) (A) (A) (A) (A) (A) (A) (A) (A) (A) (A)
                 (A) (A) (A) (A) (A) (A) (A) (A) (A) (A) (A) (A)
                 (A) (A) (A) (A) (A) (A) (A) (A) (A) (A) (A) (A)
                 (A) (A) (A) (A) (A) (A) (A) (A) (A) (A) (A) (A)
                 (A) (A) (A) (A) (A) (A) (A) (A) (A) (A) (A) (A)
                 (A) (A) (A) (A) (A) (A) (A) (A) (A) (A) (A) (A)
                 (A) (A) (A) (A) (A) (A) (A) (A) (A) (A) (A) (A)
                 (A) (A) (A) (A) (A) (A) (A) (A) (A) (A) (A) (A)
                 (A) (A)
 The electronic state of the initial guess is 1-A.
 Requested convergence on RMS density matrix=1.00D-08 within 128 cycles.
 Requested convergence on MAX density matrix=1.00D-06.
 Requested convergence on             energy=1.00D-06.
 No special actions if energy rises.
 Integral accuracy reduced to 1.0D-05 until final iterations.
 Initial convergence to 1.0D-05 achieved.  Increase integral accuracy.
 SCF Done:  E(RHF) =  -728.671684249     A.U. after   14 cycles
             Convg  =    0.6169D-08             -V/T =  2.0001

 **********************************************************************

            Population analysis using the SCF density.

 **********************************************************************

 Orbital symmetries:
       Occupied  (A) (A) (A) (A) (A) (A) (A) (A) (A) (A) (A) (A)
                 (A) (A) (A) (A) (A) (A) (A) (A) (A) (A) (A) (A)
                 (A) (A) (A) (A) (A) (A) (A) (A) (A) (A) (A) (A)
                 (A) (A) (A) (A) (A) (A) (A) (A) (A) (A) (A) (A)
                 (A) (A) (A) (A) (A) (A) (A) (A) (A) (A) (A) (A)
                 (A) (A) (A) (A) (A)
       Virtual   (A) (A) (A) (A) (A) (A) (A) (A) (A) (A) (A) (A)
                 (A) (A) (A) (A) (A) (A) (A) (A) (A) (A) (A) (A)
                 (A) (A) (A) (A) (A) (A) (A) (A) (A) (A) (A) (A)
                 (A) (A) (A) (A) (A) (A) (A) (A) (A) (A) (A) (A)
                 (A) (A) (A) (A) (A) (A) (A) (A) (A) (A) (A) (A)
                 (A) (A) (A) (A) (A) (A) (A) (A) (A) (A) (A) (A)
                 (A) (A) (A) (A) (A) (A) (A) (A) (A) (A) (A) (A)
                 (A) (A) (A) (A) (A) (A) (A) (A) (A) (A) (A) (A)
                 (A) (A) (A) (A) (A) (A) (A) (A) (A) (A) (A) (A)
                 (A) (A) (A) (A) (A) (A) (A) (A) (A) (A) (A) (A)
                 (A) (A) (A) (A) (A) (A) (A) (A) (A) (A) (A) (A)
                 (A) (A) (A) (A) (A) (A) (A) (A) (A) (A) (A) (A)
                 (A) (A) (A) (A) (A) (A) (A) (A) (A) (A) (A) (A)
                 (A) (A) (A) (A) (A) (A) (A) (A) (A) (A) (A) (A)
                 (A) (A) (A) (A) (A) (A) (A) (A) (A) (A) (A) (A)
                 (A) (A) (A) (A) (A) (A) (A) (A) (A) (A) (A) (A)
                 (A) (A) (A) (A) (A) (A) (A) (A) (A) (A) (A) (A)
                 (A) (A) (A) (A) (A) (A) (A) (A) (A) (A) (A) (A)
                 (A) (A) (A) (A) (A) (A) (A) (A) (A) (A) (A) (A)
                 (A) (A)
 The electronic state is 1-A.
 Alpha  occ. eigenvalues --  -11.25834 -11.25274 -11.25263 -11.25136 -11.24447
 Alpha  occ. eigenvalues --  -11.24431 -11.24354 -11.24349 -11.24212 -11.24193
 Alpha  occ. eigenvalues --  -11.24128 -11.24116 -11.24111 -11.24052 -11.24026
 Alpha  occ. eigenvalues --  -11.24018 -11.23917 -11.23836 -11.23743  -1.18590
 Alpha  occ. eigenvalues --   -1.15827  -1.15682  -1.09038  -1.02411  -1.02113
 Alpha  occ. eigenvalues --   -1.01888  -1.01498  -1.01393  -0.92964  -0.84542
 Alpha  occ. eigenvalues --   -0.82935  -0.82540  -0.81711  -0.81568  -0.77738
 Alpha  occ. eigenvalues --   -0.70730  -0.70449  -0.69112  -0.66004  -0.63612
 Alpha  occ. eigenvalues --   -0.63498  -0.62373  -0.62039  -0.61906  -0.59570
 Alpha  occ. eigenvalues --   -0.58771  -0.58519  -0.58431  -0.57619  -0.53906
 Alpha  occ. eigenvalues --   -0.51744  -0.51087  -0.50858  -0.49671  -0.49164
 Alpha  occ. eigenvalues --   -0.48682  -0.47796  -0.47472  -0.46766  -0.34690
 Alpha  occ. eigenvalues --   -0.34245  -0.33695  -0.33591  -0.33282  -0.31180
 Alpha virt. eigenvalues --    0.11654   0.12009   0.13596   0.13738   0.14039
 Alpha virt. eigenvalues --    0.14935   0.15138   0.16275   0.16374   0.16876
 Alpha virt. eigenvalues --    0.18803   0.19134   0.19285   0.21288   0.21418
 Alpha virt. eigenvalues --    0.21512   0.23646   0.24240   0.24985   0.27188
 Alpha virt. eigenvalues --    0.28524   0.29509   0.34028   0.34190   0.35885
 Alpha virt. eigenvalues --    0.37433   0.38518   0.39674   0.40942   0.43684
 Alpha virt. eigenvalues --    0.44102   0.44380   0.45040   0.45401   0.45577
 Alpha virt. eigenvalues --    0.45876   0.46411   0.48418   0.49916   0.50389
 Alpha virt. eigenvalues --    0.50791   0.51011   0.51454   0.54989   0.55772
 Alpha virt. eigenvalues --    0.56814   0.57908   0.58954   0.59065   0.59606
 Alpha virt. eigenvalues --    0.59677   0.60660   0.61060   0.61503   0.61697
 Alpha virt. eigenvalues --    0.61855   0.62379   0.62472   0.63284   0.63458
 Alpha virt. eigenvalues --    0.64119   0.64992   0.65156   0.65420   0.66896
 Alpha virt. eigenvalues --    0.67405   0.68207   0.68447   0.70095   0.71374
 Alpha virt. eigenvalues --    0.72341   0.73802   0.74449   0.75073   0.76220
 Alpha virt. eigenvalues --    0.77284   0.78308   0.78646   0.80475   0.81194
 Alpha virt. eigenvalues --    0.81863   0.82191   0.82341   0.82820   0.82904
 Alpha virt. eigenvalues --    0.83522   0.83911   0.84051   0.84773   0.85604
 Alpha virt. eigenvalues --    0.86045   0.86386   0.86917   0.87463   0.88062
 Alpha virt. eigenvalues --    0.89647   0.90563   0.91258   0.92975   0.94435
 Alpha virt. eigenvalues --    0.96095   0.96855   0.97672   0.98112   0.98932
 Alpha virt. eigenvalues --    0.99322   1.00286   1.02785   1.05774   1.06242
 Alpha virt. eigenvalues --    1.06804   1.07138   1.08006   1.08384   1.10481
 Alpha virt. eigenvalues --    1.11086   1.12216   1.12488   1.12964   1.14252
 Alpha virt. eigenvalues --    1.14651   1.15362   1.18578   1.19565   1.21715
 Alpha virt. eigenvalues --    1.25329   1.26731   1.27658   1.28230   1.28886
 Alpha virt. eigenvalues --    1.30329   1.35164   1.39558   1.45200   1.46591
 Alpha virt. eigenvalues --    1.51636   1.52279   1.56482   2.54607   2.55617
 Alpha virt. eigenvalues --    2.56162   2.59179   2.61960   2.62499   2.64458
 Alpha virt. eigenvalues --    2.67005   2.67702   2.68441   2.72319   2.76799
 Alpha virt. eigenvalues --    2.77789   2.83485   2.87965   2.88648   2.94127
 Alpha virt. eigenvalues --    2.94269   2.94415   2.97073   2.97447   2.98033
 Alpha virt. eigenvalues --    3.00352   3.00753   3.04041   3.05731   3.07130
 Alpha virt. eigenvalues --    3.08138   3.08436   3.08989   3.09975   3.14320
 Alpha virt. eigenvalues --    3.14756   3.16347   3.16831   3.17583   3.18791
 Alpha virt. eigenvalues --    3.22652   3.25640   3.25821   3.28296   3.28916
 Alpha virt. eigenvalues --    3.30934   3.33386   3.34269   3.35136   3.42639
 Alpha virt. eigenvalues --    3.43061   3.44435   3.46972   3.49476   3.52224
 Alpha virt. eigenvalues --    3.53443   3.54445   3.59269   3.60639   3.60663
 Alpha virt. eigenvalues --    3.63135   3.63472   3.63791   3.65975   3.66663
 Alpha virt. eigenvalues --    3.68379   3.70298   3.70447   3.71437   3.73499
 Alpha virt. eigenvalues --    3.74171   3.75565   3.80863   3.85846   3.86647
 Alpha virt. eigenvalues --    3.93058  24.24816  24.30682  24.31548  24.50540
 Alpha virt. eigenvalues --   24.50834  24.51119  24.53983  24.54666  24.56090
 Alpha virt. eigenvalues --   24.77289  24.78604  24.79130  24.79610  24.80638
 Alpha virt. eigenvalues --   24.81849  24.83228  25.05543  25.05807  25.06131
          Condensed to atoms (all electrons):
              1          2          3          4          5          6
     1  C    5.828305   0.463447   0.158649  -0.040365  -0.049611   0.004771
     2  H    0.463447   0.512395  -0.059866   0.004922  -0.003198  -0.000249
     3  C    0.158649  -0.059866   5.366571   0.485261   0.473475  -0.064481
     4  C   -0.040365   0.004922   0.485261   5.087383  -0.071841   0.471776
     5  C   -0.049611  -0.003198   0.473475  -0.071841   5.071415  -0.031571
     6  C    0.004771  -0.000249  -0.064481   0.471776  -0.031571   5.050093
     7  H   -0.001569  -0.000064  -0.042789   0.390126   0.004185  -0.029871
     8  C    0.006274   0.001554  -0.065477  -0.027895   0.466304  -0.076940
     9  H    0.001764   0.001087  -0.050620   0.004145   0.399535  -0.000333
    10  C    0.000991   0.000009  -0.018512  -0.093477  -0.086115   0.499274
    11  H   -0.000325   0.000013   0.006177  -0.037592  -0.000424   0.395907
    12  H   -0.000351  -0.000027   0.006709  -0.000523  -0.039636   0.006124
    13  H   -0.000012  -0.000002  -0.001479   0.007825   0.007371  -0.042202
    14  C    0.171440  -0.073682  -0.104423  -0.014197   0.006260   0.000541
    15  C   -0.045877   0.005110  -0.005947  -0.007313  -0.000177   0.000018
    16  C   -0.045092   0.002801  -0.001429   0.001930   0.000455  -0.000085
    17  C    0.003562  -0.000276   0.000878  -0.001491   0.000023  -0.000031
    18  H   -0.000291  -0.000139  -0.000502   0.000332  -0.000030   0.000054
    19  C    0.008272   0.001519  -0.000715   0.000219   0.000003  -0.000003
    20  H   -0.000720   0.002692   0.000478   0.000181   0.000122   0.000009
    21  C    0.001135  -0.000016   0.000024   0.000081  -0.000001   0.000004
    22  H   -0.000294   0.000014  -0.000007   0.000013  -0.000001   0.000001
    23  H   -0.000388  -0.000029   0.000021  -0.000001   0.000000   0.000000
    24  H   -0.000019  -0.000002   0.000001   0.000000   0.000000   0.000000
    25  C    0.185614  -0.074233  -0.154841  -0.014104   0.000664   0.000651
    26  C   -0.054411   0.005539  -0.007594  -0.000112   0.000812  -0.000666
    27  C   -0.026136   0.002106  -0.005751  -0.000313   0.002043   0.000028
    28  C    0.001400  -0.000283   0.000761  -0.000034  -0.000063  -0.000017
    29  H    0.003112   0.000067  -0.001907   0.004817  -0.000266   0.000448
    30  C    0.007682   0.001759  -0.000462   0.000048  -0.000098  -0.000001
    31  H   -0.000488   0.002428   0.000149  -0.000048   0.000252   0.000000
    32  C    0.001272  -0.000012   0.000096  -0.000004  -0.000014   0.000000
    33  H   -0.000319   0.000012   0.000018  -0.000002   0.000006  -0.000001
    34  H   -0.000368  -0.000037   0.000011   0.000000   0.000003   0.000000
    35  H   -0.000013  -0.000001  -0.000002   0.000000   0.000000   0.000000
              7          8          9         10         11         12
     1  C   -0.001569   0.006274   0.001764   0.000991  -0.000325  -0.000351
     2  H   -0.000064   0.001554   0.001087   0.000009   0.000013  -0.000027
     3  C   -0.042789  -0.065477  -0.050620  -0.018512   0.006177   0.006709
     4  C    0.390126  -0.027895   0.004145  -0.093477  -0.037592  -0.000523
     5  C    0.004185   0.466304   0.399535  -0.086115  -0.000424  -0.039636
     6  C   -0.029871  -0.076940  -0.000333   0.499274   0.395907   0.006124
     7  H    0.481796  -0.000180  -0.000249   0.004711  -0.003337   0.000020
     8  C   -0.000180   5.050248  -0.035563   0.489039   0.005999   0.397070
     9  H   -0.000249  -0.035563   0.510060   0.005343   0.000024  -0.004288
    10  C    0.004711   0.489039   0.005343   5.033320  -0.040240  -0.040723
    11  H   -0.003337   0.005999   0.000024  -0.040240   0.516813  -0.000213
    12  H    0.000020   0.397070  -0.004288  -0.040723  -0.000213   0.518581
    13  H   -0.000183  -0.042939  -0.000185   0.399179  -0.004443  -0.004486
    14  C   -0.003168  -0.000756   0.000689   0.000044   0.000036   0.000011
    15  C    0.001186   0.000025  -0.000037  -0.000019   0.000028   0.000000
    16  C   -0.000869  -0.000017   0.000013  -0.000013   0.000007   0.000001
    17  C    0.000951   0.000000   0.000000   0.000000  -0.000001   0.000000
    18  H    0.000163   0.000006   0.000007   0.000001  -0.000017   0.000000
    19  C   -0.000135   0.000001   0.000001   0.000000   0.000001   0.000000
    20  H   -0.000037  -0.000008   0.000004  -0.000004   0.000000   0.000000
    21  C    0.000048   0.000000   0.000000   0.000000  -0.000001   0.000000
    22  H   -0.000004   0.000000   0.000000   0.000000   0.000000   0.000000
    23  H    0.000001   0.000000   0.000000   0.000000   0.000000   0.000000
    24  H    0.000000   0.000000   0.000000   0.000000   0.000000   0.000000
    25  C   -0.001051  -0.000420   0.000539   0.000074   0.000005   0.000012
    26  C    0.000489   0.000193  -0.000052   0.000028   0.000014   0.000003
    27  C   -0.000083  -0.000037   0.001425  -0.000003   0.000000  -0.000001
    28  C    0.000065   0.000002  -0.000017   0.000003   0.000000   0.000000
    29  H    0.001059  -0.000097  -0.000037  -0.000010  -0.000001   0.000001
    30  C    0.000002   0.000006   0.000030   0.000000   0.000000   0.000000
    31  H    0.000000  -0.000006   0.000256   0.000000   0.000000  -0.000001
    32  C    0.000002   0.000000  -0.000011   0.000000   0.000000   0.000000
    33  H   -0.000009   0.000001   0.000000   0.000000   0.000000   0.000000
    34  H    0.000000   0.000000  -0.000003   0.000000   0.000000   0.000000
    35  H    0.000000   0.000000   0.000000   0.000000   0.000000   0.000000
             13         14         15         16         17         18
     1  C   -0.000012   0.171440  -0.045877  -0.045092   0.003562  -0.000291
     2  H   -0.000002  -0.073682   0.005110   0.002801  -0.000276  -0.000139
     3  C   -0.001479  -0.104423  -0.005947  -0.001429   0.000878  -0.000502
     4  C    0.007825  -0.014197  -0.007313   0.001930  -0.001491   0.000332
     5  C    0.007371   0.006260  -0.000177   0.000455   0.000023  -0.000030
     6  C   -0.042202   0.000541   0.000018  -0.000085  -0.000031   0.000054
     7  H   -0.000183  -0.003168   0.001186  -0.000869   0.000951   0.000163
     8  C   -0.042939  -0.000756   0.000025  -0.000017   0.000000   0.000006
     9  H   -0.000185   0.000689  -0.000037   0.000013   0.000000   0.000007
    10  C    0.399179   0.000044  -0.000019  -0.000013   0.000000   0.000001
    11  H   -0.004443   0.000036   0.000028   0.000007  -0.000001  -0.000017
    12  H   -0.004486   0.000011   0.000000   0.000001   0.000000   0.000000
    13  H    0.518503  -0.000001   0.000001   0.000000   0.000000   0.000000
    14  C   -0.000001   5.366396   0.449995   0.495034  -0.064264  -0.053116
    15  C    0.000001   0.449995   5.121600  -0.061497   0.473433   0.386549
    16  C    0.000000   0.495034  -0.061497   5.041112  -0.036192   0.004505
    17  C    0.000000  -0.064264   0.473433  -0.036192   5.056481  -0.025326
    18  H    0.000000  -0.053116   0.386549   0.004505  -0.025326   0.498627
    19  C    0.000000  -0.071570  -0.031230   0.471777  -0.075147  -0.000211
    20  H    0.000000  -0.045657   0.004754   0.394435  -0.000399  -0.000243
    21  C    0.000000  -0.017808  -0.094821  -0.086670   0.495884   0.004796
    22  H    0.000000   0.006025  -0.036761  -0.000393   0.395579  -0.003436
    23  H    0.000000   0.007156  -0.000601  -0.039674   0.006235   0.000020
    24  H    0.000000  -0.001593   0.008123   0.007485  -0.042534  -0.000183
    25  C   -0.000001  -0.112636  -0.004545   0.001923   0.001543  -0.003005
    26  C   -0.000001  -0.006257  -0.017206   0.000223  -0.000013   0.002899
    27  C    0.000000  -0.000344   0.001480   0.000195   0.000042  -0.000259
    28  C    0.000000   0.001782  -0.001729   0.000028  -0.000089   0.001161
    29  H   -0.000001  -0.003199   0.000277  -0.000198   0.000867   0.003437
    30  C    0.000000  -0.000602   0.000124  -0.000009   0.000000  -0.000137
    31  H    0.000000   0.000558   0.000001   0.000135   0.000003  -0.000004
    32  C    0.000000  -0.000036   0.000044  -0.000001   0.000003   0.000078
    33  H    0.000000   0.000008   0.000016   0.000000   0.000001  -0.000105
    34  H    0.000000   0.000020  -0.000001   0.000000   0.000000   0.000000
    35  H    0.000000  -0.000001   0.000001   0.000000   0.000000   0.000000
             19         20         21         22         23         24
     1  C    0.008272  -0.000720   0.001135  -0.000294  -0.000388  -0.000019
     2  H    0.001519   0.002692  -0.000016   0.000014  -0.000029  -0.000002
     3  C   -0.000715   0.000478   0.000024  -0.000007   0.000021   0.000001
     4  C    0.000219   0.000181   0.000081   0.000013  -0.000001   0.000000
     5  C    0.000003   0.000122  -0.000001  -0.000001   0.000000   0.000000
     6  C   -0.000003   0.000009   0.000004   0.000001   0.000000   0.000000
     7  H   -0.000135  -0.000037   0.000048  -0.000004   0.000001   0.000000
     8  C    0.000001  -0.000008   0.000000   0.000000   0.000000   0.000000
     9  H    0.000001   0.000004   0.000000   0.000000   0.000000   0.000000
    10  C    0.000000  -0.000004   0.000000   0.000000   0.000000   0.000000
    11  H    0.000001   0.000000  -0.000001   0.000000   0.000000   0.000000
    12  H    0.000000   0.000000   0.000000   0.000000   0.000000   0.000000
    13  H    0.000000   0.000000   0.000000   0.000000   0.000000   0.000000
    14  C   -0.071570  -0.045657  -0.017808   0.006025   0.007156  -0.001593
    15  C   -0.031230   0.004754  -0.094821  -0.036761  -0.000601   0.008123
    16  C    0.471777   0.394435  -0.086670  -0.000393  -0.039674   0.007485
    17  C   -0.075147  -0.000399   0.495884   0.395579   0.006235  -0.042534
    18  H   -0.000211  -0.000243   0.004796  -0.003436   0.000020  -0.000183
    19  C    5.044449  -0.034675   0.494614   0.005901   0.396671  -0.042950
    20  H   -0.034675   0.507727   0.005350   0.000022  -0.004219  -0.000183
    21  C    0.494614   0.005350   5.030286  -0.039642  -0.041079   0.399166
    22  H    0.005901   0.000022  -0.039642   0.515485  -0.000212  -0.004356
    23  H    0.396671  -0.004219  -0.041079  -0.000212   0.517964  -0.004550
    24  H   -0.042950  -0.000183   0.399166  -0.004356  -0.004550   0.517621
    25  C   -0.000680   0.000365   0.000020   0.000011   0.000014  -0.000002
    26  C    0.000029  -0.000026  -0.000004   0.000031   0.000000   0.000001
    27  C   -0.000004  -0.000022  -0.000011   0.000002   0.000001   0.000000
    28  C   -0.000001   0.000002   0.000001   0.000000   0.000000   0.000000
    29  H    0.000016  -0.000007  -0.000012  -0.000053   0.000000   0.000000
    30  C    0.000001   0.000001   0.000000   0.000000   0.000000   0.000000
    31  H    0.000003  -0.000025  -0.000001   0.000000   0.000000   0.000000
    32  C    0.000000   0.000000   0.000000  -0.000001   0.000000   0.000000
    33  H    0.000000   0.000000   0.000000   0.000001   0.000000   0.000000
    34  H    0.000000   0.000000   0.000000   0.000000   0.000000   0.000000
    35  H    0.000000   0.000000   0.000000   0.000000   0.000000   0.000000
             25         26         27         28         29         30
     1  C    0.185614  -0.054411  -0.026136   0.001400   0.003112   0.007682
     2  H   -0.074233   0.005539   0.002106  -0.000283   0.000067   0.001759
     3  C   -0.154841  -0.007594  -0.005751   0.000761  -0.001907  -0.000462
     4  C   -0.014104  -0.000112  -0.000313  -0.000034   0.004817   0.000048
     5  C    0.000664   0.000812   0.002043  -0.000063  -0.000266  -0.000098
     6  C    0.000651  -0.000666   0.000028  -0.000017   0.000448  -0.000001
     7  H   -0.001051   0.000489  -0.000083   0.000065   0.001059   0.000002
     8  C   -0.000420   0.000193  -0.000037   0.000002  -0.000097   0.000006
     9  H    0.000539  -0.000052   0.001425  -0.000017  -0.000037   0.000030
    10  C    0.000074   0.000028  -0.000003   0.000003  -0.000010   0.000000
    11  H    0.000005   0.000014   0.000000   0.000000  -0.000001   0.000000
    12  H    0.000012   0.000003  -0.000001   0.000000   0.000001   0.000000
    13  H   -0.000001  -0.000001   0.000000   0.000000  -0.000001   0.000000
    14  C   -0.112636  -0.006257  -0.000344   0.001782  -0.003199  -0.000602
    15  C   -0.004545  -0.017206   0.001480  -0.001729   0.000277   0.000124
    16  C    0.001923   0.000223   0.000195   0.000028  -0.000198  -0.000009
    17  C    0.001543  -0.000013   0.000042  -0.000089   0.000867   0.000000
    18  H   -0.003005   0.002899  -0.000259   0.001161   0.003437  -0.000137
    19  C   -0.000680   0.000029  -0.000004  -0.000001   0.000016   0.000001
    20  H    0.000365  -0.000026  -0.000022   0.000002  -0.000007   0.000001
    21  C    0.000020  -0.000004  -0.000011   0.000001  -0.000012   0.000000
    22  H    0.000011   0.000031   0.000002   0.000000  -0.000053   0.000000
    23  H    0.000014   0.000000   0.000001   0.000000   0.000000   0.000000
    24  H   -0.000002   0.000001   0.000000   0.000000   0.000000   0.000000
    25  C    5.375155   0.438825   0.503746  -0.061670  -0.048529  -0.072841
    26  C    0.438825   5.094969  -0.065367   0.479246   0.388523  -0.029625
    27  C    0.503746  -0.065367   5.069815  -0.033502   0.004050   0.459938
    28  C   -0.061670   0.479246  -0.033502   5.036147  -0.027223  -0.076844
    29  H   -0.048529   0.388523   0.004050  -0.027223   0.495494  -0.000169
    30  C   -0.072841  -0.029625   0.459938  -0.076844  -0.000169   5.054805
    31  H   -0.046618   0.004633   0.395688  -0.000237  -0.000260  -0.035020
    32  C   -0.017888  -0.092113  -0.086318   0.494354   0.004560   0.497015
    33  H    0.006069  -0.039046  -0.000449   0.396668  -0.003435   0.006000
    34  H    0.007063  -0.000618  -0.039703   0.006226   0.000021   0.396770
    35  H   -0.001593   0.008020   0.007534  -0.042915  -0.000169  -0.042749
             31         32         33         34         35
     1  C   -0.000488   0.001272  -0.000319  -0.000368  -0.000013
     2  H    0.002428  -0.000012   0.000012  -0.000037  -0.000001
     3  C    0.000149   0.000096   0.000018   0.000011  -0.000002
     4  C   -0.000048  -0.000004  -0.000002   0.000000   0.000000
     5  C    0.000252  -0.000014   0.000006   0.000003   0.000000
     6  C    0.000000   0.000000  -0.000001   0.000000   0.000000
     7  H    0.000000   0.000002  -0.000009   0.000000   0.000000
     8  C   -0.000006   0.000000   0.000001   0.000000   0.000000
     9  H    0.000256  -0.000011   0.000000  -0.000003   0.000000
    10  C    0.000000   0.000000   0.000000   0.000000   0.000000
    11  H    0.000000   0.000000   0.000000   0.000000   0.000000
    12  H   -0.000001   0.000000   0.000000   0.000000   0.000000
    13  H    0.000000   0.000000   0.000000   0.000000   0.000000
    14  C    0.000558  -0.000036   0.000008   0.000020  -0.000001
    15  C    0.000001   0.000044   0.000016  -0.000001   0.000001
    16  C    0.000135  -0.000001   0.000000   0.000000   0.000000
    17  C    0.000003   0.000003   0.000001   0.000000   0.000000
    18  H   -0.000004   0.000078  -0.000105   0.000000   0.000000
    19  C    0.000003   0.000000   0.000000   0.000000   0.000000
    20  H   -0.000025   0.000000   0.000000   0.000000   0.000000
    21  C   -0.000001   0.000000   0.000000   0.000000   0.000000
    22  H    0.000000  -0.000001   0.000001   0.000000   0.000000
    23  H    0.000000   0.000000   0.000000   0.000000   0.000000
    24  H    0.000000   0.000000   0.000000   0.000000   0.000000
    25  C   -0.046618  -0.017888   0.006069   0.007063  -0.001593
    26  C    0.004633  -0.092113  -0.039046  -0.000618   0.008020
    27  C    0.395688  -0.086318  -0.000449  -0.039703   0.007534
    28  C   -0.000237   0.494354   0.396668   0.006226  -0.042915
    29  H   -0.000260   0.004560  -0.003435   0.000021  -0.000169
    30  C   -0.035020   0.497015   0.006000   0.396770  -0.042749
    31  H    0.510879   0.005162   0.000024  -0.004173  -0.000186
    32  C    0.005162   5.030985  -0.039548  -0.040783   0.399611
    33  H    0.000024  -0.039548   0.515385  -0.000211  -0.004454
    34  H   -0.004173  -0.040783  -0.000211   0.518291  -0.004582
    35  H   -0.000186   0.399611  -0.004454  -0.004582   0.517474
 Mulliken atomic charges:
              1
     1  C   -0.581041
     2  H    0.204642
     3  C    0.087525
     4  C   -0.149748
     5  C   -0.149880
     6  C   -0.183249
     7  H    0.198793
     8  C   -0.166389
     9  H    0.166474
    10  C   -0.152898
    11  H    0.161569
    12  H    0.161715
    13  H    0.163055
    14  C    0.067313
    15  C   -0.145007
    16  C   -0.149917
    17  C   -0.189721
    18  H    0.184369
    19  C   -0.166157
    20  H    0.170083
    21  C   -0.151343
    22  H    0.162074
    23  H    0.162672
    24  H    0.163975
    25  C    0.092362
    26  C   -0.111368
    27  C   -0.189789
    28  C   -0.173224
    29  H    0.178824
    30  C   -0.165625
    31  H    0.166895
    32  C   -0.156452
    33  H    0.163369
    34  H    0.162074
    35  H    0.164026
 Sum of Mulliken atomic charges =   0.00000
 Mulliken charges with hydrogens summed into heavy atoms:
              1
     1  C   -0.376399
     3  C    0.087525
     4  C    0.049045
     5  C    0.016594
     6  C   -0.021680
     8  C   -0.004674
    10  C    0.010156
    14  C    0.067313
    15  C    0.039362
    16  C    0.020166
    17  C   -0.027647
    19  C   -0.003485
    21  C    0.012633
    25  C    0.092362
    26  C    0.067456
    27  C   -0.022895
    28  C   -0.009854
    30  C   -0.003552
    32  C    0.007574
 Sum of Mulliken charges with hydrogens summed into heavy atoms =   0.00000
 Electronic spatial extent (au):  <R**2>=           4940.3442
 Charge=              0.0000 electrons
 Dipole moment (field-independent basis, Debye):
    X=              0.0136    Y=             -0.0667    Z=             -0.0430  Tot=              0.0805
 Quadrupole moment (field-independent basis, Debye-Ang):
   XX=           -110.6435   YY=           -114.0697   ZZ=           -102.8078
   XY=             -0.7898   XZ=             -2.2685   YZ=             -0.1598
 Traceless Quadrupole moment (field-independent basis, Debye-Ang):
   XX=             -1.4699   YY=             -4.8960   ZZ=              6.3659
   XY=             -0.7898   XZ=             -2.2685   YZ=             -0.1598
 Octapole moment (field-independent basis, Debye-Ang**2):
  XXX=            -40.2415  YYY=             17.6646  ZZZ=             -0.1694  XYY=             44.9718
  XXY=            -13.7736  XXZ=             -6.5247  XZZ=             -0.7103  YZZ=             -4.7148
  YYZ=             10.3379  XYZ=              0.0077
 Hexadecapole moment (field-independent basis, Debye-Ang**3):
 XXXX=          -3092.2054 YYYY=          -2907.3064 ZZZZ=           -787.8582 XXXY=              6.3136
 XXXZ=             -1.6398 YYYX=             -2.9594 YYYZ=             58.3384 ZZZX=             -6.4035
 ZZZY=             -3.9788 XXYY=           -972.8988 XXZZ=           -631.7795 YYZZ=           -600.9694
 XXYZ=            -49.8744 YYXZ=            -21.4400 ZZXY=            -15.4578
 N-N= 1.288318378226D+03 E-N=-4.272644692858D+03  KE= 7.285913580977D+02
 PrsmSu:  requested number of processors reduced to:  10 ShMem   1 Linda.
 Calling FoFJK, ICntrl=      2127 FMM=F ISym2X=0 I1Cent= 0 IOpClX= 0 NMat=1 NMatS=1 NMatT=0.
 ***** Axes restored to original set *****
 -------------------------------------------------------------------
 Center     Atomic                   Forces (Hartrees/Bohr)
 Number     Number              X              Y              Z
 -------------------------------------------------------------------
      1        6           0.005435616    0.006884220    0.022302706
      2        1          -0.006304715   -0.006156358   -0.026071059
      3        6           0.002256032   -0.013559458    0.005016915
      4        6          -0.008571985    0.003526360   -0.006182146
      5        6           0.004361993    0.002089152    0.004216460
      6        6          -0.005359174   -0.007434217   -0.007923950
      7        1           0.014557554   -0.010936891    0.012278513
      8        6           0.009706049   -0.004741984    0.006837202
      9        1          -0.009929619   -0.009343010   -0.010852515
     10        6           0.002158395   -0.013294814   -0.001319161
     11        1           0.009071919    0.009415455    0.010425351
     12        1          -0.012260600    0.006736146   -0.009050766
     13        1          -0.003262995    0.016355824    0.001314726
     14        6          -0.010524581    0.005762273    0.005989182
     15        6           0.005428941   -0.000040498   -0.012366955
     16        6           0.001724745   -0.000804387    0.006036319
     17        6          -0.004890075    0.000787647   -0.011085674
     18        1          -0.020684187    0.006890103    0.021302074
     19        6          -0.007853143    0.001672017    0.010310134
     20        1          -0.006714352    0.001996445   -0.016307227
     21        6          -0.013014995    0.003450592   -0.000225333
     22        1           0.006963703   -0.001932294    0.015049552
     23        1           0.008966112   -0.002207285   -0.013862653
     24        1           0.016197367   -0.004222776    0.001183910
     25        6           0.010308132    0.009766106    0.000494649
     26        6          -0.006273674   -0.007578770   -0.006461179
     27        6           0.000165796    0.001194108    0.005943878
     28        6          -0.002031516   -0.003130479   -0.011851484
     29        1           0.023680206    0.012089854    0.005667342
     30        6           0.008993152    0.009191872    0.003494293
     31        1          -0.000433878   -0.003296868   -0.017404384
     32        6           0.009239599    0.007651630   -0.006365988
     33        1          -0.000005013    0.002798697    0.016473693
     34        1          -0.010389946   -0.011103606   -0.006846536
     35        1          -0.010710863   -0.008474805    0.009840111
 -------------------------------------------------------------------
 Cartesian Forces:  Max     0.026071059 RMS     0.009561130

 GradGradGradGradGradGradGradGradGradGradGradGradGradGradGradGradGradGrad
 Berny optimization.
 Internal  Forces:  Max     0.029812086 RMS     0.007840032
 Search for a local minimum.
 Step number   1 out of a maximum of  197
 All quantities printed in internal units (Hartrees-Bohrs-Radians)
 Mixed Optimization -- RFO/linear search
 Second derivative matrix not updated -- first step.
     Eigenvalues ---    0.00634   0.00645   0.00653   0.01530   0.01533
     Eigenvalues ---    0.01536   0.02138   0.02140   0.02146   0.02167
     Eigenvalues ---    0.02170   0.02171   0.02181   0.02185   0.02186
     Eigenvalues ---    0.02202   0.02202   0.02202   0.02212   0.02213
     Eigenvalues ---    0.02215   0.02216   0.02216   0.02216   0.02217
     Eigenvalues ---    0.02218   0.02219   0.02220   0.02220   0.02222
     Eigenvalues ---    0.04516   0.06373   0.06675   0.15996   0.15999
     Eigenvalues ---    0.15999   0.16000   0.16000   0.16000   0.16000
     Eigenvalues ---    0.16000   0.16000   0.16000   0.16000   0.16000
     Eigenvalues ---    0.16000   0.16000   0.16000   0.18941   0.19368
     Eigenvalues ---    0.22000   0.22000   0.22000   0.22000   0.22000
     Eigenvalues ---    0.22000   0.23476   0.23476   0.23477   0.24996
     Eigenvalues ---    0.24999   0.25000   0.31163   0.31353   0.31435
     Eigenvalues ---    0.31501   0.33477   0.33610   0.33965   0.34070
     Eigenvalues ---    0.34080   0.34090   0.34254   0.34255   0.34257
     Eigenvalues ---    0.34261   0.34264   0.34268   0.34282   0.34287
     Eigenvalues ---    0.34289   0.42411   0.42428   0.42486   0.42575
     Eigenvalues ---    0.42580   0.42615   0.46342   0.46350   0.46430
     Eigenvalues ---    0.46775   0.46775   0.46826   0.47217   0.47228
     Eigenvalues ---    0.47264   0.47324   0.47329   0.473651000.00000
     Eigenvalues --- 1000.000001000.000001000.000001000.000001000.00000
     Eigenvalues --- 1000.000001000.000001000.000001000.000001000.00000
     Eigenvalues --- 1000.000001000.000001000.000001000.000001000.00000
     Eigenvalues --- 1000.000001000.000001000.000001000.000001000.00000
     Eigenvalues --- 1000.000001000.000001000.000001000.000001000.00000
     Eigenvalues --- 1000.000001000.000001000.000001000.000001000.00000
     Eigenvalues --- 1000.000001000.000001000.000001000.000001000.00000
     Eigenvalues --- 1000.000001000.000001000.000001000.000001000.00000
     Eigenvalues --- 1000.000001000.000001000.000001000.000001000.00000
     Eigenvalues --- 1000.000001000.000001000.000001000.000001000.00000
     Eigenvalues --- 1000.000001000.000001000.000001000.000001000.00000
     Eigenvalues --- 1000.000001000.000001000.000001000.000001000.00000
     Eigenvalues --- 1000.000001000.000001000.000001000.000001000.00000
     Eigenvalues --- 1000.000001000.000001000.000001000.000001000.00000
     Eigenvalues --- 1000.000001000.000001000.000001000.000001000.00000
     Eigenvalues --- 1000.000001000.000001000.000001000.000001000.00000
     Eigenvalues --- 1000.000001000.000001000.000001000.000001000.00000
     Eigenvalues --- 1000.000001000.00000
 RFO step:  Lambda=-4.29305003D-02 EMin= 6.34015399D-03
 Linear search not attempted -- first point.
 Maximum step size (   0.300) exceeded in Quadratic search.
    -- Step size scaled by   0.575
 Iteration  1 RMS(Cart)=  0.12610523 RMS(Int)=  0.00285108
 Iteration  2 RMS(Cart)=  0.00586419 RMS(Int)=  0.00028969
 Iteration  3 RMS(Cart)=  0.00000908 RMS(Int)=  0.00028964
 Iteration  4 RMS(Cart)=  0.00000000 RMS(Int)=  0.00028964
 Variable       Old X    -DE/DX   Delta X   Delta X   Delta X     New X
                                 (Linear)    (Quad)   (Total)
    R1        2.12403  -0.02751   0.00000  -0.04460  -0.04460   2.07943
    R2        2.85344   0.02083   0.00000   0.03359   0.03359   2.88703
    R3        2.85067   0.02570   0.00000   0.04128   0.04128   2.89195
    R4        2.85189   0.02269   0.00000   0.03651   0.03651   2.88840
    R5        2.63524  -0.00250   0.00000  -0.00277  -0.00276   2.63247
    R6        2.64318  -0.00434   0.00000  -0.00500  -0.00499   2.63819
    R7        2.62859  -0.00279   0.00000  -0.00304  -0.00304   2.62554
    R8        2.07389  -0.02181   0.00000  -0.03277  -0.03277   2.04112
    R9        2.62520  -0.00412   0.00000  -0.00465  -0.00465   2.62055
   R10        2.07178  -0.01741   0.00000  -0.02608  -0.02608   2.04569
   R11        2.62617  -0.00628   0.00000  -0.00697  -0.00698   2.61920
   R12        2.06903  -0.01672   0.00000  -0.02494  -0.02494   2.04409
   R13        2.62897  -0.00606   0.00000  -0.00684  -0.00684   2.62213
   R14        2.06899  -0.01666   0.00000  -0.02485  -0.02485   2.04414
   R15        2.06845  -0.01673   0.00000  -0.02493  -0.02493   2.04352
   R16        2.63760   0.00083   0.00000   0.00114   0.00115   2.63875
   R17        2.64237  -0.00354   0.00000  -0.00400  -0.00398   2.63840
   R18        2.62725  -0.00323   0.00000  -0.00348  -0.00349   2.62376
   R19        2.08222  -0.02981   0.00000  -0.04538  -0.04538   2.03684
   R20        2.62626  -0.00364   0.00000  -0.00417  -0.00416   2.62210
   R21        2.07212  -0.01773   0.00000  -0.02658  -0.02658   2.04554
   R22        2.62679  -0.00671   0.00000  -0.00754  -0.00756   2.61923
   R23        2.06891  -0.01669   0.00000  -0.02489  -0.02489   2.04402
   R24        2.62797  -0.00835   0.00000  -0.00951  -0.00952   2.61845
   R25        2.06887  -0.01666   0.00000  -0.02484  -0.02484   2.04404
   R26        2.06849  -0.01678   0.00000  -0.02501  -0.02501   2.04348
   R27        2.63769   0.00075   0.00000   0.00101   0.00103   2.63872
   R28        2.63996  -0.00421   0.00000  -0.00472  -0.00471   2.63525
   R29        2.62605  -0.00459   0.00000  -0.00504  -0.00503   2.62102
   R30        2.07992  -0.02549   0.00000  -0.03867  -0.03867   2.04125
   R31        2.62739  -0.00285   0.00000  -0.00324  -0.00325   2.62414
   R32        2.07195  -0.01771   0.00000  -0.02653  -0.02653   2.04542
   R33        2.62795  -0.00549   0.00000  -0.00621  -0.00622   2.62173
   R34        2.06880  -0.01671   0.00000  -0.02491  -0.02491   2.04389
   R35        2.62772  -0.00837   0.00000  -0.00949  -0.00951   2.61822
   R36        2.06903  -0.01668   0.00000  -0.02487  -0.02487   2.04415
   R37        2.06858  -0.01683   0.00000  -0.02509  -0.02509   2.04349
    A1        1.85841  -0.00029   0.00000  -0.01909  -0.01892   1.83949
    A2        1.85545  -0.00922   0.00000  -0.04549  -0.04455   1.81090
    A3        1.86745  -0.00594   0.00000  -0.03544  -0.03469   1.83276
    A4        1.97337   0.00295   0.00000   0.02528   0.02336   1.99673
    A5        1.92520  -0.00402   0.00000   0.00966   0.00732   1.93252
    A6        1.97549   0.01479   0.00000   0.05390   0.05272   2.02821
    A7        2.14068   0.00955   0.00000   0.01884   0.01884   2.15951
    A8        2.06501  -0.00200   0.00000  -0.00383  -0.00384   2.06117
    A9        2.07748  -0.00756   0.00000  -0.01501  -0.01500   2.06248
   A10        2.10168   0.00315   0.00000   0.00686   0.00685   2.10853
   A11        2.09272   0.00056   0.00000   0.00261   0.00261   2.09533
   A12        2.08874  -0.00371   0.00000  -0.00949  -0.00950   2.07925
   A13        2.10234   0.00530   0.00000   0.01111   0.01112   2.11346
   A14        2.09313  -0.00329   0.00000  -0.00737  -0.00737   2.08576
   A15        2.08771  -0.00201   0.00000  -0.00375  -0.00376   2.08396
   A16        2.09858   0.00131   0.00000   0.00277   0.00276   2.10134
   A17        2.08968  -0.00060   0.00000  -0.00123  -0.00122   2.08845
   A18        2.09493  -0.00071   0.00000  -0.00154  -0.00154   2.09339
   A19        2.09702   0.00009   0.00000  -0.00035  -0.00035   2.09667
   A20        2.09192   0.00001   0.00000   0.00033   0.00033   2.09225
   A21        2.09425  -0.00010   0.00000   0.00002   0.00002   2.09427
   A22        2.08927  -0.00229   0.00000  -0.00538  -0.00539   2.08388
   A23        2.09743   0.00113   0.00000   0.00266   0.00266   2.10010
   A24        2.09648   0.00116   0.00000   0.00272   0.00272   2.09920
   A25        2.14246   0.02509   0.00000   0.04922   0.04920   2.19166
   A26        2.06568  -0.01300   0.00000  -0.02553  -0.02555   2.04014
   A27        2.07504  -0.01209   0.00000  -0.02368  -0.02365   2.05139
   A28        2.10378   0.00439   0.00000   0.00975   0.00975   2.11353
   A29        2.08567   0.00423   0.00000   0.01330   0.01330   2.09897
   A30        2.09370  -0.00861   0.00000  -0.02308  -0.02308   2.07062
   A31        2.10312   0.00829   0.00000   0.01757   0.01760   2.12072
   A32        2.09375  -0.00487   0.00000  -0.01084  -0.01086   2.08289
   A33        2.08631  -0.00342   0.00000  -0.00673  -0.00674   2.07957
   A34        2.09784   0.00242   0.00000   0.00496   0.00494   2.10277
   A35        2.09023  -0.00117   0.00000  -0.00236  -0.00235   2.08788
   A36        2.09512  -0.00126   0.00000  -0.00261  -0.00259   2.09253
   A37        2.09761   0.00002   0.00000  -0.00102  -0.00102   2.09658
   A38        2.09144   0.00005   0.00000   0.00068   0.00069   2.09213
   A39        2.09414  -0.00007   0.00000   0.00033   0.00033   2.09447
   A40        2.08897  -0.00303   0.00000  -0.00757  -0.00760   2.08136
   A41        2.09722   0.00153   0.00000   0.00382   0.00384   2.10105
   A42        2.09700   0.00150   0.00000   0.00375   0.00376   2.10076
   A43        2.12737   0.01655   0.00000   0.03239   0.03230   2.15968
   A44        2.07773  -0.00637   0.00000  -0.01261  -0.01268   2.06505
   A45        2.07794  -0.01021   0.00000  -0.02007  -0.02007   2.05787
   A46        2.10370   0.00377   0.00000   0.00840   0.00834   2.11204
   A47        2.07603   0.00415   0.00000   0.01307   0.01295   2.08898
   A48        2.10324  -0.00786   0.00000  -0.02096  -0.02108   2.08216
   A49        2.10057   0.00696   0.00000   0.01486   0.01486   2.11542
   A50        2.09445  -0.00407   0.00000  -0.00909  -0.00910   2.08535
   A51        2.08816  -0.00289   0.00000  -0.00576  -0.00577   2.08239
   A52        2.09585   0.00212   0.00000   0.00426   0.00426   2.10011
   A53        2.09155  -0.00097   0.00000  -0.00187  -0.00188   2.08967
   A54        2.09578  -0.00115   0.00000  -0.00239  -0.00240   2.09339
   A55        2.09794  -0.00010   0.00000  -0.00102  -0.00104   2.09690
   A56        2.09121   0.00019   0.00000   0.00091   0.00092   2.09213
   A57        2.09404  -0.00009   0.00000   0.00010   0.00011   2.09415
[...]
 11506,0.00027855,-0.00011014,-0.00005314,-0.00003343,0.00002563,-0.000
 00239,-0.00035549,-0.00019765,0.00000900,0.00003039,0.00012566,0.00025
 159,-0.00000930,0.00021868,0.00000062,-0.00000113,0.00000606,-0.000001
 55,-0.00001631,-0.00000684,-0.00000119,0.00001118,0.00000885,0.0002806
 8,-0.00084152,-0.00055750,-0.00031430,-0.00026173,-0.00003510,0.000451
 13,-0.00034254,-0.00023618,0.00050129,-0.00007548,-0.00032437,-0.00008
 689,0.00031584,-0.00010734,-0.00032175,0.00027316,-0.00023657,-0.00001
 355,-0.00003578,-0.00000529,-0.00005834,-0.00011965,0.00043061,-0.0000
 0016,-0.00002543,-0.00000700,0.00001652,0.00003532,0.00001509,0.000011
 95,0.00000504,-0.00000558,-0.00345115,0.07217161,0.07293459,0.04620227
 ,0.00947681,-0.07914444,0.08772435,0.01391339,-0.21741042,-0.04275235,
 -0.09617404,0.00511238,0.00015784,0.00052286,-0.00113407,-0.20326399,0
 .12506772,0.62366928,-0.00251259,0.00077859,-0.00137186,0.00026326,-0.
 00036641,-0.00074134,0.00020811,0.00009557,-0.00019819,0.00000523,0.00
 003483,-0.00003888,0.00009191,0.00012623,0.00011261,-0.00004451,0.0000
 0380,0.00000828,-0.00000536,-0.00000807,-0.00002207,-0.00003523,-0.000
 02388,-0.00000955,-0.00001908,0.00000115,-0.00003340,0.00001037,0.0000
 2876,0.00000193,-0.00000318,0.00000567,0.00000629,-0.00000839,0.000019
 10,-0.00000381,-0.00000250,0.00000301,-0.00000408,-0.00017754,-0.00020
 731,0.00013949,0.00002864,0.00008897,0.00000210,-0.00018565,0.00012203
 ,0.00013590,-0.00008826,0.00007437,-0.00002912,0.00007280,-0.00005653,
 -0.00005010,-0.00001408,-0.00003664,0.00007924,0.00000010,-0.00001217,
 -0.00001360,0.00001283,-0.00000774,-0.00005217,-0.00000099,-0.00000869
 ,0.00000784,0.00000530,-0.00000226,-0.00001553,0.00001628,-0.00000574,
 -0.00000228,0.00822781,-0.00529860,-0.00891137,0.00469772,-0.00444244,
 0.00217129,-0.08858948,0.03070253,0.09202813,-0.00083649,-0.00033229,-
 0.00048280,0.00011406,-0.00021285,-0.00051408,-0.00121277,0.01049101,0
 .01953447,0.08035243,0.00197405,0.00060313,-0.00116527,-0.00010449,-0.
 00037727,0.00139309,0.00022092,-0.00000167,0.00038934,-0.00007603,0.00
 018826,0.00007354,-0.00009038,-0.00000638,-0.00003799,0.00005002,0.000
 04675,0.00001395,0.00001812,-0.00000647,-0.00000911,0.00000926,0.00001
 302,0.00001521,0.00005066,-0.00002817,-0.00000582,-0.00000533,0.000022
 14,0.00000132,0.00001007,0.00002430,-0.00000138,-0.00000358,0.00000701
 ,-0.00000732,0.00000363,0.00001175,0.00000059,-0.00021226,0.00020073,0
 .00002123,0.00007233,0.00001389,-0.00019410,-0.00002434,-0.00003889,0.
 00000320,0.00000136,-0.00003322,0.00001586,0.00002199,-0.00001130,0.00
 007375,-0.00005404,0.00002653,0.00004519,-0.00002771,-0.00004166,0.000
 03516,0.00003929,-0.00004258,0.00002196,0.00002733,-0.00000944,0.00002
 080,0.00001476,0.00000225,-0.00000849,0.00001723,0.00000036,0.00000968
 ,0.01175942,-0.00728381,-0.03018726,-0.00466226,-0.00469885,-0.0023934
 5,0.03061213,-0.11468034,-0.10372997,-0.00038305,-0.00082202,0.0007607
 9,0.00064815,-0.00046025,-0.00143397,-0.00853471,0.01233711,0.01958118
 ,-0.02869263,0.11500777,-0.00151273,0.00176386,-0.00024424,-0.00019550
 ,-0.00024837,0.00049495,0.00022945,0.00004259,0.00021581,-0.00003516,0
 .00011934,0.00003554,-0.00002577,0.00000716,0.00004680,0.00002197,0.00
 003225,0.00003286,0.00000377,-0.00000617,-0.00003352,-0.00003241,0.000
 01000,-0.00001808,0.00000697,-0.00000845,-0.00002464,0.00000331,-0.000
 00589,0.00000171,-0.00000050,0.00000691,-0.00000636,0.00000406,0.00000
 538,-0.00000458,0.00000196,-0.00000100,-0.00000453,-0.00011635,-0.0002
 1384,0.00049490,0.00006998,0.00020389,-0.00012687,-0.00030207,0.000136
 77,0.00013620,-0.00016777,0.00010789,0.00004070,0.00007086,-0.00013525
 ,-0.00006525,0.00004547,-0.00004256,0.00011965,0.00000466,-0.00002396,
 -0.00003042,-0.00000452,0.00002931,-0.00009406,-0.00000396,-0.00002083
 ,-0.00000529,-0.00000941,-0.00000406,-0.00001136,0.00000298,-0.0000130
 9,-0.00000418,0.00600588,-0.00005366,-0.00467286,0.00178667,-0.0026688
 6,0.00296739,0.09110017,-0.10417750,-0.28591053,-0.00056630,0.00066764
 ,0.00050345,0.00019590,-0.00007859,-0.00040376,0.00493570,-0.01249537,
 -0.01231505,-0.10447468,0.11404514,0.29897840,-0.00071952,0.00082868,-
 0.00021635,-0.00005194,-0.00010564,-0.00010711,-0.00004986,0.00009484,
 0.00009846,0.00005718,0.00000541,0.00008386,-0.00007053,-0.00005379,-0
 .00003062,0.00002326,-0.00000241,0.00001457,-0.00000759,0.00000399,0.0
 0000389,-0.00000448,0.00003604,-0.00002496,-0.00003393,0.00004140,-0.0
 0000982,-0.00000441,-0.00005452,-0.00003289,-0.00000776,-0.00001833,-0
 .00000184,0.00000827,-0.00003102,0.00002315,-0.00000314,-0.00001510,0.
 00000261,0.00011891,-0.00057132,0.00027480,-0.00003817,0.00005776,0.00
 012904,-0.00020722,0.00005127,-0.00009142,-0.00000772,0.00001852,-0.00
 006324,0.00001191,-0.00000034,-0.00002365,0.00001190,0.00002393,0.0000
 4538,0.00001990,-0.00001506,-0.00000886,-0.00003549,0.00000794,-0.0000
 0230,-0.00002405,0.00000410,-0.00000916,-0.00002752,0.00001054,0.00000
 539,-0.00000433,0.00000445,-0.00000756,-0.00435673,0.00442537,-0.00082
 690,-0.00136135,-0.02858183,-0.00368635,-0.00669736,0.00137134,0.02948
 822,-0.12918811,-0.09853388,-0.00208058,0.00340350,-0.00410081,0.00588
 971,-0.13412809,0.02179106,0.10313774,0.00354956,-0.00509445,0.0053874
 9,0.41891172,0.00170580,-0.00016951,-0.00114713,0.00030028,0.00007465,
 0.00084260,-0.00047137,0.00022332,-0.00031902,0.00002861,0.00034244,0.
 00021630,-0.00008106,-0.00040561,0.00017723,0.00020353,-0.00025885,0.0
 0006671,0.00002946,0.00002377,0.00000618,0.00003527,0.00039670,0.00013
 031,0.00000348,-0.00001251,-0.00007127,-0.00026144,-0.00009037,-0.0002
 3263,-0.00000627,-0.00002144,-0.00001472,0.00001449,-0.00001409,0.0000
 2245,-0.00000103,-0.00002251,0.00000175,0.00047696,0.00081512,0.000042
 80,0.00007665,0.00021136,0.00006421,-0.00034627,0.00028085,0.00012043,
 -0.00035677,0.00000397,0.00024070,-0.00000221,-0.00030387,0.00031696,0
 .00019588,-0.00018312,0.00018064,0.00001414,0.00000400,-0.00000418,0.0
 0001459,0.00008923,-0.00029316,-0.00003595,0.00002606,-0.00000275,-0.0
 0002355,-0.00003330,-0.00001367,-0.00001532,0.00000170,0.00000910,0.00
 382113,-0.06575610,-0.05395154,-0.06117836,-0.03409148,0.07004796,0.03
 333180,0.08354168,-0.00043001,-0.05578979,-0.32814440,-0.10022058,-0.0
 0407206,0.00108057,0.00093648,-0.02026777,-0.18011995,-0.04351754,-0.0
 0537776,-0.00051653,0.00159230,0.20619212,0.69139537,0.00125600,-0.000
 71658,-0.00131472,0.00055488,0.00047254,0.00063748,-0.00017161,0.00003
 322,-0.00048769,-0.00005171,0.00038074,0.00007822,-0.00006640,-0.00024
 137,0.00021217,0.00015076,-0.00023663,0.00003553,0.00001166,0.00000873
 ,-0.00000879,0.00001012,0.00030630,0.00014907,0.00003227,-0.00003520,-
 0.00007697,-0.00021956,0.00001460,-0.00015615,0.00000785,0.00001378,-0
 .00000642,0.00000340,0.00001807,-0.00000565,-0.00000060,0.00000092,-0.
 00000665,0.00008740,0.00128999,-0.00006732,0.00037461,0.00017643,-0.00
 015205,-0.00009923,0.00020606,0.00033359,-0.00035547,0.00003241,0.0002
 1405,0.00007777,-0.00015403,0.00003590,0.00020372,-0.00021643,0.000140
 11,-0.00001731,0.00001281,0.00001026,0.00012814,0.00005609,-0.00030444
 ,0.00005924,0.00001523,0.00003907,0.00002121,-0.00004390,-0.00001874,0
 .00000694,-0.00000925,0.00000601,-0.00239018,-0.05497194,-0.04918219,-
 0.02981001,0.01330020,0.07161788,0.05527277,0.05694017,-0.04058830,0.0
 3195505,-0.02896884,-0.16005371,0.00619638,0.00126180,-0.00026127,0.06
 897599,-0.11502063,-0.29383627,0.00498317,0.00098440,0.00133972,-0.248
 42752,0.06479037,0.64851844,-0.00016634,0.00051271,0.00063449,-0.00022
 335,-0.00015026,0.00018199,0.00000700,0.00024377,-0.00004339,0.0000290
 0,-0.00009672,-0.00002992,0.00003410,0.00000428,-0.00001203,-0.0000152
 0,0.00002415,-0.00001851,-0.00001710,0.00000843,0.00001258,-0.00001528
 ,-0.00002423,-0.00000913,-0.00001467,-0.00000038,-0.00001929,0.0000287
 8,-0.00002314,0.00000890,-0.00001418,-0.00001977,0.00000086,0.00000188
 ,-0.00000135,-0.00000282,0.00000001,-0.00000779,0.00000247,0.00013815,
 -0.00008870,0.00013461,-0.00010305,-0.00003051,0.00003191,-0.00010321,
 0.00004577,-0.00002993,0.00000685,-0.00000862,0.00000021,0.00004101,0.
 00001376,0.00003864,-0.00000028,-0.00000394,0.00000595,0.00000967,0.00
 000936,-0.00001900,-0.00002143,0.00000851,-0.00000525,-0.00002560,0.00
 001307,-0.00000844,-0.00001150,0.00000115,0.00000042,-0.00000572,0.000
 00505,0.00000019,0.00340449,-0.00518651,0.00470122,-0.00119883,0.01045
 879,0.01961447,-0.00081370,-0.00036168,-0.00053134,-0.08900655,0.03119
 882,0.09273748,-0.00276152,0.00147609,-0.00260123,0.00534128,-0.004664
 68,0.00237513,-0.00078544,0.00044524,-0.00044107,0.00859605,-0.0059640
 8,-0.00974432,0.08034444,-0.00007145,0.00050733,0.00065966,-0.00008433
 ,-0.00006245,0.00015773,0.00004679,0.00009261,-0.00004738,-0.00000056,
 0.00001853,-0.00003479,0.00001001,-0.00002423,-0.00000405,0.00000771,-
 0.00002308,-0.00001115,-0.00000834,0.00000272,0.00000783,0.00001534,0.
 00000546,0.00000058,-0.00000457,0.,0.00001179,0.00000277,-0.00002695,-
 0.00001320,-0.00000436,-0.00000313,0.00000633,-0.00000151,-0.00000493,
 0.00000588,-0.00000371,-0.00000058,0.00000493,-0.00001395,-0.00005108,
 0.00004685,0.00001512,0.00000759,-0.00002290,-0.00002628,-0.00000783,0
 .00000902,-0.00000727,0.00001171,-0.00001075,-0.00001881,0.00000381,-0
 .00001844,-0.00000536,0.00000767,0.00000526,0.00000029,-0.00000412,-0.
 00000465,-0.00000120,-0.00000041,0.00000206,0.00000567,-0.00000288,0.0
 0000107,-0.00000124,0.00000172,0.00000108,0.00000121,-0.00000205,-0.00
 000169,-0.00515839,-0.00055640,0.00129104,-0.00822894,0.01224305,0.019
 24435,-0.00040849,-0.00095155,0.00074840,0.03108825,-0.11604738,-0.105
 60213,0.00220055,0.00045077,0.00059462,-0.00487758,-0.00439377,-0.0023
 9250,0.00043081,-0.00011339,0.00017356,0.01290162,-0.00607165,-0.03094
 664,-0.02988997,0.11517931,-0.00019476,-0.00081714,-0.00048994,0.00015
 646,0.00009004,-0.00019902,0.00007821,-0.00018752,-0.00000033,-0.00003
 919,0.00002217,-0.00001507,-0.00000873,0.00008344,0.00000264,-0.000027
 52,0.00002148,0.00001067,-0.00000041,-0.00001574,-0.00001319,-0.000007
 78,-0.00003601,0.00001877,0.00002577,-0.00002167,-0.00000100,0.0000017
 0,0.00006350,0.00003910,0.00001452,0.00002147,-0.00000122,-0.00000962,
 0.00002346,-0.00002513,0.00000600,0.00002165,-0.00000837,-0.00004490,0
 .00019665,-0.00012896,0.00006139,-0.00001383,0.00004110,0.00010095,-0.
 00001563,0.00004318,-0.00001514,0.00001509,-0.00001976,-0.00002689,-0.
 00000659,-0.00004375,0.00001739,-0.00001661,-0.00000636,-0.00001404,0.
 00000055,0.00000921,0.00002551,-0.00000137,-0.00001380,0.00001210,-0.0
 0001220,0.00000995,0.00001782,-0.00000515,-0.00001108,0.00001583,-0.00
 000414,-0.00000196,0.00523432,0.00161505,0.00114180,0.00463525,-0.0122
 7570,-0.01204597,-0.00048517,0.00086573,0.00053852,0.09265382,-0.10539
 696,-0.28867174,-0.00218528,0.00150744,-0.00012599,0.00213094,-0.00281
 256,0.00313015,-0.00044583,0.00016627,-0.00038772,0.00522745,0.0006174
 0,-0.00269039,-0.10444598,0.11582167,0.30051658,-0.00007274,-0.0007642
 1,-0.00051274,0.00006022,0.00003414,-0.00003902,-0.00034428,-0.0000500
 0,0.00015916,0.00002834,-0.00002805,0.00001313,0.00002744,-0.00006463,
 0.00003184,0.00003826,-0.00003563,-0.00000882,-0.00001186,0.00000100,0
 .00000788,0.00000220,0.00005898,-0.00000715,-0.00000252,0.00000578,-0.
 00000666,-0.00003991,-0.00003428,-0.00002985,-0.00000273,-0.00001256,-
 0.00000728,0.00000505,-0.00000275,0.00000424,-0.00000075,-0.00000733,0
 .00000059,0.00005538,-0.00013246,0.00007475,-0.00004724,0.00003783,-0.
 00000409,-0.00006415,0.00001079,-0.00001956,0.00000079,0.00001904,0.00
 002011,0.00001481,-0.00004643,0.00000366,-0.00000135,0.00001770,0.0000
 0929,0.00000544,-0.00000861,-0.00001356,-0.00003547,0.00002076,0.00000
 327,-0.00002184,-0.00000658,-0.00001819,-0.00001137,-0.00000213,0.0000
 0144,-0.00001086,-0.00000620,-0.00000149,0.00351535,-0.00390529,0.0061
 1242,-0.00086174,0.00053160,0.00032430,0.00004058,-0.02132030,-0.00778
 715,0.00487522,-0.00135067,0.00533640,-0.00078268,0.00030590,-0.000545
 89,-0.07999741,-0.08278898,-0.01383453,-0.00279980,0.00225872,-0.00220
 163,0.00852128,0.01234923,0.00476148,0.00010065,0.00057381,0.00015117,
 0.07044603,0.00011960,-0.00063876,-0.00058832,-0.00001523,-0.00000380,
 0.00006232,-0.00019670,0.00009112,0.00020309,0.00004508,-0.00009134,0.
 00002576,-0.00003348,-0.00006409,-0.00003089,0.00001100,0.00002216,-0.
 00000642,0.00000608,0.00000720,-0.00000046,-0.00001457,0.00000239,-0.0
 0002033,-0.00000991,0.00001603,-0.00000689,0.00001221,-0.00002632,0.00
 000679,-0.00000559,-0.00001547,-0.00000846,0.00001534,-0.00001847,0.00
 000412,0.00000183,-0.00001529,-0.00000048,0.00012822,-0.00012466,0.000
 07944,-0.00004216,0.00003462,-0.00003771,-0.00008435,0.00005188,-0.000
 02157,0.00000833,-0.00000738,0.00002190,0.00003322,-0.00001983,0.00003
 395,-0.00001231,0.00001195,0.00001448,0.00001131,-0.00001146,-0.000006
 22,-0.00002580,0.00001108,0.00001252,-0.00001394,-0.00000013,-0.000015
 10,-0.00002111,-0.00000413,0.00000932,-0.00001823,0.00000066,0.0000012
 3,-0.00441021,0.00131625,0.00120505,0.00040700,0.00071942,0.00062412,-
 0.00258485,-0.01177503,-0.00966462,-0.00106369,0.00207743,-0.00353223,
 0.00036664,-0.00026680,0.00018042,-0.08285483,-0.32288911,-0.08101947,
 0.00163608,0.00033241,0.00169101,-0.00626660,-0.00673113,0.00075785,-0
 .00018955,-0.00056822,-0.00005032,0.09292309,0.33827404,0.00006428,0.0
 0092329,0.00040746,-0.00005848,-0.00003775,-0.00002962,0.00012077,-0.0
 0002515,-0.00018167,-0.00001921,0.00005706,0.00002566,0.00000661,0.000
 01990,0.00003539,-0.00000013,-0.00001756,0.00002209,0.00000910,0.00000
 029,-0.00000890,-0.00000674,0.00002334,0.00001569,0.00000261,-0.000003
 15,-0.00001730,-0.00002160,0.00001668,-0.00001323,0.00000299,0.0000054
 5,-0.00000265,-0.00000239,0.00000820,-0.00000172,0.00000125,0.00000131
 ,-0.00000364,-0.00009908,-0.00002351,0.00001989,-0.00000273,-0.0000037
 9,-0.00000047,0.00002715,-0.00003463,-0.00003163,0.00002107,0.00000221
 ,0.00001518,0.00001146,-0.00001420,-0.00000965,-0.00000708,0.00000703,
 -0.00001435,-0.00000044,0.00000677,0.00000007,-0.00000561,-0.00000286,
 0.00001292,-0.00000513,-0.00000362,-0.00000624,0.00000373,0.00000454,0
 .00000036,-0.00000209,-0.00000113,0.00000097,0.00600205,0.00083067,-0.
 00023761,0.00033735,0.00058003,-0.00105901,0.00743070,0.02204001,0.010
 94591,0.00551677,-0.00307969,-0.00323169,-0.00052596,0.00019702,-0.000
 21301,-0.01395542,-0.08122827,-0.09110419,-0.00264749,0.00062679,-0.00
 017589,-0.01033434,-0.03075404,-0.00187655,-0.00047574,-0.00140194,-0.
 00037813,0.01058099,0.08956900,0.08716966,-0.00074307,0.00029161,-0.00
 036243,0.00001077,-0.00005480,-0.00012854,-0.00004969,0.00000411,0.000
 01828,0.00002058,-0.00000775,0.00004189,-0.00003057,-0.00001464,0.0000
 3075,0.00000662,0.00001801,0.00000617,0.00000499,0.00000437,-0.0000088
 4,-0.00002086,0.00001287,-0.00000553,-0.00000215,0.00000204,-0.0000183
 3,0.00000483,-0.00001232,-0.00000448,-0.00000694,-0.00000943,-0.000004
 08,0.00000762,-0.00000193,-0.00000059,0.00000174,-0.00000958,-0.000001
 47,-0.00001324,-0.00011015,0.00014361,-0.00004570,0.00001996,-0.000004
 62,-0.00006704,0.00003001,-0.00003048,0.00002408,-0.00000883,0.0000270
 2,0.00004093,-0.00002877,0.00003010,-0.00001055,0.00000944,0.00000464,
 0.00000618,0.00000037,-0.00000825,-0.00001979,0.00000455,0.00000908,-0
 .00001961,0.00000265,-0.00001367,-0.00001119,0.00000089,0.00000394,-0.
 00001198,0.00000038,0.00000182,-0.00014475,0.00069021,-0.00078726,0.00
 595158,-0.00384486,0.00206657,0.00558691,-0.00098221,0.00445064,-0.000
 43094,-0.00218671,0.00775748,-0.00029104,-0.00010373,0.00026604,-0.001
 50020,-0.00857258,0.00417760,-0.00033506,-0.00028941,0.00021257,-0.166
 20414,-0.10454237,0.11622309,-0.00278041,0.00151637,-0.00261536,-0.002
 62835,0.00213808,-0.00196922,0.16370045,0.00042345,-0.00005490,0.00015
 703,-0.00003845,0.00000953,0.00013784,-0.00002764,0.00004305,0.0000309
 8,0.00000990,-0.00003305,0.00005508,-0.00004089,-0.00000255,-0.0000176
 6,-0.00000315,0.00003819,0.00001636,0.00002243,0.00000564,-0.00001020,
 -0.00001424,0.00000064,-0.00001419,-0.00000196,0.00001060,-0.00000595,
 0.00001553,-0.00000273,0.00000119,-0.00000374,-0.00000706,-0.00000718,
 0.00000897,-0.00001065,0.00000865,0.00000120,-0.00001336,0.00000061,0.
 00005724,0.00000519,-0.00002568,-0.00001079,0.00002201,-0.00003848,-0.
 00000910,0.00000599,-0.00000791,0.00000510,-0.00001036,0.00002288,0.00
 001841,-0.00002175,0.00002098,-0.00000580,0.00000347,-0.00000232,0.000
 00367,-0.00000266,-0.00000023,-0.00000828,-0.00000040,0.00000458,-0.00
 000194,0.00000396,-0.00000425,-0.00000635,-0.00000112,0.00000535,-0.00
 000887,0.00000189,0.00000221,0.00060918,-0.00068961,-0.00080274,-0.003
 50063,-0.00390507,-0.00436404,-0.00127491,0.00074199,-0.00427267,-0.02
 116668,-0.01067495,0.02300835,-0.00088946,-0.00072687,0.00098835,0.010
 11774,0.01224239,-0.01131956,0.00044953,0.00033485,-0.00043752,-0.1044
 2530,-0.15556435,0.09048875,0.00224297,0.00038380,0.00053607,0.0014187
 2,0.00030279,0.00171172,0.11603412,0.15756547,-0.00046909,0.00022749,-
 0.00016208,0.00001730,-0.00007005,-0.00001430,0.00006263,-0.00006044,-
 0.00000269,-0.00001648,0.00005355,0.00001039,-0.00001901,0.00003197,0.
 00001224,-0.00000270,0.00000686,-0.00000016,-0.00000467,-0.00000566,-0
 .00000504,0.00000460,-0.00000695,0.00000785,0.00001306,-0.00001437,0.0
 0000403,0.00000305,0.00001141,0.00000144,0.00000197,0.00000684,0.00000
 428,-0.00000611,0.00000962,-0.00000619,0.00000008,0.00000858,0.0000004
 2,-0.00007457,0.00003114,0.00005618,0.00002425,0.00000993,0.00002014,-
 0.00000565,0.00000772,0.00002010,-0.00001582,0.00001005,-0.00001190,-0
 .00000835,-0.00001120,-0.00002012,0.00000466,-0.00000471,0.00001361,-0
 .00000713,-0.00000541,0.00000119,0.00000808,-0.00000200,-0.00001216,0.
 00000324,-0.00000295,0.00000671,0.00000653,0.00000002,-0.00000736,0.00
 001048,-0.00000242,-0.00000111,-0.00067345,-0.00079389,-0.00050645,0.0
 0227540,-0.00378322,0.00219912,0.00421391,-0.00482873,-0.00240814,-0.0
 0727575,-0.00860204,0.01063631,-0.00033638,-0.00028152,0.00025783,0.01
 935154,0.02027604,-0.01133394,0.00085147,0.00087569,-0.00086886,0.1161
 7374,0.09054938,-0.17227324,-0.00204415,0.00171849,-0.00022282,-0.0025
 5853,0.00050716,-0.00007410,-0.12950814,-0.09586641,0.17467882||-0.000
 01988,-0.00000361,0.00000334,0.00000727,-0.00000097,-0.00000247,-0.000
 02223,-0.00000262,-0.00002722,0.00001553,0.00004603,0.00001576,0.00001
 636,-0.00002603,0.00001397,0.00002008,-0.00003974,0.00001522,-0.000007
 10,0.00000117,0.00000006,0.00000601,0.00003492,0.00001948,-0.00000231,
 0.00000398,-0.00000043,-0.00003049,-0.00000363,-0.00003374,-0.00000191
 ,0.00000256,-0.00000178,-0.00000111,-0.00000464,-0.00000204,0.00000430
 ,-0.00000139,0.00000249,0.00001720,0.00000284,-0.00004817,0.00004771,-
 0.00002657,0.00003677,-0.00004177,0.00000518,0.00002145,-0.00005309,0.
 00000892,0.00002593,0.00000307,0.00000382,-0.00000659,0.00003922,-0.00
 001445,0.00002292,0.00000541,-0.00000149,-0.00000132,0.00000188,0.0000
 1163,-0.00005225,0.00000363,-0.00000067,-0.00000332,-0.00000280,0.0000
 0090,-0.00000168,-0.00000188,-0.00000030,0.00000351,-0.00000212,0.0000
 0382,-0.00000740,-0.00000855,-0.00000371,0.00002038,0.00000458,0.00000
 018,0.00000109,0.00001227,0.00001267,-0.00000156,0.00000009,-0.0000026
 3,-0.00000355,-0.00000625,-0.00000089,0.00000179,-0.00000135,0.0000000
 6,0.00000093,-0.00000203,-0.00000483,-0.00001158,-0.00000303,-0.000001
 39,-0.00000207,0.00000171,-0.00000020,0.00000132,0.00000156,0.00000108
 ,0.00000078|||@


 IT IS A CAPITAL MISTAKE TO THEORIZE BEFORE ONE HAS
 DATA.  INSENSIBLY ONE BEGINS TO TWIST FACTS TO SUIT
 THEORIES RATHER THAN THEORIES TO SUIT FACTS.

                                         -- SHERLOCK HOLMES
 Job cpu time:  0 days  0 hours  6 minutes 26.0 seconds.
 File lengths (MBytes):  RWF=    350 Int=      0 D2E=      0 Chk=      7 Scr=      1
 Normal termination of Gaussian 09 at Mon Sep 06 19:30:23 2021.
