 Entering Link 1 = b:\programy\g09w\l1.exe PID=     17628.
  
 Copyright (c) 1988,1990,1992,1993,1995,1998,2003,2009, Gaussian, Inc.
                  All Rights Reserved.
  
 This is part of the Gaussian(R) 09 program.  It is based on
 the Gaussian(R) 03 system (copyright 2003, Gaussian, Inc.),
 the Gaussian(R) 98 system (copyright 1998, Gaussian, Inc.),
 the Gaussian(R) 94 system (copyright 1995, Gaussian, Inc.),
 the Gaussian 92(TM) system (copyright 1992, Gaussian, Inc.),
 the Gaussian 90(TM) system (copyright 1990, Gaussian, Inc.),
 the Gaussian 88(TM) system (copyright 1988, Gaussian, Inc.),
 the Gaussian 86(TM) system (copyright 1986, Carnegie Mellon
 University), and the Gaussian 82(TM) system (copyright 1983,
 Carnegie Mellon University). Gaussian is a federally registered
 trademark of Gaussian, Inc.
  
 This software contains proprietary and confidential information,
 including trade secrets, belonging to Gaussian, Inc.
  
 This software is provided under written license and may be
 used, copied, transmitted, or stored only in accord with that
 written license.
  
 The following legend is applicable only to US Government
 contracts under FAR:
  
                    RESTRICTED RIGHTS LEGEND
  
 Use, reproduction and disclosure by the US Government is
 subject to restrictions as set forth in subparagraphs (a)
 and (c) of the Commercial Computer Software - Restricted
 Rights clause in FAR 52.227-19.
  
 Gaussian, Inc.
 340 Quinnipiac St., Bldg. 40, Wallingford CT 06492
  
  
 ---------------------------------------------------------------
 Warning -- This program may not be used in any manner that
 competes with the business of Gaussian, Inc. or will provide
 assistance to any competitor of Gaussian, Inc.  The licensee
 of this program is prohibited from giving any competitor of
 Gaussian, Inc. access to this program.  By using this program,
 the user acknowledges that Gaussian, Inc. is engaged in the
 business of creating and licensing software in the field of
 computational chemistry and represents and warrants to the
 licensee that it is not a competitor of Gaussian, Inc. and that
 it will not use this program in any manner prohibited above.
 ---------------------------------------------------------------
  

 Cite this work as:
 Gaussian 09, Revision A.02,
 M. J. Frisch, G. W. Trucks, H. B. Schlegel, G. E. Scuseria, 
 M. A. Robb, J. R. Cheeseman, G. Scalmani, V. Barone, B. Mennucci, 
 G. A. Petersson, H. Nakatsuji, M. Caricato, X. Li, H. P. Hratchian, 
 A. F. Izmaylov, J. Bloino, G. Zheng, J. L. Sonnenberg, M. Hada, 
 M. Ehara, K. Toyota, R. Fukuda, J. Hasegawa, M. Ishida, T. Nakajima, 
 Y. Honda, O. Kitao, H. Nakai, T. Vreven, J. A. Montgomery, Jr., 
 J. E. Peralta, F. Ogliaro, M. Bearpark, J. J. Heyd, E. Brothers, 
 K. N. Kudin, V. N. Staroverov, R. Kobayashi, J. Normand, 
 K. Raghavachari, A. Rendell, J. C. Burant, S. S. Iyengar, J. Tomasi, 
 M. Cossi, N. Rega, J. M. Millam, M. Klene, J. E. Knox, J. B. Cross, 
 V. Bakken, C. Adamo, J. Jaramillo, R. Gomperts, R. E. Stratmann, 
 O. Yazyev, A. J. Austin, R. Cammi, C. Pomelli, J. W. Ochterski, 
 R. L. Martin, K. Morokuma, V. G. Zakrzewski, G. A. Voth, 
 P. Salvador, J. J. Dannenberg, S. Dapprich, A. D. Daniels, 
 O. Farkas, J. B. Foresman, J. V. Ortiz, J. Cioslowski, 
 and D. J. Fox, Gaussian, Inc., Wallingford CT, 2009.
 
 ******************************************
 Gaussian 09:  IA32W-G09RevA.02 11-Jun-2009
                06-Sep-2021 
 ******************************************
 %nprocshared=12
 Will use up to   12 processors via shared memory.
 ----------------------------------------------
 # opt freq=noraman hf/6-311g geom=connectivity
 ----------------------------------------------
 1/18=20,19=15,38=1,57=2/1,3;
 2/9=110,12=2,17=6,18=5,40=1/2;
 3/5=4,6=6,11=9,16=1,25=1,30=1,71=1/1,2,3;
 4//1;
 5/5=2,38=5/2;
 6/7=2,8=2,9=2,10=2,28=1/1;
 7//1,2,3,16;
 1/18=20,19=15/3(2);
 2/9=110/2;
 99//99;
 2/9=110/2;
 3/5=4,6=6,11=9,16=1,25=1,30=1,71=1/1,2,3;
 4/5=5,16=3/1;
 5/5=2,38=5/2;
 7//1,2,3,16;
 1/18=20,19=15/3(-5);
 2/9=110/2;
 6/7=2,8=2,9=2,10=2,19=2,28=1/1;
 99/9=1/99;
 -----
 M0001
 -----
 Symbolic Z-matrix:
 Charge =  0 Multiplicity = 1
 C                     0.28092  -0.0798   -0.73996 
 H                     0.67666  -0.19278  -1.7845 
 C                    -1.22177   0.00584  -0.84554 
 C                    -1.99163   0.68324   0.10121 
 C                    -1.85853  -0.61536  -1.92334 
 C                    -3.37489   0.74047  -0.02842 
 H                    -1.49661   1.18032   0.94591 
 C                    -3.2415   -0.55873  -2.04879 
 H                    -1.26688  -1.15299  -2.67335 
 C                    -4.00236   0.1196   -1.10232 
 H                    -3.96916   1.2776    0.71789 
 H                    -3.73218  -1.04935  -2.89564 
 H                    -5.09136   0.16516  -1.20368 
 C                     0.72063  -1.29936   0.03192 
 C                     1.88633  -1.96249  -0.36118 
 C                    -0.00036  -1.78092   1.12561 
 C                     2.32113  -3.08699   0.33022 
 H                     2.46397  -1.59445  -1.21706 
 C                     0.43592  -2.90751   1.81399 
 H                    -0.92187  -1.26961   1.43393 
 C                     1.59695  -3.56202   1.41863 
 H                     3.23601  -3.59974   0.01591 
 H                    -0.13887  -3.27893   2.66858 
 H                     1.93961  -4.4489    1.96108 
 C                     0.8779    1.18666  -0.17769 
 C                     1.23827   2.21087  -1.05766 
 C                     1.07705   1.36502   1.1921 
 C                     1.78713   3.39203  -0.57277 
 H                     1.08579   2.08572  -2.13603 
 C                     1.62864   2.54689   1.67413 
 H                     0.80407   0.5608    1.88813 
 C                     1.98382   3.56242   0.79366 
 H                     2.06551   4.18959  -1.26937 
 H                     1.78382   2.67515   2.75038 
 H                     2.41786   4.49256   1.17402 
 

 GradGradGradGradGradGradGradGradGradGradGradGradGradGradGradGradGradGrad
 Berny optimization.
 Initialization pass.
                           ----------------------------
                           !    Initial Parameters    !
                           ! (Angstroms and Degrees)  !
 --------------------------                            --------------------------
 ! Name  Definition              Value          Derivative Info.                !
 --------------------------------------------------------------------------------
 ! R1    R(1,2)                  1.1227         estimate D2E/DX2                !
 ! R2    R(1,3)                  1.5088         estimate D2E/DX2                !
 ! R3    R(1,14)                 1.5088         estimate D2E/DX2                !
 ! R4    R(1,25)                 1.5088         estimate D2E/DX2                !
 ! R5    R(3,4)                  1.3957         estimate D2E/DX2                !
 ! R6    R(3,5)                  1.3975         estimate D2E/DX2                !
 ! R7    R(4,6)                  1.3905         estimate D2E/DX2                !
 ! R8    R(4,7)                  1.098          estimate D2E/DX2                !
 ! R9    R(5,8)                  1.3898         estimate D2E/DX2                !
 ! R10   R(5,9)                  1.0962         estimate D2E/DX2                !
 ! R11   R(6,10)                 1.3901         estimate D2E/DX2                !
 ! R12   R(6,11)                 1.0948         estimate D2E/DX2                !
 ! R13   R(8,10)                 1.391          estimate D2E/DX2                !
 ! R14   R(8,12)                 1.0948         estimate D2E/DX2                !
 ! R15   R(10,13)                1.0947         estimate D2E/DX2                !
 ! R16   R(14,15)                1.3975         estimate D2E/DX2                !
 ! R17   R(14,16)                1.3957         estimate D2E/DX2                !
 ! R18   R(15,17)                1.3898         estimate D2E/DX2                !
 ! R19   R(15,18)                1.0962         estimate D2E/DX2                !
 ! R20   R(16,19)                1.3905         estimate D2E/DX2                !
 ! R21   R(16,20)                1.098          estimate D2E/DX2                !
 ! R22   R(17,21)                1.3909         estimate D2E/DX2                !
 ! R23   R(17,22)                1.0949         estimate D2E/DX2                !
 ! R24   R(19,21)                1.3902         estimate D2E/DX2                !
 ! R25   R(19,23)                1.0948         estimate D2E/DX2                !
 ! R26   R(21,24)                1.0946         estimate D2E/DX2                !
 ! R27   R(25,26)                1.3976         estimate D2E/DX2                !
 ! R28   R(25,27)                1.3956         estimate D2E/DX2                !
 ! R29   R(26,28)                1.3898         estimate D2E/DX2                !
 ! R30   R(26,29)                1.0963         estimate D2E/DX2                !
 ! R31   R(27,30)                1.3905         estimate D2E/DX2                !
 ! R32   R(27,31)                1.0981         estimate D2E/DX2                !
 ! R33   R(28,32)                1.391          estimate D2E/DX2                !
 ! R34   R(28,33)                1.0949         estimate D2E/DX2                !
 ! R35   R(30,32)                1.3902         estimate D2E/DX2                !
 ! R36   R(30,34)                1.0949         estimate D2E/DX2                !
 ! R37   R(32,35)                1.0946         estimate D2E/DX2                !
 ! A1    A(2,1,3)              106.958          estimate D2E/DX2                !
 ! A2    A(2,1,14)             106.9714         estimate D2E/DX2                !
 ! A3    A(2,1,25)             106.9613         estimate D2E/DX2                !
 ! A4    A(3,1,14)             111.8341         estimate D2E/DX2                !
 ! A5    A(3,1,25)             111.8698         estimate D2E/DX2                !
 ! A6    A(14,1,25)            111.8709         estimate D2E/DX2                !
 ! A7    A(1,3,4)              121.9679         estimate D2E/DX2                !
 ! A8    A(1,3,5)              118.8508         estimate D2E/DX2                !
 ! A9    A(4,3,5)              119.1811         estimate D2E/DX2                !
 ! A10   A(3,4,6)              120.3627         estimate D2E/DX2                !
 ! A11   A(3,4,7)              119.5309         estimate D2E/DX2                !
 ! A12   A(6,4,7)              120.1036         estimate D2E/DX2                !
 ! A13   A(3,5,8)              120.3253         estimate D2E/DX2                !
 ! A14   A(3,5,9)              119.9842         estimate D2E/DX2                !
 ! A15   A(8,5,9)              119.6903         estimate D2E/DX2                !
 ! A16   A(4,6,10)             120.1765         estimate D2E/DX2                !
 ! A17   A(4,6,11)             119.7768         estimate D2E/DX2                !
 ! A18   A(10,6,11)            120.0467         estimate D2E/DX2                !
 ! A19   A(5,8,10)             120.1824         estimate D2E/DX2                !
 ! A20   A(5,8,12)             119.8375         estimate D2E/DX2                !
 ! A21   A(10,8,12)            119.98           estimate D2E/DX2                !
 ! A22   A(6,10,8)             119.7718         estimate D2E/DX2                !
 ! A23   A(6,10,13)            120.1315         estimate D2E/DX2                !
 ! A24   A(8,10,13)            120.0967         estimate D2E/DX2                !
 ! A25   A(1,14,15)            118.8635         estimate D2E/DX2                !
 ! A26   A(1,14,16)            121.9541         estimate D2E/DX2                !
 ! A27   A(15,14,16)           119.1823         estimate D2E/DX2                !
 ! A28   A(14,15,17)           120.327          estimate D2E/DX2                !
 ! A29   A(14,15,18)           119.989          estimate D2E/DX2                !
 ! A30   A(17,15,18)           119.6838         estimate D2E/DX2                !
 ! A31   A(14,16,19)           120.3598         estimate D2E/DX2                !
 ! A32   A(14,16,20)           119.5322         estimate D2E/DX2                !
 ! A33   A(19,16,20)           120.1052         estimate D2E/DX2                !
 ! A34   A(15,17,21)           120.1796         estimate D2E/DX2                !
 ! A35   A(15,17,22)           119.8363         estimate D2E/DX2                !
 ! A36   A(21,17,22)           119.9841         estimate D2E/DX2                !
 ! A37   A(16,19,21)           120.1783         estimate D2E/DX2                !
 ! A38   A(16,19,23)           119.7739         estimate D2E/DX2                !
 ! A39   A(21,19,23)           120.0478         estimate D2E/DX2                !
 ! A40   A(17,21,19)           119.773          estimate D2E/DX2                !
 ! A41   A(17,21,24)           120.098          estimate D2E/DX2                !
 ! A42   A(19,21,24)           120.129          estimate D2E/DX2                !
 ! A43   A(1,25,26)            118.8499         estimate D2E/DX2                !
 ! A44   A(1,25,27)            121.9715         estimate D2E/DX2                !
 ! A45   A(26,25,27)           119.1785         estimate D2E/DX2                !
 ! A46   A(25,26,28)           120.3303         estimate D2E/DX2                !
 ! A47   A(25,26,29)           119.9896         estimate D2E/DX2                !
 ! A48   A(28,26,29)           119.6798         estimate D2E/DX2                !
 ! A49   A(25,27,30)           120.3633         estimate D2E/DX2                !
 ! A50   A(25,27,31)           119.542          estimate D2E/DX2                !
 ! A51   A(30,27,31)           120.092          estimate D2E/DX2                !
 ! A52   A(26,28,32)           120.1779         estimate D2E/DX2                !
 ! A53   A(26,28,33)           119.8354         estimate D2E/DX2                !
 ! A54   A(32,28,33)           119.9867         estimate D2E/DX2                !
 ! A55   A(27,30,32)           120.1776         estimate D2E/DX2                !
 ! A56   A(27,30,34)           119.7718         estimate D2E/DX2                !
 ! A57   A(32,30,34)           120.0505         estimate D2E/DX2                !
 ! A58   A(28,32,30)           119.7722         estimate D2E/DX2                !
 ! A59   A(28,32,35)           120.0993         estimate D2E/DX2                !
 ! A60   A(30,32,35)           120.1285         estimate D2E/DX2                !
 ! D1    D(2,1,3,4)           -152.5333         estimate D2E/DX2                !
 ! D2    D(2,1,3,5)             27.6075         estimate D2E/DX2                !
 ! D3    D(14,1,3,4)            90.6641         estimate D2E/DX2                !
 ! D4    D(14,1,3,5)           -89.1951         estimate D2E/DX2                !
 ! D5    D(25,1,3,4)           -35.7235         estimate D2E/DX2                !
 ! D6    D(25,1,3,5)           144.4174         estimate D2E/DX2                !
 ! D7    D(2,1,14,15)           27.2944         estimate D2E/DX2                !
 ! D8    D(2,1,14,16)         -152.8297         estimate D2E/DX2                !
 ! D9    D(3,1,14,15)          144.089          estimate D2E/DX2                !
 ! D10   D(3,1,14,16)          -36.0351         estimate D2E/DX2                !
 ! D11   D(25,1,14,15)         -89.5241         estimate D2E/DX2                !
 ! D12   D(25,1,14,16)          90.3518         estimate D2E/DX2                !
 ! D13   D(2,1,25,26)           27.4132         estimate D2E/DX2                !
 ! D14   D(2,1,25,27)         -152.733          estimate D2E/DX2                !
 ! D15   D(3,1,25,26)          -89.3947         estimate D2E/DX2                !
 ! D16   D(3,1,25,27)           90.4591         estimate D2E/DX2                !
 ! D17   D(14,1,25,26)         144.2378         estimate D2E/DX2                !
 ! D18   D(14,1,25,27)         -35.9084         estimate D2E/DX2                !
 ! D19   D(1,3,4,6)           -179.9575         estimate D2E/DX2                !
 ! D20   D(1,3,4,7)              0.6376         estimate D2E/DX2                !
 ! D21   D(5,3,4,6)             -0.0988         estimate D2E/DX2                !
 ! D22   D(5,3,4,7)           -179.5037         estimate D2E/DX2                !
 ! D23   D(1,3,5,8)            179.8319         estimate D2E/DX2                !
 ! D24   D(1,3,5,9)              0.0054         estimate D2E/DX2                !
 ! D25   D(4,3,5,8)             -0.0313         estimate D2E/DX2                !
 ! D26   D(4,3,5,9)           -179.8578         estimate D2E/DX2                !
 ! D27   D(3,4,6,10)             0.1485         estimate D2E/DX2                !
 ! D28   D(3,4,6,11)          -179.776          estimate D2E/DX2                !
 ! D29   D(7,4,6,10)           179.55           estimate D2E/DX2                !
 ! D30   D(7,4,6,11)            -0.3745         estimate D2E/DX2                !
 ! D31   D(3,5,8,10)             0.1123         estimate D2E/DX2                !
 ! D32   D(3,5,8,12)          -179.92           estimate D2E/DX2                !
 ! D33   D(9,5,8,10)           179.9393         estimate D2E/DX2                !
 ! D34   D(9,5,8,12)            -0.093          estimate D2E/DX2                !
 ! D35   D(4,6,10,8)            -0.067          estimate D2E/DX2                !
 ! D36   D(4,6,10,13)         -179.9974         estimate D2E/DX2                !
 ! D37   D(11,6,10,8)          179.8573         estimate D2E/DX2                !
 ! D38   D(11,6,10,13)          -0.0731         estimate D2E/DX2                !
 ! D39   D(5,8,10,6)            -0.063          estimate D2E/DX2                !
 ! D40   D(5,8,10,13)          179.8674         estimate D2E/DX2                !
 ! D41   D(12,8,10,6)          179.9693         estimate D2E/DX2                !
 ! D42   D(12,8,10,13)          -0.1003         estimate D2E/DX2                !
 ! D43   D(1,14,15,17)         179.8409         estimate D2E/DX2                !
 ! D44   D(1,14,15,18)           0.005          estimate D2E/DX2                !
 ! D45   D(16,14,15,17)         -0.0385         estimate D2E/DX2                !
 ! D46   D(16,14,15,18)       -179.8744         estimate D2E/DX2                !
 ! D47   D(1,14,16,19)        -179.9452         estimate D2E/DX2                !
 ! D48   D(1,14,16,20)           0.6642         estimate D2E/DX2                !
 ! D49   D(15,14,16,19)         -0.0697         estimate D2E/DX2                !
 ! D50   D(15,14,16,20)       -179.4602         estimate D2E/DX2                !
 ! D51   D(14,15,17,21)          0.0931         estimate D2E/DX2                !
 ! D52   D(14,15,17,22)       -179.9424         estimate D2E/DX2                !
 ! D53   D(18,15,17,21)        179.9295         estimate D2E/DX2                !
 ! D54   D(18,15,17,22)         -0.106          estimate D2E/DX2                !
 ! D55   D(14,16,19,21)          0.1238         estimate D2E/DX2                !
 ! D56   D(14,16,19,23)       -179.7995         estimate D2E/DX2                !
 ! D57   D(20,16,19,21)        179.5109         estimate D2E/DX2                !
 ! D58   D(20,16,19,23)         -0.4124         estimate D2E/DX2                !
 ! D59   D(15,17,21,19)         -0.0392         estimate D2E/DX2                !
 ! D60   D(15,17,21,24)        179.8863         estimate D2E/DX2                !
 ! D61   D(22,17,21,19)        179.9964         estimate D2E/DX2                !
 ! D62   D(22,17,21,24)         -0.0782         estimate D2E/DX2                !
 ! D63   D(16,19,21,17)         -0.0689         estimate D2E/DX2                !
 ! D64   D(16,19,21,24)       -179.9944         estimate D2E/DX2                !
 ! D65   D(23,19,21,17)        179.8542         estimate D2E/DX2                !
 ! D66   D(23,19,21,24)         -0.0713         estimate D2E/DX2                !
 ! D67   D(1,25,26,28)         179.8123         estimate D2E/DX2                !
 ! D68   D(1,25,26,29)          -0.0178         estimate D2E/DX2                !
 ! D69   D(27,25,26,28)         -0.0457         estimate D2E/DX2                !
 ! D70   D(27,25,26,29)       -179.8758         estimate D2E/DX2                !
 ! D71   D(1,25,27,30)        -179.9248         estimate D2E/DX2                !
 ! D72   D(1,25,27,31)           0.6702         estimate D2E/DX2                !
 ! D73   D(26,25,27,30)         -0.0714         estimate D2E/DX2                !
 ! D74   D(26,25,27,31)       -179.4765         estimate D2E/DX2                !
 ! D75   D(25,26,28,32)          0.1003         estimate D2E/DX2                !
 ! D76   D(25,26,28,33)       -179.9314         estimate D2E/DX2                !
 ! D77   D(29,26,28,32)        179.931          estimate D2E/DX2                !
 ! D78   D(29,26,28,33)         -0.1007         estimate D2E/DX2                !
 ! D79   D(25,27,30,32)          0.1344         estimate D2E/DX2                !
 ! D80   D(25,27,30,34)       -179.79           estimate D2E/DX2                !
 ! D81   D(31,27,30,32)        179.5362         estimate D2E/DX2                !
 ! D82   D(31,27,30,34)         -0.3883         estimate D2E/DX2                !
 ! D83   D(26,28,32,30)         -0.0375         estimate D2E/DX2                !
 ! D84   D(26,28,32,35)        179.8914         estimate D2E/DX2                !
 ! D85   D(33,28,32,30)        179.9942         estimate D2E/DX2                !
 ! D86   D(33,28,32,35)         -0.0769         estimate D2E/DX2                !
 ! D87   D(27,30,32,28)         -0.0795         estimate D2E/DX2                !
 ! D88   D(27,30,32,35)        179.9916         estimate D2E/DX2                !
 ! D89   D(34,30,32,28)        179.8448         estimate D2E/DX2                !
 ! D90   D(34,30,32,35)         -0.0841         estimate D2E/DX2                !
 --------------------------------------------------------------------------------
 Trust Radius=3.00D-01 FncErr=1.00D-07 GrdErr=1.00D-07
 Number of steps in this run= 197 maximum allowed number of steps= 210.
 GradGradGradGradGradGradGradGradGradGradGradGradGradGradGradGradGradGrad

                          Input orientation:                          
 ---------------------------------------------------------------------
 Center     Atomic      Atomic             Coordinates (Angstroms)
 Number     Number       Type             X           Y           Z
 ---------------------------------------------------------------------
      1          6           0        0.280916   -0.079795   -0.739957
      2          1           0        0.676662   -0.192783   -1.784498
      3          6           0       -1.221767    0.005841   -0.845538
      4          6           0       -1.991630    0.683236    0.101212
      5          6           0       -1.858533   -0.615361   -1.923339
      6          6           0       -3.374886    0.740471   -0.028422
      7          1           0       -1.496612    1.180323    0.945910
      8          6           0       -3.241503   -0.558734   -2.048788
      9          1           0       -1.266879   -1.152985   -2.673350
     10          6           0       -4.002361    0.119602   -1.102325
     11          1           0       -3.969164    1.277596    0.717886
     12          1           0       -3.732182   -1.049350   -2.895637
     13          1           0       -5.091362    0.165161   -1.203680
     14          6           0        0.720626   -1.299362    0.031919
     15          6           0        1.886334   -1.962492   -0.361176
     16          6           0       -0.000357   -1.780918    1.125609
     17          6           0        2.321128   -3.086993    0.330222
     18          1           0        2.463973   -1.594451   -1.217060
     19          6           0        0.435916   -2.907511    1.813991
     20          1           0       -0.921871   -1.269613    1.433929
     21          6           0        1.596945   -3.562017    1.418630
     22          1           0        3.236015   -3.599737    0.015914
     23          1           0       -0.138875   -3.278934    2.668577
     24          1           0        1.939609   -4.448902    1.961077
     25          6           0        0.877900    1.186657   -0.177685
     26          6           0        1.238270    2.210868   -1.057665
     27          6           0        1.077055    1.365015    1.192095
     28          6           0        1.787134    3.392031   -0.572770
     29          1           0        1.085785    2.085725   -2.136034
     30          6           0        1.628644    2.546891    1.674132
     31          1           0        0.804073    0.560796    1.888132
     32          6           0        1.983816    3.562420    0.793656
     33          1           0        2.065507    4.189594   -1.269365
     34          1           0        1.783816    2.675153    2.750378
     35          1           0        2.417858    4.492560    1.174021
 ---------------------------------------------------------------------
                    Distance matrix (angstroms):
                    1          2          3          4          5
     1  C    0.000000
     2  H    1.122696   0.000000
     3  C    1.508820   2.127236   0.000000
     4  C    2.540521   3.382765   1.395668   0.000000
     5  C    2.502891   2.573920   1.397503   2.408916   0.000000
     6  C    3.813660   4.513292   2.417288   1.390496   2.779985
     7  H    2.754932   3.750156   2.159684   1.098022   3.404123
     8  C    3.788120   3.944082   2.417827   2.779780   1.389802
     9  H    2.699151   2.342947   2.164673   3.405168   1.096181
    10  C    4.303200   4.738798   2.794742   2.410233   2.410442
    11  H    4.693719   5.477923   3.407322   2.155038   3.874805
    12  H    4.657461   4.626688   3.408594   3.874595   2.155057
    13  H    5.397815   5.808233   3.889397   3.402864   3.402691
    14  C    1.508802   2.127398   2.499275   3.360332   3.308013
    15  C    2.503076   2.573134   3.710691   4.717233   4.275411
    16  C    2.540329   3.383674   2.927417   3.329656   3.755985
    17  C    3.788271   3.943699   4.847695   5.732971   5.353230
    18  H    2.699546   2.341183   4.035299   5.174756   4.487929
    19  C    3.813484   4.514071   4.278859   4.660478   4.948342
    20  H    2.754659   3.751419   2.629200   2.595022   3.546354
    21  C    4.303174   4.739060   5.079489   5.712761   5.638428
    22  H    4.657676   4.625917   5.797768   6.758654   6.214630
    23  H    4.693487   5.478987   4.930659   5.071770   5.580101
    24  H    5.397772   5.808521   6.141345   6.727004   6.649106
    25  C    1.508788   2.127252   2.499791   2.926673   3.712497
    26  C    2.502918   2.573175   3.310427   3.756182   4.281022
    27  C    2.540500   3.383365   3.359150   3.327412   4.716513
    28  C    3.788169   3.943644   4.538080   4.697965   5.583378
    29  H    2.699319   2.341486   3.363940   4.054963   4.001264
    30  C    3.813617   4.513779   4.574988   4.365050   5.924696
    31  H    2.755159   3.751310   3.447456   3.320245   4.795844
    32  C    4.303205   4.738890   5.060828   4.957151   6.292818
    33  H    4.657545   4.625958   5.337564   5.534744   6.238057
    34  H    4.693708   5.478682   5.393457   5.023923   6.777744
    35  H    5.397802   5.808360   6.120142   5.924985   7.346564
                    6          7          8          9         10
     6  C    0.000000
     7  H    2.161182   0.000000
     8  C    2.405744   3.877781   0.000000
     9  H    3.876147   4.312326   2.154612   0.000000
    10  C    1.390133   3.405756   1.390985   3.401538   0.000000
    11  H    1.094827   2.484949   3.399424   4.970971   2.157595
    12  H    3.398829   4.972595   1.094816   2.477473   2.157641
    13  H    2.158356   4.309700   2.158752   4.303964   1.094656
    14  C    4.575781   3.449690   4.536115   3.360072   5.060294
    15  C    5.924286   4.798967   5.577928   3.993019   6.289765
    16  C    4.367681   3.322652   4.698463   4.053451   4.959002
    17  C    6.871877   5.758837   6.557031   5.063164   7.233323
    18  H    6.399765   5.297551   5.858066   4.029259   6.690636
    19  C    5.587886   4.604196   5.827626   5.110196   6.112824
    20  H    3.492304   2.563333   4.244451   4.123394   4.225153
    21  C    6.732345   5.681844   6.667329   5.545198   7.159732
    22  H    7.908437   6.790554   7.447747   5.787468   8.214501
    23  H    5.822472   4.969507   6.267321   5.859030   6.379362
    24  H    7.689705   6.672807   7.619472   6.528595   8.097078
    25  C    4.278732   2.626940   4.849422   4.037616   5.080404
    26  C    4.950011   3.543432   5.359233   4.494632   5.642659
    27  C    4.658272   2.592003   5.731848   5.174555   5.711031
    28  C    5.828682   4.240404   6.563106   5.864862   6.671392
    29  H    5.113641   4.121517   5.072100   4.038933   5.551885
    30  C    5.585441   3.487841   6.871926   6.401073   6.731170
    31  H    4.600995   2.562176   5.754943   5.294621   5.677965
    32  C    6.111864   4.220301   7.236529   6.694938   7.161148
    33  H    6.560050   5.162543   7.163691   6.451289   7.308335
    34  H    6.170651   4.031356   7.664454   7.306040   7.406349
    35  H    7.005706   5.132838   8.241992   7.762199   8.094672
                   11         12         13         14         15
    11  H    0.000000
    12  H    4.304461   0.000000
    13  H    2.487821   2.486991   0.000000
    14  C    5.394941   5.334846   6.119700   0.000000
    15  C    6.778598   6.230974   7.343361   1.397548   0.000000
    16  C    5.027143   5.534630   5.927152   1.395661   2.408963
    17  C    7.666009   7.155468   8.238590   2.417895   1.389814
    18  H    7.306019   6.442600   7.757544   2.164783   1.096202
    19  C    6.174244   6.557926   7.007029   2.417227   2.779951
    20  H    4.035713   5.166382   5.138113   2.159702   3.404189
    21  C    7.409080   7.302465   8.093319   2.794729   2.410381
    22  H    8.729017   7.971033   9.219928   3.408689   2.155089
    23  H    6.264046   6.988803   7.168213   3.407258   3.874776
    24  H    8.321773   8.204501   8.985534   3.889367   3.402636
    25  C    4.929944   5.799986   6.142329   2.499792   3.311759
    26  C    5.580407   6.221941   6.653606   3.711720   4.280422
    27  C    5.069205   6.757771   6.725232   2.927790   3.760304
    28  C    6.266705   7.455496   7.623938   4.848944   5.359621
    29  H    5.860925   5.798146   6.535671   4.036357   4.492111
    30  C    5.819017   7.909120   7.688492   4.279605   4.954131
    31  H    4.966595   6.786356   6.668731   2.629197   3.549318
    32  C    6.376843   8.218998   8.098694   5.080632   5.645157
    33  H    6.989002   7.981509   8.211038   5.799197   6.221341
    34  H    6.259470   8.727866   8.318816   4.931244   5.585699
    35  H    7.165061   9.224851   8.987114   6.142585   6.656354
                   16         17         18         19         20
    16  C    0.000000
    17  C    2.779886   0.000000
    18  H    3.405259   2.154570   0.000000
    19  C    1.390474   2.405787   3.876135   0.000000
    20  H    1.098036   3.877897   4.312448   2.161191   0.000000
    21  C    2.410301   1.390942   3.401458   1.390208   3.405846
    22  H    3.874743   1.094858   2.477387   3.398943   4.972752
    23  H    2.154991   3.399464   4.970963   1.094831   2.484916
    24  H    3.402883   2.158712   4.303883   2.158383   4.309738
    25  C    3.358037   4.539269   3.366079   4.574313   3.445248
    26  C    4.715425   5.582665   4.001025   5.923511   4.794580
    27  C    3.325979   4.702225   4.060297   4.364894   3.315939
    28  C    5.730534   6.563407   5.073285   6.870710   5.752953
    29  H    5.173872   5.862210   4.035791   6.399800   5.294678
    30  C    4.656657   5.833205   5.119324   5.585039   4.596577
    31  H    2.590786   4.246752   4.128265   3.488580   2.556478
    32  C    5.709501   6.674073   5.555794   6.730311   5.674637
    33  H    6.756531   7.454713   5.797990   7.907690   6.784922
    34  H    5.067516   6.272814   5.867938   5.818917   4.961346
    35  H    6.723588   7.626990   6.539961   7.687569   6.665131
                   21         22         23         24         25
    21  C    0.000000
    22  H    2.157680   0.000000
    23  H    2.157678   4.304581   0.000000
    24  H    1.094638   2.487048   2.487866   0.000000
    25  C    5.061141   5.339265   5.392266   6.120544   0.000000
    26  C    6.291811   6.237522   6.776380   7.345557   1.397583
    27  C    4.959562   5.540151   5.022424   5.927644   1.395626
    28  C    7.236065   7.164540   7.662742   8.241594   2.417949
    29  H    6.692825   6.448166   7.305042   7.759941   2.164872
    30  C    6.114331   6.566153   6.168733   7.008577   2.417246
    31  H    4.224532   5.170065   4.030108   5.137299   2.159804
    32  C    7.162253   7.312276   7.404408   8.096055   2.794782
    33  H    8.217807   7.980960   8.726144   9.223623   3.408784
    34  H    6.380499   6.997173   6.257362   7.169340   3.407325
    35  H    8.099997   8.215587   8.316651   8.988766   3.889419
                   26         27         28         29         30
    26  C    0.000000
    27  C    2.408916   0.000000
    28  C    1.389792   2.779884   0.000000
    29  H    1.096263   3.405281   2.154558   0.000000
    30  C    2.779931   1.390482   2.405816   3.876175   0.000000
    31  H    3.404259   1.098069   3.877930   4.312619   2.161084
    32  C    2.410378   2.410302   1.390984   3.401495   1.390210
    33  H    2.155110   3.874799   1.094917   2.477345   3.399044
    34  H    3.874839   2.155045   3.399594   4.971086   1.094914
    35  H    3.402642   3.402883   2.158762   4.303921   2.158379
                   31         32         33         34         35
    31  H    0.000000
    32  C    3.405792   0.000000
    33  H    4.972844   2.157795   0.000000
    34  H    2.484728   2.157778   4.304790   0.000000
    35  H    4.309643   1.094637   2.487183   2.487946   0.000000
 Stoichiometry    C19H16
 Framework group  C1[X(C19H16)]
 Deg. of freedom    99
 Full point group                 C1      NOp   1
 Largest Abelian subgroup         C1      NOp   1
 Largest concise Abelian subgroup C1      NOp   1
                         Standard orientation:                         
 ---------------------------------------------------------------------
 Center     Atomic      Atomic             Coordinates (Angstroms)
 Number     Number       Type             X           Y           Z
 ---------------------------------------------------------------------
      1          6           0        0.000157   -0.000397   -0.779934
      2          1           0       -0.000116   -0.000359   -1.902630
      3          6           0       -0.284445    1.414442   -0.339739
      4          6           0        0.172238    1.914650    0.880557
      5          6           0       -1.030396    2.245062   -1.180359
      6          6           0       -0.110302    3.224088    1.253413
      7          1           0        0.765791    1.269609    1.541821
      8          6           0       -1.313503    3.552571   -0.803772
      9          1           0       -1.397616    1.865035   -2.140745
     10          6           0       -0.853695    4.044965    0.413177
     11          1           0        0.255833    3.607729    2.211229
     12          1           0       -1.899694    4.195934   -1.467916
     13          1           0       -1.075655    5.075706    0.707420
     14          6           0       -1.083041   -0.953811   -0.339292
     15          6           0       -1.435155   -2.011146   -1.182618
     16          6           0       -1.739483   -0.811505    0.884106
     17          6           0       -2.426475   -2.909312   -0.805572
     18          1           0       -0.926689   -2.136606   -2.145624
     19          6           0       -2.732433   -1.710370    1.257614
     20          1           0       -1.473617    0.022333    1.547215
     21          6           0       -3.077309   -2.760716    0.414695
     22          1           0       -2.695292   -3.735294   -1.472060
     23          1           0       -3.243461   -1.587765    2.218069
     24          1           0       -3.859185   -3.467817    0.709503
     25          6           0        1.367789   -0.461479   -0.340131
     26          6           0        2.459256   -0.234751   -1.183063
     27          6           0        1.573676   -1.103236    0.881970
     28          6           0        3.733301   -0.643156   -0.806847
     29          1           0        2.313028    0.270017   -2.145153
     30          6           0        2.849113   -1.512895    1.254636
     31          1           0        0.719039   -1.292138    1.545043
     32          6           0        3.930895   -1.283238    0.412204
     33          1           0        4.582815   -0.460410   -1.473010
     34          1           0        2.999049   -2.018613    2.214118
     35          1           0        4.934641   -1.605953    0.706446
 ---------------------------------------------------------------------
 Rotational constants (GHZ):      0.3905253      0.3901899      0.2359332
 Standard basis: 6-311G (5D, 7F)
 There are   295 symmetry adapted basis functions of A   symmetry.
 Integral buffers will be    262144 words long.
 Raffenetti 1 integral format.
 Two-electron integral symmetry is turned on.
   295 basis functions,   574 primitive gaussians,   295 cartesian basis functions
    65 alpha electrons       65 beta electrons
       nuclear repulsion energy      1290.4246632424 Hartrees.
 NAtoms=   35 NActive=   35 NUniq=   35 SFac= 7.50D-01 NAtFMM=   80 NAOKFM=F Big=F
 One-electron integrals computed using PRISM.
 PrsmSu:  requested number of processors reduced to:  10 ShMem   1 Linda.
 NBasis=   295 RedAO= T  NBF=   295
 NBsUse=   295 1.00D-06 NBFU=   295
 Harris functional with IExCor=  205 diagonalized for initial guess.
 ExpMin= 1.03D-01 ExpMax= 4.56D+03 ExpMxC= 6.82D+02 IAcc=1 IRadAn=         1 AccDes= 0.00D+00
 HarFok:  IExCor=  205 AccDes= 0.00D+00 IRadAn=         1 IDoV= 1
 ScaDFX=  1.000000  1.000000  1.000000  1.000000
 FoFCou: FMM=F IPFlag=           0 FMFlag=      100000 FMFlg1=           0
         NFxFlg=           0 DoJE=T BraDBF=F KetDBF=T FulRan=T
         Omega=  0.000000  0.000000  1.000000  0.000000  0.000000 ICntrl=     500 IOpCl=  0
         NMat0=    1 NMatS0=    1 NMatT0=    0 NMatD0=    1 NMtDS0=    0 NMtDT0=    0
         I1Cent=           4 NGrid=           0.
 Petite list used in FoFCou.
 Initial guess orbital symmetries:
       Occupied  (A) (A) (A) (A) (A) (A) (A) (A) (A) (A) (A) (A)
                 (A) (A) (A) (A) (A) (A) (A) (A) (A) (A) (A) (A)
                 (A) (A) (A) (A) (A) (A) (A) (A) (A) (A) (A) (A)
                 (A) (A) (A) (A) (A) (A) (A) (A) (A) (A) (A) (A)
                 (A) (A) (A) (A) (A) (A) (A) (A) (A) (A) (A) (A)
                 (A) (A) (A) (A) (A)
       Virtual   (A) (A) (A) (A) (A) (A) (A) (A) (A) (A) (A) (A)
                 (A) (A) (A) (A) (A) (A) (A) (A) (A) (A) (A) (A)
                 (A) (A) (A) (A) (A) (A) (A) (A) (A) (A) (A) (A)
                 (A) (A) (A) (A) (A) (A) (A) (A) (A) (A) (A) (A)
                 (A) (A) (A) (A) (A) (A) (A) (A) (A) (A) (A) (A)
                 (A) (A) (A) (A) (A) (A) (A) (A) (A) (A) (A) (A)
                 (A) (A) (A) (A) (A) (A) (A) (A) (A) (A) (A) (A)
                 (A) (A) (A) (A) (A) (A) (A) (A) (A) (A) (A) (A)
                 (A) (A) (A) (A) (A) (A) (A) (A) (A) (A) (A) (A)
                 (A) (A) (A) (A) (A) (A) (A) (A) (A) (A) (A) (A)
                 (A) (A) (A) (A) (A) (A) (A) (A) (A) (A) (A) (A)
                 (A) (A) (A) (A) (A) (A) (A) (A) (A) (A) (A) (A)
                 (A) (A) (A) (A) (A) (A) (A) (A) (A) (A) (A) (A)
                 (A) (A) (A) (A) (A) (A) (A) (A) (A) (A) (A) (A)
                 (A) (A) (A) (A) (A) (A) (A) (A) (A) (A) (A) (A)
                 (A) (A) (A) (A) (A) (A) (A) (A) (A) (A) (A) (A)
                 (A) (A) (A) (A) (A) (A) (A) (A) (A) (A) (A) (A)
                 (A) (A) (A) (A) (A) (A) (A) (A) (A) (A) (A) (A)
                 (A) (A) (A) (A) (A) (A) (A) (A) (A) (A) (A) (A)
                 (A) (A)
 The electronic state of the initial guess is 1-A.
 Requested convergence on RMS density matrix=1.00D-08 within 128 cycles.
 Requested convergence on MAX density matrix=1.00D-06.
 Requested convergence on             energy=1.00D-06.
 No special actions if energy rises.
 Integral accuracy reduced to 1.0D-05 until final iterations.
 Initial convergence to 1.0D-05 achieved.  Increase integral accuracy.
 SCF Done:  E(RHF) =  -728.678042812     A.U. after   14 cycles
             Convg  =    0.6883D-08             -V/T =  2.0001

 **********************************************************************

            Population analysis using the SCF density.

 **********************************************************************

 Orbital symmetries:
       Occupied  (A) (A) (A) (A) (A) (A) (A) (A) (A) (A) (A) (A)
                 (A) (A) (A) (A) (A) (A) (A) (A) (A) (A) (A) (A)
                 (A) (A) (A) (A) (A) (A) (A) (A) (A) (A) (A) (A)
                 (A) (A) (A) (A) (A) (A) (A) (A) (A) (A) (A) (A)
                 (A) (A) (A) (A) (A) (A) (A) (A) (A) (A) (A) (A)
                 (A) (A) (A) (A) (A)
       Virtual   (A) (A) (A) (A) (A) (A) (A) (A) (A) (A) (A) (A)
                 (A) (A) (A) (A) (A) (A) (A) (A) (A) (A) (A) (A)
                 (A) (A) (A) (A) (A) (A) (A) (A) (A) (A) (A) (A)
                 (A) (A) (A) (A) (A) (A) (A) (A) (A) (A) (A) (A)
                 (A) (A) (A) (A) (A) (A) (A) (A) (A) (A) (A) (A)
                 (A) (A) (A) (A) (A) (A) (A) (A) (A) (A) (A) (A)
                 (A) (A) (A) (A) (A) (A) (A) (A) (A) (A) (A) (A)
                 (A) (A) (A) (A) (A) (A) (A) (A) (A) (A) (A) (A)
                 (A) (A) (A) (A) (A) (A) (A) (A) (A) (A) (A) (A)
                 (A) (A) (A) (A) (A) (A) (A) (A) (A) (A) (A) (A)
                 (A) (A) (A) (A) (A) (A) (A) (A) (A) (A) (A) (A)
                 (A) (A) (A) (A) (A) (A) (A) (A) (A) (A) (A) (A)
                 (A) (A) (A) (A) (A) (A) (A) (A) (A) (A) (A) (A)
                 (A) (A) (A) (A) (A) (A) (A) (A) (A) (A) (A) (A)
                 (A) (A) (A) (A) (A) (A) (A) (A) (A) (A) (A) (A)
                 (A) (A) (A) (A) (A) (A) (A) (A) (A) (A) (A) (A)
                 (A) (A) (A) (A) (A) (A) (A) (A) (A) (A) (A) (A)
                 (A) (A) (A) (A) (A) (A) (A) (A) (A) (A) (A) (A)
                 (A) (A) (A) (A) (A) (A) (A) (A) (A) (A) (A) (A)
                 (A) (A)
 The electronic state is 1-A.
 Alpha  occ. eigenvalues --  -11.25726 -11.25096 -11.25095 -11.25089 -11.24309
 Alpha  occ. eigenvalues --  -11.24308 -11.24305 -11.24287 -11.24285 -11.24283
 Alpha  occ. eigenvalues --  -11.24023 -11.24022 -11.24018 -11.23964 -11.23963
 Alpha  occ. eigenvalues --  -11.23960 -11.23820 -11.23819 -11.23815  -1.18576
 Alpha  occ. eigenvalues --   -1.15713  -1.15712  -1.09017  -1.02188  -1.02044
 Alpha  occ. eigenvalues --   -1.02042  -1.01366  -1.01365  -0.92880  -0.84080
 Alpha  occ. eigenvalues --   -0.82993  -0.82986  -0.81453  -0.81452  -0.77512
 Alpha  occ. eigenvalues --   -0.70623  -0.70621  -0.68787  -0.65637  -0.63789
 Alpha  occ. eigenvalues --   -0.63786  -0.61931  -0.61930  -0.61741  -0.59100
 Alpha  occ. eigenvalues --   -0.58735  -0.58733  -0.58060  -0.58053  -0.54339
 Alpha  occ. eigenvalues --   -0.51184  -0.50837  -0.50834  -0.49661  -0.49106
 Alpha  occ. eigenvalues --   -0.49103  -0.47444  -0.47179  -0.47172  -0.34456
 Alpha  occ. eigenvalues --   -0.34449  -0.34003  -0.33234  -0.33230  -0.31220
 Alpha virt. eigenvalues --    0.12199   0.12201   0.12407   0.14448   0.14456
 Alpha virt. eigenvalues --    0.14464   0.15130   0.16315   0.16317   0.17109
 Alpha virt. eigenvalues --    0.19070   0.19125   0.19126   0.21251   0.21254
 Alpha virt. eigenvalues --    0.21552   0.23839   0.23850   0.24467   0.26745
 Alpha virt. eigenvalues --    0.26757   0.28540   0.34014   0.34015   0.35103
 Alpha virt. eigenvalues --    0.39163   0.39183   0.39334   0.41077   0.43770
 Alpha virt. eigenvalues --    0.43878   0.43880   0.44965   0.44973   0.45560
 Alpha virt. eigenvalues --    0.45564   0.45804   0.48352   0.49760   0.49768
 Alpha virt. eigenvalues --    0.50695   0.50879   0.50886   0.55379   0.55388
 Alpha virt. eigenvalues --    0.57217   0.58700   0.58708   0.58767   0.59460
 Alpha virt. eigenvalues --    0.60065   0.60071   0.61456   0.61551   0.61557
 Alpha virt. eigenvalues --    0.61701   0.62243   0.62245   0.63516   0.63785
 Alpha virt. eigenvalues --    0.63797   0.65417   0.65423   0.66726   0.67121
 Alpha virt. eigenvalues --    0.67855   0.67867   0.69137   0.70643   0.70656
 Alpha virt. eigenvalues --    0.73048   0.74585   0.74594   0.74988   0.75558
 Alpha virt. eigenvalues --    0.75579   0.78149   0.80245   0.80260   0.80280
 Alpha virt. eigenvalues --    0.81938   0.82007   0.82010   0.82963   0.82968
 Alpha virt. eigenvalues --    0.83741   0.84366   0.84370   0.85140   0.86013
 Alpha virt. eigenvalues --    0.86019   0.86223   0.87294   0.87732   0.87744
 Alpha virt. eigenvalues --    0.88555   0.90853   0.90872   0.92776   0.94568
 Alpha virt. eigenvalues --    0.94608   0.97222   0.97237   0.97798   1.00006
 Alpha virt. eigenvalues --    1.00032   1.00723   1.04020   1.04037   1.06242
 Alpha virt. eigenvalues --    1.07004   1.07013   1.08756   1.08769   1.09867
 Alpha virt. eigenvalues --    1.11115   1.12256   1.12923   1.12936   1.14201
 Alpha virt. eigenvalues --    1.14655   1.14665   1.17905   1.20729   1.20756
 Alpha virt. eigenvalues --    1.26744   1.27467   1.27485   1.28634   1.30038
 Alpha virt. eigenvalues --    1.30061   1.39631   1.40612   1.40653   1.49083
 Alpha virt. eigenvalues --    1.52295   1.52299   1.54949   2.55824   2.55827
 Alpha virt. eigenvalues --    2.56438   2.61663   2.61664   2.61686   2.66488
 Alpha virt. eigenvalues --    2.66500   2.67959   2.70405   2.70430   2.70906
 Alpha virt. eigenvalues --    2.78491   2.84829   2.84848   2.88590   2.94546
 Alpha virt. eigenvalues --    2.94634   2.94638   2.97622   2.97631   2.97661
 Alpha virt. eigenvalues --    3.01449   3.01458   3.04375   3.06192   3.07550
 Alpha virt. eigenvalues --    3.07553   3.08634   3.08655   3.09330   3.15398
 Alpha virt. eigenvalues --    3.15406   3.15663   3.17435   3.18967   3.18993
 Alpha virt. eigenvalues --    3.23296   3.25369   3.25388   3.28843   3.28856
 Alpha virt. eigenvalues --    3.29669   3.33106   3.34943   3.34959   3.42270
 Alpha virt. eigenvalues --    3.42283   3.43271   3.48611   3.48641   3.53946
 Alpha virt. eigenvalues --    3.54073   3.54090   3.59966   3.60348   3.60390
 Alpha virt. eigenvalues --    3.63113   3.63584   3.63602   3.65833   3.65842
 Alpha virt. eigenvalues --    3.69775   3.69787   3.70518   3.70700   3.75198
 Alpha virt. eigenvalues --    3.75877   3.75898   3.84504   3.87404   3.87410
 Alpha virt. eigenvalues --    3.91509  24.25942  24.31571  24.31582  24.50731
 Alpha virt. eigenvalues --   24.50734  24.51245  24.54555  24.55830  24.55840
 Alpha virt. eigenvalues --   24.77626  24.79306  24.79319  24.79926  24.80803
 Alpha virt. eigenvalues --   24.80813  24.83346  25.05341  25.06147  25.06155
          Condensed to atoms (all electrons):
              1          2          3          4          5          6
     1  C    5.859357   0.483449   0.145239  -0.040864  -0.054966   0.004253
     2  H    0.483449   0.515303  -0.071919   0.005304  -0.001145  -0.000241
     3  C    0.145239  -0.071919   5.357949   0.480080   0.483705  -0.067541
     4  C   -0.040864   0.005304   0.480080   5.113988  -0.068679   0.468936
     5  C   -0.054966  -0.001145   0.483705  -0.068679   5.059035  -0.031789
     6  C    0.004253  -0.000241  -0.067541   0.468936  -0.031789   5.052033
     7  H   -0.000874  -0.000120  -0.042500   0.392269   0.004185  -0.029872
     8  C    0.007217   0.001483  -0.065700  -0.029416   0.463576  -0.075871
     9  H    0.000514   0.001457  -0.048786   0.004430   0.399261  -0.000423
    10  C    0.001165  -0.000011  -0.016453  -0.093821  -0.087538   0.496640
    11  H   -0.000337   0.000014   0.006121  -0.037801  -0.000381   0.396181
    12  H   -0.000371  -0.000026   0.006682  -0.000534  -0.039655   0.006121
    13  H   -0.000017  -0.000001  -0.001541   0.007823   0.007433  -0.042468
    14  C    0.145771  -0.072071  -0.097443  -0.008220  -0.001089   0.000674
    15  C   -0.054565  -0.001092   0.005664  -0.000169   0.000855   0.000022
    16  C   -0.041103   0.005321  -0.018620  -0.005000   0.000214  -0.001060
    17  C    0.007232   0.001486  -0.000775   0.000027  -0.000034   0.000000
    18  H    0.000483   0.001474   0.000482  -0.000031   0.000045   0.000000
    19  C    0.004196  -0.000240   0.000095  -0.000018  -0.000168  -0.000021
    20  H   -0.000785  -0.000118  -0.001929   0.001491  -0.000868   0.000912
    21  C    0.001168  -0.000011   0.000097  -0.000017  -0.000008   0.000000
    22  H   -0.000371  -0.000026   0.000011   0.000000   0.000001   0.000000
    23  H   -0.000337   0.000014   0.000028   0.000018   0.000007   0.000000
    24  H   -0.000017  -0.000001  -0.000001   0.000000   0.000000   0.000000
    25  C    0.145232  -0.072118  -0.096968  -0.018668   0.005779   0.000090
    26  C   -0.054792  -0.001049  -0.001142   0.000229   0.000835  -0.000168
    27  C   -0.041051   0.005299  -0.008107  -0.005101  -0.000167  -0.000019
    28  C    0.007236   0.001484  -0.000632   0.000383   0.000003  -0.000009
    29  H    0.000487   0.001477   0.000945   0.000224   0.000229   0.000008
    30  C    0.004227  -0.000241   0.000681  -0.001065   0.000022  -0.000022
    31  H   -0.000831  -0.000121  -0.000785   0.000733  -0.000017   0.000043
    32  C    0.001168  -0.000011   0.000038   0.000068  -0.000001   0.000005
    33  H   -0.000372  -0.000026   0.000024   0.000003   0.000000   0.000000
    34  H   -0.000337   0.000014  -0.000003   0.000016   0.000000   0.000001
    35  H   -0.000017  -0.000001   0.000000  -0.000001   0.000000   0.000000
              7          8          9         10         11         12
     1  C   -0.000874   0.007217   0.000514   0.001165  -0.000337  -0.000371
     2  H   -0.000120   0.001483   0.001457  -0.000011   0.000014  -0.000026
     3  C   -0.042500  -0.065700  -0.048786  -0.016453   0.006121   0.006682
     4  C    0.392269  -0.029416   0.004430  -0.093821  -0.037801  -0.000534
     5  C    0.004185   0.463576   0.399261  -0.087538  -0.000381  -0.039655
     6  C   -0.029872  -0.075871  -0.000423   0.496640   0.396181   0.006121
     7  H    0.474280  -0.000227  -0.000239   0.004630  -0.003310   0.000018
     8  C   -0.000227   5.055048  -0.036065   0.490306   0.005933   0.397091
     9  H   -0.000239  -0.036065   0.507616   0.005352   0.000022  -0.004229
    10  C    0.004630   0.490306   0.005352   5.033130  -0.040236  -0.040650
    11  H   -0.003310   0.005933   0.000022  -0.040236   0.515664  -0.000211
    12  H    0.000018   0.397091  -0.004229  -0.040650  -0.000211   0.518001
    13  H   -0.000174  -0.042932  -0.000179   0.399533  -0.004405  -0.004494
    14  C   -0.000792  -0.000633   0.000959   0.000038  -0.000003   0.000023
    15  C   -0.000018   0.000003   0.000239  -0.000001   0.000000   0.000000
    16  C    0.000737   0.000381   0.000221   0.000069   0.000016   0.000003
    17  C    0.000003   0.000002  -0.000005   0.000000   0.000000   0.000000
    18  H    0.000000   0.000001  -0.000001   0.000000   0.000000   0.000000
    19  C    0.000043  -0.000009   0.000007   0.000005   0.000001   0.000000
    20  H    0.000220  -0.000191  -0.000038   0.000000   0.000007   0.000003
    21  C    0.000000   0.000000  -0.000009   0.000000   0.000000   0.000000
    22  H    0.000000   0.000000   0.000000   0.000000   0.000000   0.000000
    23  H   -0.000007   0.000001   0.000000  -0.000001   0.000000   0.000000
    24  H    0.000000   0.000000   0.000000   0.000000   0.000000   0.000000
    25  C   -0.001955  -0.000777   0.000488   0.000097   0.000029   0.000011
    26  C   -0.000882  -0.000033   0.000043  -0.000009   0.000007   0.000001
    27  C    0.001429   0.000027  -0.000031  -0.000018   0.000018   0.000000
    28  C   -0.000190   0.000002   0.000001   0.000000   0.000001   0.000000
    29  H   -0.000038  -0.000005  -0.000001  -0.000009   0.000000   0.000000
    30  C    0.000921   0.000000   0.000000   0.000000   0.000000   0.000000
    31  H    0.000211   0.000003   0.000000   0.000000  -0.000007   0.000000
    32  C    0.000001   0.000000   0.000000   0.000000  -0.000001   0.000000
    33  H    0.000003   0.000000   0.000000   0.000000   0.000000   0.000000
    34  H    0.000008   0.000000   0.000000   0.000000   0.000000   0.000000
    35  H    0.000000   0.000000   0.000000   0.000000   0.000000   0.000000
             13         14         15         16         17         18
     1  C   -0.000017   0.145771  -0.054565  -0.041103   0.007232   0.000483
     2  H   -0.000001  -0.072071  -0.001092   0.005321   0.001486   0.001474
     3  C   -0.001541  -0.097443   0.005664  -0.018620  -0.000775   0.000482
     4  C    0.007823  -0.008220  -0.000169  -0.005000   0.000027  -0.000031
     5  C    0.007433  -0.001089   0.000855   0.000214  -0.000034   0.000045
     6  C   -0.042468   0.000674   0.000022  -0.001060   0.000000   0.000000
     7  H   -0.000174  -0.000792  -0.000018   0.000737   0.000003   0.000000
     8  C   -0.042932  -0.000633   0.000003   0.000381   0.000002   0.000001
     9  H   -0.000179   0.000959   0.000239   0.000221  -0.000005  -0.000001
    10  C    0.399533   0.000038  -0.000001   0.000069   0.000000   0.000000
    11  H   -0.004405  -0.000003   0.000000   0.000016   0.000000   0.000000
    12  H   -0.004494   0.000023   0.000000   0.000003   0.000000   0.000000
    13  H    0.517938   0.000000   0.000000  -0.000001   0.000000   0.000000
    14  C    0.000000   5.357702   0.484028   0.479493  -0.065773  -0.048760
    15  C    0.000000   0.484028   5.058936  -0.068605   0.463486   0.399220
    16  C   -0.000001   0.479493  -0.068605   5.114457  -0.029428   0.004435
    17  C    0.000000  -0.065773   0.463486  -0.029428   5.055113  -0.036066
    18  H    0.000000  -0.048760   0.399220   0.004435  -0.036066   0.507666
    19  C    0.000000  -0.067527  -0.031777   0.469131  -0.075875  -0.000423
    20  H    0.000000  -0.042581   0.004176   0.392260  -0.000226  -0.000239
    21  C    0.000000  -0.016417  -0.087587  -0.093805   0.490401   0.005354
    22  H    0.000000   0.006683  -0.039648  -0.000534   0.397080  -0.004229
    23  H    0.000000   0.006121  -0.000380  -0.037827   0.005933   0.000022
    24  H    0.000000  -0.001541   0.007434   0.007821  -0.042926  -0.000179
    25  C   -0.000001  -0.097204  -0.001077  -0.008212  -0.000632   0.000947
    26  C    0.000000   0.005687   0.000832  -0.000164   0.000003   0.000231
    27  C    0.000000  -0.018484   0.000281  -0.005107   0.000380   0.000220
    28  C    0.000000  -0.000775  -0.000033   0.000027   0.000002  -0.000005
    29  H    0.000000   0.000483   0.000043  -0.000031   0.000001  -0.000001
    30  C    0.000000   0.000112  -0.000163  -0.000020  -0.000008   0.000007
    31  H    0.000000  -0.001974  -0.000864   0.001466  -0.000190  -0.000038
    32  C    0.000000   0.000096  -0.000009  -0.000018   0.000000  -0.000009
    33  H    0.000000   0.000011   0.000001   0.000000   0.000000   0.000000
    34  H    0.000000   0.000029   0.000007   0.000019   0.000001   0.000000
    35  H    0.000000  -0.000001   0.000000   0.000000   0.000000   0.000000
             19         20         21         22         23         24
     1  C    0.004196  -0.000785   0.001168  -0.000371  -0.000337  -0.000017
     2  H   -0.000240  -0.000118  -0.000011  -0.000026   0.000014  -0.000001
     3  C    0.000095  -0.001929   0.000097   0.000011   0.000028  -0.000001
     4  C   -0.000018   0.001491  -0.000017   0.000000   0.000018   0.000000
     5  C   -0.000168  -0.000868  -0.000008   0.000001   0.000007   0.000000
     6  C   -0.000021   0.000912   0.000000   0.000000   0.000000   0.000000
     7  H    0.000043   0.000220   0.000000   0.000000  -0.000007   0.000000
     8  C   -0.000009  -0.000191   0.000000   0.000000   0.000001   0.000000
     9  H    0.000007  -0.000038  -0.000009   0.000000   0.000000   0.000000
    10  C    0.000005   0.000000   0.000000   0.000000  -0.000001   0.000000
    11  H    0.000001   0.000007   0.000000   0.000000   0.000000   0.000000
    12  H    0.000000   0.000003   0.000000   0.000000   0.000000   0.000000
    13  H    0.000000   0.000000   0.000000   0.000000   0.000000   0.000000
    14  C   -0.067527  -0.042581  -0.016417   0.006683   0.006121  -0.001541
    15  C   -0.031777   0.004176  -0.087587  -0.039648  -0.000380   0.007434
    16  C    0.469131   0.392260  -0.093805  -0.000534  -0.037827   0.007821
    17  C   -0.075875  -0.000226   0.490401   0.397080   0.005933  -0.042926
    18  H   -0.000423  -0.000239   0.005354  -0.004229   0.000022  -0.000179
    19  C    5.051691  -0.029815   0.496612   0.006119   0.396194  -0.042471
    20  H   -0.029815   0.474264   0.004624   0.000018  -0.003311  -0.000174
    21  C    0.496612   0.004624   5.033028  -0.040641  -0.040225   0.399532
    22  H    0.006119   0.000018  -0.040641   0.517981  -0.000211  -0.004495
    23  H    0.396194  -0.003311  -0.040225  -0.000211   0.515663  -0.004404
    24  H   -0.042471  -0.000174   0.399532  -0.004495  -0.004404   0.517922
    25  C    0.000687  -0.000802   0.000038   0.000023  -0.000003   0.000000
    26  C    0.000022  -0.000018  -0.000001   0.000000   0.000000   0.000000
    27  C   -0.001076   0.000747   0.000068   0.000003   0.000016  -0.000001
    28  C    0.000000   0.000003   0.000000   0.000000   0.000000   0.000000
    29  H    0.000000   0.000000   0.000000   0.000000   0.000000   0.000000
    30  C   -0.000022   0.000044   0.000005   0.000000   0.000001   0.000000
    31  H    0.000920   0.000226   0.000002   0.000003   0.000007   0.000000
    32  C    0.000000   0.000000   0.000000   0.000000   0.000000   0.000000
    33  H    0.000000   0.000000   0.000000   0.000000   0.000000   0.000000
    34  H    0.000000  -0.000007  -0.000001   0.000000   0.000000   0.000000
    35  H    0.000000   0.000000   0.000000   0.000000   0.000000   0.000000
             25         26         27         28         29         30
     1  C    0.145232  -0.054792  -0.041051   0.007236   0.000487   0.004227
     2  H   -0.072118  -0.001049   0.005299   0.001484   0.001477  -0.000241
     3  C   -0.096968  -0.001142  -0.008107  -0.000632   0.000945   0.000681
     4  C   -0.018668   0.000229  -0.005101   0.000383   0.000224  -0.001065
     5  C    0.005779   0.000835  -0.000167   0.000003   0.000229   0.000022
     6  C    0.000090  -0.000168  -0.000019  -0.000009   0.000008  -0.000022
     7  H   -0.001955  -0.000882   0.001429  -0.000190  -0.000038   0.000921
     8  C   -0.000777  -0.000033   0.000027   0.000002  -0.000005   0.000000
     9  H    0.000488   0.000043  -0.000031   0.000001  -0.000001   0.000000
    10  C    0.000097  -0.000009  -0.000018   0.000000  -0.000009   0.000000
    11  H    0.000029   0.000007   0.000018   0.000001   0.000000   0.000000
    12  H    0.000011   0.000001   0.000000   0.000000   0.000000   0.000000
    13  H   -0.000001   0.000000   0.000000   0.000000   0.000000   0.000000
    14  C   -0.097204   0.005687  -0.018484  -0.000775   0.000483   0.000112
    15  C   -0.001077   0.000832   0.000281  -0.000033   0.000043  -0.000163
    16  C   -0.008212  -0.000164  -0.005107   0.000027  -0.000031  -0.000020
    17  C   -0.000632   0.000003   0.000380   0.000002   0.000001  -0.000008
    18  H    0.000947   0.000231   0.000220  -0.000005  -0.000001   0.000007
    19  C    0.000687   0.000022  -0.001076   0.000000   0.000000  -0.000022
    20  H   -0.000802  -0.000018   0.000747   0.000003   0.000000   0.000044
    21  C    0.000038  -0.000001   0.000068   0.000000   0.000000   0.000005
    22  H    0.000023   0.000000   0.000003   0.000000   0.000000   0.000000
    23  H   -0.000003   0.000000   0.000016   0.000000   0.000000   0.000001
    24  H    0.000000   0.000000  -0.000001   0.000000   0.000000   0.000000
    25  C    5.357853   0.484177   0.479735  -0.065824  -0.048726  -0.067609
    26  C    0.484177   5.058643  -0.068519   0.463638   0.399194  -0.031800
    27  C    0.479735  -0.068519   5.114252  -0.029448   0.004436   0.468991
    28  C   -0.065824   0.463638  -0.029448   5.055071  -0.036061  -0.075857
    29  H   -0.048726   0.399194   0.004436  -0.036061   0.507617  -0.000423
    30  C   -0.067609  -0.031800   0.468991  -0.075857  -0.000423   5.051966
    31  H   -0.042529   0.004186   0.392245  -0.000228  -0.000239  -0.029837
    32  C   -0.016394  -0.087597  -0.093837   0.490344   0.005354   0.496639
    33  H    0.006681  -0.039639  -0.000533   0.397066  -0.004228   0.006117
    34  H    0.006121  -0.000379  -0.037808   0.005930   0.000022   0.396175
    35  H   -0.001542   0.007433   0.007824  -0.042928  -0.000179  -0.042467
             31         32         33         34         35
     1  C   -0.000831   0.001168  -0.000372  -0.000337  -0.000017
     2  H   -0.000121  -0.000011  -0.000026   0.000014  -0.000001
     3  C   -0.000785   0.000038   0.000024  -0.000003   0.000000
     4  C    0.000733   0.000068   0.000003   0.000016  -0.000001
     5  C   -0.000017  -0.000001   0.000000   0.000000   0.000000
     6  C    0.000043   0.000005   0.000000   0.000001   0.000000
     7  H    0.000211   0.000001   0.000003   0.000008   0.000000
     8  C    0.000003   0.000000   0.000000   0.000000   0.000000
     9  H    0.000000   0.000000   0.000000   0.000000   0.000000
    10  C    0.000000   0.000000   0.000000   0.000000   0.000000
    11  H   -0.000007  -0.000001   0.000000   0.000000   0.000000
    12  H    0.000000   0.000000   0.000000   0.000000   0.000000
    13  H    0.000000   0.000000   0.000000   0.000000   0.000000
    14  C   -0.001974   0.000096   0.000011   0.000029  -0.000001
    15  C   -0.000864  -0.000009   0.000001   0.000007   0.000000
    16  C    0.001466  -0.000018   0.000000   0.000019   0.000000
    17  C   -0.000190   0.000000   0.000000   0.000001   0.000000
    18  H   -0.000038  -0.000009   0.000000   0.000000   0.000000
    19  C    0.000920   0.000000   0.000000   0.000000   0.000000
    20  H    0.000226   0.000000   0.000000  -0.000007   0.000000
    21  C    0.000002   0.000000   0.000000  -0.000001   0.000000
    22  H    0.000003   0.000000   0.000000   0.000000   0.000000
    23  H    0.000007   0.000000   0.000000   0.000000   0.000000
    24  H    0.000000   0.000000   0.000000   0.000000   0.000000
    25  C   -0.042529  -0.016394   0.006681   0.006121  -0.001542
    26  C    0.004186  -0.087597  -0.039639  -0.000379   0.007433
    27  C    0.392245  -0.093837  -0.000533  -0.037808   0.007824
    28  C   -0.000228   0.490344   0.397066   0.005930  -0.042928
    29  H   -0.000239   0.005354  -0.004228   0.000022  -0.000179
    30  C   -0.029837   0.496639   0.006117   0.396175  -0.042467
    31  H    0.474286   0.004629   0.000018  -0.003313  -0.000174
    32  C    0.004629   5.033060  -0.040640  -0.040226   0.399525
    33  H    0.000018  -0.040640   0.517966  -0.000211  -0.004492
    34  H   -0.003313  -0.040226  -0.000211   0.515657  -0.004402
    35  H   -0.000174   0.399525  -0.004492  -0.004402   0.517924
 Mulliken atomic charges:
              1
     1  C   -0.526390
     2  H    0.197013
     3  C    0.053006
     4  C   -0.166617
     5  C   -0.138679
     6  C   -0.176414
     7  H    0.202239
     8  C   -0.169216
     9  H    0.169396
    10  C   -0.152220
    11  H    0.162677
    12  H    0.162217
    13  H    0.163485
    14  C    0.053378
    15  C   -0.139235
    16  C   -0.166537
    17  C   -0.169210
    18  H    0.169393
    19  C   -0.176282
    20  H    0.202104
    21  C   -0.152208
    22  H    0.162233
    23  H    0.162679
    24  H    0.163499
    25  C    0.053052
    26  C   -0.138966
    27  C   -0.166664
    28  C   -0.169201
    29  H    0.169424
    30  C   -0.176373
    31  H    0.202167
    32  C   -0.152187
    33  H    0.162253
    34  H    0.162688
    35  H    0.163498
 Sum of Mulliken atomic charges =   0.00000
 Mulliken charges with hydrogens summed into heavy atoms:
              1
     1  C   -0.329377
     3  C    0.053006
     4  C    0.035621
     5  C    0.030717
     6  C   -0.013738
     8  C   -0.007000
    10  C    0.011265
    14  C    0.053378
    15  C    0.030158
    16  C    0.035568
    17  C   -0.006977
    19  C   -0.013603
    21  C    0.011291
    25  C    0.053052
    26  C    0.030458
    27  C    0.035503
    28  C   -0.006949
    30  C   -0.013684
    32  C    0.011310
 Sum of Mulliken charges with hydrogens summed into heavy atoms =   0.00000
 Electronic spatial extent (au):  <R**2>=           4917.0697
 Charge=              0.0000 electrons
 Dipole moment (field-independent basis, Debye):
    X=             -0.0006    Y=             -0.0004    Z=             -0.0243  Tot=              0.0243
 Quadrupole moment (field-independent basis, Debye-Ang):
   XX=           -111.4525   YY=           -111.5008   ZZ=           -104.7003
   XY=              0.0106   XZ=              0.0259   YZ=              0.0058
 Traceless Quadrupole moment (field-independent basis, Debye-Ang):
   XX=             -2.2346   YY=             -2.2829   ZZ=              4.5176
   XY=              0.0106   XZ=              0.0259   YZ=              0.0058
 Octapole moment (field-independent basis, Debye-Ang**2):
  XXX=             33.5096  YYY=             25.0745  ZZZ=             -0.7733  XYY=            -33.5434
  XXY=            -24.9899  XXZ=              3.5317  XZZ=             -0.0129  YZZ=             -0.0912
  YYZ=              3.6812  XYZ=              0.0275
 Hexadecapole moment (field-independent basis, Debye-Ang**3):
 XXXX=          -2986.8508 YYYY=          -2984.4497 ZZZZ=           -746.4362 XXXY=             -0.0440
 XXXZ=            -52.8688 YYYX=              0.0125 YYYZ=             57.3178 ZZZX=              0.0009
 ZZZY=              0.0146 XXYY=           -994.8008 XXZZ=           -612.7368 YYZZ=           -612.6168
 XXYZ=            -57.1179 YYXZ=             53.2662 ZZXY=              0.2139
 N-N= 1.290424663242D+03 E-N=-4.276949146359D+03  KE= 7.285945740036D+02
 PrsmSu:  requested number of processors reduced to:  10 ShMem   1 Linda.
 Calling FoFJK, ICntrl=      2127 FMM=F ISym2X=0 I1Cent= 0 IOpClX= 0 NMat=1 NMatS=1 NMatT=0.
 ***** Axes restored to original set *****
 -------------------------------------------------------------------
 Center     Atomic                   Forces (Hartrees/Bohr)
 Number     Number              X              Y              Z
 -------------------------------------------------------------------
      1        6           0.007920728   -0.002283778   -0.020905877
      2        1          -0.009120957    0.002597587    0.024109083
      3        6          -0.011112563    0.001930767   -0.007666007
      4        6           0.003990267    0.006084196    0.007454035
      5        6           0.002018387   -0.003495424   -0.004678931
      6        6          -0.006971278    0.005166461    0.008809561
      7        1          -0.011598420   -0.007856932   -0.016465069
      8        6          -0.005916692   -0.006229571   -0.009843837
      9        1          -0.008749711    0.008757544    0.012123629
     10        6          -0.013549549    0.000444856   -0.001292140
     11        1           0.008987144   -0.008175900   -0.011435929
     12        1           0.007374074    0.007639259    0.012796533
     13        1           0.016696385   -0.000550668    0.001439989
     14        6           0.005031352   -0.012700061   -0.000087368
     15        6           0.004205758    0.001162208   -0.004354860
     16        6          -0.009469180    0.003348380    0.002681841
     17        6           0.011170096   -0.005887059   -0.003431789
     18        1          -0.009668584   -0.005362759    0.013363806
     19        6          -0.005790601   -0.003782235    0.010241573
     20        1           0.016996831   -0.012292686   -0.005164575
     21        6           0.004348960   -0.010976129    0.006752862
     22        1          -0.014021457    0.007627296    0.004758406
     23        1           0.008799905    0.005563121   -0.013042159
     24        1          -0.005335616    0.013463303   -0.008429029
     25        6           0.009374939    0.009904366   -0.000887351
     26        6          -0.000560179    0.000661964   -0.006146377
     27        6          -0.000992993   -0.007596028    0.007130718
     28        6           0.002918416    0.009750652   -0.008241695
     29        1           0.002255272    0.001278632    0.017188466
     30        6           0.000962585    0.002083027    0.012169874
     31        1           0.007297327    0.016482714   -0.011993703
     32        6           0.005321860    0.011598958    0.004683584
     33        1          -0.004049489   -0.012164499    0.010695196
     34        1          -0.002301174   -0.001884014   -0.016476845
     35        1          -0.006461847   -0.014307547   -0.005855616
 -------------------------------------------------------------------
 Cartesian Forces:  Max     0.024109083 RMS     0.009009338

 GradGradGradGradGradGradGradGradGradGradGradGradGradGradGradGradGradGrad
 Berny optimization.
 Internal  Forces:  Max     0.025907276 RMS     0.006572152
 Search for a local minimum.
 Step number   1 out of a maximum of  197
 All quantities printed in internal units (Hartrees-Bohrs-Radians)
 Mixed Optimization -- RFO/linear search
 Second derivative matrix not updated -- first step.
     Eigenvalues ---    0.00649   0.00650   0.00650   0.01537   0.01537
     Eigenvalues ---    0.01537   0.02143   0.02143   0.02143   0.02171
     Eigenvalues ---    0.02171   0.02171   0.02181   0.02181   0.02181
     Eigenvalues ---    0.02201   0.02201   0.02201   0.02212   0.02213
     Eigenvalues ---    0.02213   0.02215   0.02215   0.02215   0.02216
     Eigenvalues ---    0.02217   0.02217   0.02217   0.02218   0.02218
     Eigenvalues ---    0.04655   0.06494   0.06498   0.15999   0.15999
     Eigenvalues ---    0.15999   0.16000   0.16000   0.16000   0.16000
     Eigenvalues ---    0.16000   0.16000   0.16000   0.16000   0.16000
     Eigenvalues ---    0.16000   0.16000   0.16000   0.19005   0.19010
     Eigenvalues ---    0.22000   0.22000   0.22000   0.22000   0.22000
     Eigenvalues ---    0.22000   0.23478   0.23478   0.23478   0.25000
     Eigenvalues ---    0.25000   0.25000   0.31292   0.31469   0.31471
     Eigenvalues ---    0.31473   0.33897   0.33900   0.33902   0.34099
     Eigenvalues ---    0.34106   0.34108   0.34251   0.34251   0.34257
     Eigenvalues ---    0.34260   0.34261   0.34262   0.34280   0.34282
     Eigenvalues ---    0.34282   0.42457   0.42459   0.42464   0.42569
     Eigenvalues ---    0.42571   0.42572   0.46394   0.46395   0.46399
     Eigenvalues ---    0.46765   0.46767   0.46767   0.47226   0.47228
     Eigenvalues ---    0.47230   0.47305   0.47306   0.473071000.00000
     Eigenvalues --- 1000.000001000.000001000.000001000.000001000.00000
     Eigenvalues --- 1000.000001000.000001000.000001000.000001000.00000
     Eigenvalues --- 1000.000001000.000001000.000001000.000001000.00000
     Eigenvalues --- 1000.000001000.000001000.000001000.000001000.00000
     Eigenvalues --- 1000.000001000.000001000.000001000.000001000.00000
     Eigenvalues --- 1000.000001000.000001000.000001000.000001000.00000
     Eigenvalues --- 1000.000001000.000001000.000001000.000001000.00000
     Eigenvalues --- 1000.000001000.000001000.000001000.000001000.00000
     Eigenvalues --- 1000.000001000.000001000.000001000.000001000.00000
     Eigenvalues --- 1000.000001000.000001000.000001000.000001000.00000
     Eigenvalues --- 1000.000001000.000001000.000001000.000001000.00000
     Eigenvalues --- 1000.000001000.000001000.000001000.000001000.00000
     Eigenvalues --- 1000.000001000.000001000.000001000.000001000.00000
     Eigenvalues --- 1000.000001000.000001000.000001000.000001000.00000
     Eigenvalues --- 1000.000001000.000001000.000001000.000001000.00000
     Eigenvalues --- 1000.000001000.000001000.000001000.000001000.00000
     Eigenvalues --- 1000.000001000.000001000.000001000.000001000.00000
     Eigenvalues --- 1000.000001000.00000
 RFO step:  Lambda=-2.71512156D-02 EMin= 6.49279407D-03
 Linear search not attempted -- first point.
 Maximum step size (   0.300) exceeded in Quadratic search.
    -- Step size scaled by   0.783
 Iteration  1 RMS(Cart)=  0.10436264 RMS(Int)=  0.00168443
 Iteration  2 RMS(Cart)=  0.00452118 RMS(Int)=  0.00032025
 Iteration  3 RMS(Cart)=  0.00000481 RMS(Int)=  0.00032024
 Iteration  4 RMS(Cart)=  0.00000000 RMS(Int)=  0.00032024
 Variable       Old X    -DE/DX   Delta X   Delta X   Delta X     New X
                                 (Linear)    (Quad)   (Total)
    R1        2.12159  -0.02591   0.00000  -0.05961  -0.05961   2.06197
    R2        2.85126   0.01958   0.00000   0.04482   0.04482   2.89607
    R3        2.85122   0.01954   0.00000   0.04473   0.04473   2.89596
    R4        2.85120   0.01956   0.00000   0.04477   0.04477   2.89597
    R5        2.63743  -0.00250   0.00000  -0.00392  -0.00392   2.63351
    R6        2.64090  -0.00435   0.00000  -0.00702  -0.00701   2.63389
    R7        2.62766  -0.00298   0.00000  -0.00456  -0.00457   2.62309
    R8        2.07496  -0.02145   0.00000  -0.04584  -0.04584   2.02912
    R9        2.62635  -0.00373   0.00000  -0.00593  -0.00592   2.62042
   R10        2.07148  -0.01731   0.00000  -0.03679  -0.03679   2.03469
   R11        2.62697  -0.00574   0.00000  -0.00895  -0.00896   2.61801
   R12        2.06892  -0.01668   0.00000  -0.03531  -0.03531   2.03361
   R13        2.62858  -0.00633   0.00000  -0.00999  -0.00999   2.61859
   R14        2.06890  -0.01663   0.00000  -0.03519  -0.03519   2.03372
   R15        2.06860  -0.01677   0.00000  -0.03546  -0.03546   2.03314
   R16        2.64098  -0.00443   0.00000  -0.00716  -0.00715   2.63384
   R17        2.63742  -0.00246   0.00000  -0.00387  -0.00386   2.63356
   R18        2.62637  -0.00369   0.00000  -0.00587  -0.00586   2.62050
   R19        2.07152  -0.01733   0.00000  -0.03683  -0.03683   2.03469
   R20        2.62761  -0.00300   0.00000  -0.00460  -0.00461   2.62301
   R21        2.07499  -0.02144   0.00000  -0.04582  -0.04582   2.02917
   R22        2.62850  -0.00632   0.00000  -0.00997  -0.00998   2.61852
   R23        2.06898  -0.01665   0.00000  -0.03525  -0.03525   2.03373
   R24        2.62711  -0.00578   0.00000  -0.00901  -0.00902   2.61809
   R25        2.06893  -0.01669   0.00000  -0.03532  -0.03532   2.03361
   R26        2.06857  -0.01676   0.00000  -0.03544  -0.03544   2.03313
   R27        2.64105  -0.00444   0.00000  -0.00716  -0.00715   2.63390
   R28        2.63735  -0.00246   0.00000  -0.00385  -0.00384   2.63351
   R29        2.62633  -0.00370   0.00000  -0.00588  -0.00587   2.62045
   R30        2.07164  -0.01737   0.00000  -0.03692  -0.03692   2.03472
   R31        2.62763  -0.00297   0.00000  -0.00456  -0.00456   2.62307
   R32        2.07505  -0.02149   0.00000  -0.04593  -0.04593   2.02912
   R33        2.62858  -0.00634   0.00000  -0.01002  -0.01002   2.61856
   R34        2.06909  -0.01669   0.00000  -0.03534  -0.03534   2.03375
   R35        2.62712  -0.00581   0.00000  -0.00906  -0.00907   2.61804
   R36        2.06909  -0.01674   0.00000  -0.03544  -0.03544   2.03364
   R37        2.06856  -0.01675   0.00000  -0.03544  -0.03544   2.03313
    A1        1.86677  -0.00347   0.00000  -0.03686  -0.03613   1.83064
    A2        1.86700  -0.00348   0.00000  -0.03695  -0.03623   1.83077
    A3        1.86683  -0.00349   0.00000  -0.03701  -0.03628   1.83055
    A4        1.95187   0.00312   0.00000   0.03326   0.03101   1.98289
    A5        1.95250   0.00316   0.00000   0.03341   0.03117   1.98367
    A6        1.95252   0.00314   0.00000   0.03329   0.03105   1.98357
    A7        2.12874   0.01000   0.00000   0.02843   0.02842   2.15716
    A8        2.07434  -0.00229   0.00000  -0.00629  -0.00629   2.06804
    A9        2.08010  -0.00771   0.00000  -0.02214  -0.02212   2.05798
   A10        2.10073   0.00327   0.00000   0.01023   0.01023   2.11095
   A11        2.08621   0.00074   0.00000   0.00481   0.00481   2.09102
   A12        2.09620  -0.00401   0.00000  -0.01507  -0.01507   2.08113
   A13        2.10007   0.00550   0.00000   0.01667   0.01669   2.11676
   A14        2.09412  -0.00347   0.00000  -0.01136  -0.01137   2.08275
   A15        2.08899  -0.00203   0.00000  -0.00532  -0.00533   2.08366
   A16        2.09747   0.00129   0.00000   0.00394   0.00391   2.10139
   A17        2.09050  -0.00056   0.00000  -0.00160  -0.00159   2.08891
   A18        2.09521  -0.00074   0.00000  -0.00235  -0.00234   2.09287
   A19        2.09758  -0.00008   0.00000  -0.00102  -0.00103   2.09655
   A20        2.09156   0.00015   0.00000   0.00096   0.00097   2.09253
   A21        2.09405  -0.00007   0.00000   0.00006   0.00006   2.09411
   A22        2.09041  -0.00227   0.00000  -0.00767  -0.00770   2.08271
   A23        2.09669   0.00115   0.00000   0.00390   0.00391   2.10060
   A24        2.09608   0.00112   0.00000   0.00377   0.00378   2.09986
   A25        2.07456  -0.00225   0.00000  -0.00618  -0.00619   2.06837
   A26        2.12850   0.00997   0.00000   0.02833   0.02832   2.15682
   A27        2.08012  -0.00772   0.00000  -0.02215  -0.02213   2.05799
   A28        2.10010   0.00548   0.00000   0.01662   0.01664   2.11674
   A29        2.09420  -0.00348   0.00000  -0.01140  -0.01141   2.08280
   A30        2.08888  -0.00200   0.00000  -0.00523  -0.00524   2.08364
   A31        2.10067   0.00329   0.00000   0.01030   0.01029   2.11097
   A32        2.08623   0.00072   0.00000   0.00474   0.00474   2.09097
   A33        2.09623  -0.00401   0.00000  -0.01507  -0.01507   2.08116
   A34        2.09753  -0.00006   0.00000  -0.00097  -0.00098   2.09655
   A35        2.09154   0.00015   0.00000   0.00096   0.00096   2.09250
   A36        2.09412  -0.00008   0.00000   0.00001   0.00001   2.09413
   A37        2.09751   0.00128   0.00000   0.00389   0.00386   2.10137
   A38        2.09045  -0.00054   0.00000  -0.00153  -0.00152   2.08893
   A39        2.09523  -0.00074   0.00000  -0.00236  -0.00236   2.09287
   A40        2.09043  -0.00227   0.00000  -0.00769  -0.00771   2.08272
   A41        2.09611   0.00112   0.00000   0.00378   0.00379   2.09989
   A42        2.09665   0.00115   0.00000   0.00391   0.00392   2.10056
   A43        2.07432  -0.00228   0.00000  -0.00627  -0.00628   2.06804
   A44        2.12880   0.01001   0.00000   0.02844   0.02843   2.15723
   A45        2.08006  -0.00772   0.00000  -0.02216  -0.02215   2.05791
   A46        2.10016   0.00549   0.00000   0.01663   0.01665   2.11681
   A47        2.09421  -0.00349   0.00000  -0.01143  -0.01144   2.08277
   A48        2.08881  -0.00200   0.00000  -0.00521  -0.00522   2.08359
   A49        2.10074   0.00328   0.00000   0.01026   0.01026   2.11100
   A50        2.08640   0.00072   0.00000   0.00470   0.00470   2.09110
   A51        2.09600  -0.00400   0.00000  -0.01500  -0.01500   2.08100
   A52        2.09750  -0.00005   0.00000  -0.00094  -0.00095   2.09655
   A53        2.09152   0.00014   0.00000   0.00097   0.00097   2.09249
   A54        2.09416  -0.00009   0.00000  -0.00003  -0.00002   2.09414
   A55        2.09750   0.00129   0.00000   0.00393   0.00390   2.10140
   A56        2.09041  -0.00054   0.00000  -0.00153  -0.00152   2.08889
   A57        2.09528  -0.00075   0.00000  -0.00240  -0.00240   2.09288
[...]
 07,0.00004558,0.00003202,0.00004192,0.00005777,-0.00001325,-0.00000085
 ,-0.00001230,-0.00000003,0.00000704,0.00001199,0.00001992,0.00000909,0
 .00001815,0.00005814,0.00127344,0.00040292,0.00035895,-0.00016971,0.00
 009976,-0.00006673,0.00018935,0.00033036,0.00004355,0.00007325,-0.0001
 4800,-0.00002525,-0.00004974,-0.00003868,0.00012747,-0.00022995,0.0001
 8575,-0.00010930,-0.00006843,-0.00005475,-0.00016008,-0.00006102,0.000
 06551,-0.00002443,0.00001593,0.00001999,0.00001840,0.00000624,-0.00002
 106,-0.00001581,0.00004052,-0.00001067,-0.01899124,-0.04212321,-0.0000
 4128,0.00644997,0.01739314,-0.00630864,-0.05856159,-0.08932541,-0.1787
 4628,-0.00716336,0.02190877,-0.04886278,0.00050996,0.00011715,0.000852
 56,0.15016882,-0.04585193,0.80022396,-0.00361800,0.00147257,0.00152773
 ,0.00038905,0.00044137,0.00034892,-0.00010763,-0.00066461,-0.00053355,
 -0.00003496,-0.00030359,-0.00016751,-0.00024817,0.00002132,0.00004029,
 -0.00003607,0.00005924,0.00009256,-0.00000199,0.00031803,-0.00004652,0
 .00004432,-0.00000221,-0.00004414,-0.00000392,0.00000664,0.00002446,-0
 .00000095,0.00002277,0.00001824,-0.00001112,0.00000196,-0.00001013,-0.
 00000906,0.00001369,0.00000431,0.00001826,0.00000923,0.00001266,0.0000
 7097,-0.00066227,-0.00030907,-0.00001556,-0.00029219,-0.00007782,0.000
 09680,-0.00015021,-0.00032219,-0.00023006,0.00031518,-0.00027816,-0.00
 001724,0.00003495,0.00016601,0.00022946,-0.00023659,0.00017279,-0.0003
 0697,-0.00015940,-0.00008444,-0.00025637,0.00001505,0.00011666,-0.0000
 1354,0.00004368,0.00002636,-0.00000082,-0.00001652,0.00000665,-0.00001
 756,0.00002799,0.00001748,0.00685627,0.00899266,-0.00695285,0.00641621
 ,-0.00297723,-0.00377796,-0.05667965,-0.03044391,0.01418039,-0.0009518
 9,0.00024623,-0.00014102,-0.00000019,0.00043600,-0.00036579,0.00375784
 ,-0.01220071,0.01037243,0.04354769,0.00150374,-0.00084002,-0.00027967,
 0.00004614,-0.00007364,0.00006841,-0.00009819,0.00036284,0.00024609,0.
 00010479,0.00027283,0.00012276,0.00015402,-0.00001492,-0.00003304,-0.0
 0000853,-0.00004385,-0.00007149,0.00003206,-0.00020801,0.00004243,-0.0
 0001044,-0.00000588,0.00000663,-0.00000460,-0.00001125,-0.00001748,0.0
 0000557,-0.00000540,0.00000354,0.00002297,-0.00000711,0.00000416,0.000
 01001,-0.00000538,0.00000109,-0.00000500,-0.00000816,-0.00000598,-0.00
 068117,-0.00150968,-0.00220804,-0.00035986,-0.00009448,-0.00031824,-0.
 00040663,-0.00099655,-0.00061182,0.00006123,-0.00000058,0.00001681,-0.
 00000098,0.00005336,0.00007227,-0.00016744,-0.00008873,0.00000869,0.00
 012068,0.00009912,0.00005255,0.00012847,-0.00001837,0.00005639,-0.0000
 2045,0.00000535,0.00000838,0.00002036,0.00003249,-0.00000528,-0.000003
 15,0.00002788,0.00000072,-0.00048918,0.00698275,-0.00415563,-0.0025289
 0,0.00186567,-0.00109694,-0.03116814,-0.24755567,0.15038986,0.00008388
 ,0.00007549,-0.00107850,-0.00000103,0.00023799,-0.00025865,-0.00200374
 ,-0.01642269,0.02250385,0.03839948,0.26102153,0.00130809,0.00072089,0.
 00032887,0.00000004,-0.00002537,0.00016113,-0.00000644,0.00000017,0.00
 012463,-0.00001034,-0.00008324,0.00003569,0.00000713,-0.00001883,-0.00
 000232,-0.00004686,-0.00002350,0.00002767,-0.00000557,0.00012455,-0.00
 007025,0.00001905,-0.00002102,-0.00001220,0.00000589,0.00001228,-0.000
 03021,0.00001361,0.00002345,0.00001363,0.00001284,-0.00000189,-0.00000
 931,0.00000348,0.00000476,0.00000089,0.00000868,0.00000603,-0.00000452
 ,-0.00040414,-0.00026673,-0.00007513,0.00079417,-0.00023092,0.00011225
 ,-0.00008236,0.00003359,0.00061358,0.00012870,0.00005353,-0.00014199,-
 0.00007425,0.00000135,-0.00003910,0.00015855,-0.00033050,0.00021015,-0
 .00008910,-0.00005653,-0.00007338,-0.00035239,0.00002974,0.00002190,-0
 .00003980,0.00002268,-0.00000635,0.00003811,0.00005057,-0.00003044,-0.
 00001698,0.00005149,-0.00001123,0.00480100,0.02881568,-0.01502688,-0.0
 0412711,-0.00098689,-0.00496619,0.01467790,0.14852929,-0.19285301,-0.0
 0025335,-0.00113821,-0.00042414,0.00030026,0.00130568,-0.00098780,-0.0
 0289267,-0.01315447,0.01235483,-0.01264845,-0.16090969,0.19900153,-0.0
 0101576,0.00052518,-0.00020592,-0.00005062,0.00001555,0.00019404,0.000
 17193,-0.00058324,0.00000729,-0.00000073,-0.00000647,-0.00010121,-0.00
 015565,0.00001364,0.00005045,0.00000265,0.00005579,0.00006553,0.000003
 40,0.00007225,0.00005661,-0.00000388,0.00001730,-0.00003750,0.00001594
 ,-0.00000634,0.00001222,-0.00001820,-0.00001397,-0.00001476,-0.0000093
 8,0.00000009,0.00000252,-0.00002052,0.00000324,-0.00001040,-0.00000197
 ,0.00000581,0.00000639,0.00002291,0.00001278,-0.00010949,-0.00006350,-
 0.00000194,0.00003385,0.00005135,-0.00002223,-0.00003751,-0.00001279,0
 .00000679,0.00002945,-0.00003698,0.00002931,-0.00001225,-0.00000115,0.
 00001450,-0.00001284,-0.00001122,-0.00000294,-0.00000186,0.00002442,-0
 .00002289,0.00002043,0.00001257,-0.00002806,-0.00000504,-0.00000285,-0
 .00001192,0.00000462,-0.00000070,-0.00001026,0.00000297,-0.00668096,0.
 00641233,-0.00768113,-0.00144898,-0.01786240,-0.01839370,0.00941682,-0
 .01239410,0.01592878,-0.11389179,-0.01905772,-0.08683716,0.00653687,-0
 .00507923,-0.00246092,-0.10125034,-0.05595688,0.01379121,0.00622258,-0
 .00469300,-0.00313775,0.29131806,0.00068503,0.00069837,0.00037366,0.00
 011643,-0.00031228,-0.00035684,0.00040504,0.00010551,-0.00013247,-0.00
 009613,0.00003322,-0.00019105,-0.00034610,0.00010468,-0.00004020,-0.00
 015431,-0.00008995,-0.00010502,0.00004324,-0.00029534,-0.00015027,0.00
 011897,-0.00008576,-0.00007091,0.00002317,0.00000498,0.00001183,-0.000
 07414,0.00009607,0.00009821,-0.00006561,0.00000997,0.00000892,-0.00003
 334,-0.00001510,0.00000575,-0.00001763,0.00000002,-0.00000675,-0.00039
 816,0.00012508,-0.00004135,0.00000186,-0.00028290,0.00005529,0.0000505
 4,0.00007479,-0.00022396,-0.00001432,0.00019505,-0.00014337,-0.0000238
 5,0.00002089,0.00002511,0.00015357,-0.00010981,0.00001700,0.00001679,0
 .00001682,-0.00001619,-0.00013959,-0.00005945,0.00017333,0.00002165,-0
 .00003182,-0.00001314,-0.00000597,-0.00002349,0.00002161,0.00000387,-0
 .00002331,0.00000558,0.00655634,-0.01890090,0.04034770,-0.00161843,0.0
 3754975,-0.04207456,-0.02909590,-0.06004435,-0.01286088,-0.04046748,-0
 .15513990,-0.05090743,-0.00514685,-0.00400429,-0.00124533,-0.03386217,
 -0.27797001,0.14631988,-0.00480707,-0.00257467,-0.00203233,0.21280765,
 0.75304926,-0.00176661,-0.00044102,-0.00188612,-0.00064100,-0.00017591
 ,0.00102355,0.00003650,-0.00144082,0.00058986,-0.00030015,-0.00035016,
 -0.00001267,0.00023748,-0.00007228,0.00045758,0.00042822,0.00020174,0.
 00029767,-0.00014018,0.00028877,0.00003686,-0.00033794,0.00026316,0.00
 005868,0.00001180,-0.00000669,0.00001330,-0.00005290,-0.00026754,-0.00
 032875,-0.00003777,-0.00001689,0.00004040,-0.00001759,0.00003633,-0.00
 004386,-0.00000268,0.00001072,0.00000544,0.00043969,-0.00025925,-0.000
 46292,-0.00001902,0.00047286,0.00008253,0.00011132,-0.00036069,0.00035
 191,0.00003917,-0.00032174,0.00035897,-0.00002623,-0.00001322,-0.00010
 722,-0.00028638,0.00025981,-0.00008899,-0.00001841,-0.00002324,0.00000
 188,0.00032585,-0.00000488,-0.00021628,-0.00000690,-0.00001074,0.00000
 780,-0.00000230,-0.00000947,-0.00000926,-0.00000006,0.00000527,-0.0000
 0825,-0.00628697,0.04171849,-0.09371659,-0.04101873,-0.10690137,0.0001
 5492,0.03925005,0.05150598,0.08679327,-0.05594986,0.03055936,-0.339243
 10,-0.00212482,-0.00054124,0.00183487,-0.01732028,0.06503675,-0.237946
 42,-0.00334907,-0.00241201,0.00058065,0.13660001,-0.01782799,0.7144055
 3,-0.00002764,-0.00033145,0.00051199,0.00004034,0.00006002,0.00003816,
 0.00004461,-0.00011570,-0.00000830,-0.00004231,0.00001614,-0.00001663,
 -0.00004311,-0.00000564,0.00001724,-0.00000009,0.00001139,-0.00002408,
 0.00001696,-0.00003427,0.00002226,-0.00000229,0.00001222,-0.00001067,0
 .00000249,0.00000082,0.00001319,-0.00003251,0.00000782,-0.00001054,-0.
 00001926,-0.00000417,0.00001633,-0.00000622,-0.00000197,0.00000041,-0.
 00000606,-0.00000662,0.00000385,-0.00024869,-0.00016345,-0.00006382,0.
 00004760,-0.00005135,-0.00001630,0.00001775,-0.00000284,-0.00000835,-0
 .00000778,0.00005431,-0.00002405,-0.00000152,0.00000475,0.00000571,0.0
 0004153,-0.00002652,0.00002257,-0.00001037,-0.00000569,-0.00000622,-0.
 00004152,-0.00002031,0.00003859,0.00000160,0.00000084,-0.00000358,-0.0
 0000023,-0.00000550,0.00000877,-0.00000010,-0.00000384,0.00000146,0.00
 636642,-0.00464492,-0.00331983,0.00394037,-0.01181817,0.01059099,-0.00
 093224,0.00017216,-0.00027518,-0.05745874,-0.03557572,0.01796123,-0.00
 402014,0.00219234,0.00121755,0.00658262,-0.00278379,-0.00389493,-0.001
 02112,0.00036527,0.00035056,0.00668573,0.00856115,-0.00758293,0.043899
 52,0.00017767,-0.00064752,0.00119898,0.00002676,-0.00000049,-0.0000602
 6,0.00019709,-0.00011033,-0.00001134,-0.00005796,0.00003909,0.00001217
 ,-0.00011120,0.00003662,-0.00001974,0.00000188,-0.00001014,-0.00001492
 ,0.00003611,-0.00002745,-0.00002118,-0.00000779,0.00000018,-0.00002405
 ,0.00001294,-0.00000706,0.00001446,-0.00003015,0.00000468,-0.00001353,
 -0.00001670,0.00000243,0.00001317,-0.00001997,-0.00001392,-0.00000587,
 -0.00001718,-0.00000455,-0.00000073,-0.00027290,-0.00011560,-0.0003055
 4,-0.00001409,-0.00006268,0.00006388,0.00007612,-0.00009151,0.00003414
 ,-0.00001386,0.00001381,0.00002061,-0.00001347,0.00001275,-0.00000684,
 0.00001238,0.00002733,0.00000783,-0.00000161,0.00000352,-0.00000728,0.
 00001803,-0.00003301,0.00001221,0.00001990,-0.00001653,0.00000423,-0.0
 0000395,-0.00001492,0.00001502,0.00000412,-0.00001421,0.00000560,-0.00
 504277,-0.00235637,-0.00247384,-0.00227614,-0.01668979,0.02341451,0.00
 005642,0.00004535,-0.00117575,-0.03557679,-0.24529473,0.14650085,0.001
 85029,0.00049419,-0.00113966,-0.00261479,0.00223132,-0.00068964,0.0004
 1135,-0.00018470,0.00000557,-0.00093274,0.00733919,-0.00617911,0.04205
 896,0.25488725,-0.00001012,-0.00049407,0.00037070,0.00005244,0.0000470
 4,-0.00001299,0.00001672,0.00009002,0.00001633,0.00002216,-0.00001107,
 -0.00000990,0.00001137,-0.00000421,-0.00003748,-0.00002508,0.00000535,
 0.00001879,-0.00002777,0.00001419,-0.00000413,0.00001424,-0.00000986,-
 0.00000159,-0.00000351,-0.00000321,-0.00000140,0.00001258,0.00000895,0
 .00001637,0.00001038,0.00000040,-0.00001136,0.00000496,0.00000072,0.00
 000501,0.00000870,0.00000319,0.00000138,-0.00002272,-0.00005781,-0.000
 07015,0.00000519,0.00001544,0.00001372,-0.00000211,0.00000099,0.000036
 44,0.00001520,-0.00001274,0.00001423,0.00000470,-0.00001031,-0.0000150
 3,-0.00000643,0.00001113,0.00001355,-0.00000920,-0.00000889,-0.0000066
 9,0.00001478,-0.00000482,-0.00000482,-0.00000409,-0.00000069,-0.000000
 21,0.00000005,-0.00000137,-0.00000571,-0.00000242,0.00000259,-0.000005
 36,-0.00310608,-0.00202393,0.00057918,-0.00320050,-0.01272981,0.011957
 33,-0.00024499,-0.00111956,-0.00031457,0.01804973,0.14673430,-0.191221
 90,0.00162058,0.00005975,0.00088591,-0.00406755,-0.00120090,-0.0050871
 3,0.00031238,-0.00002198,-0.00005684,0.00609390,0.02974000,-0.01410728
 ,-0.01685409,-0.15916912,0.19708637,-0.00017181,0.00005163,-0.00051939
 ,-0.00013756,-0.00019946,-0.00006427,0.00015124,-0.00005845,-0.0000697
 0,-0.00008148,-0.00006739,-0.00002615,-0.00009223,0.00003037,0.0000018
 8,0.00000773,-0.00000627,0.00000408,0.00004130,0.00000523,-0.00003600,
 0.00000478,-0.00000747,-0.00000036,0.00000339,0.00001721,0.00001094,-0
 .00001946,0.00000615,0.00000251,-0.00002702,0.00000769,0.00000076,-0.0
 0000866,-0.00000139,0.00000073,-0.00000462,0.00000326,-0.00000238,-0.0
 0003506,0.00018858,-0.00005225,0.00002430,0.00002813,0.00000245,0.0000
 3829,-0.00006886,0.00006268,-0.00001348,-0.00002736,0.00001763,-0.0000
 1193,0.00000351,0.00002017,-0.00002691,0.00002843,-0.00000037,-0.00001
 463,-0.00000205,-0.00001111,0.00003067,-0.00000845,-0.00000978,-0.0000
 0047,0.00000533,0.00000531,-0.00000779,-0.00001645,0.00000686,0.000002
 42,-0.00000404,0.00000170,0.00631583,-0.00486143,-0.00189228,-0.000815
 63,0.00000941,0.00053924,0.00149916,0.00019135,-0.01514806,0.00741383,
 -0.00338631,-0.00095982,-0.00103542,0.00042125,0.00023355,-0.07728655,
 -0.01352661,-0.08706610,-0.00392962,0.00166214,0.00165631,0.00673972,-
 0.00099984,0.00557273,-0.00000883,0.00002618,0.00024971,0.06540626,-0.
 00008011,0.00041452,-0.00121927,-0.00012663,-0.00026072,-0.00019024,0.
 00008023,-0.00016983,-0.00005033,-0.00003872,0.00000859,0.00002345,-0.
 00008921,-0.00000479,0.00000774,0.00000055,0.00000292,0.00000043,0.000
 00296,0.00000488,-0.00001301,-0.00001286,0.00000499,-0.00001346,0.0000
 0672,0.00000525,0.00001204,-0.00001547,-0.00000431,-0.00000703,-0.0000
 0724,0.00000546,0.00000209,-0.00001069,-0.00000131,-0.00000699,-0.0000
 0673,-0.00000035,-0.00000004,-0.00003691,0.00021254,-0.00004261,0.0000
 2930,-0.00004041,0.00003018,0.00002035,0.00000479,0.00003545,0.0000090
 1,0.00001899,0.00000289,-0.00001822,0.00000100,-0.00001004,0.00001638,
 -0.00001017,0.00002710,-0.00001106,0.00000081,-0.00001859,0.00001562,-
 0.00003639,0.00004641,0.00000748,-0.00001778,-0.00000728,-0.00000873,-
 0.00001966,0.00000061,-0.00000237,-0.00001443,-0.00000306,-0.00507322,
 -0.00412525,-0.00079847,-0.00005420,-0.00134014,0.00023233,-0.00942067
 ,0.00329387,-0.03189753,-0.00346324,-0.00314502,0.00405773,0.00041065,
 -0.00005544,-0.00014987,-0.01359427,-0.07182142,-0.01873842,0.00211467
 ,0.00062356,0.00003245,0.00876998,0.00791973,0.02918337,0.00041015,0.0
 0012514,0.00132230,0.01844216,0.06791533,0.00011355,0.00045199,-0.0003
 9131,-0.00008364,-0.00012756,-0.00008681,0.00009339,-0.00017051,-0.000
 02300,-0.00006846,0.00000312,0.00001841,-0.00009064,0.00001528,0.00002
 907,0.00002299,-0.00002188,-0.00001182,0.00003780,-0.00000769,-0.00004
 504,-0.00001491,0.00000577,-0.00000875,0.00001138,0.00000715,0.0000061
 2,-0.00002155,-0.00000845,-0.00001184,-0.00001749,0.00001192,0.0000030
 2,-0.00001513,-0.00000402,-0.00001089,-0.00001524,-0.00000022,-0.00000
 475,-0.00011257,0.00009447,-0.00007838,0.00001726,-0.00005630,0.000028
 61,0.00004514,-0.00003012,-0.00001061,-0.00000786,0.00003328,0.0000034
 8,-0.00002570,0.00001425,-0.00000471,0.00002166,-0.00000086,0.00000949
 ,0.00000177,0.00000897,-0.00001374,0.00000373,-0.00003005,0.00004652,0
 .00001542,-0.00002302,-0.00000992,-0.00000800,-0.00001871,0.00000892,0
 .00000074,-0.00002052,0.00000308,-0.00230141,-0.00122168,0.00180474,0.
 00054446,0.00011627,0.00092909,-0.00154590,0.00401561,-0.00579156,-0.0
 0075591,0.00454113,-0.00019669,0.00024209,-0.00013992,-0.00019559,-0.0
 8689469,-0.01891085,-0.34459757,0.00120467,-0.00102722,0.00086615,-0.0
 0808981,-0.00679108,-0.01483073,-0.00030506,-0.00020975,-0.00096208,0.
 09636282,0.01939779,0.36270043,-0.00095363,0.00025085,0.00020128,0.000
 01270,0.00000992,0.00016687,0.00000686,-0.00016125,-0.00009449,-0.0000
 4075,0.00000329,-0.00001315,-0.00007124,0.00002129,0.00000890,0.000023
 48,-0.00000822,-0.00001552,0.00004193,-0.00002334,-0.00000881,-0.00000
 903,0.00000239,-0.00000964,0.00000327,0.00000435,0.00000716,-0.0000162
 0,-0.00000264,-0.00000816,-0.00001952,0.00000178,0.00000934,-0.0000085
 7,-0.00000182,-0.00000245,-0.00000818,-0.00000273,-0.00000123,-0.00003
 024,-0.00002320,-0.00000652,-0.00001736,-0.00002814,-0.00002831,0.0000
 1842,-0.00000412,-0.00003021,-0.00001895,0.00000690,-0.00000381,-0.000
 00173,0.00000485,0.00001544,0.00000466,0.00001019,-0.00000699,-0.00000
 145,0.00000509,0.00000555,0.00000350,-0.00000663,0.00000822,0.00000413
 ,0.00000359,0.00000232,-0.00000452,-0.00000665,0.00000459,0.00000235,-
 0.00000406,0.00000378,-0.00055553,0.00082024,0.00029967,0.00698253,-0.
 00205222,-0.00348747,0.00763253,-0.00277795,-0.00116257,0.00121749,-0.
 00944030,-0.00097308,-0.00022962,-0.00035470,-0.00007603,0.00347505,-0
 .00214561,-0.00342673,-0.00013698,-0.00007039,-0.00009682,-0.10254696,
 -0.11219838,-0.04576404,-0.00375680,0.00203784,0.00106687,-0.00394978,
 0.00173434,0.00163510,0.09294812,0.00041352,-0.00002410,-0.00006631,-0
 .00002989,-0.00002711,-0.00010069,0.00008058,-0.00000646,0.00002787,-0
 .00003828,0.00002840,0.00002981,-0.00002509,0.00001208,0.00001552,0.00
 002281,-0.00002237,-0.00002137,0.00003659,-0.00002580,-0.00002053,-0.0
 0001135,0.00000678,0.00000257,0.00000703,0.00000269,0.00000261,-0.0000
 1362,-0.00000658,-0.00001111,-0.00000954,0.00000685,0.00000621,-0.0000
 0929,-0.00000666,-0.00000782,-0.00001461,-0.00000211,-0.00000418,-0.00
 006782,0.00002908,-0.00005827,-0.00003259,-0.00001909,0.00001897,0.000
 03657,-0.00006394,-0.00002625,-0.00002206,0.00000806,0.00001214,-0.000
 01173,0.00001663,0.00000321,-0.00000505,0.00002465,-0.00002929,0.00001
 959,0.00001624,0.00000541,0.00001511,-0.00000538,0.00000508,0.00001576
 ,-0.00001346,-0.00000291,-0.00000448,-0.00000756,0.00001270,0.00000479
 ,-0.00001518,0.00000738,0.00069744,0.00033797,0.00070376,-0.00219953,0
 .00248105,0.00057178,-0.00257503,-0.00137003,0.00497789,0.00008444,0.0
 0261310,0.00380422,0.00000364,-0.00011910,0.00004038,-0.01198732,-0.01
 659239,-0.01396296,-0.00048753,-0.00099110,-0.00054364,-0.11207587,-0.
 28738007,-0.08190636,0.00167357,0.00043266,-0.00117202,0.00211383,0.00
 050505,0.00010337,0.12439541,0.30017722,0.00025902,-0.00013066,0.00001
 788,-0.00001650,0.00007124,0.00002040,0.00004407,-0.00000600,0.0000477
 9,-0.00001524,-0.00001905,0.00000875,0.00000624,0.00000038,0.00001819,
 0.00001382,-0.00000229,0.00000072,-0.00000118,0.00001235,-0.00001708,-
 0.00000404,0.00000678,0.00000877,0.00000365,0.00000703,-0.00000124,-0.
 00000359,-0.00000292,-0.00000952,-0.00000349,0.00000225,0.00000373,-0.
 00000303,-0.00000223,-0.00000444,-0.00000624,-0.00000020,-0.00000091,-
 0.00005397,0.00002592,-0.00000787,0.00003781,-0.00001647,0.00001544,0.
 00001404,-0.00001558,0.00004334,-0.00000031,0.00000657,-0.00000153,-0.
 00001268,0.00000581,-0.00000240,0.00000735,-0.00001574,0.00001525,-0.0
 0000444,-0.00000207,-0.00000916,-0.00000733,-0.00000982,0.00000556,0.0
 0000303,-0.00000414,0.00000010,0.00000014,-0.00000283,0.00000237,-0.00
 000012,-0.00000202,0.00000164,0.00023506,0.00068166,-0.00112329,-0.003
 28676,0.00119544,-0.00553745,-0.00135631,0.00432961,-0.00202256,-0.014
 73689,-0.03221824,-0.00441831,-0.00063953,-0.00145384,-0.00052029,0.01
 032424,0.02208512,0.01264173,0.00046369,0.00090705,0.00036774,-0.04575
 103,-0.08197272,-0.10408724,0.00160368,0.00020489,0.00092134,0.0011059
 3,-0.00124812,0.00082864,0.05178093,0.08758283,0.10279392||-0.00001457
 ,0.00000512,0.00003981,-0.00000555,0.00000451,0.00001713,0.00000020,-0
 .00002292,-0.00006662,-0.00007284,0.00001291,0.00001641,0.00004014,0.0
 0002288,0.00002661,0.00006107,0.00000469,0.00002716,0.00000838,0.00000
 647,0.00000917,-0.00004878,0.00001687,0.00001887,0.00000282,-0.0000127
 0,-0.00000953,0.00001292,-0.00003401,-0.00004498,-0.00000802,0.0000081
 2,0.00000084,0.00000211,-0.00000844,-0.00000641,-0.00001249,0.00000694
 ,0.00000231,0.00005265,-0.00002044,-0.00006097,-0.00004969,0.00003605,
 -0.00000615,0.00000560,-0.00005698,0.00006285,-0.00000753,-0.00004252,
 0.00004664,0.00001394,0.00000340,-0.00000753,-0.00004032,0.00006221,-0
 .00001531,-0.00001240,0.00000764,0.00000054,0.00004987,0.00000579,-0.0
 0004338,0.00000913,0.00000286,-0.00000529,-0.00000441,-0.00001000,0.00
 000406,-0.00000312,-0.00001150,0.00000839,0.00002264,0.00001975,-0.000
 06739,-0.00001117,-0.00005366,0.00001622,0.00002204,0.00005669,0.00005
 194,0.00001841,0.00003335,0.00004527,-0.00000457,0.00000544,-0.0000146
 2,-0.00003281,-0.00006362,-0.00000013,-0.00000284,-0.00001219,0.000006
 82,-0.00000341,0.00001418,-0.00006045,-0.00000323,0.00000322,-0.000009
 97,0.00000824,0.00000293,0.00000752,0.00000758,0.00000696,0.00001018||
 |@


 CHILDREN YOU ARE VERY LITTLE,
 AND YOUR BONES ARE VERY BRITTLE;
 IF YOU WOULD GROW GREAT AND STATELY
 YOU MUST TRY TO WALK SEDATELY.
 YOU MUST STILL BE BRIGHT AND QUIET,
 AND CONTENT WITH SIMPLE DIET;
 AND REMAIN, THROUGH ALL BEWILD'RING
 INNOCENT AND HONEST CHILDREN.
     -- A CHILD'S GARDEN OF VERSE,
        ROBERT LOUIS STEVENSON
 Job cpu time:  0 days  0 hours  6 minutes 31.0 seconds.
 File lengths (MBytes):  RWF=    350 Int=      0 D2E=      0 Chk=      7 Scr=      1
 Normal termination of Gaussian 09 at Mon Sep 06 14:07:05 2021.
