 Entering Link 1 = b:\programy\g09w\l1.exe PID=     15300.
  
 Copyright (c) 1988,1990,1992,1993,1995,1998,2003,2009, Gaussian, Inc.
                  All Rights Reserved.
  
 This is part of the Gaussian(R) 09 program.  It is based on
 the Gaussian(R) 03 system (copyright 2003, Gaussian, Inc.),
 the Gaussian(R) 98 system (copyright 1998, Gaussian, Inc.),
 the Gaussian(R) 94 system (copyright 1995, Gaussian, Inc.),
 the Gaussian 92(TM) system (copyright 1992, Gaussian, Inc.),
 the Gaussian 90(TM) system (copyright 1990, Gaussian, Inc.),
 the Gaussian 88(TM) system (copyright 1988, Gaussian, Inc.),
 the Gaussian 86(TM) system (copyright 1986, Carnegie Mellon
 University), and the Gaussian 82(TM) system (copyright 1983,
 Carnegie Mellon University). Gaussian is a federally registered
 trademark of Gaussian, Inc.
  
 This software contains proprietary and confidential information,
 including trade secrets, belonging to Gaussian, Inc.
  
 This software is provided under written license and may be
 used, copied, transmitted, or stored only in accord with that
 written license.
  
 The following legend is applicable only to US Government
 contracts under FAR:
  
                    RESTRICTED RIGHTS LEGEND
  
 Use, reproduction and disclosure by the US Government is
 subject to restrictions as set forth in subparagraphs (a)
 and (c) of the Commercial Computer Software - Restricted
 Rights clause in FAR 52.227-19.
  
 Gaussian, Inc.
 340 Quinnipiac St., Bldg. 40, Wallingford CT 06492
  
  
 ---------------------------------------------------------------
 Warning -- This program may not be used in any manner that
 competes with the business of Gaussian, Inc. or will provide
 assistance to any competitor of Gaussian, Inc.  The licensee
 of this program is prohibited from giving any competitor of
 Gaussian, Inc. access to this program.  By using this program,
 the user acknowledges that Gaussian, Inc. is engaged in the
 business of creating and licensing software in the field of
 computational chemistry and represents and warrants to the
 licensee that it is not a competitor of Gaussian, Inc. and that
 it will not use this program in any manner prohibited above.
 ---------------------------------------------------------------
  

 Cite this work as:
 Gaussian 09, Revision A.02,
 M. J. Frisch, G. W. Trucks, H. B. Schlegel, G. E. Scuseria, 
 M. A. Robb, J. R. Cheeseman, G. Scalmani, V. Barone, B. Mennucci, 
 G. A. Petersson, H. Nakatsuji, M. Caricato, X. Li, H. P. Hratchian, 
 A. F. Izmaylov, J. Bloino, G. Zheng, J. L. Sonnenberg, M. Hada, 
 M. Ehara, K. Toyota, R. Fukuda, J. Hasegawa, M. Ishida, T. Nakajima, 
 Y. Honda, O. Kitao, H. Nakai, T. Vreven, J. A. Montgomery, Jr., 
 J. E. Peralta, F. Ogliaro, M. Bearpark, J. J. Heyd, E. Brothers, 
 K. N. Kudin, V. N. Staroverov, R. Kobayashi, J. Normand, 
 K. Raghavachari, A. Rendell, J. C. Burant, S. S. Iyengar, J. Tomasi, 
 M. Cossi, N. Rega, J. M. Millam, M. Klene, J. E. Knox, J. B. Cross, 
 V. Bakken, C. Adamo, J. Jaramillo, R. Gomperts, R. E. Stratmann, 
 O. Yazyev, A. J. Austin, R. Cammi, C. Pomelli, J. W. Ochterski, 
 R. L. Martin, K. Morokuma, V. G. Zakrzewski, G. A. Voth, 
 P. Salvador, J. J. Dannenberg, S. Dapprich, A. D. Daniels, 
 O. Farkas, J. B. Foresman, J. V. Ortiz, J. Cioslowski, 
 and D. J. Fox, Gaussian, Inc., Wallingford CT, 2009.
 
 ******************************************
 Gaussian 09:  IA32W-G09RevA.02 11-Jun-2009
                06-Sep-2021 
 ******************************************
 %nprocshared=12
 Will use up to   12 processors via shared memory.
 ----------------------------------------------
 # opt freq=noraman hf/6-311g geom=connectivity
 ----------------------------------------------
 1/18=20,19=15,38=1,57=2/1,3;
 2/9=110,12=2,17=6,18=5,40=1/2;
 3/5=4,6=6,11=9,16=1,25=1,30=1,71=1/1,2,3;
 4//1;
 5/5=2,38=5/2;
 6/7=2,8=2,9=2,10=2,28=1/1;
 7//1,2,3,16;
 1/18=20,19=15/3(2);
 2/9=110/2;
 99//99;
 2/9=110/2;
 3/5=4,6=6,11=9,16=1,25=1,30=1,71=1/1,2,3;
 4/5=5,16=3/1;
 5/5=2,38=5/2;
 7//1,2,3,16;
 1/18=20,19=15/3(-5);
 2/9=110/2;
 6/7=2,8=2,9=2,10=2,19=2,28=1/1;
 99/9=1/99;
 -----
 M0001
 -----
 Symbolic Z-matrix:
 Charge =  0 Multiplicity = 1
 C                     0.        0.        0.79549 
 H                     0.        0.        1.91819 
 C                     0.65028  -1.28827   0.35525 
 C                     0.58021  -2.40132   1.19746 
 C                     1.31531  -1.40035  -0.86654 
 C                     1.16533  -3.60439   0.82082 
 H                     0.05947  -2.32861   2.1593 
 C                     1.90198  -2.60461  -1.23953 
 H                     1.38128  -0.52713  -1.52891 
 C                     1.82767  -3.7085   -0.3978 
 H                     1.10455  -4.47158   1.48635 
 H                     2.42437  -2.6808   -2.19866 
 H                     2.28969  -4.65615  -0.6923 
 C                    -1.44082   0.08097   0.35525 
 C                    -2.36971   0.69818   1.19746 
 C                    -1.87039  -0.43892  -0.86654 
 C                    -3.70416   0.79299   0.82082 
 H                    -2.04637   1.1128    2.1593 
 C                    -3.20665  -0.34486  -1.23953 
 H                    -1.14715  -0.93266  -1.52891 
 C                    -4.12549   0.27144  -0.3978 
 H                    -4.42478   1.27922   1.48635 
 H                    -3.53383  -0.75916  -2.19866 
 H                    -5.17719   0.34514  -0.6923 
 C                     0.79053   1.2073    0.35525 
 C                     1.7895    1.70313   1.19746 
 C                     0.55508   1.83927  -0.86654 
 C                     2.53883   2.81141   0.82082 
 H                     1.9869    1.21581   2.1593 
 C                     1.30467   2.94947  -1.23953 
 H                    -0.23413   1.45979  -1.52891 
 C                     2.29782   3.43706  -0.3978 
 H                     3.32023   3.19236   1.48635 
 H                     1.10946   3.43997  -2.19866 
 H                     2.8875    4.31101  -0.6923 
 

 GradGradGradGradGradGradGradGradGradGradGradGradGradGradGradGradGradGrad
 Berny optimization.
 Initialization pass.
                           ----------------------------
                           !    Initial Parameters    !
                           ! (Angstroms and Degrees)  !
 --------------------------                            --------------------------
 ! Name  Definition              Value          Derivative Info.                !
 --------------------------------------------------------------------------------
 ! R1    R(1,2)                  1.1227         estimate D2E/DX2                !
 ! R2    R(1,3)                  1.5087         estimate D2E/DX2                !
 ! R3    R(1,14)                 1.5087         estimate D2E/DX2                !
 ! R4    R(1,25)                 1.5087         estimate D2E/DX2                !
 ! R5    R(3,4)                  1.3975         estimate D2E/DX2                !
 ! R6    R(3,5)                  1.3956         estimate D2E/DX2                !
 ! R7    R(4,6)                  1.3898         estimate D2E/DX2                !
 ! R8    R(4,7)                  1.0962         estimate D2E/DX2                !
 ! R9    R(5,8)                  1.3905         estimate D2E/DX2                !
 ! R10   R(5,9)                  1.098          estimate D2E/DX2                !
 ! R11   R(6,10)                 1.3909         estimate D2E/DX2                !
 ! R12   R(6,11)                 1.0948         estimate D2E/DX2                !
 ! R13   R(8,10)                 1.3902         estimate D2E/DX2                !
 ! R14   R(8,12)                 1.0948         estimate D2E/DX2                !
 ! R15   R(10,13)                1.0946         estimate D2E/DX2                !
 ! R16   R(14,15)                1.3975         estimate D2E/DX2                !
 ! R17   R(14,16)                1.3956         estimate D2E/DX2                !
 ! R18   R(15,17)                1.3898         estimate D2E/DX2                !
 ! R19   R(15,18)                1.0962         estimate D2E/DX2                !
 ! R20   R(16,19)                1.3905         estimate D2E/DX2                !
 ! R21   R(16,20)                1.098          estimate D2E/DX2                !
 ! R22   R(17,21)                1.3909         estimate D2E/DX2                !
 ! R23   R(17,22)                1.0948         estimate D2E/DX2                !
 ! R24   R(19,21)                1.3902         estimate D2E/DX2                !
 ! R25   R(19,23)                1.0948         estimate D2E/DX2                !
 ! R26   R(21,24)                1.0946         estimate D2E/DX2                !
 ! R27   R(25,26)                1.3975         estimate D2E/DX2                !
 ! R28   R(25,27)                1.3956         estimate D2E/DX2                !
 ! R29   R(26,28)                1.3898         estimate D2E/DX2                !
 ! R30   R(26,29)                1.0962         estimate D2E/DX2                !
 ! R31   R(27,30)                1.3905         estimate D2E/DX2                !
 ! R32   R(27,31)                1.098          estimate D2E/DX2                !
 ! R33   R(28,32)                1.3909         estimate D2E/DX2                !
 ! R34   R(28,33)                1.0948         estimate D2E/DX2                !
 ! R35   R(30,32)                1.3902         estimate D2E/DX2                !
 ! R36   R(30,34)                1.0948         estimate D2E/DX2                !
 ! R37   R(32,35)                1.0946         estimate D2E/DX2                !
 ! A1    A(2,1,3)              106.9654         estimate D2E/DX2                !
 ! A2    A(2,1,14)             106.9654         estimate D2E/DX2                !
 ! A3    A(2,1,25)             106.9654         estimate D2E/DX2                !
 ! A4    A(3,1,14)             111.8566         estimate D2E/DX2                !
 ! A5    A(3,1,25)             111.8566         estimate D2E/DX2                !
 ! A6    A(14,1,25)            111.8566         estimate D2E/DX2                !
 ! A7    A(1,3,4)              118.8548         estimate D2E/DX2                !
 ! A8    A(1,3,5)              121.9666         estimate D2E/DX2                !
 ! A9    A(4,3,5)              119.1784         estimate D2E/DX2                !
 ! A10   A(3,4,6)              120.3311         estimate D2E/DX2                !
 ! A11   A(3,4,7)              119.9854         estimate D2E/DX2                !
 ! A12   A(6,4,7)              119.6833         estimate D2E/DX2                !
 ! A13   A(3,5,8)              120.3607         estimate D2E/DX2                !
 ! A14   A(3,5,9)              119.531          estimate D2E/DX2                !
 ! A15   A(8,5,9)              120.1056         estimate D2E/DX2                !
 ! A16   A(4,6,10)             120.1792         estimate D2E/DX2                !
 ! A17   A(4,6,11)             119.8373         estimate D2E/DX2                !
 ! A18   A(10,6,11)            119.9834         estimate D2E/DX2                !
 ! A19   A(5,8,10)             120.1812         estimate D2E/DX2                !
 ! A20   A(5,8,12)             119.7736         estimate D2E/DX2                !
 ! A21   A(10,8,12)            120.0451         estimate D2E/DX2                !
 ! A22   A(6,10,8)             119.7692         estimate D2E/DX2                !
 ! A23   A(6,10,13)            120.1            estimate D2E/DX2                !
 ! A24   A(8,10,13)            120.1308         estimate D2E/DX2                !
 ! A25   A(1,14,15)            118.8548         estimate D2E/DX2                !
 ! A26   A(1,14,16)            121.9666         estimate D2E/DX2                !
 ! A27   A(15,14,16)           119.1784         estimate D2E/DX2                !
 ! A28   A(14,15,17)           120.3311         estimate D2E/DX2                !
 ! A29   A(14,15,18)           119.9854         estimate D2E/DX2                !
 ! A30   A(17,15,18)           119.6833         estimate D2E/DX2                !
 ! A31   A(14,16,19)           120.3607         estimate D2E/DX2                !
 ! A32   A(14,16,20)           119.531          estimate D2E/DX2                !
 ! A33   A(19,16,20)           120.1056         estimate D2E/DX2                !
 ! A34   A(15,17,21)           120.1792         estimate D2E/DX2                !
 ! A35   A(15,17,22)           119.8373         estimate D2E/DX2                !
 ! A36   A(21,17,22)           119.9834         estimate D2E/DX2                !
 ! A37   A(16,19,21)           120.1812         estimate D2E/DX2                !
 ! A38   A(16,19,23)           119.7736         estimate D2E/DX2                !
 ! A39   A(21,19,23)           120.0451         estimate D2E/DX2                !
 ! A40   A(17,21,19)           119.7692         estimate D2E/DX2                !
 ! A41   A(17,21,24)           120.1            estimate D2E/DX2                !
 ! A42   A(19,21,24)           120.1308         estimate D2E/DX2                !
 ! A43   A(1,25,26)            118.8548         estimate D2E/DX2                !
 ! A44   A(1,25,27)            121.9666         estimate D2E/DX2                !
 ! A45   A(26,25,27)           119.1784         estimate D2E/DX2                !
 ! A46   A(25,26,28)           120.3311         estimate D2E/DX2                !
 ! A47   A(25,26,29)           119.9854         estimate D2E/DX2                !
 ! A48   A(28,26,29)           119.6833         estimate D2E/DX2                !
 ! A49   A(25,27,30)           120.3607         estimate D2E/DX2                !
 ! A50   A(25,27,31)           119.531          estimate D2E/DX2                !
 ! A51   A(30,27,31)           120.1056         estimate D2E/DX2                !
 ! A52   A(26,28,32)           120.1792         estimate D2E/DX2                !
 ! A53   A(26,28,33)           119.8373         estimate D2E/DX2                !
 ! A54   A(32,28,33)           119.9834         estimate D2E/DX2                !
 ! A55   A(27,30,32)           120.1812         estimate D2E/DX2                !
 ! A56   A(27,30,34)           119.7736         estimate D2E/DX2                !
 ! A57   A(32,30,34)           120.0451         estimate D2E/DX2                !
 ! A58   A(28,32,30)           119.7692         estimate D2E/DX2                !
 ! A59   A(28,32,35)           120.1            estimate D2E/DX2                !
 ! A60   A(30,32,35)           120.1308         estimate D2E/DX2                !
 ! D1    D(2,1,3,4)             27.4433         estimate D2E/DX2                !
 ! D2    D(2,1,3,5)           -152.6912         estimate D2E/DX2                !
 ! D3    D(14,1,3,4)           -89.3688         estimate D2E/DX2                !
 ! D4    D(14,1,3,5)            90.4967         estimate D2E/DX2                !
 ! D5    D(25,1,3,4)           144.2554         estimate D2E/DX2                !
 ! D6    D(25,1,3,5)           -35.8791         estimate D2E/DX2                !
 ! D7    D(2,1,14,15)           27.4433         estimate D2E/DX2                !
 ! D8    D(2,1,14,16)         -152.6912         estimate D2E/DX2                !
 ! D9    D(3,1,14,15)          144.2554         estimate D2E/DX2                !
 ! D10   D(3,1,14,16)          -35.8791         estimate D2E/DX2                !
 ! D11   D(25,1,14,15)         -89.3688         estimate D2E/DX2                !
 ! D12   D(25,1,14,16)          90.4967         estimate D2E/DX2                !
 ! D13   D(2,1,25,26)           27.4433         estimate D2E/DX2                !
 ! D14   D(2,1,25,27)         -152.6912         estimate D2E/DX2                !
 ! D15   D(3,1,25,26)          -89.3688         estimate D2E/DX2                !
 ! D16   D(3,1,25,27)           90.4967         estimate D2E/DX2                !
 ! D17   D(14,1,25,26)         144.2554         estimate D2E/DX2                !
 ! D18   D(14,1,25,27)         -35.8791         estimate D2E/DX2                !
 ! D19   D(1,3,4,6)            179.8237         estimate D2E/DX2                !
 ! D20   D(1,3,4,7)             -0.0135         estimate D2E/DX2                !
 ! D21   D(5,3,4,6)             -0.0456         estimate D2E/DX2                !
 ! D22   D(5,3,4,7)           -179.8828         estimate D2E/DX2                !
 ! D23   D(1,3,5,8)           -179.9433         estimate D2E/DX2                !
 ! D24   D(1,3,5,9)              0.6554         estimate D2E/DX2                !
 ! D25   D(4,3,5,8)             -0.0783         estimate D2E/DX2                !
 ! D26   D(4,3,5,9)           -179.4796         estimate D2E/DX2                !
 ! D27   D(3,4,6,10)             0.1085         estimate D2E/DX2                !
 ! D28   D(3,4,6,11)          -179.9285         estimate D2E/DX2                !
 ! D29   D(7,4,6,10)           179.9463         estimate D2E/DX2                !
 ! D30   D(7,4,6,11)            -0.0907         estimate D2E/DX2                !
 ! D31   D(3,5,8,10)             0.1398         estimate D2E/DX2                !
 ! D32   D(3,5,8,12)          -179.7838         estimate D2E/DX2                !
 ! D33   D(9,5,8,10)           179.5377         estimate D2E/DX2                !
 ! D34   D(9,5,8,12)            -0.386          estimate D2E/DX2                !
 ! D35   D(4,6,10,8)            -0.0472         estimate D2E/DX2                !
 ! D36   D(4,6,10,13)          179.8837         estimate D2E/DX2                !
 ! D37   D(11,6,10,8)          179.9899         estimate D2E/DX2                !
 ! D38   D(11,6,10,13)          -0.0792         estimate D2E/DX2                !
 ! D39   D(5,8,10,6)            -0.0766         estimate D2E/DX2                !
 ! D40   D(5,8,10,13)          179.9925         estimate D2E/DX2                !
 ! D41   D(12,8,10,6)          179.8469         estimate D2E/DX2                !
 ! D42   D(12,8,10,13)          -0.084          estimate D2E/DX2                !
 ! D43   D(1,14,15,17)         179.8237         estimate D2E/DX2                !
 ! D44   D(1,14,15,18)          -0.0135         estimate D2E/DX2                !
 ! D45   D(16,14,15,17)         -0.0456         estimate D2E/DX2                !
 ! D46   D(16,14,15,18)       -179.8828         estimate D2E/DX2                !
 ! D47   D(1,14,16,19)        -179.9433         estimate D2E/DX2                !
 ! D48   D(1,14,16,20)           0.6554         estimate D2E/DX2                !
 ! D49   D(15,14,16,19)         -0.0783         estimate D2E/DX2                !
 ! D50   D(15,14,16,20)       -179.4796         estimate D2E/DX2                !
 ! D51   D(14,15,17,21)          0.1085         estimate D2E/DX2                !
 ! D52   D(14,15,17,22)       -179.9285         estimate D2E/DX2                !
 ! D53   D(18,15,17,21)        179.9463         estimate D2E/DX2                !
 ! D54   D(18,15,17,22)         -0.0907         estimate D2E/DX2                !
 ! D55   D(14,16,19,21)          0.1398         estimate D2E/DX2                !
 ! D56   D(14,16,19,23)       -179.7838         estimate D2E/DX2                !
 ! D57   D(20,16,19,21)        179.5377         estimate D2E/DX2                !
 ! D58   D(20,16,19,23)         -0.386          estimate D2E/DX2                !
 ! D59   D(15,17,21,19)         -0.0472         estimate D2E/DX2                !
 ! D60   D(15,17,21,24)        179.8837         estimate D2E/DX2                !
 ! D61   D(22,17,21,19)        179.9899         estimate D2E/DX2                !
 ! D62   D(22,17,21,24)         -0.0792         estimate D2E/DX2                !
 ! D63   D(16,19,21,17)         -0.0766         estimate D2E/DX2                !
 ! D64   D(16,19,21,24)        179.9925         estimate D2E/DX2                !
 ! D65   D(23,19,21,17)        179.8469         estimate D2E/DX2                !
 ! D66   D(23,19,21,24)         -0.084          estimate D2E/DX2                !
 ! D67   D(1,25,26,28)         179.8237         estimate D2E/DX2                !
 ! D68   D(1,25,26,29)          -0.0135         estimate D2E/DX2                !
 ! D69   D(27,25,26,28)         -0.0456         estimate D2E/DX2                !
 ! D70   D(27,25,26,29)       -179.8828         estimate D2E/DX2                !
 ! D71   D(1,25,27,30)        -179.9433         estimate D2E/DX2                !
 ! D72   D(1,25,27,31)           0.6554         estimate D2E/DX2                !
 ! D73   D(26,25,27,30)         -0.0783         estimate D2E/DX2                !
 ! D74   D(26,25,27,31)       -179.4796         estimate D2E/DX2                !
 ! D75   D(25,26,28,32)          0.1085         estimate D2E/DX2                !
 ! D76   D(25,26,28,33)       -179.9285         estimate D2E/DX2                !
 ! D77   D(29,26,28,32)        179.9463         estimate D2E/DX2                !
 ! D78   D(29,26,28,33)         -0.0907         estimate D2E/DX2                !
 ! D79   D(25,27,30,32)          0.1398         estimate D2E/DX2                !
 ! D80   D(25,27,30,34)       -179.7838         estimate D2E/DX2                !
 ! D81   D(31,27,30,32)        179.5377         estimate D2E/DX2                !
 ! D82   D(31,27,30,34)         -0.386          estimate D2E/DX2                !
 ! D83   D(26,28,32,30)         -0.0472         estimate D2E/DX2                !
 ! D84   D(26,28,32,35)        179.8837         estimate D2E/DX2                !
 ! D85   D(33,28,32,30)        179.9899         estimate D2E/DX2                !
 ! D86   D(33,28,32,35)         -0.0792         estimate D2E/DX2                !
 ! D87   D(27,30,32,28)         -0.0766         estimate D2E/DX2                !
 ! D88   D(27,30,32,35)        179.9925         estimate D2E/DX2                !
 ! D89   D(34,30,32,28)        179.8469         estimate D2E/DX2                !
 ! D90   D(34,30,32,35)         -0.084          estimate D2E/DX2                !
 --------------------------------------------------------------------------------
 Trust Radius=3.00D-01 FncErr=1.00D-07 GrdErr=1.00D-07
 Number of steps in this run= 197 maximum allowed number of steps= 210.
 GradGradGradGradGradGradGradGradGradGradGradGradGradGradGradGradGradGrad

                          Input orientation:                          
 ---------------------------------------------------------------------
 Center     Atomic      Atomic             Coordinates (Angstroms)
 Number     Number       Type             X           Y           Z
 ---------------------------------------------------------------------
      1          6           0        0.000000    0.000000    0.795492
      2          1           0        0.000000    0.000000    1.918194
      3          6           0        0.650284   -1.288269    0.355248
      4          6           0        0.580209   -2.401318    1.197460
      5          6           0        1.315309   -1.400351   -0.866542
      6          6           0        1.165335   -3.604395    0.820823
      7          1           0        0.059470   -2.328608    2.159295
      8          6           0        1.901980   -2.604612   -1.239528
      9          1           0        1.381281   -0.527131   -1.528907
     10          6           0        1.827670   -3.708504   -0.397803
     11          1           0        1.104549   -4.471580    1.486349
     12          1           0        2.424369   -2.680804   -2.198657
     13          1           0        2.289694   -4.656148   -0.692302
     14          6           0       -1.440816    0.080972    0.355248
     15          6           0       -2.369707    0.698183    1.197460
     16          6           0       -1.870394   -0.438916   -0.866542
     17          6           0       -3.704165    0.792988    0.820823
     18          1           0       -2.046369    1.112801    2.159295
     19          6           0       -3.206650   -0.344857   -1.239528
     20          1           0       -1.147149   -0.932659   -1.528907
     21          6           0       -4.125494    0.271444   -0.397803
     22          1           0       -4.424776    1.279222    1.486349
     23          1           0       -3.533829   -0.759163   -2.198657
     24          1           0       -5.177190    0.345141   -0.692302
     25          6           0        0.790532    1.207297    0.355248
     26          6           0        1.789498    1.703135    1.197460
     27          6           0        0.555085    1.839266   -0.866542
     28          6           0        2.538830    2.811407    0.820823
     29          1           0        1.986899    1.215807    2.159295
     30          6           0        1.304670    2.949469   -1.239528
     31          1           0       -0.234132    1.459790   -1.528907
     32          6           0        2.297824    3.437061   -0.397803
     33          1           0        3.320227    3.192358    1.486349
     34          1           0        1.109460    3.439968   -2.198657
     35          1           0        2.887495    4.311008   -0.692302
 ---------------------------------------------------------------------
                    Distance matrix (angstroms):
                    1          2          3          4          5
     1  C    0.000000
     2  H    1.122703   0.000000
     3  C    1.508748   2.127277   0.000000
     4  C    2.502908   2.573408   1.397537   0.000000
     5  C    2.540349   3.383161   1.395561   2.408820   0.000000
     6  C    3.788180   3.943842   2.417949   1.389828   2.779838
     7  H    2.699243   2.341812   2.164706   1.096167   3.405067
     8  C    3.813507   4.513617   2.417191   2.779805   1.390520
     9  H    2.754747   3.750775   2.159567   3.404023   1.097995
    10  C    4.303177   4.738905   2.794792   2.410344   2.410353
    11  H    4.657504   4.626180   3.408697   2.155081   3.874656
    12  H    4.693528   5.478388   3.407193   3.874616   2.155019
    13  H    5.397772   5.808365   3.889426   3.402617   3.402940
    14  C    1.508748   2.127277   2.499504   3.309929   3.359064
    15  C    2.502908   2.573408   3.711558   4.278892   4.716280
    16  C    2.540349   3.383161   2.927113   3.757204   3.327621
    17  C    3.788180   3.943842   4.848671   5.357360   5.731758
    18  H    2.699243   2.341812   4.036293   4.491445   5.174215
    19  C    3.813507   4.513617   4.278934   4.950581   4.658466
    20  H    2.754747   3.750775   2.628167   3.545956   2.592521
    21  C    4.303177   4.738905   5.080142   5.642000   5.711125
    22  H    4.657504   4.626180   5.798934   6.219302   6.757573
    23  H    4.693528   5.478388   4.930435   5.581720   5.069497
    24  H    5.397772   5.808365   6.142055   6.652960   6.725299
    25  C    1.508748   2.127277   2.499504   3.711558   2.927113
    26  C    2.502908   2.573408   3.309929   4.278892   3.757204
    27  C    2.540349   3.383160   3.359064   4.716280   3.327621
    28  C    3.788180   3.943842   4.537699   5.581268   4.699266
    29  H    2.699243   2.341812   3.363260   3.998437   4.055983
    30  C    3.813507   4.513617   4.574927   5.924076   4.365795
    31  H    2.754747   3.750775   3.447327   4.796289   3.319624
    32  C    4.303177   4.738905   5.060654   6.291401   4.958387
    33  H    4.657504   4.626181   5.337041   6.235412   5.536133
    34  H    4.693528   5.478388   5.393468   6.777487   5.024499
    35  H    5.397772   5.808365   6.119998   7.345072   5.926360
                    6          7          8          9         10
     6  C    0.000000
     7  H    2.154548   0.000000
     8  C    2.405672   3.875954   0.000000
     9  H    3.877811   4.312232   2.161203   0.000000
    10  C    1.390890   3.401381   1.390180   3.405848   0.000000
    11  H    1.094820   2.477373   3.398804   4.972628   2.157595
    12  H    3.399330   4.970768   1.094817   2.484936   2.157613
    13  H    2.158684   4.303830   2.158374   4.309746   1.094635
    14  C    4.537699   3.363260   4.574927   3.447327   5.060654
    15  C    5.581268   3.998437   5.924076   4.796289   6.291401
    16  C    4.699266   4.055983   4.365795   3.319624   4.958387
    17  C    6.561174   5.069597   6.871505   5.755493   7.235307
    18  H    5.861611   4.034583   6.400048   5.295375   6.692676
    19  C    5.829570   5.114177   5.586107   4.600661   6.112856
    20  H    4.243463   4.124007   3.489463   2.560745   4.223063
    21  C    6.670835   5.550941   6.731317   5.678176   7.161015
    22  H    7.452649   5.794632   7.908376   6.787119   8.217087
    23  H    6.268552   5.862312   5.820106   4.965956   6.378664
    24  H    7.623385   6.534764   7.688637   6.668906   8.098569
    25  C    4.848671   4.036293   4.278934   2.628167   5.080142
    26  C    5.357360   4.491445   4.950581   3.545956   5.642000
    27  C    5.731758   5.174215   4.658466   2.592521   5.711125
    28  C    6.561174   5.861611   5.829570   4.243463   6.670835
    29  H    5.069597   4.034583   5.114177   4.124007   5.550941
    30  C    6.871505   6.400048   5.586107   3.489463   6.731318
    31  H    5.755493   5.295375   4.600661   2.560745   5.678177
    32  C    7.235307   6.692676   6.112856   4.223063   7.161015
    33  H    7.161168   6.447205   6.560998   5.165837   7.307507
    34  H    7.664425   7.305524   6.171301   4.032409   7.406723
    35  H    8.240690   7.759757   7.006889   5.135773   8.094599
                   11         12         13         14         15
    11  H    0.000000
    12  H    4.304424   0.000000
    13  H    2.486997   2.487815   0.000000
    14  C    5.337041   5.393468   6.119998   0.000000
    15  C    6.235412   6.777487   7.345072   1.397537   0.000000
    16  C    5.536133   5.024499   5.926360   1.395561   2.408820
    17  C    7.161168   7.664425   8.240690   2.417949   1.389828
    18  H    6.447205   7.305525   7.759757   2.164706   1.096167
    19  C    6.560998   6.171301   7.006889   2.417191   2.779805
    20  H    5.165837   4.032409   5.135773   2.159567   3.404023
    21  C    7.307507   7.406723   8.094599   2.794792   2.410344
    22  H    7.977792   8.727650   9.222758   3.408697   2.155081
    23  H    6.991127   6.260418   7.167219   3.407193   3.874616
    24  H    8.210211   8.319203   8.987060   3.889426   3.402617
    25  C    5.798934   4.930435   6.142055   2.499504   3.309929
    26  C    6.219302   5.581720   6.652960   3.711558   4.278892
    27  C    6.757573   5.069497   6.725298   2.927113   3.757204
    28  C    7.452649   6.268552   7.623385   4.848671   5.357360
    29  H    5.794632   5.862312   6.534764   4.036293   4.491445
    30  C    7.908376   5.820106   7.688637   4.278934   4.950581
    31  H    6.787119   4.965956   6.668906   2.628167   3.545956
    32  C    8.217087   6.378664   8.098569   5.080142   5.642000
    33  H    7.977792   6.991127   8.210211   5.798934   6.219302
    34  H    8.727650   6.260418   8.319203   4.930435   5.581720
    35  H    9.222758   7.167219   8.987060   6.142055   6.652960
                   16         17         18         19         20
    16  C    0.000000
    17  C    2.779838   0.000000
    18  H    3.405067   2.154548   0.000000
    19  C    1.390520   2.405672   3.875954   0.000000
    20  H    1.097995   3.877811   4.312232   2.161203   0.000000
    21  C    2.410353   1.390890   3.401381   1.390180   3.405848
    22  H    3.874656   1.094820   2.477373   3.398804   4.972628
    23  H    2.155019   3.399330   4.970768   1.094817   2.484936
    24  H    3.402940   2.158684   4.303830   2.158374   4.309746
    25  C    3.359064   4.537699   3.363260   4.574927   3.447327
    26  C    4.716280   5.581268   3.998437   5.924076   4.796289
    27  C    3.327621   4.699266   4.055983   4.365795   3.319624
    28  C    5.731758   6.561174   5.069597   6.871506   5.755493
    29  H    5.174215   5.861611   4.034583   6.400048   5.295375
    30  C    4.658466   5.829570   5.114177   5.586107   4.600661
    31  H    2.592521   4.243463   4.124008   3.489463   2.560745
    32  C    5.711125   6.670835   5.550941   6.731318   5.678177
    33  H    6.757573   7.452649   5.794632   7.908377   6.787119
    34  H    5.069497   6.268552   5.862312   5.820106   4.965956
    35  H    6.725299   7.623385   6.534764   7.688637   6.668906
                   21         22         23         24         25
    21  C    0.000000
    22  H    2.157595   0.000000
    23  H    2.157613   4.304424   0.000000
    24  H    1.094635   2.486997   2.487815   0.000000
    25  C    5.060654   5.337041   5.393468   6.119998   0.000000
    26  C    6.291401   6.235412   6.777487   7.345072   1.397537
    27  C    4.958387   5.536132   5.024498   5.926360   1.395561
    28  C    7.235307   7.161168   7.664425   8.240690   2.417949
    29  H    6.692676   6.447205   7.305524   7.759757   2.164706
    30  C    6.112856   6.560998   6.171301   7.006889   2.417191
    31  H    4.223063   5.165837   4.032409   5.135774   2.159567
    32  C    7.161015   7.307507   7.406723   8.094599   2.794792
    33  H    8.217087   7.977792   8.727650   9.222758   3.408697
    34  H    6.378664   6.991127   6.260418   7.167219   3.407193
    35  H    8.098569   8.210211   8.319203   8.987060   3.889426
                   26         27         28         29         30
    26  C    0.000000
    27  C    2.408820   0.000000
    28  C    1.389828   2.779838   0.000000
    29  H    1.096167   3.405067   2.154548   0.000000
    30  C    2.779805   1.390520   2.405672   3.875954   0.000000
    31  H    3.404023   1.097995   3.877811   4.312232   2.161202
    32  C    2.410344   2.410353   1.390890   3.401381   1.390180
    33  H    2.155081   3.874657   1.094820   2.477373   3.398804
    34  H    3.874616   2.155019   3.399330   4.970768   1.094817
    35  H    3.402617   3.402940   2.158684   4.303830   2.158374
                   31         32         33         34         35
    31  H    0.000000
    32  C    3.405848   0.000000
    33  H    4.972628   2.157595   0.000000
    34  H    2.484936   2.157613   4.304424   0.000000
    35  H    4.309746   1.094635   2.486997   2.487815   0.000000
 Stoichiometry    C19H16
 Framework group  C3[C3(CH),X(C18H15)]
 Deg. of freedom    33
 Full point group                 C3      NOp   3
 Largest Abelian subgroup         C1      NOp   1
 Largest concise Abelian subgroup C1      NOp   1
                         Standard orientation:                         
 ---------------------------------------------------------------------
 Center     Atomic      Atomic             Coordinates (Angstroms)
 Number     Number       Type             X           Y           Z
 ---------------------------------------------------------------------
      1          6           0        0.000000    0.000000    0.779935
      2          1           0        0.000000    0.000000    1.902638
      3          6           0        0.000000    1.443089    0.339692
      4          6           0        0.564118    2.405149    1.181904
      5          6           0       -0.543173    1.842820   -0.882098
      6          6           0        0.583897    3.742824    0.805266
      7          1           0        0.996226    2.105585    2.143739
      8          6           0       -0.524239    3.182248   -1.255085
      9          1           0       -0.995557    1.093010   -1.544463
     10          6           0        0.039533    4.134225   -0.413359
     11          1           0        1.028931    4.489583    1.470793
     12          1           0       -0.956251    3.485665   -2.214213
     13          1           0        0.054103    5.188399   -0.707859
     14          6           0        1.249752   -0.721545    0.339692
     15          6           0        1.800861   -1.691115    1.181904
     16          6           0        1.867515   -0.451009   -0.882098
     17          6           0        2.949432   -2.377081    0.805266
     18          1           0        1.325377   -1.915549    2.143739
     19          6           0        3.018028   -1.137119   -1.255085
     20          1           0        1.444353    0.315673   -1.544463
     21          6           0        3.560577   -2.101350   -0.413359
     22          1           0        3.373627   -3.135872    1.470793
     23          1           0        3.496800   -0.914695   -2.214213
     24          1           0        4.466234   -2.641054   -0.707859
     25          6           0       -1.249752   -0.721545    0.339692
     26          6           0       -2.364979   -0.714034    1.181904
     27          6           0       -1.324342   -1.391811   -0.882098
     28          6           0       -3.533329   -1.365742    0.805266
     29          1           0       -2.321603   -0.190035    2.143739
     30          6           0       -2.493788   -2.045129   -1.255085
     31          1           0       -0.448796   -1.408683   -1.544463
     32          6           0       -3.600111   -2.032876   -0.413359
     33          1           0       -4.402559   -1.353711    1.470793
     34          1           0       -2.540549   -2.570970   -2.214213
     35          1           0       -4.520337   -2.547345   -0.707859
 ---------------------------------------------------------------------
 Rotational constants (GHZ):      0.3903755      0.3903755      0.2359363
 Standard basis: 6-311G (5D, 7F)
 There are   295 symmetry adapted basis functions of A   symmetry.
 Integral buffers will be    262144 words long.
 Raffenetti 1 integral format.
 Two-electron integral symmetry is turned on.
   295 basis functions,   574 primitive gaussians,   295 cartesian basis functions
    65 alpha electrons       65 beta electrons
       nuclear repulsion energy      1290.4517799279 Hartrees.
 NAtoms=   35 NActive=   35 NUniq=   13 SFac= 3.00D+00 NAtFMM=   80 NAOKFM=F Big=F
 One-electron integrals computed using PRISM.
 PrsmSu:  requested number of processors reduced to:  10 ShMem   1 Linda.
 NBasis=   295 RedAO= T  NBF=   295
 NBsUse=   295 1.00D-06 NBFU=   295
 Harris functional with IExCor=  205 diagonalized for initial guess.
 ExpMin= 1.03D-01 ExpMax= 4.56D+03 ExpMxC= 6.82D+02 IAcc=1 IRadAn=         1 AccDes= 0.00D+00
 HarFok:  IExCor=  205 AccDes= 0.00D+00 IRadAn=         1 IDoV= 1
 ScaDFX=  1.000000  1.000000  1.000000  1.000000
 FoFCou: FMM=F IPFlag=           0 FMFlag=      100000 FMFlg1=           0
         NFxFlg=           0 DoJE=T BraDBF=F KetDBF=T FulRan=T
         Omega=  0.000000  0.000000  1.000000  0.000000  0.000000 ICntrl=     500 IOpCl=  0
         NMat0=    1 NMatS0=    1 NMatT0=    0 NMatD0=    1 NMtDS0=    0 NMtDT0=    0
         I1Cent=           4 NGrid=           0.
 Petite list used in FoFCou.
 Initial guess orbital symmetries:
       Occupied  (E) (E) (A) (A) (E) (E) (A) (E) (E) (E) (E) (A)
                 (E) (E) (A) (E) (E) (A) (A) (A) (E) (E) (A) (A)
                 (E) (E) (E) (E) (A) (A) (E) (E) (E) (E) (A) (E)
                 (E) (A) (A) (E) (E) (E) (E) (A) (E) (E) (A) (E)
                 (E) (A) (E) (E) (A) (A) (E) (E) (E) (E) (A) (E)
                 (E) (A) (E) (E) (A)
       Virtual   (E) (E) (A) (E) (E) (A) (A) (A) (E) (E) (E) (E)
                 (A) (A) (E) (E) (E) (E) (A) (A) (E) (E) (E) (E)
                 (A) (A) (E) (E) (A) (E) (E) (A) (E) (E) (E) (E)
                 (A) (E) (E) (A) (E) (E) (A) (E) (E) (A) (A) (E)
                 (E) (E) (E) (A) (A) (E) (E) (A) (E) (E) (E) (E)
                 (A) (E) (E) (A) (E) (E) (A) (A) (E) (E) (E) (E)
                 (A) (A) (E) (E) (A) (A) (E) (E) (A) (E) (E) (A)
                 (E) (E) (A) (A) (E) (E) (E) (E) (A) (E) (E) (A)
                 (E) (E) (A) (E) (E) (A) (E) (E) (E) (E) (A) (E)
                 (E) (A) (E) (E) (E) (E) (A) (A) (E) (E) (A) (E)
                 (E) (A) (A) (E) (E) (E) (E) (A) (E) (E) (A) (A)
                 (E) (E) (A) (E) (E) (A) (E) (E) (A) (A) (E) (E)
                 (E) (E) (A) (A) (E) (E) (A) (E) (E) (A) (E) (E)
                 (A) (E) (E) (E) (E) (A) (A) (A) (E) (E) (A) (E)
                 (E) (A) (E) (E) (A) (E) (E) (A) (E) (E) (E) (E)
                 (A) (A) (E) (E) (E) (E) (A) (E) (E) (E) (E) (A)
                 (E) (E) (A) (A) (E) (E) (E) (E) (E) (E) (A) (A)
                 (E) (E) (A) (A) (E) (E) (A) (A) (E) (E) (E) (E)
                 (A) (A) (E) (E) (A) (E) (E) (A) (E) (E) (A) (A)
                 (E) (E)
 The electronic state of the initial guess is 1-A.
 Requested convergence on RMS density matrix=1.00D-08 within 128 cycles.
 Requested convergence on MAX density matrix=1.00D-06.
 Requested convergence on             energy=1.00D-06.
 No special actions if energy rises.
 Integral accuracy reduced to 1.0D-05 until final iterations.
 Initial convergence to 1.0D-05 achieved.  Increase integral accuracy.
 SCF Done:  E(RHF) =  -728.678061524     A.U. after   14 cycles
             Convg  =    0.6734D-08             -V/T =  2.0001

 **********************************************************************

            Population analysis using the SCF density.

 **********************************************************************

 Orbital symmetries:
       Occupied  (A) (E) (E) (A) (E) (E) (A) (A) (E) (E) (E) (E)
                 (A) (E) (E) (A) (E) (E) (A) (A) (E) (E) (A) (A)
                 (E) (E) (E) (E) (A) (A) (E) (E) (E) (E) (A) (E)
                 (E) (A) (A) (E) (E) (E) (E) (A) (A) (E) (E) (E)
                 (E) (A) (A) (E) (E) (A) (E) (E) (A) (E) (E) (E)
                 (E) (A) (E) (E) (A)
       Virtual   (E) (E) (A) (A) (E) (E) (A) (E) (E) (A) (A) (E)
                 (E) (E) (E) (A) (E) (E) (A) (E) (E) (A) (E) (E)
                 (A) (E) (E) (A) (A) (A) (E) (E) (E) (E) (E) (E)
                 (A) (A) (E) (E) (A) (E) (E) (E) (E) (A) (E) (E)
                 (A) (A) (E) (E) (A) (E) (E) (A) (E) (E) (A) (E)
                 (E) (E) (E) (A) (A) (E) (E) (A) (E) (E) (A) (E)
                 (E) (A) (E) (E) (A) (E) (E) (A) (A) (E) (E) (E)
                 (E) (A) (E) (E) (A) (E) (E) (A) (A) (E) (E) (A)
                 (E) (E) (A) (E) (E) (E) (E) (A) (E) (E) (A) (E)
                 (E) (A) (E) (E) (E) (E) (A) (A) (A) (E) (E) (A)
                 (E) (E) (A) (E) (E) (A) (E) (E) (A) (E) (E) (A)
                 (E) (E) (A) (E) (E) (A) (E) (E) (A) (E) (E) (A)
                 (E) (E) (A) (E) (E) (A) (A) (E) (E) (A) (A) (E)
                 (E) (E) (E) (A) (E) (E) (A) (A) (E) (E) (E) (E)
                 (A) (E) (E) (A) (A) (E) (E) (A) (E) (E) (E) (E)
                 (A) (A) (E) (E) (E) (E) (A) (E) (E) (A) (E) (E)
                 (A) (E) (E) (A) (E) (E) (E) (E) (E) (E) (A) (A)
                 (A) (E) (E) (A) (E) (E) (A) (A) (E) (E) (E) (E)
                 (A) (A) (E) (E) (A) (E) (E) (A) (E) (E) (A) (A)
                 (E) (E)
 The electronic state is 1-A.
 Alpha  occ. eigenvalues --  -11.25725 -11.25093 -11.25093 -11.25087 -11.24307
 Alpha  occ. eigenvalues --  -11.24307 -11.24307 -11.24284 -11.24284 -11.24284
 Alpha  occ. eigenvalues --  -11.24020 -11.24020 -11.24020 -11.23961 -11.23961
 Alpha  occ. eigenvalues --  -11.23961 -11.23817 -11.23817 -11.23817  -1.18578
 Alpha  occ. eigenvalues --   -1.15714  -1.15714  -1.09019  -1.02187  -1.02042
 Alpha  occ. eigenvalues --   -1.02042  -1.01368  -1.01368  -0.92882  -0.84083
 Alpha  occ. eigenvalues --   -0.82991  -0.82991  -0.81453  -0.81453  -0.77512
 Alpha  occ. eigenvalues --   -0.70624  -0.70624  -0.68788  -0.65637  -0.63789
 Alpha  occ. eigenvalues --   -0.63789  -0.61931  -0.61931  -0.61742  -0.59100
 Alpha  occ. eigenvalues --   -0.58734  -0.58734  -0.58059  -0.58059  -0.54340
 Alpha  occ. eigenvalues --   -0.51185  -0.50836  -0.50836  -0.49662  -0.49105
 Alpha  occ. eigenvalues --   -0.49105  -0.47444  -0.47176  -0.47176  -0.34453
 Alpha  occ. eigenvalues --   -0.34453  -0.34002  -0.33232  -0.33232  -0.31222
 Alpha virt. eigenvalues --    0.12201   0.12201   0.12406   0.14450   0.14460
 Alpha virt. eigenvalues --    0.14460   0.15131   0.16317   0.16317   0.17110
 Alpha virt. eigenvalues --    0.19070   0.19126   0.19126   0.21253   0.21253
 Alpha virt. eigenvalues --    0.21553   0.23845   0.23845   0.24468   0.26751
 Alpha virt. eigenvalues --    0.26751   0.28540   0.34016   0.34016   0.35103
 Alpha virt. eigenvalues --    0.39174   0.39174   0.39338   0.41078   0.43771
 Alpha virt. eigenvalues --    0.43878   0.43878   0.44971   0.44971   0.45562
 Alpha virt. eigenvalues --    0.45562   0.45804   0.48353   0.49765   0.49765
 Alpha virt. eigenvalues --    0.50695   0.50883   0.50883   0.55385   0.55385
 Alpha virt. eigenvalues --    0.57220   0.58704   0.58704   0.58768   0.59461
 Alpha virt. eigenvalues --    0.60069   0.60069   0.61459   0.61554   0.61554
 Alpha virt. eigenvalues --    0.61702   0.62245   0.62245   0.63517   0.63793
 Alpha virt. eigenvalues --    0.63793   0.65422   0.65422   0.66728   0.67122
 Alpha virt. eigenvalues --    0.67862   0.67862   0.69139   0.70651   0.70651
 Alpha virt. eigenvalues --    0.73048   0.74591   0.74591   0.74987   0.75570
 Alpha virt. eigenvalues --    0.75570   0.78148   0.80259   0.80259   0.80273
 Alpha virt. eigenvalues --    0.81938   0.82009   0.82009   0.82966   0.82966
 Alpha virt. eigenvalues --    0.83741   0.84369   0.84369   0.85142   0.86017
 Alpha virt. eigenvalues --    0.86017   0.86224   0.87295   0.87739   0.87739
 Alpha virt. eigenvalues --    0.88555   0.90863   0.90863   0.92779   0.94589
 Alpha virt. eigenvalues --    0.94589   0.97230   0.97230   0.97798   1.00022
 Alpha virt. eigenvalues --    1.00022   1.00725   1.04030   1.04030   1.06244
 Alpha virt. eigenvalues --    1.07010   1.07010   1.08767   1.08767   1.09869
 Alpha virt. eigenvalues --    1.11115   1.12260   1.12933   1.12933   1.14202
 Alpha virt. eigenvalues --    1.14660   1.14660   1.17904   1.20745   1.20745
 Alpha virt. eigenvalues --    1.26744   1.27480   1.27480   1.28638   1.30054
 Alpha virt. eigenvalues --    1.30054   1.39632   1.40631   1.40631   1.49092
 Alpha virt. eigenvalues --    1.52300   1.52300   1.54953   2.55826   2.55826
 Alpha virt. eigenvalues --    2.56439   2.61668   2.61668   2.61689   2.66495
 Alpha virt. eigenvalues --    2.66495   2.67962   2.70422   2.70422   2.70906
 Alpha virt. eigenvalues --    2.78493   2.84842   2.84842   2.88590   2.94547
 Alpha virt. eigenvalues --    2.94638   2.94638   2.97627   2.97627   2.97662
 Alpha virt. eigenvalues --    3.01456   3.01456   3.04375   3.06190   3.07549
 Alpha virt. eigenvalues --    3.07549   3.08643   3.08643   3.09330   3.15403
 Alpha virt. eigenvalues --    3.15403   3.15662   3.17438   3.18982   3.18982
 Alpha virt. eigenvalues --    3.23294   3.25377   3.25377   3.28851   3.28851
 Alpha virt. eigenvalues --    3.29673   3.33105   3.34952   3.34952   3.42275
 Alpha virt. eigenvalues --    3.42275   3.43270   3.48628   3.48628   3.53949
 Alpha virt. eigenvalues --    3.54086   3.54086   3.59969   3.60369   3.60369
 Alpha virt. eigenvalues --    3.63121   3.63603   3.63603   3.65839   3.65839
 Alpha virt. eigenvalues --    3.69790   3.69790   3.70517   3.70705   3.75204
 Alpha virt. eigenvalues --    3.75892   3.75892   3.84508   3.87413   3.87413
 Alpha virt. eigenvalues --    3.91516  24.25944  24.31578  24.31578  24.50736
 Alpha virt. eigenvalues --   24.50736  24.51249  24.54555  24.55835  24.55835
 Alpha virt. eigenvalues --   24.77634  24.79319  24.79319  24.79926  24.80808
 Alpha virt. eigenvalues --   24.80808  24.83353  25.05345  25.06157  25.06157
          Condensed to atoms (all electrons):
              1          2          3          4          5          6
     1  C    5.859557   0.483495   0.145340  -0.054775  -0.040997   0.007227
     2  H    0.483495   0.515282  -0.072042  -0.001096   0.005307   0.001484
     3  C    0.145340  -0.072042   5.357967   0.483975   0.479752  -0.065745
     4  C   -0.054775  -0.001096   0.483975   5.058790  -0.068611   0.463612
     5  C   -0.040997   0.005307   0.479752  -0.068611   5.114218  -0.029440
     6  C    0.007227   0.001484  -0.065745   0.463612  -0.029440   5.055062
     7  H    0.000497   0.001469  -0.048768   0.399235   0.004436  -0.036071
     8  C    0.004226  -0.000240  -0.067563  -0.031793   0.469046  -0.075881
     9  H   -0.000834  -0.000120  -0.042540   0.004185   0.392265  -0.000227
    10  C    0.001168  -0.000011  -0.016432  -0.087576  -0.093797   0.490310
    11  H   -0.000371  -0.000026   0.006681  -0.039644  -0.000534   0.397083
    12  H   -0.000337   0.000014   0.006124  -0.000380  -0.037820   0.005936
    13  H   -0.000017  -0.000001  -0.001542   0.007433   0.007821  -0.042930
    14  C    0.145340  -0.072042  -0.097202  -0.001110  -0.008179  -0.000632
    15  C   -0.054775  -0.001096   0.005712   0.000841  -0.000167   0.000003
    16  C   -0.040997   0.005307  -0.018596   0.000239  -0.005072   0.000382
    17  C    0.007227   0.001484  -0.000776  -0.000034   0.000027   0.000002
    18  H    0.000497   0.001469   0.000485   0.000044  -0.000031   0.000001
    19  C    0.004226  -0.000240   0.000099  -0.000167  -0.000019  -0.000009
    20  H   -0.000834  -0.000120  -0.001952  -0.000872   0.001458  -0.000191
    21  C    0.001168  -0.000011   0.000097  -0.000009  -0.000017   0.000000
    22  H   -0.000371  -0.000026   0.000011   0.000001   0.000000   0.000000
    23  H   -0.000337   0.000014   0.000029   0.000007   0.000018   0.000001
    24  H   -0.000017  -0.000001  -0.000001   0.000000   0.000000   0.000000
    25  C    0.145340  -0.072042  -0.097202   0.005712  -0.018596  -0.000776
    26  C   -0.054775  -0.001096  -0.001110   0.000841   0.000239  -0.000034
    27  C   -0.040997   0.005307  -0.008179  -0.000167  -0.005072   0.000027
    28  C    0.007227   0.001484  -0.000632   0.000003   0.000382   0.000002
    29  H    0.000497   0.001469   0.000949   0.000233   0.000222  -0.000005
    30  C    0.004226  -0.000240   0.000680   0.000022  -0.001067   0.000000
    31  H   -0.000834  -0.000120  -0.000793  -0.000017   0.000739   0.000003
    32  C    0.001168  -0.000011   0.000038  -0.000001   0.000069   0.000000
    33  H   -0.000371  -0.000026   0.000024   0.000000   0.000003   0.000000
    34  H   -0.000337   0.000014  -0.000003   0.000000   0.000016   0.000000
    35  H   -0.000017  -0.000001   0.000000   0.000000  -0.000001   0.000000
              7          8          9         10         11         12
     1  C    0.000497   0.004226  -0.000834   0.001168  -0.000371  -0.000337
     2  H    0.001469  -0.000240  -0.000120  -0.000011  -0.000026   0.000014
     3  C   -0.048768  -0.067563  -0.042540  -0.016432   0.006681   0.006124
     4  C    0.399235  -0.031793   0.004185  -0.087576  -0.039644  -0.000380
     5  C    0.004436   0.469046   0.392265  -0.093797  -0.000534  -0.037820
     6  C   -0.036071  -0.075881  -0.000227   0.490310   0.397083   0.005936
     7  H    0.507658  -0.000423  -0.000239   0.005356  -0.004229   0.000022
     8  C   -0.000423   5.051845  -0.029837   0.496655   0.006121   0.396191
     9  H   -0.000239  -0.029837   0.474272   0.004626   0.000018  -0.003311
    10  C    0.005356   0.496655   0.004626   5.033081  -0.040648  -0.040238
    11  H   -0.004229   0.006121   0.000018  -0.040648   0.517983  -0.000211
    12  H    0.000022   0.396191  -0.003311  -0.040238  -0.000211   0.515682
    13  H   -0.000179  -0.042465  -0.000174   0.399534  -0.004495  -0.004404
    14  C    0.000949   0.000680  -0.000793   0.000038   0.000024  -0.000003
    15  C    0.000233   0.000022  -0.000017  -0.000001   0.000000   0.000000
    16  C    0.000222  -0.001067   0.000739   0.000069   0.000003   0.000016
    17  C   -0.000005   0.000000   0.000003   0.000000   0.000000   0.000000
    18  H   -0.000001   0.000000   0.000000   0.000000   0.000000   0.000000
    19  C    0.000007  -0.000022   0.000043   0.000005   0.000000   0.000001
    20  H   -0.000038   0.000918   0.000218   0.000001   0.000003   0.000007
    21  C   -0.000009   0.000000   0.000000   0.000000   0.000000   0.000000
    22  H    0.000000   0.000000   0.000000   0.000000   0.000000   0.000000
    23  H    0.000000   0.000000  -0.000007  -0.000001   0.000000   0.000000
    24  H    0.000000   0.000000   0.000000   0.000000   0.000000   0.000000
    25  C    0.000485   0.000099  -0.001952   0.000097   0.000011   0.000029
    26  C    0.000044  -0.000167  -0.000872  -0.000009   0.000001   0.000007
    27  C   -0.000031  -0.000019   0.001458  -0.000017   0.000000   0.000018
    28  C    0.000001  -0.000009  -0.000191   0.000000   0.000000   0.000001
    29  H   -0.000001   0.000007  -0.000038  -0.000009   0.000000   0.000000
    30  C    0.000000  -0.000022   0.000918   0.000000   0.000000   0.000000
    31  H    0.000000   0.000043   0.000218   0.000000   0.000000  -0.000007
    32  C    0.000000   0.000005   0.000001   0.000000   0.000000  -0.000001
    33  H    0.000000   0.000000   0.000003   0.000000   0.000000   0.000000
    34  H    0.000000   0.000001   0.000007   0.000000   0.000000   0.000000
    35  H    0.000000   0.000000   0.000000   0.000000   0.000000   0.000000
             13         14         15         16         17         18
     1  C   -0.000017   0.145340  -0.054775  -0.040997   0.007227   0.000497
     2  H   -0.000001  -0.072042  -0.001096   0.005307   0.001484   0.001469
     3  C   -0.001542  -0.097202   0.005712  -0.018596  -0.000776   0.000485
     4  C    0.007433  -0.001110   0.000841   0.000239  -0.000034   0.000044
     5  C    0.007821  -0.008179  -0.000167  -0.005072   0.000027  -0.000031
     6  C   -0.042930  -0.000632   0.000003   0.000382   0.000002   0.000001
     7  H   -0.000179   0.000949   0.000233   0.000222  -0.000005  -0.000001
     8  C   -0.042465   0.000680   0.000022  -0.001067   0.000000   0.000000
     9  H   -0.000174  -0.000793  -0.000017   0.000739   0.000003   0.000000
    10  C    0.399534   0.000038  -0.000001   0.000069   0.000000   0.000000
    11  H   -0.004495   0.000024   0.000000   0.000003   0.000000   0.000000
    12  H   -0.004404  -0.000003   0.000000   0.000016   0.000000   0.000000
    13  H    0.517917   0.000000   0.000000  -0.000001   0.000000   0.000000
    14  C    0.000000   5.357967   0.483975   0.479752  -0.065745  -0.048768
    15  C    0.000000   0.483975   5.058790  -0.068611   0.463612   0.399235
    16  C   -0.000001   0.479752  -0.068611   5.114218  -0.029440   0.004436
    17  C    0.000000  -0.065745   0.463612  -0.029440   5.055062  -0.036071
    18  H    0.000000  -0.048768   0.399235   0.004436  -0.036071   0.507658
    19  C    0.000000  -0.067563  -0.031793   0.469046  -0.075881  -0.000423
    20  H    0.000000  -0.042540   0.004185   0.392265  -0.000227  -0.000239
    21  C    0.000000  -0.016432  -0.087576  -0.093797   0.490310   0.005356
    22  H    0.000000   0.006681  -0.039644  -0.000534   0.397083  -0.004229
    23  H    0.000000   0.006124  -0.000380  -0.037820   0.005936   0.000022
    24  H    0.000000  -0.001542   0.007433   0.007821  -0.042930  -0.000179
    25  C   -0.000001  -0.097202  -0.001110  -0.008179  -0.000632   0.000949
    26  C    0.000000   0.005712   0.000841  -0.000167   0.000003   0.000233
    27  C    0.000000  -0.018596   0.000239  -0.005072   0.000382   0.000222
    28  C    0.000000  -0.000776  -0.000034   0.000027   0.000002  -0.000005
    29  H    0.000000   0.000485   0.000044  -0.000031   0.000001  -0.000001
    30  C    0.000000   0.000099  -0.000167  -0.000019  -0.000009   0.000007
    31  H    0.000000  -0.001952  -0.000872   0.001458  -0.000191  -0.000038
    32  C    0.000000   0.000097  -0.000009  -0.000017   0.000000  -0.000009
    33  H    0.000000   0.000011   0.000001   0.000000   0.000000   0.000000
    34  H    0.000000   0.000029   0.000007   0.000018   0.000001   0.000000
    35  H    0.000000  -0.000001   0.000000   0.000000   0.000000   0.000000
             19         20         21         22         23         24
     1  C    0.004226  -0.000834   0.001168  -0.000371  -0.000337  -0.000017
     2  H   -0.000240  -0.000120  -0.000011  -0.000026   0.000014  -0.000001
     3  C    0.000099  -0.001952   0.000097   0.000011   0.000029  -0.000001
     4  C   -0.000167  -0.000872  -0.000009   0.000001   0.000007   0.000000
     5  C   -0.000019   0.001458  -0.000017   0.000000   0.000018   0.000000
     6  C   -0.000009  -0.000191   0.000000   0.000000   0.000001   0.000000
     7  H    0.000007  -0.000038  -0.000009   0.000000   0.000000   0.000000
     8  C   -0.000022   0.000918   0.000000   0.000000   0.000000   0.000000
     9  H    0.000043   0.000218   0.000000   0.000000  -0.000007   0.000000
    10  C    0.000005   0.000001   0.000000   0.000000  -0.000001   0.000000
    11  H    0.000000   0.000003   0.000000   0.000000   0.000000   0.000000
    12  H    0.000001   0.000007   0.000000   0.000000   0.000000   0.000000
    13  H    0.000000   0.000000   0.000000   0.000000   0.000000   0.000000
    14  C   -0.067563  -0.042540  -0.016432   0.006681   0.006124  -0.001542
    15  C   -0.031793   0.004185  -0.087576  -0.039644  -0.000380   0.007433
    16  C    0.469046   0.392265  -0.093797  -0.000534  -0.037820   0.007821
    17  C   -0.075881  -0.000227   0.490310   0.397083   0.005936  -0.042930
    18  H   -0.000423  -0.000239   0.005356  -0.004229   0.000022  -0.000179
    19  C    5.051845  -0.029837   0.496655   0.006121   0.396191  -0.042465
    20  H   -0.029837   0.474272   0.004626   0.000018  -0.003311  -0.000174
    21  C    0.496655   0.004626   5.033081  -0.040648  -0.040238   0.399534
    22  H    0.006121   0.000018  -0.040648   0.517983  -0.000211  -0.004495
    23  H    0.396191  -0.003311  -0.040238  -0.000211   0.515682  -0.004404
    24  H   -0.042465  -0.000174   0.399534  -0.004495  -0.004404   0.517917
    25  C    0.000680  -0.000793   0.000038   0.000024  -0.000003   0.000000
    26  C    0.000022  -0.000017  -0.000001   0.000000   0.000000   0.000000
    27  C   -0.001067   0.000739   0.000069   0.000003   0.000016  -0.000001
    28  C    0.000000   0.000003   0.000000   0.000000   0.000000   0.000000
    29  H    0.000000   0.000000   0.000000   0.000000   0.000000   0.000000
    30  C   -0.000022   0.000043   0.000005   0.000000   0.000001   0.000000
    31  H    0.000918   0.000218   0.000001   0.000003   0.000007   0.000000
    32  C    0.000000   0.000000   0.000000   0.000000   0.000000   0.000000
    33  H    0.000000   0.000000   0.000000   0.000000   0.000000   0.000000
    34  H    0.000000  -0.000007  -0.000001   0.000000   0.000000   0.000000
    35  H    0.000000   0.000000   0.000000   0.000000   0.000000   0.000000
             25         26         27         28         29         30
     1  C    0.145340  -0.054775  -0.040997   0.007227   0.000497   0.004226
     2  H   -0.072042  -0.001096   0.005307   0.001484   0.001469  -0.000240
     3  C   -0.097202  -0.001110  -0.008179  -0.000632   0.000949   0.000680
     4  C    0.005712   0.000841  -0.000167   0.000003   0.000233   0.000022
     5  C   -0.018596   0.000239  -0.005072   0.000382   0.000222  -0.001067
     6  C   -0.000776  -0.000034   0.000027   0.000002  -0.000005   0.000000
     7  H    0.000485   0.000044  -0.000031   0.000001  -0.000001   0.000000
     8  C    0.000099  -0.000167  -0.000019  -0.000009   0.000007  -0.000022
     9  H   -0.001952  -0.000872   0.001458  -0.000191  -0.000038   0.000918
    10  C    0.000097  -0.000009  -0.000017   0.000000  -0.000009   0.000000
    11  H    0.000011   0.000001   0.000000   0.000000   0.000000   0.000000
    12  H    0.000029   0.000007   0.000018   0.000001   0.000000   0.000000
    13  H   -0.000001   0.000000   0.000000   0.000000   0.000000   0.000000
    14  C   -0.097202   0.005712  -0.018596  -0.000776   0.000485   0.000099
    15  C   -0.001110   0.000841   0.000239  -0.000034   0.000044  -0.000167
    16  C   -0.008179  -0.000167  -0.005072   0.000027  -0.000031  -0.000019
    17  C   -0.000632   0.000003   0.000382   0.000002   0.000001  -0.000009
    18  H    0.000949   0.000233   0.000222  -0.000005  -0.000001   0.000007
    19  C    0.000680   0.000022  -0.001067   0.000000   0.000000  -0.000022
    20  H   -0.000793  -0.000017   0.000739   0.000003   0.000000   0.000043
    21  C    0.000038  -0.000001   0.000069   0.000000   0.000000   0.000005
    22  H    0.000024   0.000000   0.000003   0.000000   0.000000   0.000000
    23  H   -0.000003   0.000000   0.000016   0.000000   0.000000   0.000001
    24  H    0.000000   0.000000  -0.000001   0.000000   0.000000   0.000000
    25  C    5.357967   0.483975   0.479752  -0.065745  -0.048768  -0.067563
    26  C    0.483975   5.058790  -0.068611   0.463612   0.399235  -0.031793
    27  C    0.479752  -0.068611   5.114218  -0.029440   0.004436   0.469046
    28  C   -0.065745   0.463612  -0.029440   5.055062  -0.036071  -0.075881
    29  H   -0.048768   0.399235   0.004436  -0.036071   0.507658  -0.000423
    30  C   -0.067563  -0.031793   0.469046  -0.075881  -0.000423   5.051845
    31  H   -0.042540   0.004185   0.392265  -0.000227  -0.000239  -0.029837
    32  C   -0.016432  -0.087576  -0.093797   0.490310   0.005356   0.496655
    33  H    0.006681  -0.039644  -0.000534   0.397083  -0.004229   0.006121
    34  H    0.006124  -0.000380  -0.037820   0.005936   0.000022   0.396191
    35  H   -0.001542   0.007433   0.007821  -0.042930  -0.000179  -0.042465
             31         32         33         34         35
     1  C   -0.000834   0.001168  -0.000371  -0.000337  -0.000017
     2  H   -0.000120  -0.000011  -0.000026   0.000014  -0.000001
     3  C   -0.000793   0.000038   0.000024  -0.000003   0.000000
     4  C   -0.000017  -0.000001   0.000000   0.000000   0.000000
     5  C    0.000739   0.000069   0.000003   0.000016  -0.000001
     6  C    0.000003   0.000000   0.000000   0.000000   0.000000
     7  H    0.000000   0.000000   0.000000   0.000000   0.000000
     8  C    0.000043   0.000005   0.000000   0.000001   0.000000
     9  H    0.000218   0.000001   0.000003   0.000007   0.000000
    10  C    0.000000   0.000000   0.000000   0.000000   0.000000
    11  H    0.000000   0.000000   0.000000   0.000000   0.000000
    12  H   -0.000007  -0.000001   0.000000   0.000000   0.000000
    13  H    0.000000   0.000000   0.000000   0.000000   0.000000
    14  C   -0.001952   0.000097   0.000011   0.000029  -0.000001
    15  C   -0.000872  -0.000009   0.000001   0.000007   0.000000
    16  C    0.001458  -0.000017   0.000000   0.000018   0.000000
    17  C   -0.000191   0.000000   0.000000   0.000001   0.000000
    18  H   -0.000038  -0.000009   0.000000   0.000000   0.000000
    19  C    0.000918   0.000000   0.000000   0.000000   0.000000
    20  H    0.000218   0.000000   0.000000  -0.000007   0.000000
    21  C    0.000001   0.000000   0.000000  -0.000001   0.000000
    22  H    0.000003   0.000000   0.000000   0.000000   0.000000
    23  H    0.000007   0.000000   0.000000   0.000000   0.000000
    24  H    0.000000   0.000000   0.000000   0.000000   0.000000
    25  C   -0.042540  -0.016432   0.006681   0.006124  -0.001542
    26  C    0.004185  -0.087576  -0.039644  -0.000380   0.007433
    27  C    0.392265  -0.093797  -0.000534  -0.037820   0.007821
    28  C   -0.000227   0.490310   0.397083   0.005936  -0.042930
    29  H   -0.000239   0.005356  -0.004229   0.000022  -0.000179
    30  C   -0.029837   0.496655   0.006121   0.396191  -0.042465
    31  H    0.474272   0.004626   0.000018  -0.003311  -0.000174
    32  C    0.004626   5.033081  -0.040648  -0.040238   0.399534
    33  H    0.000018  -0.040648   0.517983  -0.000211  -0.004495
    34  H   -0.003311  -0.040238  -0.000211   0.515682  -0.004404
    35  H   -0.000174   0.399534  -0.004495  -0.004404   0.517917
 Mulliken atomic charges:
              1
     1  C   -0.526431
     2  H    0.197009
     3  C    0.053117
     4  C   -0.138920
     5  C   -0.166599
     6  C   -0.169196
     7  H    0.169382
     8  C   -0.176352
     9  H    0.202176
    10  C   -0.152199
    11  H    0.162232
    12  H    0.162664
    13  H    0.163502
    14  C    0.053117
    15  C   -0.138920
    16  C   -0.166599
    17  C   -0.169196
    18  H    0.169382
    19  C   -0.176352
    20  H    0.202176
    21  C   -0.152199
    22  H    0.162232
    23  H    0.162664
    24  H    0.163502
    25  C    0.053117
    26  C   -0.138920
    27  C   -0.166599
    28  C   -0.169196
    29  H    0.169382
    30  C   -0.176352
    31  H    0.202176
    32  C   -0.152199
    33  H    0.162232
    34  H    0.162664
    35  H    0.163502
 Sum of Mulliken atomic charges =   0.00000
 Mulliken charges with hydrogens summed into heavy atoms:
              1
     1  C   -0.329422
     3  C    0.053117
     4  C    0.030462
     5  C    0.035577
     6  C   -0.006963
     8  C   -0.013688
    10  C    0.011303
    14  C    0.053117
    15  C    0.030462
    16  C    0.035577
    17  C   -0.006963
    19  C   -0.013688
    21  C    0.011303
    25  C    0.053117
    26  C    0.030462
    27  C    0.035577
    28  C   -0.006963
    30  C   -0.013688
    32  C    0.011303
 Sum of Mulliken charges with hydrogens summed into heavy atoms =   0.00000
 Electronic spatial extent (au):  <R**2>=           4916.9199
 Charge=              0.0000 electrons
 Dipole moment (field-independent basis, Debye):
    X=              0.0000    Y=              0.0000    Z=              0.0245  Tot=              0.0245
 Quadrupole moment (field-independent basis, Debye-Ang):
   XX=           -111.4737   YY=           -111.4737   ZZ=           -104.7035
   XY=              0.0000   XZ=              0.0000   YZ=              0.0000
 Traceless Quadrupole moment (field-independent basis, Debye-Ang):
   XX=             -2.2567   YY=             -2.2567   ZZ=              4.5135
   XY=              0.0000   XZ=              0.0000   YZ=              0.0000
 Octapole moment (field-independent basis, Debye-Ang**2):
  XXX=            -13.7590  YYY=             39.5075  ZZZ=              0.7811  XYY=             13.7590
  XXY=            -39.5075  XXZ=             -3.6100  XZZ=              0.0000  YZZ=              0.0000
  YYZ=             -3.6100  XYZ=              0.0000
 Hexadecapole moment (field-independent basis, Debye-Ang**3):
 XXXX=          -2985.2225 YYYY=          -2985.2225 ZZZZ=           -746.3290 XXXY=              0.0000
 XXXZ=            -76.0712 YYYX=              0.0000 YYYZ=            -17.5441 ZZZX=              0.0000
 ZZZY=              0.0000 XXYY=           -995.0742 XXZZ=           -612.6604 YYZZ=           -612.6604
 XXYZ=             17.5441 YYXZ=             76.0712 ZZXY=              0.0000
 N-N= 1.290451779928D+03 E-N=-4.277005166121D+03  KE= 7.285967135657D+02
 PrsmSu:  requested number of processors reduced to:  10 ShMem   1 Linda.
 Calling FoFJK, ICntrl=      2127 FMM=F ISym2X=1 I1Cent= 0 IOpClX= 0 NMat=1 NMatS=1 NMatT=0.
 ***** Axes restored to original set *****
 -------------------------------------------------------------------
 Center     Atomic                   Forces (Hartrees/Bohr)
 Number     Number              X              Y              Z
 -------------------------------------------------------------------
      1        6           0.000000000    0.000000000    0.022489724
      2        1           0.000000000    0.000000000   -0.025909826
      3        6           0.007555553   -0.010977196    0.003156755
      4        6          -0.002766866   -0.001030985    0.005429084
      5        6           0.002317277    0.008030066   -0.006223067
      6        6          -0.001133265   -0.010462282    0.007765640
      7        1           0.008165336   -0.000438571   -0.015267138
      8        6           0.005092716   -0.001342958   -0.011186724
      9        1           0.001071543   -0.017915903    0.012012018
     10        6           0.005668186   -0.011811451   -0.003695354
     11        1           0.001127625    0.013164805   -0.010099721
     12        1          -0.007907838    0.001084789    0.014643365
     13        1          -0.006908704    0.014552899    0.004605175
     14        6          -0.013284307   -0.001054703    0.003156755
     15        6           0.000490574    0.002911668    0.005429084
     16        6           0.005795603   -0.006021854   -0.006223067
     17        6          -0.008493969    0.006212577    0.007765640
     18        1          -0.004462481   -0.006852103   -0.015267138
     19        6          -0.003709393   -0.003738943   -0.011186724
     20        1          -0.016051399    0.008029969    0.012012018
     21        6          -0.013063110    0.000996932   -0.003695354
     22        1           0.010837243   -0.007558955   -0.010099721
     23        1           0.004893374    0.006305994    0.014643365
     24        1           0.016057532   -0.001293336    0.004605175
     25        6           0.005728754    0.012031898    0.003156755
     26        6           0.002276292   -0.001880684    0.005429084
     27        6          -0.008112880   -0.002008212   -0.006223067
     28        6           0.009627234    0.004249704    0.007765640
     29        1          -0.003702854    0.007290673   -0.015267138
     30        6          -0.001383323    0.005081900   -0.011186724
     31        1           0.014979856    0.009885935    0.012012018
     32        6           0.007394923    0.010814519   -0.003695354
     33        1          -0.011964868   -0.005605850   -0.010099721
     34        1           0.003014464   -0.007390783    0.014643365
     35        1          -0.009148828   -0.013259563    0.004605175
 -------------------------------------------------------------------
 Cartesian Forces:  Max     0.025909826 RMS     0.009004340

 GradGradGradGradGradGradGradGradGradGradGradGradGradGradGradGradGradGrad
 Berny optimization.
 Internal  Forces:  Max     0.025909826 RMS     0.006566745
 Search for a local minimum.
 Step number   1 out of a maximum of  197
 All quantities printed in internal units (Hartrees-Bohrs-Radians)
 Mixed Optimization -- RFO/linear search
 Second derivative matrix not updated -- first step.
     Eigenvalues ---    0.00650   0.00650   0.00650   0.01538   0.01538
     Eigenvalues ---    0.01538   0.02143   0.02143   0.02143   0.02171
     Eigenvalues ---    0.02171   0.02171   0.02182   0.02182   0.02182
     Eigenvalues ---    0.02201   0.02201   0.02201   0.02213   0.02213
     Eigenvalues ---    0.02213   0.02215   0.02215   0.02215   0.02216
     Eigenvalues ---    0.02216   0.02216   0.02218   0.02218   0.02218
     Eigenvalues ---    0.04656   0.06497   0.06497   0.15999   0.15999
     Eigenvalues ---    0.15999   0.16000   0.16000   0.16000   0.16000
     Eigenvalues ---    0.16000   0.16000   0.16000   0.16000   0.16000
     Eigenvalues ---    0.16000   0.16000   0.16000   0.19007   0.19007
     Eigenvalues ---    0.22000   0.22000   0.22000   0.22000   0.22000
     Eigenvalues ---    0.22000   0.23478   0.23478   0.23478   0.25000
     Eigenvalues ---    0.25000   0.25000   0.31291   0.31477   0.31477
     Eigenvalues ---    0.31477   0.33905   0.33905   0.33905   0.34110
     Eigenvalues ---    0.34110   0.34110   0.34262   0.34262   0.34262
     Eigenvalues ---    0.34262   0.34262   0.34262   0.34282   0.34282
     Eigenvalues ---    0.34282   0.42463   0.42463   0.42463   0.42574
     Eigenvalues ---    0.42574   0.42574   0.46400   0.46400   0.46400
     Eigenvalues ---    0.46777   0.46777   0.46777   0.47230   0.47230
     Eigenvalues ---    0.47230   0.47302   0.47302   0.473021000.00000
     Eigenvalues --- 1000.000001000.000001000.000001000.000001000.00000
     Eigenvalues --- 1000.000001000.000001000.000001000.000001000.00000
     Eigenvalues --- 1000.000001000.000001000.000001000.000001000.00000
     Eigenvalues --- 1000.000001000.000001000.000001000.000001000.00000
     Eigenvalues --- 1000.000001000.000001000.000001000.000001000.00000
     Eigenvalues --- 1000.000001000.000001000.000001000.000001000.00000
     Eigenvalues --- 1000.000001000.000001000.000001000.000001000.00000
     Eigenvalues --- 1000.000001000.000001000.000001000.000001000.00000
     Eigenvalues --- 1000.000001000.000001000.000001000.000001000.00000
     Eigenvalues --- 1000.000001000.000001000.000001000.000001000.00000
     Eigenvalues --- 1000.000001000.000001000.000001000.000001000.00000
     Eigenvalues --- 1000.000001000.000001000.000001000.000001000.00000
     Eigenvalues --- 1000.000001000.000001000.000001000.000001000.00000
     Eigenvalues --- 1000.000001000.000001000.000001000.000001000.00000
     Eigenvalues --- 1000.000001000.000001000.000001000.000001000.00000
     Eigenvalues --- 1000.000001000.000001000.000001000.000001000.00000
     Eigenvalues --- 1000.000001000.000001000.000001000.000001000.00000
     Eigenvalues --- 1000.000001000.00000
 RFO step:  Lambda=-2.71238737D-02 EMin= 6.50227062D-03
 Linear search not attempted -- first point.
 Maximum step size (   0.300) exceeded in Quadratic search.
    -- Step size scaled by   0.782
 Iteration  1 RMS(Cart)=  0.10440045 RMS(Int)=  0.00168560
 Iteration  2 RMS(Cart)=  0.00452351 RMS(Int)=  0.00032083
 Iteration  3 RMS(Cart)=  0.00000482 RMS(Int)=  0.00032082
 Iteration  4 RMS(Cart)=  0.00000000 RMS(Int)=  0.00032082
 ClnCor:  largest displacement from symmetrization is 1.16D-10 for atom    35.
 Variable       Old X    -DE/DX   Delta X   Delta X   Delta X     New X
                                 (Linear)    (Quad)   (Total)
    R1        2.12160  -0.02591   0.00000  -0.05962  -0.05962   2.06198
    R2        2.85112   0.01960   0.00000   0.04486   0.04486   2.89598
    R3        2.85112   0.01960   0.00000   0.04486   0.04486   2.89598
    R4        2.85112   0.01960   0.00000   0.04486   0.04486   2.89598
    R5        2.64096  -0.00439   0.00000  -0.00709  -0.00708   2.63388
    R6        2.63723  -0.00238   0.00000  -0.00373  -0.00372   2.63351
    R7        2.62639  -0.00373   0.00000  -0.00594  -0.00593   2.62046
    R8        2.07146  -0.01730   0.00000  -0.03677  -0.03677   2.03469
    R9        2.62770  -0.00302   0.00000  -0.00463  -0.00464   2.62306
   R10        2.07491  -0.02143   0.00000  -0.04579  -0.04579   2.02912
   R11        2.62840  -0.00624   0.00000  -0.00985  -0.00986   2.61854
   R12        2.06891  -0.01663   0.00000  -0.03519  -0.03519   2.03372
   R13        2.62706  -0.00578   0.00000  -0.00900  -0.00901   2.61805
   R14        2.06890  -0.01668   0.00000  -0.03529  -0.03529   2.03361
   R15        2.06856  -0.01675   0.00000  -0.03543  -0.03543   2.03313
   R16        2.64096  -0.00439   0.00000  -0.00709  -0.00708   2.63388
   R17        2.63723  -0.00238   0.00000  -0.00373  -0.00372   2.63351
   R18        2.62639  -0.00373   0.00000  -0.00594  -0.00593   2.62046
   R19        2.07146  -0.01730   0.00000  -0.03677  -0.03677   2.03469
   R20        2.62770  -0.00302   0.00000  -0.00463  -0.00464   2.62306
   R21        2.07491  -0.02143   0.00000  -0.04579  -0.04579   2.02912
   R22        2.62840  -0.00624   0.00000  -0.00985  -0.00986   2.61854
   R23        2.06891  -0.01663   0.00000  -0.03519  -0.03519   2.03372
   R24        2.62706  -0.00578   0.00000  -0.00900  -0.00901   2.61805
   R25        2.06890  -0.01668   0.00000  -0.03529  -0.03529   2.03361
   R26        2.06856  -0.01675   0.00000  -0.03543  -0.03543   2.03313
   R27        2.64096  -0.00439   0.00000  -0.00709  -0.00708   2.63388
   R28        2.63723  -0.00238   0.00000  -0.00373  -0.00372   2.63351
   R29        2.62639  -0.00373   0.00000  -0.00594  -0.00593   2.62046
   R30        2.07146  -0.01730   0.00000  -0.03677  -0.03677   2.03469
   R31        2.62770  -0.00302   0.00000  -0.00463  -0.00464   2.62306
   R32        2.07491  -0.02143   0.00000  -0.04579  -0.04579   2.02912
   R33        2.62840  -0.00624   0.00000  -0.00985  -0.00986   2.61854
   R34        2.06891  -0.01663   0.00000  -0.03519  -0.03519   2.03372
   R35        2.62706  -0.00578   0.00000  -0.00900  -0.00901   2.61805
   R36        2.06890  -0.01668   0.00000  -0.03529  -0.03529   2.03361
   R37        2.06856  -0.01675   0.00000  -0.03543  -0.03543   2.03313
    A1        1.86690  -0.00348   0.00000  -0.03697  -0.03625   1.83065
    A2        1.86690  -0.00348   0.00000  -0.03697  -0.03625   1.83065
    A3        1.86690  -0.00348   0.00000  -0.03697  -0.03625   1.83065
    A4        1.95227   0.00314   0.00000   0.03335   0.03111   1.98338
    A5        1.95227   0.00314   0.00000   0.03335   0.03111   1.98338
    A6        1.95227   0.00314   0.00000   0.03335   0.03111   1.98338
    A7        2.07441  -0.00228   0.00000  -0.00627  -0.00628   2.06813
    A8        2.12872   0.00999   0.00000   0.02838   0.02837   2.15709
    A9        2.08006  -0.00771   0.00000  -0.02211  -0.02209   2.05796
   A10        2.10017   0.00547   0.00000   0.01658   0.01660   2.11677
   A11        2.09414  -0.00347   0.00000  -0.01135  -0.01136   2.08278
   A12        2.08887  -0.00200   0.00000  -0.00523  -0.00524   2.08362
   A13        2.10069   0.00329   0.00000   0.01029   0.01028   2.11097
   A14        2.08621   0.00074   0.00000   0.00481   0.00481   2.09102
   A15        2.09624  -0.00403   0.00000  -0.01513  -0.01513   2.08110
   A16        2.09752  -0.00006   0.00000  -0.00097  -0.00098   2.09655
   A17        2.09156   0.00014   0.00000   0.00093   0.00094   2.09249
   A18        2.09411  -0.00008   0.00000   0.00004   0.00004   2.09414
   A19        2.09756   0.00127   0.00000   0.00385   0.00382   2.10138
   A20        2.09044  -0.00054   0.00000  -0.00154  -0.00153   2.08891
   A21        2.09518  -0.00073   0.00000  -0.00232  -0.00231   2.09287
   A22        2.09037  -0.00226   0.00000  -0.00763  -0.00766   2.08271
   A23        2.09614   0.00111   0.00000   0.00376   0.00377   2.09991
   A24        2.09668   0.00114   0.00000   0.00387   0.00388   2.10056
   A25        2.07441  -0.00228   0.00000  -0.00627  -0.00628   2.06813
   A26        2.12872   0.00999   0.00000   0.02838   0.02837   2.15709
   A27        2.08006  -0.00771   0.00000  -0.02211  -0.02209   2.05796
   A28        2.10017   0.00547   0.00000   0.01658   0.01660   2.11677
   A29        2.09414  -0.00347   0.00000  -0.01135  -0.01136   2.08278
   A30        2.08887  -0.00200   0.00000  -0.00523  -0.00524   2.08362
   A31        2.10069   0.00329   0.00000   0.01029   0.01028   2.11097
   A32        2.08621   0.00074   0.00000   0.00481   0.00481   2.09102
   A33        2.09624  -0.00403   0.00000  -0.01513  -0.01513   2.08110
   A34        2.09752  -0.00006   0.00000  -0.00097  -0.00098   2.09655
   A35        2.09156   0.00014   0.00000   0.00093   0.00094   2.09249
   A36        2.09411  -0.00008   0.00000   0.00004   0.00004   2.09414
   A37        2.09756   0.00127   0.00000   0.00385   0.00382   2.10138
   A38        2.09044  -0.00054   0.00000  -0.00154  -0.00153   2.08891
   A39        2.09518  -0.00073   0.00000  -0.00232  -0.00231   2.09287
   A40        2.09037  -0.00226   0.00000  -0.00763  -0.00766   2.08271
   A41        2.09614   0.00111   0.00000   0.00376   0.00377   2.09991
   A42        2.09668   0.00114   0.00000   0.00387   0.00388   2.10056
   A43        2.07441  -0.00228   0.00000  -0.00627  -0.00628   2.06813
   A44        2.12872   0.00999   0.00000   0.02838   0.02837   2.15709
   A45        2.08006  -0.00771   0.00000  -0.02211  -0.02209   2.05796
   A46        2.10017   0.00547   0.00000   0.01658   0.01660   2.11677
   A47        2.09414  -0.00347   0.00000  -0.01135  -0.01136   2.08278
   A48        2.08887  -0.00200   0.00000  -0.00523  -0.00524   2.08362
   A49        2.10069   0.00329   0.00000   0.01029   0.01028   2.11097
   A50        2.08621   0.00074   0.00000   0.00481   0.00481   2.09102
   A51        2.09624  -0.00403   0.00000  -0.01513  -0.01513   2.08110
   A52        2.09752  -0.00006   0.00000  -0.00097  -0.00098   2.09655
   A53        2.09156   0.00014   0.00000   0.00093   0.00094   2.09249
   A54        2.09411  -0.00008   0.00000   0.00004   0.00004   2.09414
   A55        2.09756   0.00127   0.00000   0.00385   0.00382   2.10138
   A56        2.09044  -0.00054   0.00000  -0.00154  -0.00153   2.08891
[...]
 960,0.00018175,-0.00019945,0.00002734,-0.00001491,-0.00006550,-0.00002
 735,-0.00001781,0.00004892,-0.00005651,-0.00000741,0.00008995,-0.00008
 555,0.00005724,0.00008477,-0.00001077,-0.00005291,0.00003973,-0.000008
 73,0.00000509,0.00001417,-0.00001002,0.00001956,-0.00000134,0.00000105
 ,-0.00002422,0.00000949,-0.00085508,-0.00061221,0.00043403,0.00028042,
 -0.00013806,-0.00007522,-0.00012863,-0.00008179,0.00023251,-0.00010166
 ,-0.00000360,-0.00014623,0.00002729,0.00002718,0.00000475,0.00024839,-
 0.00006978,0.00008995,0.00000868,0.00013083,-0.00000667,0.00001262,0.0
 0012941,0.00010789,-0.00002131,0.00000227,0.00003089,-0.00000200,-0.00
 000729,-0.00001995,-0.00003849,-0.00000192,0.00000113,0.02611932,0.029
 44021,0.00682633,-0.01345230,-0.01266072,-0.00732578,0.02563531,0.0912
 4014,-0.14795776,-0.02992406,0.01382266,-0.03408887,0.00041932,-0.0008
 3548,0.00029800,0.21516479,-0.22755356,0.61509951,-0.00197087,0.001171
 20,0.00180630,-0.00013831,-0.00020896,0.00008341,0.00043871,0.00030774
 ,-0.00043420,-0.00008762,0.00017663,0.00012279,0.00026024,0.00029937,-
 0.00015188,0.00000538,-0.00001872,-0.00003378,-0.00000829,-0.00001500,
 0.00001647,-0.00003135,-0.00003883,0.00010896,-0.00032804,-0.00009344,
 -0.00002182,-0.00001599,-0.00000789,0.00000880,-0.00001388,0.00000505,
 0.00000591,-0.00001620,0.00001861,-0.00000063,-0.00000400,-0.00001905,
 0.00000491,-0.00031416,-0.00143623,0.00164370,0.00031873,-0.00048489,0
 .00008019,-0.00048919,-0.00084881,0.00048991,-0.00018966,0.00008174,-0
 .00008799,0.00001997,0.00003848,-0.00000836,0.00019956,-0.00022770,-0.
 00000679,0.00003430,0.00030264,-0.00002018,-0.00013348,0.00024027,0.00
 010246,-0.00001320,-0.00001060,0.00000075,0.00001748,0.00001817,0.0000
 0104,0.00000047,0.00000683,0.00000524,-0.00248054,-0.00445470,-0.00322
 733,0.00366051,-0.00143488,-0.00303964,-0.25998596,-0.06431902,-0.1424
 3291,0.00024011,0.00028977,0.00090802,-0.00023302,-0.00013108,-0.00012
 394,-0.00881891,-0.00139543,-0.01277512,0.26969922,0.00147335,-0.00098
 957,-0.00205976,0.00009046,0.00055559,-0.00025823,-0.00025263,-0.00038
 465,0.00029322,0.00005486,-0.00011799,-0.00007121,-0.00013756,-0.00008
 533,0.00009821,-0.00001433,0.00001856,0.00005078,0.00000410,0.00000018
 ,-0.00000660,0.00002728,-0.00001405,-0.00007293,0.00020568,0.00009028,
 0.00002000,0.00001460,0.00002061,-0.00002009,0.00000969,0.00000359,-0.
 00000614,-0.00000074,-0.00000027,0.00001042,-0.00000195,0.00001848,-0.
 00000160,-0.00074450,-0.00117731,0.00114448,-0.00030303,-0.00014868,0.
 00021509,-0.00035900,-0.00042540,0.00035331,0.00037237,-0.00007289,0.0
 0017705,0.00002257,0.00003692,-0.00016963,-0.00041393,0.00006638,-0.00
 010271,0.00000352,-0.00027207,-0.00000651,0.00007832,-0.00018689,-0.00
 021651,0.00004742,-0.00000074,-0.00003856,0.00000672,0.00002032,0.0000
 0988,0.00005019,0.00000638,-0.00002395,0.01717803,0.01065131,0.0117179
 9,-0.00184863,0.00054430,0.00612945,-0.06425067,-0.08146046,-0.0314958
 4,0.00040845,-0.00096501,0.00035333,0.00089430,0.00023107,0.00059711,-
 0.02479337,-0.00141619,-0.01768973,0.07555243,0.07826488,0.00084242,-0
 .00223422,-0.00116854,0.00012783,0.00018356,0.00005924,-0.00015846,-0.
 00022598,0.00032589,0.00005922,-0.00007776,-0.00005980,-0.00002175,-0.
 00006485,0.00009839,0.00001901,0.00000586,0.00000220,-0.00001394,0.000
 00191,-0.00003721,0.00002760,0.00005134,-0.00000667,0.00000445,0.00002
 073,-0.00004281,-0.00000546,-0.00001918,0.00000274,0.00000342,-0.00000
 586,-0.00000326,0.00000837,-0.00001303,-0.00001107,-0.00000317,0.00000
 097,-0.00000887,-0.00006394,0.00052761,-0.00002263,0.00039000,-0.00058
 685,-0.00016868,0.00010769,-0.00003629,0.00063096,0.00012415,-0.000143
 51,-0.00010844,-0.00003857,0.00008142,-0.00006017,0.00025890,0.0000181
 6,0.00008477,-0.00000641,-0.00002890,-0.00004281,-0.00010372,0.0001885
 4,0.00006634,-0.00002151,0.00003098,-0.00000064,-0.00004413,-0.0000475
 6,-0.00003664,-0.00004433,-0.00000409,-0.00000778,-0.02402033,-0.00865
 067,-0.00935997,-0.00340764,0.00629813,-0.00088925,-0.14041564,-0.0310
 9457,-0.15563768,0.00095758,0.00051472,-0.00057564,-0.00106829,-0.0004
 6986,-0.00074806,0.00949461,0.00485002,0.00992481,0.15570363,0.0291649
 9,0.15560228,-0.00022575,0.00168039,-0.00035637,-0.00017151,-0.0000448
 7,0.00071121,0.00053850,0.00045297,0.00028047,0.00024757,-0.00026882,0
 .00003062,0.00014022,-0.00000188,0.00010563,-0.00018473,0.00008279,0.0
 0014086,0.00000231,0.00001497,0.00000064,-0.00000181,-0.00032384,0.000
 10576,-0.00031149,-0.00013750,0.00021514,0.00011626,0.00007242,-0.0001
 9203,-0.00001886,-0.00002031,-0.00002206,0.00002921,-0.00003552,-0.000
 01559,0.00000344,-0.00001720,0.00000440,0.00029755,-0.00030278,-0.0002
 8747,-0.00034459,-0.00012416,0.00003073,0.00020842,-0.00000755,0.00023
 643,0.00028388,0.00002712,0.00017771,-0.00000156,0.00001784,-0.0000507
 5,-0.00023412,0.00011946,0.00005121,0.00001436,0.00002542,0.00001934,-
 0.00000967,-0.00014512,-0.00025595,-0.00001757,0.00000422,0.00001847,-
 0.00001646,-0.00000382,-0.00001844,-0.00001942,-0.00000291,-0.00000230
 ,-0.04435286,0.01332932,-0.05057802,0.06324362,0.02646442,0.02551224,-
 0.03248298,-0.07023172,0.02776305,-0.14832848,-0.02489912,-0.04067660,
 0.00106436,-0.00648951,-0.00152096,-0.26800870,-0.04322046,-0.14168581
 ,0.00227592,-0.00525370,-0.00127666,0.58088947,0.00108605,-0.00082365,
 0.00006640,-0.00015938,-0.00013592,-0.00032715,-0.00092468,-0.00004804
 ,0.00009572,0.00007327,-0.00012540,-0.00022306,0.00000547,-0.00019432,
 0.00012449,0.00007582,-0.00003202,0.00002023,-0.00001908,0.00002632,-0
 .00000794,0.00001659,0.00010464,-0.00007564,0.00002445,-0.00000888,-0.
 00000444,-0.00000445,-0.00009089,0.00004216,0.00002378,-0.00003413,0.0
 0000392,0.00001242,-0.00003533,-0.00003239,0.00000983,-0.00000396,-0.0
 0000820,0.00005813,-0.00009308,0.00021706,0.00001411,-0.00002499,-0.00
 009244,-0.00010844,0.00003816,0.00006918,-0.00001500,0.00001223,-0.000
 06291,0.00005246,-0.00003815,0.00000752,0.00004788,-0.00000573,0.00001
 713,0.00000293,-0.00000975,0.00000487,-0.00006826,0.00003504,-0.000004
 58,-0.00004138,-0.00000376,0.00001765,-0.00002101,-0.00001155,-0.00000
 943,-0.00001648,-0.00000566,-0.00000032,0.01381916,-0.00464857,0.01216
 819,-0.01378792,-0.03349106,0.02948583,-0.02964471,0.00595397,-0.02578
 875,0.02686084,-0.19762525,0.13947255,-0.00614439,-0.00075682,0.003622
 11,-0.09557501,-0.15202848,-0.02902649,-0.00530284,-0.00134484,0.00459
 379,0.23559031,0.62378044,-0.00035861,0.00173279,-0.00115345,0.0001745
 4,0.00033518,0.00096818,0.00114444,0.00031299,0.00037605,0.00023869,-0
 .00029506,0.00028443,0.00018396,0.00038269,0.00007313,-0.00030275,0.00
 014526,0.00018608,0.00000809,-0.00000778,0.00000558,0.00005338,-0.0004
 6493,0.00010789,-0.00023873,0.00001952,0.00006634,0.00012401,0.0002239
 5,-0.00027670,-0.00004121,0.00000789,-0.00002641,0.00000813,0.00002882
 ,0.00004701,-0.00000791,-0.00000087,0.00000410,0.00024780,-0.00010124,
 -0.00051961,-0.00035315,-0.00019802,0.00010569,0.00039635,-0.00003186,
 0.00023180,0.00034143,-0.00000167,0.00024532,-0.00000846,0.00004655,-0
 .00008395,-0.00031272,0.00014212,0.00003973,0.00001299,0.00001767,0.00
 000274,0.00005950,-0.00018738,-0.00027670,0.00000164,0.00000671,0.0000
 0988,0.00000376,0.00000672,-0.00000760,-0.00000726,-0.00000080,-0.0000
 0719,-0.05121185,0.01037866,-0.07029747,0.06727248,0.06966180,0.006503
 50,-0.01317786,-0.06631650,0.06269431,-0.09184014,0.08700815,-0.262321
 03,-0.00196683,0.00307859,0.00405989,-0.09096746,0.02341145,-0.1971285
 5,-0.00100671,0.00494965,0.00329747,0.17573373,-0.20557079,0.55410221,
 -0.00056473,0.00022878,-0.00065395,-0.00001367,-0.00003498,0.00006293,
 -0.00012544,0.00009945,0.00007362,0.00006782,-0.00006414,-0.00002023,0
 .00003951,-0.00001732,-0.00003604,0.00000584,-0.00001392,0.00001303,-0
 .00001157,0.00000988,-0.00000328,-0.00001376,-0.00000210,0.00001262,-0
 .00001980,0.00001441,0.00003759,0.00000888,-0.00001949,0.00000499,-0.0
 0000308,-0.00002148,0.00000143,0.00000504,-0.00000509,-0.00001205,0.00
 000396,-0.00001490,-0.00000293,0.00008236,-0.00020829,0.00016936,-0.00
 004006,-0.00002751,-0.00006281,-0.00010235,0.00002657,0.00000683,-0.00
 000476,-0.00000657,-0.00002653,0.00001671,-0.00000711,-0.00000137,0.00
 003046,0.00001001,-0.00000004,0.00000560,0.00000620,0.00000337,-0.0000
 2881,0.00001457,0.00001377,-0.00002143,0.00001088,0.00000316,-0.000011
 50,-0.00000443,-0.00001097,-0.00001376,0.00000027,-0.00000264,0.002550
 40,-0.00558725,-0.00109119,-0.00936132,-0.00157054,-0.01358729,0.00026
 361,0.00024056,0.00095647,-0.25321125,-0.06783051,-0.13955334,-0.00093
 735,0.00174301,0.00256899,0.00389123,-0.00131252,-0.00353202,-0.000483
 17,0.00042163,0.00036731,-0.00158426,-0.00540635,-0.00179613,0.2607983
 5,-0.00089436,0.00004236,-0.00089078,0.00003523,0.00008081,0.00001136,
 -0.00015334,0.00005572,0.00006362,0.00003893,-0.00006688,-0.00002575,0
 .00004731,-0.00003893,-0.00001098,0.00001222,-0.00000333,0.00001718,-0
 .00000933,0.00000916,-0.00001323,0.00001381,-0.00000859,0.00001732,-0.
 00004361,0.00000586,0.00000314,0.00002611,-0.00003021,-0.00000477,-0.0
 0000196,-0.00001401,-0.00000296,0.00000145,-0.00001429,-0.00002236,-0.
 00000321,-0.00001054,-0.00000601,-0.00001501,-0.00043380,0.00009183,-0
 .00007704,0.00000817,0.00000398,-0.00005803,0.00002807,0.00000445,0.00
 004911,0.00001129,-0.00000041,0.00000853,-0.00000272,-0.00000065,-0.00
 002796,0.00003778,-0.00001011,0.00000156,-0.00001590,0.00000590,-0.000
 02952,-0.00002418,-0.00003963,-0.00000864,0.00000434,0.00000496,-0.000
 01253,-0.00000297,-0.00001094,-0.00000859,-0.00000218,-0.00000075,-0.0
 0503704,-0.00125925,0.00492178,-0.02458375,-0.00118258,-0.01816820,0.0
 0037112,-0.00102398,0.00048052,-0.06773828,-0.08392301,-0.03358243,0.0
 0252481,-0.00079843,-0.00175946,-0.00166743,0.00077176,0.00611224,0.00
 036518,-0.00035486,-0.00050985,0.01747119,0.01037320,0.01278384,0.0770
 6547,0.07832361,0.00044194,0.00007656,0.00021795,-0.00001420,-0.000032
 75,-0.00004029,-0.00009093,-0.00006979,0.00002033,-0.00000647,-0.00000
 122,-0.00004488,0.00002112,-0.00001983,-0.00001370,0.00001693,-0.00000
 571,-0.00000619,0.00000150,0.00000539,-0.00000358,-0.00000255,0.000013
 08,0.00003089,-0.00003377,0.00001863,-0.00000064,0.00000605,-0.0000248
 2,0.00000988,0.00000271,-0.00000522,0.00000196,-0.00000005,-0.00000938
 ,-0.00001894,-0.00000130,-0.00000932,-0.00000264,0.00000384,-0.0000095
 8,-0.00008307,-0.00002254,-0.00000651,0.00003059,0.00001595,-0.0000077
 1,0.00003697,0.00003795,-0.00000753,0.00001371,0.00000635,0.00000583,-
 0.00001780,-0.00002604,0.00000570,0.00001417,0.00000236,0.00000819,-0.
 00000326,0.00000763,-0.00002106,-0.00002641,0.00000185,0.00000272,0.00
 000196,-0.00000097,0.00000251,-0.00000640,-0.00000392,0.00000195,-0.00
 000373,-0.00127720,0.00465916,0.00329799,0.00906303,0.00517743,0.00975
 189,0.00095336,0.00046010,-0.00044108,-0.13971675,-0.03374704,-0.15684
 148,0.00180142,-0.00247890,-0.00090428,-0.00321172,0.00641420,-0.00093
 618,0.00036200,-0.00047632,-0.00042462,-0.02431434,-0.01038778,-0.0088
 7135,0.15460255,0.03248213,0.15675160,0.00042924,-0.00015592,0.0007218
 9,-0.00007275,-0.00012964,0.00011634,-0.00007716,-0.00004690,0.0000210
 2,-0.00000770,-0.00003003,-0.00000643,0.00001816,0.00003017,-0.0000238
 9,0.00001122,-0.00000875,0.00000519,-0.00000498,0.00000198,-0.00000397
 ,0.00001150,-0.00000195,-0.00000531,0.00000883,-0.00001318,-0.00001912
 ,-0.00000202,-0.00000451,0.00000394,0.00000224,-0.00000351,0.00000266,
 -0.00000355,0.00000638,0.00000188,-0.00000149,-0.00000074,-0.00000195,
 0.00008847,0.00004744,-0.00000724,-0.00003963,0.00000297,-0.00001008,0
 .00003245,0.00001325,-0.00001668,0.00001302,0.00001967,0.00000764,0.00
 000243,-0.00001103,0.00001251,-0.00002978,0.00001487,-0.00001193,0.000
 00349,-0.00000725,0.00000709,-0.00002920,0.00000180,-0.00002903,-0.000
 01104,-0.00000419,0.00000815,-0.00000447,-0.00000691,0.00000341,-0.000
 00389,-0.00000672,0.00000337,0.00092285,-0.00628187,-0.00163999,-0.001
 11019,-0.00047735,0.00035965,0.01007137,-0.01277895,0.01707048,-0.0013
 0473,-0.00485481,-0.00548862,-0.00036407,0.00047406,0.00042240,-0.0857
 9755,0.03504553,-0.07104885,-0.00075030,0.00249641,0.00178072,-0.00103
 270,0.01797200,-0.02415186,-0.00033779,0.00082028,-0.00109337,0.080222
 82,0.00061978,-0.00028400,0.00090973,-0.00017727,-0.00034764,0.0001121
 3,-0.00020182,0.00006774,0.00016596,0.00007449,-0.00010723,-0.00006529
 ,-0.00000788,-0.00011596,-0.00002479,0.00000159,-0.00000824,0.00000620
 ,0.00001005,0.00002032,-0.00001391,-0.00001425,0.00000727,0.00000538,-
 0.00000173,0.00002897,0.00006199,0.00001268,-0.00002599,-0.00000662,0.
 00000459,-0.00001671,-0.00000042,0.00002188,-0.00002109,-0.00001449,0.
 00000719,-0.00000942,-0.00000102,0.00029943,0.00002709,0.00002370,-0.0
 0002696,0.00003576,-0.00000698,-0.00009465,0.00003747,-0.00003569,-0.0
 0000611,-0.00000640,-0.00001912,0.00001310,-0.00001528,-0.00002062,0.0
 0001849,0.00000348,-0.00001845,0.00001211,-0.00001996,0.00001377,-0.00
 004614,0.00002308,-0.00000737,-0.00001073,0.00000179,0.00000464,-0.000
 02241,-0.00002017,-0.00000971,-0.00001453,-0.00000507,0.00000104,-0.00
 627537,-0.00077168,0.00293034,-0.00045862,-0.00048460,-0.00091523,0.01
 019857,-0.00945801,0.02481943,-0.00459222,0.00304235,0.00118956,0.0004
 8829,-0.00041097,-0.00033721,0.03506498,-0.15379266,0.13784058,0.00165
 614,-0.00079086,-0.00246930,-0.00517995,0.01012417,-0.00956656,-0.0001
 3310,0.00021726,-0.00044199,-0.03375022,0.15392592,-0.00041431,-0.0002
 3846,-0.00029390,0.00003370,0.00008960,-0.00006467,0.00015455,0.000030
 16,-0.00003217,-0.00001846,0.00004353,0.00004700,-0.00003213,0.0000138
 6,0.00004327,-0.00001604,0.00001354,-0.00000190,0.00000339,-0.00001001
 ,-0.00000059,0.00001996,-0.00000512,-0.00001995,0.00000803,-0.00000584
 ,-0.00003664,0.00000105,0.00002069,-0.00000760,-0.00000399,0.00001497,
 -0.00000640,-0.00001012,0.00000190,0.00000611,-0.00000442,0.00001300,0
 .00000119,-0.00008756,0.00008121,-0.00001648,0.00007047,0.00001097,0.0
 0001639,0.00000735,-0.00001706,-0.00003752,-0.00003961,-0.00001577,0.0
 0000236,-0.00002174,0.00001697,-0.00000283,0.00002490,-0.00002528,-0.0
 0000134,-0.00000871,-0.00000576,-0.00001107,0.00003584,0.00000270,0.00
 004701,0.00002539,0.00000074,-0.00001894,0.00001161,0.00000887,0.00000
 611,0.00001754,0.00000787,0.00000003,-0.00138835,0.00350294,0.00384419
 ,0.00047970,-0.00086262,0.00036804,-0.00544110,0.00174511,-0.00161174,
 -0.00579756,0.00084781,0.00233458,0.00042039,-0.00034601,-0.00051144,-
 0.07080901,0.13776494,-0.25411537,0.00237633,-0.00178299,-0.00089871,-
 0.00165720,0.01354734,-0.00926278,-0.00011498,0.00052557,-0.00072526,0
 .08045045,-0.15250803,0.26187324,-0.00028190,0.00049467,0.00036839,0.0
 0000657,-0.00008668,0.00014023,0.00001582,0.00008793,-0.00002939,0.000
 00052,0.00000471,-0.00000563,0.00002484,0.00000668,-0.00003613,0.00000
 455,-0.00000255,-0.00000597,-0.00000231,0.00000335,0.00000157,-0.00001
 490,-0.00000338,0.00001758,-0.00001978,0.00000487,0.00001863,-0.000000
 70,-0.00000790,0.00000293,-0.00000148,-0.00000737,0.00000365,0.0000044
 3,0.00000191,-0.00000196,0.00000314,-0.00000873,-0.00000009,0.00005067
 ,-0.00003365,0.00002890,0.00000331,-0.00002222,-0.00003303,-0.00005016
 ,-0.00000873,0.00003466,0.00000460,-0.00000624,-0.00001668,0.00001372,
 -0.00000160,-0.00000165,0.00002938,-0.00000519,0.00002045,0.00000376,0
 .00002353,0.00000074,-0.00000530,0.00001215,0.00000471,-0.00001476,0.0
 0000409,0.00000872,-0.00000465,-0.00000108,-0.00000904,-0.00001298,-0.
 00000057,-0.00000213,-0.00060894,0.00082425,-0.00044576,0.00306990,-0.
 00122392,-0.00447290,-0.00064817,-0.00313468,-0.00656985,0.00979731,0.
 00969341,-0.00474656,0.00019808,0.00041172,-0.00012691,-0.00879101,-0.
 02469901,0.01016245,-0.00066446,-0.00103833,0.00043702,-0.15200757,-0.
 13850614,0.03174469,-0.00087995,0.00151733,0.00246759,-0.00085311,0.00
 251058,0.00172463,0.15163154,0.00032645,-0.00038146,-0.00035972,-0.000
 00756,0.00003184,-0.00010352,-0.00013496,-0.00003126,0.00008530,0.0000
 4223,-0.00004517,-0.00004513,0.00002792,-0.00004283,-0.00002400,0.0000
 1228,-0.00001025,-0.00000110,0.00000206,0.00001071,-0.00000474,-0.0000
 2250,0.00001561,0.00003429,-0.00003850,0.00002663,0.00004043,0.0000056
 7,-0.00002438,0.00000669,0.00000150,-0.00001447,0.00000242,0.00000973,
 -0.00001339,-0.00001912,0.00000322,-0.00001516,-0.00000208,0.00003273,
 -0.00006953,0.00000560,-0.00002389,-0.00003457,0.00000862,-0.00003837,
 0.00000870,0.00003917,0.00001919,-0.00001707,-0.00001147,0.00001190,0.
 00000071,-0.00001786,0.00001513,0.00000571,0.00001302,0.00000643,0.000
 01071,-0.00000323,-0.00001488,0.00000478,-0.00000641,-0.00000760,0.000
 00818,0.00000353,-0.00000902,-0.00000626,-0.00001033,-0.00001252,0.000
 00095,-0.00000389,0.00092421,0.00040510,-0.00037045,-0.00084676,0.0022
 1631,0.00552568,-0.00357165,0.00381181,0.00148388,-0.01325800,-0.00955
 184,0.00098931,-0.00050536,-0.00070126,0.00012572,-0.00144508,-0.00189
 415,0.00549381,-0.00008219,-0.00032078,0.00014959,-0.13864211,-0.25882
 795,0.06806248,0.00239588,-0.00075876,-0.00157113,0.00162762,-0.000850
 75,-0.00248136,0.15319677,0.26705352,0.00040252,-0.00042663,-0.0002964
 7,-0.00007421,0.00000840,-0.00003243,-0.00000951,-0.00008426,0.0000636
 3,0.00001932,-0.00002624,0.00000368,0.00001683,0.00000553,0.00001432,-
 0.00000336,-0.00000445,0.00001222,-0.00000450,-0.00000382,-0.00000368,
 0.00000479,-0.00000639,0.00000113,-0.00002336,0.00000744,-0.00000778,0
 .00000088,0.00000215,-0.00000719,0.00000067,0.00000267,-0.00000373,-0.
 00000078,-0.00000344,0.00000003,-0.00000230,0.00000378,0.00000083,-0.0
 0005122,0.00002817,0.00000975,0.00002657,-0.00003703,0.00001033,0.0000
 3279,-0.00001412,0.00003937,-0.00000220,-0.00000580,0.00000010,-0.0000
 1110,0.00001047,-0.00000195,0.00001905,-0.00000120,0.00000949,-0.00000
 107,0.00000506,-0.00000887,0.00000490,0.00000791,0.00000410,0.00000667
 ,0.00000047,-0.00000264,0.00000186,-0.00000118,0.00000119,0.00000185,0
 .00000096,0.00000083,-0.00041962,-0.00027517,-0.00113695,-0.00488430,0
 .00515230,-0.00136018,-0.00614986,0.00184673,0.00107632,0.01781538,0.0
 2426965,-0.00083325,0.00082240,0.00109338,-0.00036583,-0.01233793,-0.0
 1770964,0.01020943,-0.00045954,-0.00078565,0.00022489,0.03177294,0.068
 04615,-0.08317854,0.00160977,-0.00247056,-0.00076411,0.00255952,-0.001
 60165,-0.00091223,-0.03068385,-0.07703401,0.07723419||0.,0.,-0.0000426
 5,0.,0.,-0.00001828,-0.00000529,-0.00002823,0.00007032,-0.00000045,0.0
 0005604,-0.00001405,0.00003468,-0.00005541,-0.00004659,0.00003102,-0.0
 0003242,-0.00003941,-0.00000986,-0.00000574,0.00001132,-0.00002514,0.0
 0006676,-0.00000518,0.00000071,0.00001291,-0.00000590,-0.00002619,-0.0
 0001771,0.00005392,-0.00000681,-0.00000337,0.00000768,0.00001001,-0.00
 000349,-0.00000428,0.00001008,-0.00000710,-0.00000751,-0.00002181,0.00
 001870,0.00007032,0.00004875,-0.00002763,-0.00001405,-0.00006533,-0.00
 000232,-0.00004659,-0.00004359,-0.00001066,-0.00003941,-0.00000004,0.0
 0001141,0.00001132,0.00007038,-0.00001161,-0.00000518,0.00001083,-0.00
 000707,-0.00000590,-0.00000224,0.00003153,0.00005392,0.00000048,0.0000
 0758,0.00000768,-0.00000803,-0.00000692,-0.00000428,-0.00001119,-0.000
 00517,-0.00000751,0.00002710,0.00000953,0.00007032,-0.00004830,-0.0000
 2840,-0.00001405,0.00003065,0.00005774,-0.00004659,0.00001256,0.000043
 08,-0.00003941,0.00000990,-0.00000567,0.00001132,-0.00004524,-0.000055
 15,-0.00000518,-0.00001154,-0.00000584,-0.00000590,0.00002843,-0.00001
 383,0.00005392,0.00000632,-0.00000421,0.00000768,-0.00000198,0.0000104
 1,-0.00000428,0.00000111,0.00001228,-0.00000751|||@


 THOSE WHO TRY TO PASS CHEMISTRY OFF AS A NEW SCIENCE
 SHOW HOW LITTLE KNOWLEDGE THEY HAVE OF THE CHARACTER
 AND LITERATURE OF THE ANCIENTS.
   -- NICOLAS LEFEVRE
 "COURS DE CHYMIE" J.-N.LELOUP, PARIS, 1751
 Job cpu time:  0 days  0 hours  3 minutes 30.0 seconds.
 File lengths (MBytes):  RWF=    178 Int=      0 D2E=      0 Chk=      7 Scr=      1
 Normal termination of Gaussian 09 at Mon Sep 06 12:44:25 2021.
