 Entering Link 1 = b:\programy\g09w\l1.exe PID=      9884.
  
 Copyright (c) 1988,1990,1992,1993,1995,1998,2003,2009, Gaussian, Inc.
                  All Rights Reserved.
  
 This is part of the Gaussian(R) 09 program.  It is based on
 the Gaussian(R) 03 system (copyright 2003, Gaussian, Inc.),
 the Gaussian(R) 98 system (copyright 1998, Gaussian, Inc.),
 the Gaussian(R) 94 system (copyright 1995, Gaussian, Inc.),
 the Gaussian 92(TM) system (copyright 1992, Gaussian, Inc.),
 the Gaussian 90(TM) system (copyright 1990, Gaussian, Inc.),
 the Gaussian 88(TM) system (copyright 1988, Gaussian, Inc.),
 the Gaussian 86(TM) system (copyright 1986, Carnegie Mellon
 University), and the Gaussian 82(TM) system (copyright 1983,
 Carnegie Mellon University). Gaussian is a federally registered
 trademark of Gaussian, Inc.
  
 This software contains proprietary and confidential information,
 including trade secrets, belonging to Gaussian, Inc.
  
 This software is provided under written license and may be
 used, copied, transmitted, or stored only in accord with that
 written license.
  
 The following legend is applicable only to US Government
 contracts under FAR:
  
                    RESTRICTED RIGHTS LEGEND
  
 Use, reproduction and disclosure by the US Government is
 subject to restrictions as set forth in subparagraphs (a)
 and (c) of the Commercial Computer Software - Restricted
 Rights clause in FAR 52.227-19.
  
 Gaussian, Inc.
 340 Quinnipiac St., Bldg. 40, Wallingford CT 06492
  
  
 ---------------------------------------------------------------
 Warning -- This program may not be used in any manner that
 competes with the business of Gaussian, Inc. or will provide
 assistance to any competitor of Gaussian, Inc.  The licensee
 of this program is prohibited from giving any competitor of
 Gaussian, Inc. access to this program.  By using this program,
 the user acknowledges that Gaussian, Inc. is engaged in the
 business of creating and licensing software in the field of
 computational chemistry and represents and warrants to the
 licensee that it is not a competitor of Gaussian, Inc. and that
 it will not use this program in any manner prohibited above.
 ---------------------------------------------------------------
  

 Cite this work as:
 Gaussian 09, Revision A.02,
 M. J. Frisch, G. W. Trucks, H. B. Schlegel, G. E. Scuseria, 
 M. A. Robb, J. R. Cheeseman, G. Scalmani, V. Barone, B. Mennucci, 
 G. A. Petersson, H. Nakatsuji, M. Caricato, X. Li, H. P. Hratchian, 
 A. F. Izmaylov, J. Bloino, G. Zheng, J. L. Sonnenberg, M. Hada, 
 M. Ehara, K. Toyota, R. Fukuda, J. Hasegawa, M. Ishida, T. Nakajima, 
 Y. Honda, O. Kitao, H. Nakai, T. Vreven, J. A. Montgomery, Jr., 
 J. E. Peralta, F. Ogliaro, M. Bearpark, J. J. Heyd, E. Brothers, 
 K. N. Kudin, V. N. Staroverov, R. Kobayashi, J. Normand, 
 K. Raghavachari, A. Rendell, J. C. Burant, S. S. Iyengar, J. Tomasi, 
 M. Cossi, N. Rega, J. M. Millam, M. Klene, J. E. Knox, J. B. Cross, 
 V. Bakken, C. Adamo, J. Jaramillo, R. Gomperts, R. E. Stratmann, 
 O. Yazyev, A. J. Austin, R. Cammi, C. Pomelli, J. W. Ochterski, 
 R. L. Martin, K. Morokuma, V. G. Zakrzewski, G. A. Voth, 
 P. Salvador, J. J. Dannenberg, S. Dapprich, A. D. Daniels, 
 O. Farkas, J. B. Foresman, J. V. Ortiz, J. Cioslowski, 
 and D. J. Fox, Gaussian, Inc., Wallingford CT, 2009.
 
 ******************************************
 Gaussian 09:  IA32W-G09RevA.02 11-Jun-2009
                06-Sep-2021 
 ******************************************
 %nprocshared=12
 Will use up to   12 processors via shared memory.
 ----------------------------------------------
 # opt freq=noraman hf/6-311g geom=connectivity
 ----------------------------------------------
 1/18=20,19=15,38=1,57=2/1,3;
 2/9=110,12=2,17=6,18=5,40=1/2;
 3/5=4,6=6,11=9,16=1,25=1,30=1,71=1/1,2,3;
 4//1;
 5/5=2,38=5/2;
 6/7=2,8=2,9=2,10=2,28=1/1;
 7//1,2,3,16;
 1/18=20,19=15/3(2);
 2/9=110/2;
 99//99;
 2/9=110/2;
 3/5=4,6=6,11=9,16=1,25=1,30=1,71=1/1,2,3;
 4/5=5,16=3/1;
 5/5=2,38=5/2;
 7//1,2,3,16;
 1/18=20,19=15/3(-5);
 2/9=110/2;
 6/7=2,8=2,9=2,10=2,19=2,28=1/1;
 99/9=1/99;
 -----
 M0001
 -----
 Symbolic Z-matrix:
 Charge =  0 Multiplicity = 1
 C                     0.        0.       -0.79543 
 H                     0.        0.       -1.91812 
 C                    -0.03786   1.44256  -0.35516 
 C                     0.5012    2.41915  -1.19715 
 C                    -0.59199   1.8279    0.86628 
 C                     0.48569   3.75689  -0.82053 
 H                     0.9415    2.13113  -2.15882 
 C                    -0.60847   3.16737   1.23921 
 H                    -1.02491   1.06644   1.52831 
 C                    -0.06936   4.13384   0.3978 
 H                     0.91134   4.51507  -1.48583 
 H                    -1.04896   3.45939   2.19802 
 H                    -0.08251   5.18801   0.69239 
 C                    -1.23036  -0.75407  -0.35516 
 C                    -2.34565  -0.77552  -1.19715 
 C                    -1.28702  -1.42663   0.86628 
 C                    -3.49641  -1.45782  -0.82053 
 H                    -2.31637  -0.2502   -2.15882 
 C                    -2.43878  -2.11064   1.23921 
 H                    -0.41111  -1.42082   1.52831 
 C                    -3.54533  -2.12699   0.3978 
 H                    -4.36583  -1.46829  -1.48583 
 H                    -2.47144  -2.63812   2.19802 
 H                    -4.4517   -2.66546   0.69239 
 C                     1.26822  -0.68849  -0.35516 
 C                     1.87901  -0.40127   0.86628 
 C                     1.84444  -1.64363  -1.19715 
 C                     3.04726  -1.05673   1.23921 
 H                     1.43602   0.35438   1.52831 
 C                     3.01071  -2.29907  -0.82053 
 H                     1.37486  -1.88093  -2.15882 
 C                     3.6147   -2.00685   0.3978 
 H                     3.5204   -0.82126   2.19802 
 H                     3.4545   -3.04677  -1.48583 
 H                     4.53421  -2.52255   0.69239 
 

 GradGradGradGradGradGradGradGradGradGradGradGradGradGradGradGradGradGrad
 Berny optimization.
 Initialization pass.
                           ----------------------------
                           !    Initial Parameters    !
                           ! (Angstroms and Degrees)  !
 --------------------------                            --------------------------
 ! Name  Definition              Value          Derivative Info.                !
 --------------------------------------------------------------------------------
 ! R1    R(1,2)                  1.1227         estimate D2E/DX2                !
 ! R2    R(1,3)                  1.5087         estimate D2E/DX2                !
 ! R3    R(1,14)                 1.5087         estimate D2E/DX2                !
 ! R4    R(1,25)                 1.5087         estimate D2E/DX2                !
 ! R5    R(3,4)                  1.3976         estimate D2E/DX2                !
 ! R6    R(3,5)                  1.3955         estimate D2E/DX2                !
 ! R7    R(4,6)                  1.3898         estimate D2E/DX2                !
 ! R8    R(4,7)                  1.0962         estimate D2E/DX2                !
 ! R9    R(5,8)                  1.3905         estimate D2E/DX2                !
 ! R10   R(5,9)                  1.098          estimate D2E/DX2                !
 ! R11   R(6,10)                 1.3909         estimate D2E/DX2                !
 ! R12   R(6,11)                 1.0948         estimate D2E/DX2                !
 ! R13   R(8,10)                 1.3902         estimate D2E/DX2                !
 ! R14   R(8,12)                 1.0948         estimate D2E/DX2                !
 ! R15   R(10,13)                1.0946         estimate D2E/DX2                !
 ! R16   R(14,15)                1.3976         estimate D2E/DX2                !
 ! R17   R(14,16)                1.3955         estimate D2E/DX2                !
 ! R18   R(15,17)                1.3898         estimate D2E/DX2                !
 ! R19   R(15,18)                1.0962         estimate D2E/DX2                !
 ! R20   R(16,19)                1.3905         estimate D2E/DX2                !
 ! R21   R(16,20)                1.098          estimate D2E/DX2                !
 ! R22   R(17,21)                1.3909         estimate D2E/DX2                !
 ! R23   R(17,22)                1.0948         estimate D2E/DX2                !
 ! R24   R(19,21)                1.3902         estimate D2E/DX2                !
 ! R25   R(19,23)                1.0948         estimate D2E/DX2                !
 ! R26   R(21,24)                1.0946         estimate D2E/DX2                !
 ! R27   R(25,26)                1.3955         estimate D2E/DX2                !
 ! R28   R(25,27)                1.3976         estimate D2E/DX2                !
 ! R29   R(26,28)                1.3905         estimate D2E/DX2                !
 ! R30   R(26,29)                1.098          estimate D2E/DX2                !
 ! R31   R(27,30)                1.3898         estimate D2E/DX2                !
 ! R32   R(27,31)                1.0962         estimate D2E/DX2                !
 ! R33   R(28,32)                1.3902         estimate D2E/DX2                !
 ! R34   R(28,33)                1.0948         estimate D2E/DX2                !
 ! R35   R(30,32)                1.3909         estimate D2E/DX2                !
 ! R36   R(30,34)                1.0948         estimate D2E/DX2                !
 ! R37   R(32,35)                1.0946         estimate D2E/DX2                !
 ! A1    A(2,1,3)              106.9669         estimate D2E/DX2                !
 ! A2    A(2,1,14)             106.9669         estimate D2E/DX2                !
 ! A3    A(2,1,25)             106.9669         estimate D2E/DX2                !
 ! A4    A(3,1,14)             111.8552         estimate D2E/DX2                !
 ! A5    A(3,1,25)             111.8552         estimate D2E/DX2                !
 ! A6    A(14,1,25)            111.8552         estimate D2E/DX2                !
 ! A7    A(1,3,4)              118.8577         estimate D2E/DX2                !
 ! A8    A(1,3,5)              121.9653         estimate D2E/DX2                !
 ! A9    A(4,3,5)              119.1769         estimate D2E/DX2                !
 ! A10   A(3,4,6)              120.3329         estimate D2E/DX2                !
 ! A11   A(3,4,7)              119.9903         estimate D2E/DX2                !
 ! A12   A(6,4,7)              119.6766         estimate D2E/DX2                !
 ! A13   A(3,5,8)              120.3611         estimate D2E/DX2                !
 ! A14   A(3,5,9)              119.5256         estimate D2E/DX2                !
 ! A15   A(8,5,9)              120.1106         estimate D2E/DX2                !
 ! A16   A(4,6,10)             120.1777         estimate D2E/DX2                !
 ! A17   A(4,6,11)             119.8386         estimate D2E/DX2                !
 ! A18   A(10,6,11)            119.9838         estimate D2E/DX2                !
 ! A19   A(5,8,10)             120.1826         estimate D2E/DX2                !
 ! A20   A(5,8,12)             119.7746         estimate D2E/DX2                !
 ! A21   A(10,8,12)            120.0428         estimate D2E/DX2                !
 ! A22   A(6,10,8)             119.7687         estimate D2E/DX2                !
 ! A23   A(6,10,13)            120.1016         estimate D2E/DX2                !
 ! A24   A(8,10,13)            120.1296         estimate D2E/DX2                !
 ! A25   A(1,14,15)            118.8577         estimate D2E/DX2                !
 ! A26   A(1,14,16)            121.9653         estimate D2E/DX2                !
 ! A27   A(15,14,16)           119.1769         estimate D2E/DX2                !
 ! A28   A(14,15,17)           120.3329         estimate D2E/DX2                !
 ! A29   A(14,15,18)           119.9903         estimate D2E/DX2                !
 ! A30   A(17,15,18)           119.6766         estimate D2E/DX2                !
 ! A31   A(14,16,19)           120.3611         estimate D2E/DX2                !
 ! A32   A(14,16,20)           119.5256         estimate D2E/DX2                !
 ! A33   A(19,16,20)           120.1106         estimate D2E/DX2                !
 ! A34   A(15,17,21)           120.1777         estimate D2E/DX2                !
 ! A35   A(15,17,22)           119.8386         estimate D2E/DX2                !
 ! A36   A(21,17,22)           119.9838         estimate D2E/DX2                !
 ! A37   A(16,19,21)           120.1826         estimate D2E/DX2                !
 ! A38   A(16,19,23)           119.7746         estimate D2E/DX2                !
 ! A39   A(21,19,23)           120.0428         estimate D2E/DX2                !
 ! A40   A(17,21,19)           119.7687         estimate D2E/DX2                !
 ! A41   A(17,21,24)           120.1016         estimate D2E/DX2                !
 ! A42   A(19,21,24)           120.1296         estimate D2E/DX2                !
 ! A43   A(1,25,26)            121.9653         estimate D2E/DX2                !
 ! A44   A(1,25,27)            118.8577         estimate D2E/DX2                !
 ! A45   A(26,25,27)           119.1769         estimate D2E/DX2                !
 ! A46   A(25,26,28)           120.3611         estimate D2E/DX2                !
 ! A47   A(25,26,29)           119.5256         estimate D2E/DX2                !
 ! A48   A(28,26,29)           120.1106         estimate D2E/DX2                !
 ! A49   A(25,27,30)           120.3329         estimate D2E/DX2                !
 ! A50   A(25,27,31)           119.9903         estimate D2E/DX2                !
 ! A51   A(30,27,31)           119.6766         estimate D2E/DX2                !
 ! A52   A(26,28,32)           120.1826         estimate D2E/DX2                !
 ! A53   A(26,28,33)           119.7746         estimate D2E/DX2                !
 ! A54   A(32,28,33)           120.0428         estimate D2E/DX2                !
 ! A55   A(27,30,32)           120.1777         estimate D2E/DX2                !
 ! A56   A(27,30,34)           119.8386         estimate D2E/DX2                !
 ! A57   A(32,30,34)           119.9838         estimate D2E/DX2                !
 ! A58   A(28,32,30)           119.7687         estimate D2E/DX2                !
 ! A59   A(28,32,35)           120.1296         estimate D2E/DX2                !
 ! A60   A(30,32,35)           120.1016         estimate D2E/DX2                !
 ! D1    D(2,1,3,4)            -27.4632         estimate D2E/DX2                !
 ! D2    D(2,1,3,5)            152.6551         estimate D2E/DX2                !
 ! D3    D(14,1,3,4)          -144.2773         estimate D2E/DX2                !
 ! D4    D(14,1,3,5)            35.841          estimate D2E/DX2                !
 ! D5    D(25,1,3,4)            89.3508         estimate D2E/DX2                !
 ! D6    D(25,1,3,5)           -90.5309         estimate D2E/DX2                !
 ! D7    D(2,1,14,15)          -27.4632         estimate D2E/DX2                !
 ! D8    D(2,1,14,16)          152.6551         estimate D2E/DX2                !
 ! D9    D(3,1,14,15)           89.3508         estimate D2E/DX2                !
 ! D10   D(3,1,14,16)          -90.5309         estimate D2E/DX2                !
 ! D11   D(25,1,14,15)        -144.2773         estimate D2E/DX2                !
 ! D12   D(25,1,14,16)          35.841          estimate D2E/DX2                !
 ! D13   D(2,1,25,26)          152.6551         estimate D2E/DX2                !
 ! D14   D(2,1,25,27)          -27.4632         estimate D2E/DX2                !
 ! D15   D(3,1,25,26)           35.841          estimate D2E/DX2                !
 ! D16   D(3,1,25,27)         -144.2773         estimate D2E/DX2                !
 ! D17   D(14,1,25,26)         -90.5309         estimate D2E/DX2                !
 ! D18   D(14,1,25,27)          89.3508         estimate D2E/DX2                !
 ! D19   D(1,3,4,6)           -179.8333         estimate D2E/DX2                !
 ! D20   D(1,3,4,7)              0.0032         estimate D2E/DX2                !
 ! D21   D(5,3,4,6)              0.0517         estimate D2E/DX2                !
 ! D22   D(5,3,4,7)            179.8882         estimate D2E/DX2                !
 ! D23   D(1,3,5,8)            179.9577         estimate D2E/DX2                !
 ! D24   D(1,3,5,9)             -0.6464         estimate D2E/DX2                !
 ! D25   D(4,3,5,8)              0.0764         estimate D2E/DX2                !
 ! D26   D(4,3,5,9)            179.4722         estimate D2E/DX2                !
 ! D27   D(3,4,6,10)            -0.1118         estimate D2E/DX2                !
 ! D28   D(3,4,6,11)           179.9241         estimate D2E/DX2                !
 ! D29   D(7,4,6,10)          -179.9487         estimate D2E/DX2                !
 ! D30   D(7,4,6,11)             0.0871         estimate D2E/DX2                !
 ! D31   D(3,5,8,10)            -0.1452         estimate D2E/DX2                !
 ! D32   D(3,5,8,12)           179.7742         estimate D2E/DX2                !
 ! D33   D(9,5,8,10)          -179.5375         estimate D2E/DX2                !
 ! D34   D(9,5,8,12)             0.3819         estimate D2E/DX2                !
 ! D35   D(4,6,10,8)             0.0432         estimate D2E/DX2                !
 ! D36   D(4,6,10,13)         -179.8916         estimate D2E/DX2                !
 ! D37   D(11,6,10,8)         -179.9927         estimate D2E/DX2                !
 ! D38   D(11,6,10,13)           0.0725         estimate D2E/DX2                !
 ! D39   D(5,8,10,6)             0.0849         estimate D2E/DX2                !
 ! D40   D(5,8,10,13)         -179.9803         estimate D2E/DX2                !
 ! D41   D(12,8,10,6)         -179.8343         estimate D2E/DX2                !
 ! D42   D(12,8,10,13)           0.1005         estimate D2E/DX2                !
 ! D43   D(1,14,15,17)        -179.8333         estimate D2E/DX2                !
 ! D44   D(1,14,15,18)           0.0032         estimate D2E/DX2                !
 ! D45   D(16,14,15,17)          0.0518         estimate D2E/DX2                !
 ! D46   D(16,14,15,18)        179.8882         estimate D2E/DX2                !
 ! D47   D(1,14,16,19)         179.9577         estimate D2E/DX2                !
 ! D48   D(1,14,16,20)          -0.6464         estimate D2E/DX2                !
 ! D49   D(15,14,16,19)          0.0764         estimate D2E/DX2                !
 ! D50   D(15,14,16,20)        179.4722         estimate D2E/DX2                !
 ! D51   D(14,15,17,21)         -0.1118         estimate D2E/DX2                !
 ! D52   D(14,15,17,22)        179.9241         estimate D2E/DX2                !
 ! D53   D(18,15,17,21)       -179.9487         estimate D2E/DX2                !
 ! D54   D(18,15,17,22)          0.0871         estimate D2E/DX2                !
 ! D55   D(14,16,19,21)         -0.1452         estimate D2E/DX2                !
 ! D56   D(14,16,19,23)        179.7742         estimate D2E/DX2                !
 ! D57   D(20,16,19,21)       -179.5375         estimate D2E/DX2                !
 ! D58   D(20,16,19,23)          0.3819         estimate D2E/DX2                !
 ! D59   D(15,17,21,19)          0.0432         estimate D2E/DX2                !
 ! D60   D(15,17,21,24)       -179.8916         estimate D2E/DX2                !
 ! D61   D(22,17,21,19)       -179.9927         estimate D2E/DX2                !
 ! D62   D(22,17,21,24)          0.0725         estimate D2E/DX2                !
 ! D63   D(16,19,21,17)          0.0849         estimate D2E/DX2                !
 ! D64   D(16,19,21,24)       -179.9803         estimate D2E/DX2                !
 ! D65   D(23,19,21,17)       -179.8343         estimate D2E/DX2                !
 ! D66   D(23,19,21,24)          0.1005         estimate D2E/DX2                !
 ! D67   D(1,25,26,28)         179.9577         estimate D2E/DX2                !
 ! D68   D(1,25,26,29)          -0.6464         estimate D2E/DX2                !
 ! D69   D(27,25,26,28)          0.0764         estimate D2E/DX2                !
 ! D70   D(27,25,26,29)        179.4722         estimate D2E/DX2                !
 ! D71   D(1,25,27,30)        -179.8333         estimate D2E/DX2                !
 ! D72   D(1,25,27,31)           0.0032         estimate D2E/DX2                !
 ! D73   D(26,25,27,30)          0.0517         estimate D2E/DX2                !
 ! D74   D(26,25,27,31)        179.8882         estimate D2E/DX2                !
 ! D75   D(25,26,28,32)         -0.1452         estimate D2E/DX2                !
 ! D76   D(25,26,28,33)        179.7742         estimate D2E/DX2                !
 ! D77   D(29,26,28,32)       -179.5375         estimate D2E/DX2                !
 ! D78   D(29,26,28,33)          0.3819         estimate D2E/DX2                !
 ! D79   D(25,27,30,32)         -0.1118         estimate D2E/DX2                !
 ! D80   D(25,27,30,34)        179.9241         estimate D2E/DX2                !
 ! D81   D(31,27,30,32)       -179.9487         estimate D2E/DX2                !
 ! D82   D(31,27,30,34)          0.0871         estimate D2E/DX2                !
 ! D83   D(26,28,32,30)          0.0849         estimate D2E/DX2                !
 ! D84   D(26,28,32,35)       -179.9803         estimate D2E/DX2                !
 ! D85   D(33,28,32,30)       -179.8343         estimate D2E/DX2                !
 ! D86   D(33,28,32,35)          0.1005         estimate D2E/DX2                !
 ! D87   D(27,30,32,28)          0.0432         estimate D2E/DX2                !
 ! D88   D(27,30,32,35)       -179.8916         estimate D2E/DX2                !
 ! D89   D(34,30,32,28)       -179.9927         estimate D2E/DX2                !
 ! D90   D(34,30,32,35)          0.0725         estimate D2E/DX2                !
 --------------------------------------------------------------------------------
 Trust Radius=3.00D-01 FncErr=1.00D-07 GrdErr=1.00D-07
 Number of steps in this run= 197 maximum allowed number of steps= 210.
 GradGradGradGradGradGradGradGradGradGradGradGradGradGradGradGradGradGrad

                          Input orientation:                          
 ---------------------------------------------------------------------
 Center     Atomic      Atomic             Coordinates (Angstroms)
 Number     Number       Type             X           Y           Z
 ---------------------------------------------------------------------
      1          6           0        0.000000    0.000000   -0.795433
      2          1           0        0.000000    0.000000   -1.918118
      3          6           0       -0.037863    1.442556   -0.355160
      4          6           0        0.501201    2.419149   -1.197147
      5          6           0       -0.591990    1.827903    0.866277
      6          6           0        0.485695    3.756886   -0.820533
      7          1           0        0.941504    2.131131   -2.158819
      8          6           0       -0.608473    3.167368    1.239212
      9          1           0       -1.024909    1.066444    1.528312
     10          6           0       -0.069363    4.133845    0.397797
     11          1           0        0.911336    4.515068   -1.485829
     12          1           0       -1.048963    3.459387    2.198019
     13          1           0       -0.082510    5.188014    0.692388
     14          6           0       -1.230359   -0.754068   -0.355160
     15          6           0       -2.345645   -0.775521   -1.197147
     16          6           0       -1.287015   -1.426629    0.866277
     17          6           0       -3.496406   -1.457819   -0.820533
     18          1           0       -2.316366   -0.250199   -2.158819
     19          6           0       -2.438785   -2.110637    1.239212
     20          1           0       -0.411113   -1.420819    1.528312
     21          6           0       -3.545333   -2.126993    0.397797
     22          1           0       -4.365832   -1.468294   -1.485829
     23          1           0       -2.471435   -2.638122    2.198019
     24          1           0       -4.451697   -2.665463    0.692388
     25          6           0        1.268222   -0.688488   -0.355160
     26          6           0        1.879005   -0.401273    0.866277
     27          6           0        1.844444   -1.643628   -1.197147
     28          6           0        3.047258   -1.056731    1.239212
     29          1           0        1.436022    0.354375    1.528312
     30          6           0        3.010711   -2.299067   -0.820533
     31          1           0        1.374862   -1.880932   -2.158819
     32          6           0        3.614696   -2.006852    0.397797
     33          1           0        3.520398   -0.821265    2.198019
     34          1           0        3.454496   -3.046774   -1.485829
     35          1           0        4.534207   -2.522551    0.692388
 ---------------------------------------------------------------------
                    Distance matrix (angstroms):
                    1          2          3          4          5
     1  C    0.000000
     2  H    1.122685   0.000000
     3  C    1.508722   2.127261   0.000000
     4  C    2.502970   2.573574   1.397593   0.000000
     5  C    2.540268   3.382978   1.395514   2.408808   0.000000
     6  C    3.788234   3.943955   2.418017   1.389827   2.779875
     7  H    2.699439   2.342240   2.164828   1.096191   3.405107
     8  C    3.813429   4.513446   2.417146   2.779757   1.390510
     9  H    2.754547   3.750416   2.159441   3.403961   1.097966
    10  C    4.303172   4.738876   2.794812   2.410305   2.410390
    11  H    4.657577   4.626365   3.408771   2.155093   3.874693
    12  H    4.693446   5.478163   3.407148   3.874565   2.155018
    13  H    5.397769   5.808359   3.889448   3.402598   3.402963
    14  C    1.508722   2.127261   2.499441   3.711677   2.926773
    15  C    2.502970   2.573574   3.309783   4.279072   3.756440
    16  C    2.540268   3.382978   3.359243   4.716508   3.327918
    17  C    3.788234   3.943955   4.537650   5.581539   4.698609
    18  H    2.699439   2.342240   3.363061   3.998615   4.055020
    19  C    3.813429   4.513446   4.575110   5.924384   4.365985
    20  H    2.754547   3.750416   3.447564   4.796436   3.320422
    21  C    4.303172   4.738876   5.060728   6.291716   4.958116
    22  H    4.657577   4.626365   5.336926   6.235669   5.535269
    23  H    4.693446   5.478163   5.393786   6.777884   5.025060
    24  H    5.397769   5.808359   6.120058   7.345394   5.926037
    25  C    1.508722   2.127261   2.499441   3.309783   3.359243
    26  C    2.540268   3.382978   2.926773   3.756440   3.327918
    27  C    2.502970   2.573574   3.711677   4.279072   4.716508
    28  C    3.813429   4.513446   4.278601   4.949746   4.658789
    29  H    2.754547   3.750416   2.627535   3.544757   2.592760
    30  C    3.788234   3.943955   4.848723   5.357335   5.732073
    31  H    2.699439   2.342240   4.036651   4.492081   5.174473
    32  C    4.303171   4.738876   5.080015   5.641559   5.711482
    33  H    4.693446   5.478163   4.929993   5.580590   5.069848
    34  H    4.657577   4.626365   5.799057   6.219453   6.757879
    35  H    5.397769   5.808359   6.141926   6.652509   6.725666
                    6          7          8          9         10
     6  C    0.000000
     7  H    2.154495   0.000000
     8  C    2.405677   3.875929   0.000000
     9  H    3.877818   4.312223   2.161222   0.000000
    10  C    1.390869   3.401323   1.390214   3.405889   0.000000
    11  H    1.094820   2.477293   3.398817   4.972635   2.157579
    12  H    3.399314   4.970740   1.094814   2.485008   2.157616
    13  H    2.158683   4.303779   2.158394   4.309783   1.094636
    14  C    4.848723   4.036651   4.278601   2.627535   5.080015
    15  C    5.357335   4.492081   4.949746   3.544757   5.641559
    16  C    5.732073   5.174473   4.658789   2.592760   5.711482
    17  C    6.561271   5.862305   5.828813   4.242319   6.670506
    18  H    5.069446   4.035400   5.113050   4.122662   5.550239
    19  C    6.871896   6.400435   5.586357   3.489479   6.731693
    20  H    5.755863   5.295362   4.601520   2.561878   5.678833
    21  C    7.235575   6.693252   6.112560   4.222397   7.161037
    22  H    7.161176   6.447992   6.559951   5.164466   7.306959
    23  H    7.665011   7.305886   6.172006   4.032958   7.407448
    24  H    8.240954   7.760368   7.006519   5.135053   8.094580
    25  C    4.537650   3.363061   4.575110   3.447564   5.060728
    26  C    4.698609   4.055020   4.365985   3.320422   4.958116
    27  C    5.581539   3.998615   5.924384   4.796436   6.291716
    28  C    5.828813   5.113050   5.586357   4.601521   6.112560
    29  H    4.242319   4.122662   3.489479   2.561878   4.222397
    30  C    6.561271   5.069446   6.871896   5.755863   7.235575
    31  H    5.862305   4.035400   6.400435   5.295362   6.693252
    32  C    6.670506   5.550239   6.731693   5.678833   7.161037
    33  H    6.267419   5.860834   5.820316   4.967068   6.378111
    34  H    7.452931   5.794717   7.908801   6.787391   8.217477
    35  H    7.623038   6.534038   7.689041   6.669589   8.098596
                   11         12         13         14         15
    11  H    0.000000
    12  H    4.304413   0.000000
    13  H    2.487009   2.487792   0.000000
    14  C    5.799057   4.929993   6.141926   0.000000
    15  C    6.219453   5.580590   6.652509   1.397593   0.000000
    16  C    6.757879   5.069848   6.725666   1.395514   2.408808
    17  C    7.452931   6.267419   7.623038   2.418017   1.389827
    18  H    5.794717   5.860834   6.534038   2.164828   1.096191
    19  C    7.908801   5.820316   7.689041   2.417146   2.779757
    20  H    6.787391   4.967068   6.669589   2.159441   3.403961
    21  C    8.217477   6.378111   8.098596   2.794812   2.410305
    22  H    7.978040   6.989592   8.209623   3.408771   2.155093
    23  H    8.728230   6.261233   8.319994   3.407148   3.874565
    24  H    9.223165   7.166541   8.987040   3.889448   3.402598
    25  C    5.336926   5.393786   6.120058   2.499441   3.711677
    26  C    5.535269   5.025060   5.926037   3.359243   4.716508
    27  C    6.235669   6.777884   7.345394   3.309783   4.279072
    28  C    6.559951   6.172006   7.006519   4.575110   5.924384
    29  H    5.164466   4.032958   5.135053   3.447564   4.796436
    30  C    7.161176   7.665011   8.240954   4.537650   5.581539
    31  H    6.447992   7.305886   7.760368   3.363061   3.998615
    32  C    7.306959   7.407448   8.094580   5.060728   6.291716
    33  H    6.989592   6.261233   7.166541   5.393786   6.777884
    34  H    7.978040   8.728230   9.223165   5.336926   6.235669
    35  H    8.209623   8.319994   8.987040   6.120058   7.345394
                   16         17         18         19         20
    16  C    0.000000
    17  C    2.779875   0.000000
    18  H    3.405107   2.154495   0.000000
    19  C    1.390510   2.405677   3.875929   0.000000
    20  H    1.097966   3.877818   4.312223   2.161222   0.000000
    21  C    2.410390   1.390869   3.401323   1.390214   3.405889
    22  H    3.874693   1.094820   2.477293   3.398817   4.972635
    23  H    2.155018   3.399314   4.970740   1.094814   2.485008
    24  H    3.402963   2.158683   4.303779   2.158394   4.309783
    25  C    2.926773   4.848723   4.036651   4.278601   2.627535
    26  C    3.327918   5.732073   5.174473   4.658789   2.592760
    27  C    3.756440   5.357335   4.492081   4.949746   3.544757
    28  C    4.365985   6.871896   6.400435   5.586357   3.489479
    29  H    3.320422   5.755863   5.295362   4.601520   2.561878
    30  C    4.698609   6.561271   5.862305   5.828813   4.242319
    31  H    4.055020   5.069446   4.035400   5.113050   4.122662
    32  C    4.958116   7.235575   6.693251   6.112560   4.222397
    33  H    5.025060   7.665011   7.305886   6.172006   4.032958
    34  H    5.535269   7.161176   6.447992   6.559951   5.164466
    35  H    5.926037   8.240954   7.760368   7.006519   5.135053
                   21         22         23         24         25
    21  C    0.000000
    22  H    2.157579   0.000000
    23  H    2.157616   4.304413   0.000000
    24  H    1.094636   2.487009   2.487792   0.000000
    25  C    5.080015   5.799057   4.929993   6.141926   0.000000
    26  C    5.711482   6.757879   5.069848   6.725666   1.395514
    27  C    5.641559   6.219453   5.580590   6.652509   1.397593
    28  C    6.731693   7.908801   5.820316   7.689041   2.417146
    29  H    5.678833   6.787391   4.967068   6.669589   2.159441
    30  C    6.670506   7.452931   6.267419   7.623038   2.418017
    31  H    5.550239   5.794717   5.860834   6.534038   2.164828
    32  C    7.161037   8.217476   6.378111   8.098596   2.794812
    33  H    7.407448   8.728230   6.261233   8.319994   3.407148
    34  H    7.306959   7.978040   6.989592   8.209623   3.408771
    35  H    8.094580   9.223165   7.166541   8.987040   3.889448
                   26         27         28         29         30
    26  C    0.000000
    27  C    2.408808   0.000000
    28  C    1.390511   2.779757   0.000000
    29  H    1.097966   3.403961   2.161222   0.000000
    30  C    2.779875   1.389827   2.405677   3.877818   0.000000
    31  H    3.405107   1.096191   3.875929   4.312223   2.154495
    32  C    2.410390   2.410305   1.390214   3.405889   1.390869
    33  H    2.155018   3.874565   1.094814   2.485008   3.399314
    34  H    3.874693   2.155093   3.398817   4.972635   1.094820
    35  H    3.402963   3.402598   2.158394   4.309783   2.158683
                   31         32         33         34         35
    31  H    0.000000
    32  C    3.401323   0.000000
    33  H    4.970740   2.157616   0.000000
    34  H    2.477293   2.157579   4.304413   0.000000
    35  H    4.303779   1.094636   2.487792   2.487009   0.000000
 Stoichiometry    C19H16
 Framework group  C3[C3(CH),X(C18H15)]
 Deg. of freedom    33
 Full point group                 C3      NOp   3
 Largest Abelian subgroup         C1      NOp   1
 Largest concise Abelian subgroup C1      NOp   1
                         Standard orientation:                         
 ---------------------------------------------------------------------
 Center     Atomic      Atomic             Coordinates (Angstroms)
 Number     Number       Type             X           Y           Z
 ---------------------------------------------------------------------
      1          6           0        0.000000    0.000000    0.779891
      2          1           0        0.000000    0.000000    1.902576
      3          6           0        0.000000    1.443053    0.339618
      4          6           0       -0.564503    2.405166    1.181605
      5          6           0        0.543825    1.842806   -0.881819
      6          6           0       -0.584101    3.742849    0.804991
      7          1           0       -0.997097    2.105694    2.143277
      8          6           0        0.525158    3.182243   -1.254754
      9          1           0        0.996575    1.092968   -1.543854
     10          6           0       -0.039125    4.134242   -0.413339
     11          1           0       -1.029489    4.489602    1.470287
     12          1           0        0.957834    3.485719   -2.213561
     13          1           0       -0.053642    5.188393   -0.707930
     14          6           0        1.249720   -0.721526    0.339618
     15          6           0        2.365186   -0.713709    1.181605
     16          6           0        1.324004   -1.392369   -0.881819
     17          6           0        3.533453   -1.365578    0.804991
     18          1           0        2.322133   -0.189336    2.143277
     19          6           0        2.493324   -2.045921   -1.254754
     20          1           0        0.448251   -1.409543   -1.543854
     21          6           0        3.599921   -2.033238   -0.413339
     22          1           0        4.402854   -1.353238    1.470287
     23          1           0        2.539804   -2.572368   -2.213561
     24          1           0        4.520101   -2.547741   -0.707930
     25          6           0       -1.249720   -0.721526    0.339618
     26          6           0       -1.867829   -0.450437   -0.881819
     27          6           0       -1.800683   -1.691456    1.181605
     28          6           0       -3.018482   -1.136322   -1.254754
     29          1           0       -1.444825    0.316575   -1.543854
     30          6           0       -2.949351   -2.377271    0.804991
     31          1           0       -1.325036   -1.916358    2.143277
     32          6           0       -3.560796   -2.101004   -0.413339
     33          1           0       -3.497638   -0.913351   -2.213561
     34          1           0       -3.373365   -3.136364    1.470287
     35          1           0       -4.466459   -2.640652   -0.707930
 ---------------------------------------------------------------------
 Rotational constants (GHZ):      0.3903932      0.3903932      0.2359234
 Standard basis: 6-311G (5D, 7F)
 There are   295 symmetry adapted basis functions of A   symmetry.
 Integral buffers will be    262144 words long.
 Raffenetti 1 integral format.
 Two-electron integral symmetry is turned on.
   295 basis functions,   574 primitive gaussians,   295 cartesian basis functions
    65 alpha electrons       65 beta electrons
       nuclear repulsion energy      1290.4580440522 Hartrees.
 NAtoms=   35 NActive=   35 NUniq=   13 SFac= 3.00D+00 NAtFMM=   80 NAOKFM=F Big=F
 One-electron integrals computed using PRISM.
 PrsmSu:  requested number of processors reduced to:  10 ShMem   1 Linda.
 NBasis=   295 RedAO= T  NBF=   295
 NBsUse=   295 1.00D-06 NBFU=   295
 Harris functional with IExCor=  205 diagonalized for initial guess.
 ExpMin= 1.03D-01 ExpMax= 4.56D+03 ExpMxC= 6.82D+02 IAcc=1 IRadAn=         1 AccDes= 0.00D+00
 HarFok:  IExCor=  205 AccDes= 0.00D+00 IRadAn=         1 IDoV= 1
 ScaDFX=  1.000000  1.000000  1.000000  1.000000
 FoFCou: FMM=F IPFlag=           0 FMFlag=      100000 FMFlg1=           0
         NFxFlg=           0 DoJE=T BraDBF=F KetDBF=T FulRan=T
         Omega=  0.000000  0.000000  1.000000  0.000000  0.000000 ICntrl=     500 IOpCl=  0
         NMat0=    1 NMatS0=    1 NMatT0=    0 NMatD0=    1 NMtDS0=    0 NMtDT0=    0
         I1Cent=           4 NGrid=           0.
 Petite list used in FoFCou.
 Initial guess orbital symmetries:
       Occupied  (E) (E) (A) (A) (E) (E) (A) (E) (E) (E) (E) (A)
                 (E) (E) (A) (E) (E) (A) (A) (A) (E) (E) (A) (A)
                 (E) (E) (E) (E) (A) (A) (E) (E) (E) (E) (A) (E)
                 (E) (A) (A) (E) (E) (E) (E) (A) (E) (E) (A) (E)
                 (E) (A) (E) (E) (A) (A) (E) (E) (E) (E) (A) (E)
                 (E) (A) (E) (E) (A)
       Virtual   (E) (E) (A) (E) (E) (A) (A) (A) (E) (E) (E) (E)
                 (A) (A) (E) (E) (E) (E) (A) (A) (E) (E) (E) (E)
                 (A) (A) (E) (E) (A) (E) (E) (A) (E) (E) (E) (E)
                 (A) (E) (E) (A) (E) (E) (A) (E) (E) (A) (A) (E)
                 (E) (E) (E) (A) (A) (E) (E) (A) (E) (E) (E) (E)
                 (A) (E) (E) (A) (E) (E) (A) (A) (E) (E) (E) (E)
                 (A) (A) (E) (E) (A) (A) (E) (E) (A) (E) (E) (A)
                 (E) (E) (A) (A) (E) (E) (E) (E) (A) (E) (E) (A)
                 (E) (E) (A) (E) (E) (A) (E) (E) (E) (E) (A) (E)
                 (E) (A) (E) (E) (E) (E) (A) (A) (E) (E) (A) (E)
                 (E) (A) (A) (E) (E) (E) (E) (A) (E) (E) (A) (A)
                 (E) (E) (A) (E) (E) (A) (E) (E) (A) (A) (E) (E)
                 (E) (E) (A) (A) (E) (E) (A) (E) (E) (A) (E) (E)
                 (A) (E) (E) (E) (E) (A) (A) (A) (E) (E) (A) (E)
                 (E) (A) (E) (E) (A) (E) (E) (A) (E) (E) (E) (E)
                 (A) (A) (E) (E) (E) (E) (A) (E) (E) (E) (E) (A)
                 (E) (E) (A) (A) (E) (E) (E) (E) (E) (E) (A) (A)
                 (E) (E) (A) (A) (E) (E) (A) (A) (E) (E) (E) (E)
                 (A) (A) (E) (E) (A) (E) (E) (A) (E) (E) (A) (A)
                 (E) (E)
 The electronic state of the initial guess is 1-A.
 Requested convergence on RMS density matrix=1.00D-08 within 128 cycles.
 Requested convergence on MAX density matrix=1.00D-06.
 Requested convergence on             energy=1.00D-06.
 No special actions if energy rises.
 Integral accuracy reduced to 1.0D-05 until final iterations.
 Initial convergence to 1.0D-05 achieved.  Increase integral accuracy.
 SCF Done:  E(RHF) =  -728.678066123     A.U. after   14 cycles
             Convg  =    0.6765D-08             -V/T =  2.0001

 **********************************************************************

            Population analysis using the SCF density.

 **********************************************************************

 Orbital symmetries:
       Occupied  (A) (E) (E) (A) (E) (E) (A) (A) (E) (E) (E) (E)
                 (A) (E) (E) (A) (E) (E) (A) (A) (E) (E) (A) (A)
                 (E) (E) (E) (E) (A) (A) (E) (E) (E) (E) (A) (E)
                 (E) (A) (A) (E) (E) (E) (E) (A) (A) (E) (E) (E)
                 (E) (A) (A) (E) (E) (A) (E) (E) (A) (E) (E) (E)
                 (E) (A) (E) (E) (A)
       Virtual   (E) (E) (A) (A) (E) (E) (A) (E) (E) (A) (A) (E)
                 (E) (E) (E) (A) (E) (E) (A) (E) (E) (A) (E) (E)
                 (A) (E) (E) (A) (A) (A) (E) (E) (E) (E) (E) (E)
                 (A) (A) (E) (E) (A) (E) (E) (E) (E) (A) (E) (E)
                 (A) (A) (E) (E) (A) (E) (E) (A) (E) (E) (A) (E)
                 (E) (E) (E) (A) (A) (E) (E) (A) (E) (E) (A) (E)
                 (E) (A) (E) (E) (A) (E) (E) (A) (A) (E) (E) (E)
                 (E) (A) (E) (E) (A) (E) (E) (A) (A) (E) (E) (A)
                 (E) (E) (A) (E) (E) (E) (E) (A) (E) (E) (A) (E)
                 (E) (A) (E) (E) (E) (E) (A) (A) (A) (E) (E) (A)
                 (E) (E) (A) (E) (E) (A) (E) (E) (A) (E) (E) (A)
                 (E) (E) (A) (E) (E) (A) (E) (E) (A) (E) (E) (A)
                 (E) (E) (A) (E) (E) (A) (A) (E) (E) (A) (A) (E)
                 (E) (E) (E) (A) (E) (E) (A) (A) (E) (E) (E) (E)
                 (A) (E) (E) (A) (A) (E) (E) (A) (E) (E) (E) (E)
                 (A) (A) (E) (E) (E) (E) (A) (E) (E) (A) (E) (E)
                 (A) (E) (E) (A) (E) (E) (E) (E) (E) (E) (A) (A)
                 (A) (E) (E) (A) (E) (E) (A) (A) (E) (E) (E) (E)
                 (A) (A) (E) (E) (A) (E) (E) (A) (E) (E) (A) (A)
                 (E) (E)
 The electronic state is 1-A.
 Alpha  occ. eigenvalues --  -11.25724 -11.25093 -11.25093 -11.25087 -11.24306
 Alpha  occ. eigenvalues --  -11.24306 -11.24306 -11.24284 -11.24284 -11.24284
 Alpha  occ. eigenvalues --  -11.24021 -11.24021 -11.24021 -11.23961 -11.23961
 Alpha  occ. eigenvalues --  -11.23961 -11.23816 -11.23816 -11.23815  -1.18579
 Alpha  occ. eigenvalues --   -1.15714  -1.15714  -1.09020  -1.02187  -1.02042
 Alpha  occ. eigenvalues --   -1.02042  -1.01368  -1.01368  -0.92882  -0.84082
 Alpha  occ. eigenvalues --   -0.82992  -0.82992  -0.81453  -0.81453  -0.77511
 Alpha  occ. eigenvalues --   -0.70624  -0.70624  -0.68788  -0.65636  -0.63790
 Alpha  occ. eigenvalues --   -0.63790  -0.61931  -0.61931  -0.61741  -0.59099
 Alpha  occ. eigenvalues --   -0.58735  -0.58735  -0.58058  -0.58058  -0.54341
 Alpha  occ. eigenvalues --   -0.51184  -0.50835  -0.50835  -0.49663  -0.49105
 Alpha  occ. eigenvalues --   -0.49105  -0.47443  -0.47176  -0.47176  -0.34453
 Alpha  occ. eigenvalues --   -0.34453  -0.34003  -0.33231  -0.33231  -0.31222
 Alpha virt. eigenvalues --    0.12203   0.12203   0.12403   0.14448   0.14461
 Alpha virt. eigenvalues --    0.14461   0.15132   0.16316   0.16316   0.17112
 Alpha virt. eigenvalues --    0.19071   0.19126   0.19126   0.21252   0.21252
 Alpha virt. eigenvalues --    0.21553   0.23844   0.23844   0.24468   0.26747
 Alpha virt. eigenvalues --    0.26747   0.28538   0.34015   0.34015   0.35102
 Alpha virt. eigenvalues --    0.39176   0.39176   0.39343   0.41079   0.43772
 Alpha virt. eigenvalues --    0.43877   0.43877   0.44971   0.44971   0.45562
 Alpha virt. eigenvalues --    0.45562   0.45805   0.48348   0.49763   0.49763
 Alpha virt. eigenvalues --    0.50694   0.50882   0.50882   0.55386   0.55386
 Alpha virt. eigenvalues --    0.57222   0.58704   0.58704   0.58770   0.59462
 Alpha virt. eigenvalues --    0.60070   0.60070   0.61460   0.61555   0.61555
 Alpha virt. eigenvalues --    0.61702   0.62245   0.62245   0.63516   0.63793
 Alpha virt. eigenvalues --    0.63793   0.65423   0.65423   0.66730   0.67120
 Alpha virt. eigenvalues --    0.67864   0.67864   0.69141   0.70649   0.70649
 Alpha virt. eigenvalues --    0.73049   0.74591   0.74591   0.74986   0.75570
 Alpha virt. eigenvalues --    0.75570   0.78136   0.80265   0.80265   0.80274
 Alpha virt. eigenvalues --    0.81938   0.82009   0.82009   0.82968   0.82968
 Alpha virt. eigenvalues --    0.83742   0.84371   0.84371   0.85142   0.86017
 Alpha virt. eigenvalues --    0.86017   0.86225   0.87293   0.87739   0.87739
 Alpha virt. eigenvalues --    0.88557   0.90864   0.90864   0.92779   0.94586
 Alpha virt. eigenvalues --    0.94586   0.97228   0.97228   0.97795   1.00026
 Alpha virt. eigenvalues --    1.00026   1.00724   1.04036   1.04036   1.06244
 Alpha virt. eigenvalues --    1.07006   1.07006   1.08768   1.08768   1.09865
 Alpha virt. eigenvalues --    1.11104   1.12258   1.12936   1.12936   1.14199
 Alpha virt. eigenvalues --    1.14657   1.14657   1.17902   1.20747   1.20747
 Alpha virt. eigenvalues --    1.26736   1.27482   1.27482   1.28640   1.30054
 Alpha virt. eigenvalues --    1.30054   1.39618   1.40636   1.40636   1.49105
 Alpha virt. eigenvalues --    1.52304   1.52304   1.54953   2.55827   2.55827
 Alpha virt. eigenvalues --    2.56439   2.61666   2.61666   2.61689   2.66494
 Alpha virt. eigenvalues --    2.66494   2.67963   2.70422   2.70422   2.70897
 Alpha virt. eigenvalues --    2.78489   2.84845   2.84845   2.88572   2.94548
 Alpha virt. eigenvalues --    2.94639   2.94639   2.97628   2.97628   2.97661
 Alpha virt. eigenvalues --    3.01460   3.01460   3.04374   3.06189   3.07550
 Alpha virt. eigenvalues --    3.07550   3.08642   3.08642   3.09328   3.15405
 Alpha virt. eigenvalues --    3.15405   3.15653   3.17439   3.18986   3.18986
 Alpha virt. eigenvalues --    3.23291   3.25376   3.25376   3.28848   3.28848
 Alpha virt. eigenvalues --    3.29673   3.33104   3.34952   3.34952   3.42272
 Alpha virt. eigenvalues --    3.42272   3.43266   3.48634   3.48634   3.53945
 Alpha virt. eigenvalues --    3.54086   3.54086   3.59958   3.60363   3.60363
 Alpha virt. eigenvalues --    3.63122   3.63608   3.63608   3.65837   3.65837
 Alpha virt. eigenvalues --    3.69793   3.69793   3.70498   3.70707   3.75201
 Alpha virt. eigenvalues --    3.75899   3.75899   3.84511   3.87414   3.87414
 Alpha virt. eigenvalues --    3.91513  24.25948  24.31580  24.31580  24.50735
 Alpha virt. eigenvalues --   24.50735  24.51249  24.54558  24.55837  24.55837
 Alpha virt. eigenvalues --   24.77634  24.79322  24.79322  24.79924  24.80804
 Alpha virt. eigenvalues --   24.80804  24.83365  25.05344  25.06158  25.06158
          Condensed to atoms (all electrons):
              1          2          3          4          5          6
     1  C    5.860038   0.483606   0.145129  -0.054828  -0.040975   0.007226
     2  H    0.483606   0.515250  -0.072053  -0.001103   0.005307   0.001483
     3  C    0.145129  -0.072053   5.358037   0.483930   0.479821  -0.065722
     4  C   -0.054828  -0.001103   0.483930   5.058804  -0.068619   0.463624
     5  C   -0.040975   0.005307   0.479821  -0.068619   5.114233  -0.029440
     6  C    0.007226   0.001483  -0.065722   0.463624  -0.029440   5.055102
     7  H    0.000497   0.001466  -0.048772   0.399244   0.004434  -0.036077
     8  C    0.004232  -0.000240  -0.067584  -0.031791   0.469012  -0.075883
     9  H   -0.000847  -0.000120  -0.042526   0.004187   0.392274  -0.000227
    10  C    0.001168  -0.000011  -0.016435  -0.087582  -0.093781   0.490261
    11  H   -0.000371  -0.000026   0.006679  -0.039636  -0.000533   0.397081
    12  H   -0.000337   0.000014   0.006125  -0.000380  -0.037824   0.005936
    13  H   -0.000017  -0.000001  -0.001541   0.007433   0.007821  -0.042929
    14  C    0.145129  -0.072053  -0.097098   0.005723  -0.018626  -0.000776
    15  C   -0.054828  -0.001103  -0.001105   0.000842   0.000227  -0.000034
    16  C   -0.040975   0.005307  -0.008168  -0.000167  -0.005070   0.000027
    17  C    0.007226   0.001483  -0.000632   0.000003   0.000382   0.000002
    18  H    0.000497   0.001466   0.000951   0.000232   0.000223  -0.000005
    19  C    0.004232  -0.000240   0.000678   0.000022  -0.001064   0.000000
    20  H   -0.000847  -0.000120  -0.000789  -0.000017   0.000737   0.000003
    21  C    0.001168  -0.000011   0.000038  -0.000001   0.000069   0.000000
    22  H   -0.000371  -0.000026   0.000024   0.000000   0.000003   0.000000
    23  H   -0.000337   0.000014  -0.000003   0.000000   0.000016   0.000000
    24  H   -0.000017  -0.000001   0.000000   0.000000  -0.000001   0.000000
    25  C    0.145129  -0.072053  -0.097098  -0.001105  -0.008168  -0.000632
    26  C   -0.040975   0.005307  -0.018626   0.000227  -0.005070   0.000382
    27  C   -0.054828  -0.001103   0.005723   0.000842  -0.000167   0.000003
    28  C    0.004232  -0.000240   0.000095  -0.000168  -0.000019  -0.000009
    29  H   -0.000847  -0.000120  -0.001943  -0.000874   0.001445  -0.000191
    30  C    0.007226   0.001483  -0.000776  -0.000034   0.000027   0.000002
    31  H    0.000497   0.001466   0.000485   0.000044  -0.000031   0.000001
    32  C    0.001168  -0.000011   0.000097  -0.000008  -0.000017   0.000000
    33  H   -0.000337   0.000014   0.000029   0.000007   0.000018   0.000001
    34  H   -0.000371  -0.000026   0.000011   0.000001   0.000000   0.000000
    35  H   -0.000017  -0.000001  -0.000001   0.000000   0.000000   0.000000
              7          8          9         10         11         12
     1  C    0.000497   0.004232  -0.000847   0.001168  -0.000371  -0.000337
     2  H    0.001466  -0.000240  -0.000120  -0.000011  -0.000026   0.000014
     3  C   -0.048772  -0.067584  -0.042526  -0.016435   0.006679   0.006125
     4  C    0.399244  -0.031791   0.004187  -0.087582  -0.039636  -0.000380
     5  C    0.004434   0.469012   0.392274  -0.093781  -0.000533  -0.037824
     6  C   -0.036077  -0.075883  -0.000227   0.490261   0.397081   0.005936
     7  H    0.507660  -0.000423  -0.000239   0.005358  -0.004229   0.000022
     8  C   -0.000423   5.051842  -0.029842   0.496683   0.006120   0.396194
     9  H   -0.000239  -0.029842   0.474252   0.004625   0.000018  -0.003311
    10  C    0.005358   0.496683   0.004625   5.033112  -0.040648  -0.040241
    11  H   -0.004229   0.006120   0.000018  -0.040648   0.517973  -0.000211
    12  H    0.000022   0.396194  -0.003311  -0.040241  -0.000211   0.515686
    13  H   -0.000179  -0.042462  -0.000174   0.399532  -0.004495  -0.004404
    14  C    0.000485   0.000095  -0.001943   0.000097   0.000011   0.000029
    15  C    0.000044  -0.000168  -0.000874  -0.000008   0.000001   0.000007
    16  C   -0.000031  -0.000019   0.001445  -0.000017   0.000000   0.000018
    17  C    0.000001  -0.000009  -0.000191   0.000000   0.000000   0.000001
    18  H   -0.000001   0.000007  -0.000038  -0.000009   0.000000   0.000000
    19  C    0.000000  -0.000022   0.000919   0.000000   0.000000   0.000000
    20  H    0.000000   0.000043   0.000215   0.000000   0.000000  -0.000007
    21  C    0.000000   0.000005   0.000001   0.000000   0.000000  -0.000001
    22  H    0.000000   0.000000   0.000003   0.000000   0.000000   0.000000
    23  H    0.000000   0.000001   0.000008   0.000000   0.000000   0.000000
    24  H    0.000000   0.000000   0.000000   0.000000   0.000000   0.000000
    25  C    0.000951   0.000678  -0.000789   0.000038   0.000024  -0.000003
    26  C    0.000223  -0.001064   0.000737   0.000069   0.000003   0.000016
    27  C    0.000232   0.000022  -0.000017  -0.000001   0.000000   0.000000
    28  C    0.000007  -0.000022   0.000043   0.000005   0.000000   0.000001
    29  H   -0.000038   0.000919   0.000215   0.000001   0.000003   0.000008
    30  C   -0.000005   0.000000   0.000003   0.000000   0.000000   0.000000
    31  H   -0.000001   0.000000   0.000000   0.000000   0.000000   0.000000
    32  C   -0.000009   0.000000   0.000000   0.000000   0.000000   0.000000
    33  H    0.000000   0.000000  -0.000007  -0.000001   0.000000   0.000000
    34  H    0.000000   0.000000   0.000000   0.000000   0.000000   0.000000
    35  H    0.000000   0.000000   0.000000   0.000000   0.000000   0.000000
             13         14         15         16         17         18
     1  C   -0.000017   0.145129  -0.054828  -0.040975   0.007226   0.000497
     2  H   -0.000001  -0.072053  -0.001103   0.005307   0.001483   0.001466
     3  C   -0.001541  -0.097098  -0.001105  -0.008168  -0.000632   0.000951
     4  C    0.007433   0.005723   0.000842  -0.000167   0.000003   0.000232
     5  C    0.007821  -0.018626   0.000227  -0.005070   0.000382   0.000223
     6  C   -0.042929  -0.000776  -0.000034   0.000027   0.000002  -0.000005
     7  H   -0.000179   0.000485   0.000044  -0.000031   0.000001  -0.000001
     8  C   -0.042462   0.000095  -0.000168  -0.000019  -0.000009   0.000007
     9  H   -0.000174  -0.001943  -0.000874   0.001445  -0.000191  -0.000038
    10  C    0.399532   0.000097  -0.000008  -0.000017   0.000000  -0.000009
    11  H   -0.004495   0.000011   0.000001   0.000000   0.000000   0.000000
    12  H   -0.004404   0.000029   0.000007   0.000018   0.000001   0.000000
    13  H    0.517916  -0.000001   0.000000   0.000000   0.000000   0.000000
    14  C   -0.000001   5.358037   0.483930   0.479821  -0.065722  -0.048772
    15  C    0.000000   0.483930   5.058804  -0.068619   0.463624   0.399244
    16  C    0.000000   0.479821  -0.068619   5.114233  -0.029440   0.004434
    17  C    0.000000  -0.065722   0.463624  -0.029440   5.055102  -0.036077
    18  H    0.000000  -0.048772   0.399244   0.004434  -0.036077   0.507660
    19  C    0.000000  -0.067584  -0.031791   0.469012  -0.075883  -0.000423
    20  H    0.000000  -0.042526   0.004187   0.392274  -0.000227  -0.000239
    21  C    0.000000  -0.016435  -0.087582  -0.093781   0.490261   0.005358
    22  H    0.000000   0.006679  -0.039636  -0.000533   0.397081  -0.004229
    23  H    0.000000   0.006125  -0.000380  -0.037824   0.005936   0.000022
    24  H    0.000000  -0.001541   0.007433   0.007821  -0.042929  -0.000179
    25  C    0.000000  -0.097098   0.005723  -0.018626  -0.000776   0.000485
    26  C   -0.000001  -0.008168  -0.000167  -0.005070   0.000027  -0.000031
    27  C    0.000000  -0.001105   0.000842   0.000227  -0.000034   0.000044
    28  C    0.000000   0.000678   0.000022  -0.001064   0.000000   0.000000
    29  H    0.000000  -0.000789  -0.000017   0.000737   0.000003   0.000000
    30  C    0.000000  -0.000632   0.000003   0.000382   0.000002   0.000001
    31  H    0.000000   0.000951   0.000232   0.000223  -0.000005  -0.000001
    32  C    0.000000   0.000038  -0.000001   0.000069   0.000000   0.000000
    33  H    0.000000  -0.000003   0.000000   0.000016   0.000000   0.000000
    34  H    0.000000   0.000024   0.000000   0.000003   0.000000   0.000000
    35  H    0.000000   0.000000   0.000000  -0.000001   0.000000   0.000000
             19         20         21         22         23         24
     1  C    0.004232  -0.000847   0.001168  -0.000371  -0.000337  -0.000017
     2  H   -0.000240  -0.000120  -0.000011  -0.000026   0.000014  -0.000001
     3  C    0.000678  -0.000789   0.000038   0.000024  -0.000003   0.000000
     4  C    0.000022  -0.000017  -0.000001   0.000000   0.000000   0.000000
     5  C   -0.001064   0.000737   0.000069   0.000003   0.000016  -0.000001
     6  C    0.000000   0.000003   0.000000   0.000000   0.000000   0.000000
     7  H    0.000000   0.000000   0.000000   0.000000   0.000000   0.000000
     8  C   -0.000022   0.000043   0.000005   0.000000   0.000001   0.000000
     9  H    0.000919   0.000215   0.000001   0.000003   0.000008   0.000000
    10  C    0.000000   0.000000   0.000000   0.000000   0.000000   0.000000
    11  H    0.000000   0.000000   0.000000   0.000000   0.000000   0.000000
    12  H    0.000000  -0.000007  -0.000001   0.000000   0.000000   0.000000
    13  H    0.000000   0.000000   0.000000   0.000000   0.000000   0.000000
    14  C   -0.067584  -0.042526  -0.016435   0.006679   0.006125  -0.001541
    15  C   -0.031791   0.004187  -0.087582  -0.039636  -0.000380   0.007433
    16  C    0.469012   0.392274  -0.093781  -0.000533  -0.037824   0.007821
    17  C   -0.075883  -0.000227   0.490261   0.397081   0.005936  -0.042929
    18  H   -0.000423  -0.000239   0.005358  -0.004229   0.000022  -0.000179
    19  C    5.051842  -0.029842   0.496683   0.006120   0.396194  -0.042462
    20  H   -0.029842   0.474252   0.004625   0.000018  -0.003311  -0.000174
    21  C    0.496683   0.004625   5.033112  -0.040648  -0.040241   0.399532
    22  H    0.006120   0.000018  -0.040648   0.517973  -0.000211  -0.004495
    23  H    0.396194  -0.003311  -0.040241  -0.000211   0.515686  -0.004404
    24  H   -0.042462  -0.000174   0.399532  -0.004495  -0.004404   0.517916
    25  C    0.000095  -0.001943   0.000097   0.000011   0.000029  -0.000001
    26  C   -0.000019   0.001445  -0.000017   0.000000   0.000018   0.000000
    27  C   -0.000168  -0.000874  -0.000008   0.000001   0.000007   0.000000
    28  C   -0.000022   0.000919   0.000000   0.000000   0.000000   0.000000
    29  H    0.000043   0.000215   0.000000   0.000000  -0.000007   0.000000
    30  C   -0.000009  -0.000191   0.000000   0.000000   0.000001   0.000000
    31  H    0.000007  -0.000038  -0.000009   0.000000   0.000000   0.000000
    32  C    0.000005   0.000001   0.000000   0.000000  -0.000001   0.000000
    33  H    0.000001   0.000008   0.000000   0.000000   0.000000   0.000000
    34  H    0.000000   0.000003   0.000000   0.000000   0.000000   0.000000
    35  H    0.000000   0.000000   0.000000   0.000000   0.000000   0.000000
             25         26         27         28         29         30
     1  C    0.145129  -0.040975  -0.054828   0.004232  -0.000847   0.007226
     2  H   -0.072053   0.005307  -0.001103  -0.000240  -0.000120   0.001483
     3  C   -0.097098  -0.018626   0.005723   0.000095  -0.001943  -0.000776
     4  C   -0.001105   0.000227   0.000842  -0.000168  -0.000874  -0.000034
     5  C   -0.008168  -0.005070  -0.000167  -0.000019   0.001445   0.000027
     6  C   -0.000632   0.000382   0.000003  -0.000009  -0.000191   0.000002
     7  H    0.000951   0.000223   0.000232   0.000007  -0.000038  -0.000005
     8  C    0.000678  -0.001064   0.000022  -0.000022   0.000919   0.000000
     9  H   -0.000789   0.000737  -0.000017   0.000043   0.000215   0.000003
    10  C    0.000038   0.000069  -0.000001   0.000005   0.000001   0.000000
    11  H    0.000024   0.000003   0.000000   0.000000   0.000003   0.000000
    12  H   -0.000003   0.000016   0.000000   0.000001   0.000008   0.000000
    13  H    0.000000  -0.000001   0.000000   0.000000   0.000000   0.000000
    14  C   -0.097098  -0.008168  -0.001105   0.000678  -0.000789  -0.000632
    15  C    0.005723  -0.000167   0.000842   0.000022  -0.000017   0.000003
    16  C   -0.018626  -0.005070   0.000227  -0.001064   0.000737   0.000382
    17  C   -0.000776   0.000027  -0.000034   0.000000   0.000003   0.000002
    18  H    0.000485  -0.000031   0.000044   0.000000   0.000000   0.000001
    19  C    0.000095  -0.000019  -0.000168  -0.000022   0.000043  -0.000009
    20  H   -0.001943   0.001445  -0.000874   0.000919   0.000215  -0.000191
    21  C    0.000097  -0.000017  -0.000008   0.000000   0.000000   0.000000
    22  H    0.000011   0.000000   0.000001   0.000000   0.000000   0.000000
    23  H    0.000029   0.000018   0.000007   0.000000  -0.000007   0.000001
    24  H   -0.000001   0.000000   0.000000   0.000000   0.000000   0.000000
    25  C    5.358037   0.479821   0.483930  -0.067584  -0.042526  -0.065722
    26  C    0.479821   5.114233  -0.068619   0.469012   0.392274  -0.029440
    27  C    0.483930  -0.068619   5.058804  -0.031791   0.004187   0.463624
    28  C   -0.067584   0.469012  -0.031791   5.051842  -0.029842  -0.075883
    29  H   -0.042526   0.392274   0.004187  -0.029842   0.474252  -0.000227
    30  C   -0.065722  -0.029440   0.463624  -0.075883  -0.000227   5.055102
    31  H   -0.048772   0.004434   0.399244  -0.000423  -0.000239  -0.036077
    32  C   -0.016435  -0.093781  -0.087582   0.496683   0.004625   0.490261
    33  H    0.006125  -0.037824  -0.000380   0.396194  -0.003311   0.005936
    34  H    0.006679  -0.000533  -0.039636   0.006120   0.000018   0.397081
    35  H   -0.001541   0.007821   0.007433  -0.042462  -0.000174  -0.042929
             31         32         33         34         35
     1  C    0.000497   0.001168  -0.000337  -0.000371  -0.000017
     2  H    0.001466  -0.000011   0.000014  -0.000026  -0.000001
     3  C    0.000485   0.000097   0.000029   0.000011  -0.000001
     4  C    0.000044  -0.000008   0.000007   0.000001   0.000000
     5  C   -0.000031  -0.000017   0.000018   0.000000   0.000000
     6  C    0.000001   0.000000   0.000001   0.000000   0.000000
     7  H   -0.000001  -0.000009   0.000000   0.000000   0.000000
     8  C    0.000000   0.000000   0.000000   0.000000   0.000000
     9  H    0.000000   0.000000  -0.000007   0.000000   0.000000
    10  C    0.000000   0.000000  -0.000001   0.000000   0.000000
    11  H    0.000000   0.000000   0.000000   0.000000   0.000000
    12  H    0.000000   0.000000   0.000000   0.000000   0.000000
    13  H    0.000000   0.000000   0.000000   0.000000   0.000000
    14  C    0.000951   0.000038  -0.000003   0.000024   0.000000
    15  C    0.000232  -0.000001   0.000000   0.000000   0.000000
    16  C    0.000223   0.000069   0.000016   0.000003  -0.000001
    17  C   -0.000005   0.000000   0.000000   0.000000   0.000000
    18  H   -0.000001   0.000000   0.000000   0.000000   0.000000
    19  C    0.000007   0.000005   0.000001   0.000000   0.000000
    20  H   -0.000038   0.000001   0.000008   0.000003   0.000000
    21  C   -0.000009   0.000000   0.000000   0.000000   0.000000
    22  H    0.000000   0.000000   0.000000   0.000000   0.000000
    23  H    0.000000  -0.000001   0.000000   0.000000   0.000000
    24  H    0.000000   0.000000   0.000000   0.000000   0.000000
    25  C   -0.048772  -0.016435   0.006125   0.006679  -0.001541
    26  C    0.004434  -0.093781  -0.037824  -0.000533   0.007821
    27  C    0.399244  -0.087582  -0.000380  -0.039636   0.007433
    28  C   -0.000423   0.496683   0.396194   0.006120  -0.042462
    29  H   -0.000239   0.004625  -0.003311   0.000018  -0.000174
    30  C   -0.036077   0.490261   0.005936   0.397081  -0.042929
    31  H    0.507660   0.005358   0.000022  -0.004229  -0.000179
    32  C    0.005358   5.033112  -0.040241  -0.040648   0.399532
    33  H    0.000022  -0.040241   0.515686  -0.000211  -0.004404
    34  H   -0.004229  -0.040648  -0.000211   0.517973  -0.004495
    35  H   -0.000179   0.399532  -0.004404  -0.004495   0.517916
 Mulliken atomic charges:
              1
     1  C   -0.526276
     2  H    0.196997
     3  C    0.053023
     4  C   -0.138851
     5  C   -0.166645
     6  C   -0.169212
     7  H    0.169381
     8  C   -0.176324
     9  H    0.202198
    10  C   -0.152213
    11  H    0.162239
    12  H    0.162662
    13  H    0.163502
    14  C    0.053023
    15  C   -0.138851
    16  C   -0.166645
    17  C   -0.169212
    18  H    0.169381
    19  C   -0.176324
    20  H    0.202198
    21  C   -0.152213
    22  H    0.162239
    23  H    0.162662
    24  H    0.163502
    25  C    0.053023
    26  C   -0.166645
    27  C   -0.138851
    28  C   -0.176324
    29  H    0.202198
    30  C   -0.169212
    31  H    0.169381
    32  C   -0.152213
    33  H    0.162662
    34  H    0.162239
    35  H    0.163502
 Sum of Mulliken atomic charges =   0.00000
 Mulliken charges with hydrogens summed into heavy atoms:
              1
     1  C   -0.329279
     3  C    0.053023
     4  C    0.030530
     5  C    0.035553
     6  C   -0.006973
     8  C   -0.013662
    10  C    0.011289
    14  C    0.053023
    15  C    0.030530
    16  C    0.035553
    17  C   -0.006973
    19  C   -0.013662
    21  C    0.011289
    25  C    0.053023
    26  C    0.035553
    27  C    0.030530
    28  C   -0.013662
    30  C   -0.006973
    32  C    0.011289
 Sum of Mulliken charges with hydrogens summed into heavy atoms =   0.00000
 Electronic spatial extent (au):  <R**2>=           4916.9228
 Charge=              0.0000 electrons
 Dipole moment (field-independent basis, Debye):
    X=              0.0000    Y=              0.0000    Z=              0.0248  Tot=              0.0248
 Quadrupole moment (field-independent basis, Debye-Ang):
   XX=           -111.4678   YY=           -111.4678   ZZ=           -104.7149
   XY=              0.0000   XZ=              0.0000   YZ=              0.0000
 Traceless Quadrupole moment (field-independent basis, Debye-Ang):
   XX=             -2.2510   YY=             -2.2510   ZZ=              4.5019
   XY=              0.0000   XZ=              0.0000   YZ=              0.0000
 Octapole moment (field-independent basis, Debye-Ang**2):
  XXX=             13.7578  YYY=             39.4823  ZZZ=              0.7914  XYY=            -13.7578
  XXY=            -39.4823  XXZ=             -3.6176  XZZ=              0.0000  YZZ=              0.0000
  YYZ=             -3.6176  XYZ=              0.0000
 Hexadecapole moment (field-independent basis, Debye-Ang**3):
 XXXX=          -2985.3134 YYYY=          -2985.3134 ZZZZ=           -746.0900 XXXY=              0.0000
 XXXZ=             76.1291 YYYX=              0.0000 YYYZ=            -17.5401 ZZZX=              0.0000
 ZZZY=              0.0000 XXYY=           -995.1045 XXZZ=           -612.6580 YYZZ=           -612.6580
 XXYZ=             17.5401 YYXZ=            -76.1291 ZZXY=              0.0000
 N-N= 1.290458044052D+03 E-N=-4.277017997649D+03  KE= 7.285968736334D+02
 PrsmSu:  requested number of processors reduced to:  10 ShMem   1 Linda.
 Calling FoFJK, ICntrl=      2127 FMM=F ISym2X=1 I1Cent= 0 IOpClX= 0 NMat=1 NMatS=1 NMatT=0.
 ***** Axes restored to original set *****
 -------------------------------------------------------------------
 Center     Atomic                   Forces (Hartrees/Bohr)
 Number     Number              X              Y              Z
 -------------------------------------------------------------------
      1        6           0.000000000    0.000000000   -0.022488659
      2        1           0.000000000    0.000000000    0.025897799
      3        6          -0.002138410    0.013205949   -0.003228262
      4        6           0.002949733   -0.000273149   -0.005430270
      5        6          -0.005536119   -0.006265659    0.006226003
      6        6           0.005504642    0.008959885   -0.007765717
      7        1          -0.007212237    0.003869886    0.015278999
      8        6          -0.004027843    0.003429500    0.011176542
      9        1           0.006681400    0.016652864   -0.011984568
     10        6          -0.000102256    0.013081481    0.003740155
     11        1          -0.006646787   -0.011424920    0.010094381
     12        1           0.006704084   -0.004361130   -0.014632254
     13        1           0.000024996   -0.016108914   -0.004611390
     14        6          -0.010367483   -0.008454892   -0.003228262
     15        6          -0.001238313    0.002691119   -0.005430270
     16        6           0.008194279   -0.001661591    0.006226003
     17        6          -0.010511809    0.000287217   -0.007765717
     18        1           0.000254699   -0.008180923    0.015278999
     19        6          -0.000956113   -0.005202964    0.011176542
     20        1          -0.017762503   -0.002540169   -0.011984568
     21        6          -0.011277767   -0.006629296    0.003740155
     22        1           0.013217664   -0.000043826    0.010094381
     23        1           0.000424807    0.007986472   -0.014632254
     24        1           0.013938231    0.008076104   -0.004611390
     25        6           0.012505893   -0.004751057   -0.003228262
     26        6          -0.002658160    0.007927249    0.006226003
     27        6          -0.001711421   -0.002417970   -0.005430270
     28        6           0.004983956    0.001773464    0.011176542
     29        1           0.011081103   -0.014112694   -0.011984568
     30        6           0.005007167   -0.009247102   -0.007765717
     31        1           0.006957538    0.004311038    0.015278999
     32        6           0.011380023   -0.006452184    0.003740155
     33        1          -0.007128891   -0.003625342   -0.014632254
     34        1          -0.006570877    0.011468746    0.010094381
     35        1          -0.013963227    0.008032810   -0.004611390
 -------------------------------------------------------------------
 Cartesian Forces:  Max     0.025897799 RMS     0.009006102

 GradGradGradGradGradGradGradGradGradGradGradGradGradGradGradGradGradGrad
 Berny optimization.
 Internal  Forces:  Max     0.025897799 RMS     0.006567120
 Search for a local minimum.
 Step number   1 out of a maximum of  197
 All quantities printed in internal units (Hartrees-Bohrs-Radians)
 Mixed Optimization -- RFO/linear search
 Second derivative matrix not updated -- first step.
     Eigenvalues ---    0.00651   0.00651   0.00651   0.01538   0.01538
     Eigenvalues ---    0.01538   0.02143   0.02143   0.02143   0.02171
     Eigenvalues ---    0.02171   0.02171   0.02182   0.02182   0.02182
     Eigenvalues ---    0.02201   0.02201   0.02201   0.02213   0.02213
     Eigenvalues ---    0.02213   0.02215   0.02215   0.02215   0.02216
     Eigenvalues ---    0.02216   0.02216   0.02218   0.02218   0.02218
     Eigenvalues ---    0.04657   0.06497   0.06497   0.15999   0.15999
     Eigenvalues ---    0.15999   0.16000   0.16000   0.16000   0.16000
     Eigenvalues ---    0.16000   0.16000   0.16000   0.16000   0.16000
     Eigenvalues ---    0.16000   0.16000   0.16000   0.19006   0.19006
     Eigenvalues ---    0.22000   0.22000   0.22000   0.22000   0.22000
     Eigenvalues ---    0.22000   0.23478   0.23478   0.23478   0.25000
     Eigenvalues ---    0.25000   0.25000   0.31293   0.31479   0.31479
     Eigenvalues ---    0.31479   0.33908   0.33908   0.33908   0.34107
     Eigenvalues ---    0.34107   0.34107   0.34262   0.34262   0.34262
     Eigenvalues ---    0.34262   0.34262   0.34262   0.34282   0.34282
     Eigenvalues ---    0.34282   0.42459   0.42459   0.42459   0.42577
     Eigenvalues ---    0.42577   0.42577   0.46398   0.46398   0.46398
     Eigenvalues ---    0.46779   0.46779   0.46779   0.47229   0.47229
     Eigenvalues ---    0.47229   0.47303   0.47303   0.473031000.00000
     Eigenvalues --- 1000.000001000.000001000.000001000.000001000.00000
     Eigenvalues --- 1000.000001000.000001000.000001000.000001000.00000
     Eigenvalues --- 1000.000001000.000001000.000001000.000001000.00000
     Eigenvalues --- 1000.000001000.000001000.000001000.000001000.00000
     Eigenvalues --- 1000.000001000.000001000.000001000.000001000.00000
     Eigenvalues --- 1000.000001000.000001000.000001000.000001000.00000
     Eigenvalues --- 1000.000001000.000001000.000001000.000001000.00000
     Eigenvalues --- 1000.000001000.000001000.000001000.000001000.00000
     Eigenvalues --- 1000.000001000.000001000.000001000.000001000.00000
     Eigenvalues --- 1000.000001000.000001000.000001000.000001000.00000
     Eigenvalues --- 1000.000001000.000001000.000001000.000001000.00000
     Eigenvalues --- 1000.000001000.000001000.000001000.000001000.00000
     Eigenvalues --- 1000.000001000.000001000.000001000.000001000.00000
     Eigenvalues --- 1000.000001000.000001000.000001000.000001000.00000
     Eigenvalues --- 1000.000001000.000001000.000001000.000001000.00000
     Eigenvalues --- 1000.000001000.000001000.000001000.000001000.00000
     Eigenvalues --- 1000.000001000.000001000.000001000.000001000.00000
     Eigenvalues --- 1000.000001000.00000
 RFO step:  Lambda=-2.71231929D-02 EMin= 6.50574645D-03
 Linear search not attempted -- first point.
 Maximum step size (   0.300) exceeded in Quadratic search.
    -- Step size scaled by   0.783
 Iteration  1 RMS(Cart)=  0.10438624 RMS(Int)=  0.00168512
 Iteration  2 RMS(Cart)=  0.00452430 RMS(Int)=  0.00032106
 Iteration  3 RMS(Cart)=  0.00000482 RMS(Int)=  0.00032105
 Iteration  4 RMS(Cart)=  0.00000000 RMS(Int)=  0.00032105
 ClnCor:  largest displacement from symmetrization is 1.24D-10 for atom    33.
 Variable       Old X    -DE/DX   Delta X   Delta X   Delta X     New X
                                 (Linear)    (Quad)   (Total)
    R1        2.12157  -0.02590   0.00000  -0.05961  -0.05961   2.06196
    R2        2.85107   0.01962   0.00000   0.04491   0.04491   2.89598
    R3        2.85107   0.01962   0.00000   0.04491   0.04491   2.89598
    R4        2.85107   0.01962   0.00000   0.04491   0.04491   2.89598
    R5        2.64107  -0.00445   0.00000  -0.00718  -0.00717   2.63390
    R6        2.63714  -0.00233   0.00000  -0.00366  -0.00365   2.63349
    R7        2.62639  -0.00374   0.00000  -0.00594  -0.00594   2.62046
    R8        2.07150  -0.01732   0.00000  -0.03681  -0.03681   2.03469
    R9        2.62768  -0.00301   0.00000  -0.00462  -0.00462   2.62306
   R10        2.07485  -0.02141   0.00000  -0.04576  -0.04576   2.02910
   R11        2.62836  -0.00621   0.00000  -0.00981  -0.00982   2.61854
   R12        2.06891  -0.01663   0.00000  -0.03520  -0.03520   2.03371
   R13        2.62712  -0.00581   0.00000  -0.00906  -0.00908   2.61805
   R14        2.06890  -0.01668   0.00000  -0.03530  -0.03530   2.03360
   R15        2.06856  -0.01675   0.00000  -0.03545  -0.03545   2.03312
   R16        2.64107  -0.00445   0.00000  -0.00718  -0.00717   2.63390
   R17        2.63714  -0.00233   0.00000  -0.00366  -0.00365   2.63349
   R18        2.62639  -0.00374   0.00000  -0.00594  -0.00594   2.62046
   R19        2.07150  -0.01732   0.00000  -0.03681  -0.03681   2.03469
   R20        2.62768  -0.00301   0.00000  -0.00462  -0.00462   2.62306
   R21        2.07485  -0.02141   0.00000  -0.04576  -0.04576   2.02910
   R22        2.62836  -0.00621   0.00000  -0.00981  -0.00982   2.61854
   R23        2.06891  -0.01663   0.00000  -0.03520  -0.03520   2.03371
   R24        2.62712  -0.00581   0.00000  -0.00906  -0.00908   2.61805
   R25        2.06890  -0.01668   0.00000  -0.03530  -0.03530   2.03360
   R26        2.06856  -0.01675   0.00000  -0.03545  -0.03545   2.03312
   R27        2.63714  -0.00233   0.00000  -0.00366  -0.00365   2.63349
   R28        2.64107  -0.00445   0.00000  -0.00718  -0.00717   2.63390
   R29        2.62768  -0.00301   0.00000  -0.00462  -0.00462   2.62306
   R30        2.07485  -0.02141   0.00000  -0.04576  -0.04576   2.02910
   R31        2.62639  -0.00374   0.00000  -0.00594  -0.00594   2.62046
   R32        2.07150  -0.01732   0.00000  -0.03681  -0.03681   2.03469
   R33        2.62712  -0.00581   0.00000  -0.00906  -0.00908   2.61805
   R34        2.06890  -0.01668   0.00000  -0.03530  -0.03530   2.03360
   R35        2.62836  -0.00621   0.00000  -0.00981  -0.00982   2.61854
   R36        2.06891  -0.01663   0.00000  -0.03520  -0.03520   2.03371
   R37        2.06856  -0.01675   0.00000  -0.03545  -0.03545   2.03312
    A1        1.86692  -0.00348   0.00000  -0.03699  -0.03626   1.83066
    A2        1.86692  -0.00348   0.00000  -0.03699  -0.03626   1.83066
    A3        1.86692  -0.00348   0.00000  -0.03699  -0.03626   1.83066
    A4        1.95224   0.00314   0.00000   0.03337   0.03112   1.98337
    A5        1.95224   0.00314   0.00000   0.03337   0.03112   1.98337
    A6        1.95224   0.00314   0.00000   0.03337   0.03112   1.98337
    A7        2.07446  -0.00230   0.00000  -0.00631  -0.00632   2.06814
    A8        2.12870   0.01000   0.00000   0.02841   0.02840   2.15710
    A9        2.08003  -0.00770   0.00000  -0.02210  -0.02208   2.05795
   A10        2.10020   0.00546   0.00000   0.01655   0.01657   2.11677
   A11        2.09423  -0.00348   0.00000  -0.01141  -0.01142   2.08281
   A12        2.08875  -0.00198   0.00000  -0.00515  -0.00516   2.08359
   A13        2.10070   0.00329   0.00000   0.01030   0.01029   2.11099
   A14        2.08612   0.00075   0.00000   0.00487   0.00487   2.09098
   A15        2.09632  -0.00404   0.00000  -0.01519  -0.01519   2.08113
   A16        2.09750  -0.00005   0.00000  -0.00094  -0.00094   2.09655
   A17        2.09158   0.00013   0.00000   0.00090   0.00091   2.09248
   A18        2.09411  -0.00008   0.00000   0.00003   0.00004   2.09415
   A19        2.09758   0.00126   0.00000   0.00382   0.00380   2.10138
   A20        2.09046  -0.00054   0.00000  -0.00154  -0.00153   2.08893
   A21        2.09514  -0.00072   0.00000  -0.00229  -0.00229   2.09286
   A22        2.09036  -0.00225   0.00000  -0.00763  -0.00766   2.08270
   A23        2.09617   0.00111   0.00000   0.00375   0.00376   2.09993
   A24        2.09666   0.00114   0.00000   0.00387   0.00388   2.10054
   A25        2.07446  -0.00230   0.00000  -0.00631  -0.00632   2.06814
   A26        2.12870   0.01000   0.00000   0.02841   0.02840   2.15710
   A27        2.08003  -0.00770   0.00000  -0.02210  -0.02208   2.05795
   A28        2.10020   0.00546   0.00000   0.01655   0.01657   2.11677
   A29        2.09423  -0.00348   0.00000  -0.01141  -0.01142   2.08281
   A30        2.08875  -0.00198   0.00000  -0.00515  -0.00516   2.08359
   A31        2.10070   0.00329   0.00000   0.01030   0.01029   2.11099
   A32        2.08612   0.00075   0.00000   0.00487   0.00487   2.09098
   A33        2.09632  -0.00404   0.00000  -0.01519  -0.01519   2.08113
   A34        2.09750  -0.00005   0.00000  -0.00094  -0.00094   2.09655
   A35        2.09158   0.00013   0.00000   0.00090   0.00091   2.09248
   A36        2.09411  -0.00008   0.00000   0.00003   0.00004   2.09415
   A37        2.09758   0.00126   0.00000   0.00382   0.00380   2.10138
   A38        2.09046  -0.00054   0.00000  -0.00154  -0.00153   2.08893
   A39        2.09514  -0.00072   0.00000  -0.00229  -0.00229   2.09286
   A40        2.09036  -0.00225   0.00000  -0.00763  -0.00766   2.08270
   A41        2.09617   0.00111   0.00000   0.00375   0.00376   2.09993
   A42        2.09666   0.00114   0.00000   0.00387   0.00388   2.10054
   A43        2.12870   0.01000   0.00000   0.02841   0.02840   2.15710
   A44        2.07446  -0.00230   0.00000  -0.00631  -0.00632   2.06814
   A45        2.08003  -0.00770   0.00000  -0.02210  -0.02208   2.05795
   A46        2.10070   0.00329   0.00000   0.01030   0.01029   2.11099
   A47        2.08612   0.00075   0.00000   0.00487   0.00487   2.09098
   A48        2.09632  -0.00404   0.00000  -0.01519  -0.01519   2.08113
   A49        2.10020   0.00546   0.00000   0.01655   0.01657   2.11677
   A50        2.09423  -0.00348   0.00000  -0.01141  -0.01142   2.08281
   A51        2.08875  -0.00198   0.00000  -0.00515  -0.00516   2.08359
   A52        2.09758   0.00126   0.00000   0.00382   0.00380   2.10138
   A53        2.09046  -0.00054   0.00000  -0.00154  -0.00153   2.08893
   A54        2.09514  -0.00072   0.00000  -0.00229  -0.00229   2.09286
   A55        2.09750  -0.00005   0.00000  -0.00094  -0.00094   2.09655
[...]
 00107048,-0.00006801,0.00015077,-0.00021853,-0.00003363,-0.00034979,-0
 .00014682,-0.00003692,-0.00018519,-0.00019502,0.00001414,-0.00001951,0
 .00013128,-0.00003165,0.00023492,-0.00006550,0.00005668,-0.00002249,0.
 00000220,-0.00010425,-0.00009687,0.00018608,-0.00000092,-0.00002154,-0
 .00000619,-0.00000073,-0.00000805,-0.00000190,0.00000428,0.00000431,0.
 00001222,-0.00060187,-0.00026235,-0.00050648,-0.00034923,-0.00030834,-
 0.00002741,0.00020806,-0.00009226,-0.00008660,0.00010944,0.00025628,-0
 .00019502,0.00001911,-0.00002445,-0.00002463,-0.00039908,-0.00007835,-
 0.00014623,-0.00000397,0.00019767,-0.00010843,0.00013384,-0.00013276,0
 .00024532,-0.00002416,0.00001096,0.00001371,-0.00000125,-0.00002055,0.
 00000236,-0.00001998,-0.00000325,0.00000010,0.02352908,0.03149383,0.06
 386387,-0.04983007,0.00872489,-0.04309582,-0.03928651,-0.02968233,-0.1
 4875448,0.03281010,-0.06791421,-0.03408867,-0.00042692,0.00087583,-0.0
 0057564,0.15155165,0.24725124,0.58250257,-0.00089144,-0.00081174,0.001
 66659,0.00042269,0.00027144,0.00056557,0.00021871,-0.00006737,0.000114
 79,0.00006479,-0.00007666,-0.00012615,0.00001941,-0.00002841,0.0000262
 6,-0.00002272,0.00001753,0.00001162,-0.00000299,-0.00000591,0.00002564
 ,-0.00003694,-0.00001013,0.00001233,-0.00000044,0.00000367,0.00001255,
 0.00001202,-0.00002898,-0.00001109,-0.00000510,-0.00001921,0.00000183,
 -0.00000241,-0.00000570,-0.00000849,-0.00000062,-0.00000579,0.00000152
 ,-0.00015423,0.00004105,0.00009646,-0.00008732,-0.00006277,-0.00006791
 ,0.00001351,-0.00001123,-0.00001926,-0.00005109,0.00001289,-0.00002397
 ,-0.00000855,0.00000912,0.00000103,-0.00000675,-0.00003876,0.00003628,
 0.00004663,0.00001798,-0.00000011,0.00001892,0.00002552,0.00001223,0.0
 0001371,0.00000077,0.00000823,0.,0.00000589,-0.00001242,0.00001533,0.0
 0000500,-0.00000557,0.00995347,0.00565322,0.01015711,0.00188737,0.0046
 5704,-0.00050846,-0.14644077,-0.03958014,-0.13040900,-0.00055401,0.000
 40399,0.00079810,0.00029057,0.00017436,0.00055626,-0.00969735,-0.01195
 782,-0.02618757,0.14825066,-0.00280459,-0.00041712,0.00011469,0.000631
 69,-0.00043394,0.00122945,0.00001746,-0.00012326,0.00038405,0.00007904
 ,0.00000086,-0.00010423,0.00006213,0.00014893,0.00008392,-0.00001710,0
 .00000702,0.00002877,-0.00004168,-0.00003788,0.00001489,-0.00005514,0.
 00002312,0.00003021,-0.00001543,-0.00000768,0.00000637,0.00000506,0.00
 001661,0.00000179,0.,0.00000269,-0.00000529,-0.00001377,0.00001775,0.0
 0000630,-0.00000450,0.00000902,0.00000570,0.00005370,0.00031423,-0.000
 06536,-0.00006829,-0.00009288,-0.00004818,-0.00009467,-0.00002426,-0.0
 0014819,0.00004680,0.00005183,-0.00000249,0.00004489,-0.00003232,0.000
 02338,-0.00003050,-0.00007884,0.00001293,0.00003390,0.00001026,0.00009
 009,-0.00000910,-0.00005862,0.00004570,-0.00001488,0.00000027,0.000002
 56,-0.00001824,-0.00001285,0.00002463,-0.00000850,-0.00000089,0.000014
 20,-0.01542114,-0.00303444,-0.02309007,0.00484928,-0.00095922,-0.00546
 838,-0.03957941,-0.09105132,-0.08059012,0.00046121,-0.00089906,0.00048
 671,-0.00085103,-0.00029253,-0.00102596,0.01157573,0.01027842,0.015254
 83,0.03781706,0.08611745,0.00091748,0.00246141,-0.00084877,0.00038096,
 -0.00047298,0.00039297,-0.00023540,-0.00005110,0.00032737,0.00003243,0
 .00003299,0.00006682,0.00003073,0.00016283,0.00006038,0.00002918,0.000
 01669,-0.00002463,-0.00002076,-0.00001080,-0.00003109,-0.00001286,0.00
 002966,0.00004892,-0.00001730,-0.00000395,-0.00003721,-0.00000505,0.00
 000616,0.00000558,-0.00000484,0.00001274,-0.00000358,-0.00000466,0.000
 01369,-0.00000059,-0.00000399,0.00000301,-0.00000368,0.00039724,-0.000
 23888,0.00035784,0.00034479,0.00019807,0.00009201,-0.00017431,0.000215
 15,-0.00007424,0.00003209,-0.00007187,0.00013128,0.00000008,-0.0000296
 5,-0.00003109,0.00015937,0.00014540,0.00000475,-0.00007999,-0.00014982
 ,-0.00006018,-0.00004268,0.00002847,-0.00008395,-0.00000152,0.,-0.0000
 1780,0.00000251,-0.00002399,-0.00000283,-0.00000912,-0.00001544,-0.000
 00195,-0.01403831,-0.00329399,-0.01064599,-0.00003629,-0.00558549,0.00
 204288,-0.12940175,-0.08081864,-0.25165519,0.00090708,0.00043318,0.000
 29800,-0.00058487,-0.00017270,-0.00074806,-0.00151086,-0.00574745,-0.0
 0177594,0.14470683,0.09172434,0.25993964,-0.00059249,-0.00111636,-0.00
 003682,-0.00015293,0.00016092,0.00026744,-0.00011051,-0.00009186,-0.00
 019264,-0.00003619,0.00001138,0.00008959,0.00002980,0.00009368,-0.0000
 8842,0.00001507,-0.00000722,0.00004806,-0.00003213,-0.00005499,-0.0000
 0332,0.00000646,-0.00002800,-0.00002129,-0.00000725,-0.00000471,-0.000
 00644,0.00001722,0.00007048,0.00002564,-0.00000690,0.00004226,-0.00001
 911,-0.00001362,0.00002125,0.00001092,-0.00000734,0.00001748,0.0000005
 1,-0.00008278,0.00087333,-0.00011850,-0.00013892,-0.00010521,0.0002197
 8,-0.00019175,-0.00003291,-0.00013277,-0.00002004,-0.00006221,-0.00003
 176,0.00002582,0.00002102,0.00000786,0.00007870,-0.00000994,0.00006667
 ,-0.00002021,-0.00000038,-0.00001329,-0.00008390,-0.00001210,-0.000026
 20,-0.00003374,-0.00002501,-0.00000209,-0.00003679,-0.00001787,0.00003
 356,-0.00000452,-0.00001049,0.00000781,-0.00268944,-0.01037590,-0.0079
 6100,-0.00250513,0.03212231,0.02341440,-0.03179437,0.00593338,-0.03148
 696,-0.16420848,0.10415395,0.04059776,-0.00218684,0.00493400,-0.004473
 03,-0.19712981,-0.03089439,-0.13564790,-0.00178153,0.00590918,-0.00348
 454,0.66216703,-0.00171070,-0.00045688,-0.00036065,0.00004640,-0.00015
 450,0.00073575,0.00026905,0.00031499,-0.00030437,0.00014965,-0.0003333
 9,0.00003824,-0.00000721,0.00021679,0.00022993,-0.00004934,0.00028104,
 0.00018228,-0.00002037,-0.00000758,-0.00005120,-0.00009958,-0.00024631
 ,0.00004963,-0.00002721,0.00001187,0.00001887,0.00014735,0.00000815,-0
 .00025470,-0.00000334,-0.00001443,0.00001695,0.00000406,-0.00001439,-0
 .00001760,0.00000391,-0.00001774,-0.00000227,-0.00050432,0.00057324,0.
 00027164,0.00023688,0.00026109,0.00004889,-0.00002556,0.00013766,0.000
 09502,-0.00006918,-0.00019672,0.00013872,-0.00001303,0.00000281,0.0000
 0129,0.00033049,0.00002414,0.00011163,0.00016157,-0.00030016,0.0002147
 7,-0.00008896,0.00010928,-0.00019485,0.00001908,-0.00001925,-0.0000223
 1,0.00003007,0.00003067,-0.00001287,0.00001654,0.00000400,0.00000506,-
 0.00988605,-0.04631224,-0.05140845,0.07270946,-0.02402372,0.02979293,-
 0.03431912,0.06154697,0.02299685,0.05179921,-0.25582986,-0.13881392,0.
 00488485,0.00311789,-0.00165069,0.02086574,-0.14882422,-0.05202622,0.0
 0625431,0.00208907,-0.00181414,-0.22887279,0.54250467,-0.00169737,-0.0
 0050012,-0.00115345,-0.00034842,0.00014635,0.00096818,0.00008048,0.000
 25530,-0.00051961,0.00022644,-0.00033564,0.00010569,-0.00000089,0.0003
 9763,0.00023180,-0.00002646,0.00034041,0.00024532,-0.00004569,-0.00001
 226,-0.00008395,-0.00011588,-0.00032336,0.00003973,-0.00001868,0.00001
 150,0.00000274,0.00018184,0.00007473,-0.00027670,-0.00000682,0.0000010
 8,0.00000988,-0.00000701,0.00000319,-0.00000760,0.00000140,-0.00000717
 ,-0.00000719,-0.00040619,0.00111476,0.00037605,0.00027439,0.00026219,0
 .00028443,-0.00039654,0.00015181,0.00007314,-0.00011983,-0.00031369,0.
 00018608,0.00000709,0.00000871,0.00000558,0.00045895,0.00009149,0.0001
 0789,0.00000021,-0.00023953,0.00006634,-0.00023340,0.00010514,-0.00027
 670,-0.00000447,-0.00004172,-0.00002641,-0.00002939,0.00000573,0.00004
 701,0.00000152,-0.00000781,0.00000410,-0.00612534,-0.05189271,-0.07029
 720,0.06717648,-0.00767071,0.06269414,-0.07496591,0.06130600,0.0065034
 4,-0.01583935,-0.09258707,-0.19712826,-0.00484991,-0.00141097,0.003297
 47,-0.07914776,-0.09869455,-0.26231992,-0.00290614,-0.00221374,0.00405
 992,0.19039772,0.19206909,0.55410053,-0.00024110,-0.00067519,-0.000966
 10,-0.00037097,0.00015263,-0.00012133,0.00005598,-0.00030212,-0.000023
 02,0.00003328,0.00003298,0.00000779,0.00003075,0.00009451,0.00003695,-
 0.00000516,0.00000460,0.00001843,-0.00001499,-0.00001454,0.00001952,0.
 00000600,-0.00001554,0.00001937,-0.00001940,-0.00001400,-0.00001430,0.
 00001909,0.00005013,0.00000974,0.00000047,0.00001168,-0.00000530,-0.00
 002247,0.00002092,0.00000940,-0.00000680,0.00001429,-0.00000132,0.0000
 4634,0.00021203,-0.00016713,-0.00010291,-0.00008236,0.00006559,-0.0001
 1322,-0.00000297,0.00002668,-0.00000869,-0.00000324,-0.00000661,0.0000
 2114,-0.00000789,0.00001419,0.00000597,0.00001379,-0.00000492,0.000027
 61,0.00000328,-0.00006021,-0.00002515,-0.00001459,0.00000627,-0.000016
 49,-0.00000614,0.00000020,-0.00001865,-0.00002313,0.00001429,-0.000008
 84,-0.00000780,0.00000118,-0.00179097,0.00605107,-0.00278530,-0.009537
 37,-0.01181924,-0.02614107,-0.00056567,0.00050362,0.00088250,-0.147576
 65,-0.04017128,-0.13152031,-0.00044971,-0.00163129,0.00231424,0.002237
 39,0.00488495,-0.00073347,-0.00033165,-0.00048561,0.00030128,0.0110985
 3,0.00618259,0.01152330,0.14788546,0.00010052,0.00038632,0.00064451,0.
 00010499,-0.00004942,0.00010671,-0.00005013,0.00005958,-0.00000917,0.0
 0000306,-0.00003715,-0.00000947,-0.00001339,0.00003916,-0.00001368,-0.
 00002117,0.00001178,0.00000919,0.00000959,0.00000214,0.00001417,-0.000
 01191,-0.00003230,-0.00001037,0.00000535,0.00000293,0.00000594,0.00000
 219,-0.00002521,-0.00002832,0.00000514,-0.00000972,0.00000774,0.000005
 42,-0.00000217,0.00000420,0.00000648,-0.00000215,0.00000327,0.00005711
 ,-0.00005576,0.00000728,0.00002216,-0.00001203,-0.00000103,-0.00004103
 ,0.00001542,-0.00002176,0.00000711,0.00001168,0.00000466,0.00000017,-0
 .00000580,-0.00000281,0.00000149,0.00001280,-0.00000573,0.00001473,0.0
 0001019,-0.00002416,0.00000260,-0.00000286,0.00000448,0.00000196,0.000
 00202,0.00000269,-0.00000763,-0.00000599,0.00000306,0.00000014,-0.0000
 0207,-0.00000186,0.00605756,0.00194211,-0.00187578,0.01115837,0.010150
 72,0.01496817,0.00052235,-0.00102911,0.00043381,-0.04015183,-0.0920143
 9,-0.08216122,-0.00247155,-0.00109142,0.00197805,0.00514755,-0.0004997
 9,-0.00556795,-0.00047138,-0.00044338,0.00044874,-0.01696946,-0.002007
 12,-0.02328184,0.03934281,0.08626418,0.00027178,-0.00039326,-0.0002939
 0,-0.00009207,0.00002621,-0.00006466,-0.00007372,-0.00009395,-0.000016
 48,-0.00001674,0.00006933,0.00001639,0.00001639,0.00000873,-0.00003752
 ,0.00001897,-0.00003818,0.00000236,-0.00001512,-0.00002307,-0.00000283
 ,0.00002314,0.00002690,-0.00000134,0.00000645,-0.00000820,-0.00001107,
 -0.00000564,0.00003550,0.00004701,-0.00000283,0.00002524,-0.00001894,-
 0.00000980,0.00001084,0.00000611,-0.00000928,0.00001683,0.00000003,-0.
 00004279,0.00015154,-0.00003217,-0.00004186,-0.00002198,0.00004700,-0.
 00001117,-0.00003316,0.00004327,-0.00001217,-0.00001710,-0.00000190,0.
 00000970,0.00000421,-0.00000059,0.00000346,0.00002032,-0.00001995,0.00
 000516,0.00000849,-0.00003664,-0.00002071,-0.00000066,-0.00000760,-0.0
 0001459,-0.00000521,-0.00000640,-0.00000106,-0.00001024,0.00000611,-0.
 00001259,-0.00000548,0.00000119,-0.00337668,-0.00167215,0.00384420,-0.
 00129104,-0.00556636,-0.00161173,0.00082017,0.00054912,0.00036804,-0.1
 3146465,-0.08191597,-0.25411463,0.00158120,0.00251512,-0.00089872,-0.0
 0036743,-0.00584769,0.00233462,0.00031021,0.00044746,-0.00051144,-0.01
 336481,-0.00276744,-0.00926271,0.14536355,0.09273900,0.26187241,-0.000
 01639,0.00093968,0.00094162,0.00008019,-0.00002747,-0.00001650,-0.0004
 4863,-0.00002887,-0.00010547,-0.00000074,0.00008029,0.00000120,0.00002
 461,0.00006852,-0.00000500,0.00001468,-0.00004751,0.00000259,-0.000002
 48,-0.00001011,0.00000076,0.00003626,0.00002844,0.00001008,-0.00001512
 ,-0.00000327,-0.00000615,-0.00002544,0.00002980,0.00003836,0.00000435,
 0.00001077,-0.00000520,-0.00000442,0.00001311,0.00001181,-0.00000294,0
 .00000948,0.00000097,0.00005007,0.00016785,-0.00006947,-0.00006803,-0.
 00005016,0.00002732,-0.00003594,-0.00005355,0.00001391,-0.00000340,-0.
 00001298,-0.00001820,0.00000906,0.00001103,0.00001345,-0.00000766,-0.0
 0001331,-0.00001830,0.00000329,0.00004552,-0.00000622,-0.00002940,-0.0
 0002927,0.00000435,-0.00001586,0.00000090,0.00000283,-0.00001446,-0.00
 000306,0.00002328,-0.00001193,0.00000190,0.00000623,-0.00210551,0.0046
 5223,-0.00481520,-0.00096503,-0.00047266,-0.00055767,-0.00338495,0.025
 07774,0.01922555,0.00054829,0.00139113,-0.00580056,-0.00029115,-0.0003
 4931,0.00047787,-0.09619971,0.08071477,0.04496253,-0.00044904,-0.00248
 445,0.00154189,0.01128242,-0.01640786,-0.01259245,0.00026990,-0.000770
 06,-0.00051432,0.09221347,-0.00018347,-0.00050598,-0.00057835,0.000042
 74,-0.00001305,0.00006178,0.00016441,0.00009719,0.00016122,0.00003076,
 -0.00003115,-0.00006293,-0.00001608,-0.00009888,0.00000644,0.00000817,
 -0.00000814,-0.00002640,0.00000553,0.00001646,-0.00000131,-0.00000954,
 0.00003199,0.00000079,-0.00000791,0.00000482,0.00000287,-0.00001429,-0
 .00002755,0.00001699,-0.00000875,-0.00002144,0.00000274,0.00000501,-0.
 00001005,-0.00001003,0.00000062,-0.00001300,-0.00000257,-0.00008495,-0
 .00011979,0.00006813,0.00005291,0.00006897,-0.00001804,0.00001108,0.00
 003651,-0.00003501,0.00001316,0.00000592,0.00001157,-0.00000817,-0.000
 01147,-0.00000218,0.00000260,-0.00001468,0.00001116,-0.00001251,-0.000
 01723,0.00003720,0.00001633,0.00000807,0.00000537,0.00002042,-0.000001
 23,0.00000167,0.00000348,0.00000521,-0.00001017,0.00001359,0.00000535,
 -0.00000243,0.00520244,0.00339666,-0.00149288,-0.00034210,0.00020466,0
 .00091364,0.00206444,-0.00715893,-0.01204466,0.00103622,0.00411465,-0.
 00402346,-0.00040576,-0.00054688,0.00040805,0.08080700,-0.24093512,-0.
 13631300,-0.00170265,-0.00128673,0.00270519,0.00646976,-0.00249356,-0.
 00284300,0.00018333,-0.00039043,-0.00015788,-0.09099844,0.24690914,-0.
 00011270,0.00043414,0.00021795,0.00003382,-0.00001145,-0.00004029,0.00
 000924,0.00000461,-0.00008307,0.00000834,-0.00002193,0.00003059,0.0000
 0637,0.00001653,0.00003697,0.00000438,0.00003844,0.00001371,-0.0000063
 3,0.00000585,-0.00001780,-0.00000353,-0.00002642,0.00001417,-0.0000083
 6,0.00000168,-0.00000326,0.00002037,0.00000934,-0.00002641,-0.00000286
 ,0.00000162,0.00000196,-0.00000242,-0.00000117,-0.00000640,-0.00000162
 ,-0.00000407,-0.00000373,0.00007704,-0.00008488,0.00002033,0.00000175,
 -0.00000635,-0.00004488,0.00001802,0.00002268,-0.00001370,0.00000429,0
 .00001734,-0.00000619,-0.00000549,0.00000106,-0.00000358,-0.00001283,-
 0.00000362,0.00003089,-0.00001579,-0.00003519,-0.00000064,0.00002424,0
 .00000808,0.00000988,0.00000498,0.00000313,0.00000196,0.00000936,0.000
 00072,-0.00001894,0.00000940,-0.00000053,-0.00000264,-0.00453814,-0.00
 165662,0.00329802,-0.00053706,0.00091223,-0.00044109,-0.00590631,0.008
 60580,0.00975189,-0.00612787,-0.00372913,-0.00093616,0.00044489,0.0004
 0000,-0.00042462,0.04514003,-0.13646230,-0.15684094,0.00232211,0.00199
 948,-0.00090430,0.01235512,-0.02337612,-0.00887129,0.00053054,-0.00105
 325,-0.00072526,-0.04510548,0.15140171,0.15675099,-0.00031339,-0.00032
 905,0.00032815,0.00002393,0.00000900,0.00009163,-0.00006879,-0.0000426
 0,-0.00000796,-0.00003810,0.00002047,-0.00000587,0.00000444,0.00004288
 ,-0.00004189,-0.00001586,-0.00002088,0.00001281,0.00000165,-0.00001290
 ,0.00001793,0.00000669,-0.00001701,-0.00001466,0.00001312,-0.00000566,
 0.00000316,0.00000449,0.00001569,0.00000601,0.00000773,0.00000946,-0.0
 0000424,-0.00000708,0.00000881,0.00001104,-0.00000022,0.00001357,0.000
 00405,-0.00003480,0.00013078,-0.00008259,-0.00004100,-0.00004566,0.000
 04544,-0.00003953,-0.00003324,0.00002689,-0.00000935,-0.00001342,0.000
 00159,0.00001107,-0.00000095,0.00000460,0.00001328,0.00002483,-0.00003
 562,0.00002356,0.00004208,-0.00004183,-0.00002440,-0.00000763,-0.00000
 690,-0.00001486,-0.00000260,-0.00000271,-0.00001231,-0.00001111,0.0000
 1922,-0.00001549,-0.00000476,0.00000208,0.00054174,-0.00082911,0.00040
 590,0.00323106,0.00389225,-0.00093773,0.00205210,0.00076262,-0.0051384
 9,-0.00408698,0.00183382,-0.00631217,-0.00041508,0.00010280,-0.0001850
 7,-0.00971322,0.01164554,-0.00059501,-0.00070284,0.00043091,-0.0001148
 4,-0.28085340,0.12799341,-0.07044591,-0.00051107,-0.00159935,0.0023308
 8,-0.00043835,-0.00235938,0.00136255,0.29142126,-0.00049727,-0.0003499
 9,0.00039677,0.00008811,0.00001447,0.00014827,0.00002378,0.00004993,0.
 00002834,0.00001880,0.00000684,-0.00003363,0.00001324,-0.00004589,0.00
 003132,0.00000455,0.00000339,-0.00001568,0.00000060,0.00001279,-0.0000
 0017,0.00000331,0.00002840,0.00001931,-0.00002276,0.00000135,0.0000010
 1,-0.00001134,-0.00000501,0.00000522,-0.00000224,-0.00001432,0.0000084
 0,0.00000088,-0.00000383,-0.00000816,0.00000163,-0.00001181,-0.0000018
 0,-0.00009212,0.00001936,-0.00003632,-0.00000814,-0.00000365,-0.000001
 90,-0.00001200,0.00002154,-0.00003403,0.00000140,0.00000365,-0.0000058
 6,-0.00000225,-0.00000266,0.00000195,0.00000571,-0.00001257,0.00001469
 ,-0.00000128,-0.00001671,0.00001523,0.00000594,-0.00000068,0.00000237,
 0.00000626,-0.00000108,0.00000344,-0.00000330,0.00000335,-0.00000038,0
 .00000719,0.00000347,0.00000008,-0.00072915,-0.00074559,-0.00041373,0.
 00345528,-0.00006744,-0.00666976,0.00113979,0.00323405,-0.00491284,0.0
 2508784,-0.00659816,0.00967543,0.00105894,-0.00057015,0.00042322,-0.01
 130595,0.00995867,-0.00481193,-0.00048618,0.00019967,-0.00013684,0.127
 85743,-0.12998225,0.02603076,-0.00248232,-0.00119278,0.00192316,-0.001
 48082,-0.00120033,0.00258861,-0.14164357,0.12726396,0.00039202,0.00043
 631,-0.00029647,-0.00000226,-0.00007464,-0.00003243,-0.00002385,-0.000
 05337,0.00000975,0.00003471,0.00002953,0.00001033,0.00001137,0.0000338
 4,0.00003937,0.00000596,-0.00000172,0.00000010,-0.00000952,-0.00001192
 ,-0.00000195,-0.00000038,0.00001908,0.00000949,-0.00000495,-0.00000149
 ,-0.00000887,-0.00000829,0.00000424,0.00000410,-0.00000101,0.00000661,
 -0.00000264,0.00000102,0.00000195,0.00000119,-0.00000111,0.00000176,0.
 00000083,0.00008476,-0.00000253,0.00006363,0.00002456,0.00002142,0.000
 00368,-0.00000690,0.00001632,0.00001432,0.00000471,-0.00000298,0.00001
 222,0.00000418,-0.00000417,-0.00000368,0.00000598,0.00000530,0.0000011
 3,-0.00000549,-0.00002389,-0.00000778,-0.00000222,0.00000070,-0.000007
 19,-0.00000271,0.00000045,-0.00000373,0.00000349,-0.00000050,0.0000000
 3,-0.00000358,-0.00000261,0.00000083,0.00030880,-0.00039553,-0.0011369
 5,-0.00133393,-0.00628108,0.00107636,-0.00473250,-0.00529208,-0.001360
 15,0.01866564,-0.01083731,0.01020942,0.00082082,-0.00039327,0.00022489
 ,-0.02565453,0.01575583,-0.00083324,-0.00115740,0.00072955,-0.00036583
 ,-0.07043196,0.02606026,-0.08317846,0.00138540,0.00268276,-0.00091226,
 0.00232958,0.00180779,-0.00076412,0.07929959,-0.02423457,0.07723407||0
 .,0.,0.00004249,0.,0.,0.00001828,0.00001666,0.00002311,-0.00006989,-0.
 00002341,-0.00005049,0.00001398,-0.00000769,0.00006472,0.00004632,-0.0
 0001412,0.00004233,0.00003920,0.00001135,0.00000099,-0.00001130,-0.000
 00569,-0.00007085,0.00000516,-0.00000610,-0.00001138,0.00000590,0.0000
 3112,0.00000479,-0.00005370,0.00000757,0.00000016,-0.00000766,-0.00000
 757,0.00000741,0.00000425,-0.00000606,0.00001071,0.00000749,-0.0000283
 4,0.00000288,-0.00006989,0.00005543,0.00000497,0.00001398,-0.00005220,
 -0.00003902,0.00004632,-0.00002959,-0.00003340,0.00003920,-0.00000653,
 0.00000933,-0.00001130,0.00006420,0.00003050,0.00000516,0.00001290,0.0
 0000040,0.00000590,-0.00001971,0.00002456,-0.00005370,-0.00000392,0.00
 000648,-0.00000766,-0.00000263,-0.00001026,0.00000425,-0.00000624,-0.0
 0001060,0.00000749,0.00001168,-0.00002598,-0.00006989,0.00005989,-0.00
 002570,0.00004632,-0.00003202,0.00004552,0.00001398,-0.00005851,0.0000
 4035,0.00000516,-0.00000680,0.00001097,0.00000590,0.00004372,-0.000008
 93,0.00003920,-0.00000482,-0.00001032,-0.00001130,-0.00001141,-0.00002
 935,-0.00005370,0.00001020,0.00000285,0.00000425,-0.00000365,-0.000006
 64,-0.00000766,0.00001230,-0.00000011,0.00000749|||@


 THERE ONCE WAS A GIRL NAMED IRENE,
 WHO LIVED ON DISTILLED KEROSENE,
      BUT SHE STARTED ABSORBIN'
      A NEW HYDROCARBON,
 AND SINCE THEN HAS NEVER BENZENE.
 Job cpu time:  0 days  0 hours  3 minutes 24.0 seconds.
 File lengths (MBytes):  RWF=    178 Int=      0 D2E=      0 Chk=      7 Scr=      1
 Normal termination of Gaussian 09 at Mon Sep 06 13:05:43 2021.
