 Entering Link 1 = b:\programy\g09w\l1.exe PID=     15156.
  
 Copyright (c) 1988,1990,1992,1993,1995,1998,2003,2009, Gaussian, Inc.
                  All Rights Reserved.
  
 This is part of the Gaussian(R) 09 program.  It is based on
 the Gaussian(R) 03 system (copyright 2003, Gaussian, Inc.),
 the Gaussian(R) 98 system (copyright 1998, Gaussian, Inc.),
 the Gaussian(R) 94 system (copyright 1995, Gaussian, Inc.),
 the Gaussian 92(TM) system (copyright 1992, Gaussian, Inc.),
 the Gaussian 90(TM) system (copyright 1990, Gaussian, Inc.),
 the Gaussian 88(TM) system (copyright 1988, Gaussian, Inc.),
 the Gaussian 86(TM) system (copyright 1986, Carnegie Mellon
 University), and the Gaussian 82(TM) system (copyright 1983,
 Carnegie Mellon University). Gaussian is a federally registered
 trademark of Gaussian, Inc.
  
 This software contains proprietary and confidential information,
 including trade secrets, belonging to Gaussian, Inc.
  
 This software is provided under written license and may be
 used, copied, transmitted, or stored only in accord with that
 written license.
  
 The following legend is applicable only to US Government
 contracts under FAR:
  
                    RESTRICTED RIGHTS LEGEND
  
 Use, reproduction and disclosure by the US Government is
 subject to restrictions as set forth in subparagraphs (a)
 and (c) of the Commercial Computer Software - Restricted
 Rights clause in FAR 52.227-19.
  
 Gaussian, Inc.
 340 Quinnipiac St., Bldg. 40, Wallingford CT 06492
  
  
 ---------------------------------------------------------------
 Warning -- This program may not be used in any manner that
 competes with the business of Gaussian, Inc. or will provide
 assistance to any competitor of Gaussian, Inc.  The licensee
 of this program is prohibited from giving any competitor of
 Gaussian, Inc. access to this program.  By using this program,
 the user acknowledges that Gaussian, Inc. is engaged in the
 business of creating and licensing software in the field of
 computational chemistry and represents and warrants to the
 licensee that it is not a competitor of Gaussian, Inc. and that
 it will not use this program in any manner prohibited above.
 ---------------------------------------------------------------
  

 Cite this work as:
 Gaussian 09, Revision A.02,
 M. J. Frisch, G. W. Trucks, H. B. Schlegel, G. E. Scuseria, 
 M. A. Robb, J. R. Cheeseman, G. Scalmani, V. Barone, B. Mennucci, 
 G. A. Petersson, H. Nakatsuji, M. Caricato, X. Li, H. P. Hratchian, 
 A. F. Izmaylov, J. Bloino, G. Zheng, J. L. Sonnenberg, M. Hada, 
 M. Ehara, K. Toyota, R. Fukuda, J. Hasegawa, M. Ishida, T. Nakajima, 
 Y. Honda, O. Kitao, H. Nakai, T. Vreven, J. A. Montgomery, Jr., 
 J. E. Peralta, F. Ogliaro, M. Bearpark, J. J. Heyd, E. Brothers, 
 K. N. Kudin, V. N. Staroverov, R. Kobayashi, J. Normand, 
 K. Raghavachari, A. Rendell, J. C. Burant, S. S. Iyengar, J. Tomasi, 
 M. Cossi, N. Rega, J. M. Millam, M. Klene, J. E. Knox, J. B. Cross, 
 V. Bakken, C. Adamo, J. Jaramillo, R. Gomperts, R. E. Stratmann, 
 O. Yazyev, A. J. Austin, R. Cammi, C. Pomelli, J. W. Ochterski, 
 R. L. Martin, K. Morokuma, V. G. Zakrzewski, G. A. Voth, 
 P. Salvador, J. J. Dannenberg, S. Dapprich, A. D. Daniels, 
 O. Farkas, J. B. Foresman, J. V. Ortiz, J. Cioslowski, 
 and D. J. Fox, Gaussian, Inc., Wallingford CT, 2009.
 
 ******************************************
 Gaussian 09:  IA32W-G09RevA.02 11-Jun-2009
                06-Sep-2021 
 ******************************************
 %nprocshared=12
 Will use up to   12 processors via shared memory.
 ----------------------------------------------
 # opt freq=noraman hf/6-311g geom=connectivity
 ----------------------------------------------
 1/18=20,19=15,38=1,57=2/1,3;
 2/9=110,12=2,17=6,18=5,40=1/2;
 3/5=4,6=6,11=9,16=1,25=1,30=1,71=1/1,2,3;
 4//1;
 5/5=2,38=5/2;
 6/7=2,8=2,9=2,10=2,28=1/1;
 7//1,2,3,16;
 1/18=20,19=15/3(2);
 2/9=110/2;
 99//99;
 2/9=110/2;
 3/5=4,6=6,11=9,16=1,25=1,30=1,71=1/1,2,3;
 4/5=5,16=3/1;
 5/5=2,38=5/2;
 7//1,2,3,16;
 1/18=20,19=15/3(-5);
 2/9=110/2;
 6/7=2,8=2,9=2,10=2,19=2,28=1/1;
 99/9=1/99;
 -----
 M0001
 -----
 Symbolic Z-matrix:
 Charge =  0 Multiplicity = 1
 C                     0.14206   0.75392   0.04158 
 H                     0.28744   1.86739   0.0901 
 C                     1.52054   0.15077  -0.06591 
 C                     2.576     0.97398  -0.47014 
 C                     1.78175  -1.19086   0.2174 
 C                     3.86352   0.46398  -0.58639 
 H                     2.39019   2.03011  -0.69897 
 C                     3.0708   -1.69883   0.1033 
 H                     0.95811  -1.84726   0.54156 
 C                     4.11434  -0.87347  -0.29925 
 H                     4.68189   1.1182   -0.90414 
 H                     3.26203  -2.75217   0.33241 
 H                     5.12909  -1.27395  -0.38914 
 C                    -0.58717   0.34893   1.29926 
 C                    -0.82147   1.30917   2.28654 
 C                    -1.05248  -0.95243   1.49506 
 C                    -1.51409   0.97219   3.44397 
 H                    -0.45929   2.33509   2.1504 
 C                    -1.74784  -1.28708   2.6507 
 H                    -0.84141  -1.71445   0.72941 
 C                    -1.98165  -0.32458   3.62688 
 H                    -1.69245   1.73155   4.21226 
 H                    -2.11054  -2.31042   2.79113 
 H                    -2.53043  -0.58729   4.53686 
 C                    -0.71651   0.48652  -1.17142 
 C                    -0.6267   -0.69178  -1.91169 
 C                    -1.64232   1.46148  -1.55703 
 C                    -1.4458   -0.89261  -3.01789 
 H                     0.10052  -1.46279  -1.62681 
 C                    -2.46088   1.25788  -2.66086 
 H                    -1.72738   2.39198  -0.98364 
 C                    -2.36431   0.07994  -3.39454 
 H                    -1.36392  -1.82083  -3.59269 
 H                    -3.18313   2.027    -2.95321 
 H                    -3.0085   -0.07926  -4.26509 
 

 GradGradGradGradGradGradGradGradGradGradGradGradGradGradGradGradGradGrad
 Berny optimization.
 Initialization pass.
                           ----------------------------
                           !    Initial Parameters    !
                           ! (Angstroms and Degrees)  !
 --------------------------                            --------------------------
 ! Name  Definition              Value          Derivative Info.                !
 --------------------------------------------------------------------------------
 ! R1    R(1,2)                  1.124          estimate D2E/DX2                !
 ! R2    R(1,3)                  1.5085         estimate D2E/DX2                !
 ! R3    R(1,14)                 1.5092         estimate D2E/DX2                !
 ! R4    R(1,25)                 1.51           estimate D2E/DX2                !
 ! R5    R(3,4)                  1.3982         estimate D2E/DX2                !
 ! R6    R(3,5)                  1.3959         estimate D2E/DX2                !
 ! R7    R(4,6)                  1.3897         estimate D2E/DX2                !
 ! R8    R(4,7)                  1.0965         estimate D2E/DX2                !
 ! R9    R(5,8)                  1.3902         estimate D2E/DX2                !
 ! R10   R(5,9)                  1.102          estimate D2E/DX2                !
 ! R11   R(6,10)                 1.3907         estimate D2E/DX2                !
 ! R12   R(6,11)                 1.0949         estimate D2E/DX2                !
 ! R13   R(8,10)                 1.3901         estimate D2E/DX2                !
 ! R14   R(8,12)                 1.0948         estimate D2E/DX2                !
 ! R15   R(10,13)                1.0946         estimate D2E/DX2                !
 ! R16   R(14,15)                1.397          estimate D2E/DX2                !
 ! R17   R(14,16)                1.3958         estimate D2E/DX2                !
 ! R18   R(15,17)                1.3903         estimate D2E/DX2                !
 ! R19   R(15,18)                1.0965         estimate D2E/DX2                !
 ! R20   R(16,19)                1.3896         estimate D2E/DX2                !
 ! R21   R(16,20)                1.1007         estimate D2E/DX2                !
 ! R22   R(17,21)                1.3906         estimate D2E/DX2                !
 ! R23   R(17,22)                1.0949         estimate D2E/DX2                !
 ! R24   R(19,21)                1.3907         estimate D2E/DX2                !
 ! R25   R(19,23)                1.0948         estimate D2E/DX2                !
 ! R26   R(21,24)                1.0946         estimate D2E/DX2                !
 ! R27   R(25,26)                1.3944         estimate D2E/DX2                !
 ! R28   R(25,27)                1.3987         estimate D2E/DX2                !
 ! R29   R(26,28)                1.391          estimate D2E/DX2                !
 ! R30   R(26,29)                1.0975         estimate D2E/DX2                !
 ! R31   R(27,30)                1.3892         estimate D2E/DX2                !
 ! R32   R(27,31)                1.0963         estimate D2E/DX2                !
 ! R33   R(28,32)                1.3897         estimate D2E/DX2                !
 ! R34   R(28,33)                1.0948         estimate D2E/DX2                !
 ! R35   R(30,32)                1.3911         estimate D2E/DX2                !
 ! R36   R(30,34)                1.0948         estimate D2E/DX2                !
 ! R37   R(32,35)                1.0946         estimate D2E/DX2                !
 ! A1    A(2,1,3)              106.318          estimate D2E/DX2                !
 ! A2    A(2,1,14)             107.0004         estimate D2E/DX2                !
 ! A3    A(2,1,25)             106.4786         estimate D2E/DX2                !
 ! A4    A(3,1,14)             113.1815         estimate D2E/DX2                !
 ! A5    A(3,1,25)             113.0505         estimate D2E/DX2                !
 ! A6    A(14,1,25)            110.3162         estimate D2E/DX2                !
 ! A7    A(1,3,4)              118.3593         estimate D2E/DX2                !
 ! A8    A(1,3,5)              122.7405         estimate D2E/DX2                !
 ! A9    A(4,3,5)              118.9            estimate D2E/DX2                !
 ! A10   A(3,4,6)              120.4951         estimate D2E/DX2                !
 ! A11   A(3,4,7)              119.966          estimate D2E/DX2                !
 ! A12   A(6,4,7)              119.5389         estimate D2E/DX2                !
 ! A13   A(3,5,8)              120.5337         estimate D2E/DX2                !
 ! A14   A(3,5,9)              119.4951         estimate D2E/DX2                !
 ! A15   A(8,5,9)              119.9694         estimate D2E/DX2                !
 ! A16   A(4,6,10)             120.1818         estimate D2E/DX2                !
 ! A17   A(4,6,11)             119.834          estimate D2E/DX2                !
 ! A18   A(10,6,11)            119.9841         estimate D2E/DX2                !
 ! A19   A(5,8,10)             120.1927         estimate D2E/DX2                !
 ! A20   A(5,8,12)             119.7581         estimate D2E/DX2                !
 ! A21   A(10,8,12)            120.0492         estimate D2E/DX2                !
 ! A22   A(6,10,8)             119.6964         estimate D2E/DX2                !
 ! A23   A(6,10,13)            120.1386         estimate D2E/DX2                !
 ! A24   A(8,10,13)            120.1651         estimate D2E/DX2                !
 ! A25   A(1,14,15)            119.0469         estimate D2E/DX2                !
 ! A26   A(1,14,16)            121.8814         estimate D2E/DX2                !
 ! A27   A(15,14,16)           119.0639         estimate D2E/DX2                !
 ! A28   A(14,15,17)           120.3501         estimate D2E/DX2                !
 ! A29   A(14,15,18)           119.9988         estimate D2E/DX2                !
 ! A30   A(17,15,18)           119.6511         estimate D2E/DX2                !
 ! A31   A(14,16,19)           120.5294         estimate D2E/DX2                !
 ! A32   A(14,16,20)           118.9447         estimate D2E/DX2                !
 ! A33   A(19,16,20)           120.5134         estimate D2E/DX2                !
 ! A34   A(15,17,21)           120.2015         estimate D2E/DX2                !
 ! A35   A(15,17,22)           119.8175         estimate D2E/DX2                !
 ! A36   A(21,17,22)           119.981          estimate D2E/DX2                !
 ! A37   A(16,19,21)           120.0803         estimate D2E/DX2                !
 ! A38   A(16,19,23)           119.8393         estimate D2E/DX2                !
 ! A39   A(21,19,23)           120.0803         estimate D2E/DX2                !
 ! A40   A(17,21,19)           119.7727         estimate D2E/DX2                !
 ! A41   A(17,21,24)           120.1135         estimate D2E/DX2                !
 ! A42   A(19,21,24)           120.1137         estimate D2E/DX2                !
 ! A43   A(1,25,26)            122.6484         estimate D2E/DX2                !
 ! A44   A(1,25,27)            118.32           estimate D2E/DX2                !
 ! A45   A(26,25,27)           119.0305         estimate D2E/DX2                !
 ! A46   A(25,26,28)           120.414          estimate D2E/DX2                !
 ! A47   A(25,26,29)           119.9012         estimate D2E/DX2                !
 ! A48   A(28,26,29)           119.6824         estimate D2E/DX2                !
 ! A49   A(25,27,30)           120.4582         estimate D2E/DX2                !
 ! A50   A(25,27,31)           119.9201         estimate D2E/DX2                !
 ! A51   A(30,27,31)           119.6213         estimate D2E/DX2                !
 ! A52   A(26,28,32)           120.2437         estimate D2E/DX2                !
 ! A53   A(26,28,33)           119.7267         estimate D2E/DX2                !
 ! A54   A(32,28,33)           120.0296         estimate D2E/DX2                !
 ! A55   A(27,30,32)           120.1495         estimate D2E/DX2                !
 ! A56   A(27,30,34)           119.8625         estimate D2E/DX2                !
 ! A57   A(32,30,34)           119.988          estimate D2E/DX2                !
 ! A58   A(28,32,30)           119.7039         estimate D2E/DX2                !
 ! A59   A(28,32,35)           120.1801         estimate D2E/DX2                !
 ! A60   A(30,32,35)           120.1159         estimate D2E/DX2                !
 ! D1    D(2,1,3,4)            -18.2913         estimate D2E/DX2                !
 ! D2    D(2,1,3,5)            161.8855         estimate D2E/DX2                !
 ! D3    D(14,1,3,4)          -135.4704         estimate D2E/DX2                !
 ! D4    D(14,1,3,5)            44.7065         estimate D2E/DX2                !
 ! D5    D(25,1,3,4)            98.1822         estimate D2E/DX2                !
 ! D6    D(25,1,3,5)           -81.641          estimate D2E/DX2                !
 ! D7    D(2,1,14,15)           -5.8296         estimate D2E/DX2                !
 ! D8    D(2,1,14,16)          173.1501         estimate D2E/DX2                !
 ! D9    D(3,1,14,15)          110.9483         estimate D2E/DX2                !
 ! D10   D(3,1,14,16)          -70.0719         estimate D2E/DX2                !
 ! D11   D(25,1,14,15)        -121.2648         estimate D2E/DX2                !
 ! D12   D(25,1,14,16)          57.715          estimate D2E/DX2                !
 ! D13   D(2,1,25,26)          149.9185         estimate D2E/DX2                !
 ! D14   D(2,1,25,27)          -30.4689         estimate D2E/DX2                !
 ! D15   D(3,1,25,26)           33.5401         estimate D2E/DX2                !
 ! D16   D(3,1,25,27)         -146.8473         estimate D2E/DX2                !
 ! D17   D(14,1,25,26)         -94.3188         estimate D2E/DX2                !
 ! D18   D(14,1,25,27)          85.2938         estimate D2E/DX2                !
 ! D19   D(1,3,4,6)           -179.8865         estimate D2E/DX2                !
 ! D20   D(1,3,4,7)              0.0513         estimate D2E/DX2                !
 ! D21   D(5,3,4,6)             -0.0564         estimate D2E/DX2                !
 ! D22   D(5,3,4,7)            179.8814         estimate D2E/DX2                !
 ! D23   D(1,3,5,8)           -179.9868         estimate D2E/DX2                !
 ! D24   D(1,3,5,9)             -0.4772         estimate D2E/DX2                !
 ! D25   D(4,3,5,8)              0.191          estimate D2E/DX2                !
 ! D26   D(4,3,5,9)            179.7005         estimate D2E/DX2                !
 ! D27   D(3,4,6,10)            -0.0753         estimate D2E/DX2                !
 ! D28   D(3,4,6,11)           179.9792         estimate D2E/DX2                !
 ! D29   D(7,4,6,10)           179.9866         estimate D2E/DX2                !
 ! D30   D(7,4,6,11)             0.0411         estimate D2E/DX2                !
 ! D31   D(3,5,8,10)            -0.1946         estimate D2E/DX2                !
 ! D32   D(3,5,8,12)           179.7635         estimate D2E/DX2                !
 ! D33   D(9,5,8,10)          -179.7018         estimate D2E/DX2                !
 ! D34   D(9,5,8,12)             0.2562         estimate D2E/DX2                !
 ! D35   D(4,6,10,8)             0.0735         estimate D2E/DX2                !
 ! D36   D(4,6,10,13)         -179.8787         estimate D2E/DX2                !
 ! D37   D(11,6,10,8)         -179.981          estimate D2E/DX2                !
 ! D38   D(11,6,10,13)           0.0667         estimate D2E/DX2                !
 ! D39   D(5,8,10,6)             0.0606         estimate D2E/DX2                !
 ! D40   D(5,8,10,13)         -179.9871         estimate D2E/DX2                !
 ! D41   D(12,8,10,6)         -179.8973         estimate D2E/DX2                !
 ! D42   D(12,8,10,13)           0.0549         estimate D2E/DX2                !
 ! D43   D(1,14,15,17)         178.7099         estimate D2E/DX2                !
 ! D44   D(1,14,15,18)          -1.2338         estimate D2E/DX2                !
 ! D45   D(16,14,15,17)         -0.299          estimate D2E/DX2                !
 ! D46   D(16,14,15,18)        179.7573         estimate D2E/DX2                !
 ! D47   D(1,14,16,19)        -178.5016         estimate D2E/DX2                !
 ! D48   D(1,14,16,20)           2.7801         estimate D2E/DX2                !
 ! D49   D(15,14,16,19)          0.478          estimate D2E/DX2                !
 ! D50   D(15,14,16,20)       -178.2403         estimate D2E/DX2                !
 ! D51   D(14,15,17,21)         -0.1155         estimate D2E/DX2                !
 ! D52   D(14,15,17,22)        179.973          estimate D2E/DX2                !
 ! D53   D(18,15,17,21)        179.8283         estimate D2E/DX2                !
 ! D54   D(18,15,17,22)         -0.0832         estimate D2E/DX2                !
 ! D55   D(14,16,19,21)         -0.2423         estimate D2E/DX2                !
 ! D56   D(14,16,19,23)        179.7998         estimate D2E/DX2                !
 ! D57   D(20,16,19,21)        178.4557         estimate D2E/DX2                !
 ! D58   D(20,16,19,23)         -1.5021         estimate D2E/DX2                !
 ! D59   D(15,17,21,19)          0.3554         estimate D2E/DX2                !
 ! D60   D(15,17,21,24)       -179.7457         estimate D2E/DX2                !
 ! D61   D(22,17,21,19)       -179.7333         estimate D2E/DX2                !
 ! D62   D(22,17,21,24)          0.1657         estimate D2E/DX2                !
 ! D63   D(16,19,21,17)         -0.1772         estimate D2E/DX2                !
 ! D64   D(16,19,21,24)        179.9238         estimate D2E/DX2                !
 ! D65   D(23,19,21,17)        179.7805         estimate D2E/DX2                !
 ! D66   D(23,19,21,24)         -0.1185         estimate D2E/DX2                !
 ! D67   D(1,25,26,28)         179.6644         estimate D2E/DX2                !
 ! D68   D(1,25,26,29)          -0.8965         estimate D2E/DX2                !
 ! D69   D(27,25,26,28)          0.0545         estimate D2E/DX2                !
 ! D70   D(27,25,26,29)        179.4936         estimate D2E/DX2                !
 ! D71   D(1,25,27,30)        -179.5763         estimate D2E/DX2                !
 ! D72   D(1,25,27,31)           0.1821         estimate D2E/DX2                !
 ! D73   D(26,25,27,30)          0.0506         estimate D2E/DX2                !
 ! D74   D(26,25,27,31)        179.809          estimate D2E/DX2                !
 ! D75   D(25,26,28,32)         -0.1151         estimate D2E/DX2                !
 ! D76   D(25,26,28,33)        179.8327         estimate D2E/DX2                !
 ! D77   D(29,26,28,32)       -179.5553         estimate D2E/DX2                !
 ! D78   D(29,26,28,33)          0.3924         estimate D2E/DX2                !
 ! D79   D(25,27,30,32)         -0.0959         estimate D2E/DX2                !
 ! D80   D(25,27,30,34)        179.916          estimate D2E/DX2                !
 ! D81   D(31,27,30,32)       -179.8549         estimate D2E/DX2                !
 ! D82   D(31,27,30,34)          0.157          estimate D2E/DX2                !
 ! D83   D(26,28,32,30)          0.0696         estimate D2E/DX2                !
 ! D84   D(26,28,32,35)       -179.9875         estimate D2E/DX2                !
 ! D85   D(33,28,32,30)       -179.878          estimate D2E/DX2                !
 ! D86   D(33,28,32,35)          0.0649         estimate D2E/DX2                !
 ! D87   D(27,30,32,28)          0.0354         estimate D2E/DX2                !
 ! D88   D(27,30,32,35)       -179.9075         estimate D2E/DX2                !
 ! D89   D(34,30,32,28)       -179.9765         estimate D2E/DX2                !
 ! D90   D(34,30,32,35)          0.0806         estimate D2E/DX2                !
 --------------------------------------------------------------------------------
 Trust Radius=3.00D-01 FncErr=1.00D-07 GrdErr=1.00D-07
 Number of steps in this run= 197 maximum allowed number of steps= 210.
 GradGradGradGradGradGradGradGradGradGradGradGradGradGradGradGradGradGrad

                          Input orientation:                          
 ---------------------------------------------------------------------
 Center     Atomic      Atomic             Coordinates (Angstroms)
 Number     Number       Type             X           Y           Z
 ---------------------------------------------------------------------
      1          6           0        0.142056    0.753915    0.041585
      2          1           0        0.287445    1.867385    0.090103
      3          6           0        1.520535    0.150774   -0.065912
      4          6           0        2.576004    0.973979   -0.470141
      5          6           0        1.781749   -1.190861    0.217396
      6          6           0        3.863516    0.463977   -0.586392
      7          1           0        2.390193    2.030106   -0.698974
      8          6           0        3.070798   -1.698827    0.103295
      9          1           0        0.958108   -1.847257    0.541565
     10          6           0        4.114344   -0.873470   -0.299250
     11          1           0        4.681886    1.118199   -0.904144
     12          1           0        3.262034   -2.752165    0.332407
     13          1           0        5.129088   -1.273952   -0.389140
     14          6           0       -0.587166    0.348925    1.299265
     15          6           0       -0.821472    1.309172    2.286540
     16          6           0       -1.052477   -0.952432    1.495058
     17          6           0       -1.514090    0.972189    3.443970
     18          1           0       -0.459289    2.335088    2.150400
     19          6           0       -1.747838   -1.287079    2.650705
     20          1           0       -0.841405   -1.714453    0.729407
     21          6           0       -1.981653   -0.324583    3.626876
     22          1           0       -1.692448    1.731552    4.212261
     23          1           0       -2.110544   -2.310421    2.791130
     24          1           0       -2.530434   -0.587288    4.536862
     25          6           0       -0.716510    0.486523   -1.171420
     26          6           0       -0.626704   -0.691785   -1.911694
     27          6           0       -1.642321    1.461484   -1.557034
     28          6           0       -1.445801   -0.892608   -3.017891
     29          1           0        0.100516   -1.462795   -1.626808
     30          6           0       -2.460884    1.257882   -2.660859
     31          1           0       -1.727380    2.391980   -0.983638
     32          6           0       -2.364311    0.079940   -3.394539
     33          1           0       -1.363915   -1.820831   -3.592687
     34          1           0       -3.183127    2.027001   -2.953214
     35          1           0       -3.008503   -0.079265   -4.265087
 ---------------------------------------------------------------------
                    Distance matrix (angstroms):
                    1          2          3          4          5
     1  C    0.000000
     2  H    1.123970   0.000000
     3  C    1.508489   2.119341   0.000000
     4  C    2.496876   2.519832   1.398242   0.000000
     5  C    2.549835   3.406174   1.395880   2.406258   0.000000
     6  C    3.785192   3.900703   2.420445   1.389713   2.778185
     7  H    2.689090   2.251815   2.165401   1.096492   3.403611
     8  C    3.820639   4.523837   2.419291   2.778046   1.390214
     9  H    2.771645   3.801601   2.162748   3.405952   1.101965
    10  C    4.306230   4.723245   2.798458   2.410137   2.410116
    11  H    4.651575   4.567376   3.410671   2.154970   3.873035
    12  H    4.702280   5.499740   3.408597   3.872838   2.154563
    13  H    5.400764   5.791303   3.893067   3.402645   3.402861
    14  C    1.509153   2.129022   2.519003   3.677925   3.025416
    15  C    2.505299   2.523021   3.515809   4.387994   4.160323
    16  C    2.539905   3.423545   3.205321   4.554003   3.118029
    17  C    3.790341   3.910923   4.711999   5.661195   5.094322
    18  H    2.703484   2.240798   3.688220   4.234720   4.603376
    19  C    3.813773   4.544194   4.486612   5.792035   4.288151
    20  H    2.744656   3.809538   3.112935   4.510573   2.723462
    21  C    4.304372   4.739440   5.111553   6.264508   5.151523
    22  H    4.660013   4.574998   5.578967   6.381104   6.047271
    23  H    4.693012   5.522677   5.234969   6.586874   4.798695
    24  H    5.398940   5.808573   6.175809   7.320064   6.133271
    25  C    1.509972   2.122769   2.517786   3.401478   3.314170
    26  C    2.548791   3.375235   2.954226   3.887181   3.253113
    27  C    2.498047   2.569399   3.734310   4.383294   4.680576
    28  C    3.820042   4.503480   4.313001   5.113716   4.579641
    29  H    2.774719   3.751377   2.656399   3.661118   2.510295
    30  C    3.785826   3.936064   4.879666   5.500007   5.681604
    31  H    2.688704   2.342570   4.051441   4.559991   5.156861
    32  C    4.306166   4.729641   5.116328   5.810174   5.643653
    33  H    4.701617   5.467438   4.964416   5.751888   4.980843
    34  H    4.652570   4.618671   5.829338   6.359410   6.712481
    35  H    5.400707   5.798311   6.180468   6.833568   6.653933
                    6          7          8          9         10
     6  C    0.000000
     7  H    2.153164   0.000000
     8  C    2.404535   3.874506   0.000000
     9  H    3.880139   4.315524   2.162770   0.000000
    10  C    1.390729   3.400475   1.390052   3.408381   0.000000
    11  H    1.094852   2.474980   3.397965   4.974989   2.157485
    12  H    3.398462   4.969303   1.094799   2.484086   2.157526
    13  H    2.158930   4.302830   2.158603   4.311840   1.094610
    14  C    4.835029   3.960302   4.359396   2.790196   5.114069
    15  C    5.560324   4.443853   5.381857   4.021801   5.984356
    16  C    5.523190   5.055817   4.415372   2.398398   5.470084
    17  C    6.739491   5.790215   6.270218   4.741834   7.006955
    18  H    5.447727   4.041224   5.737998   4.699933   6.100307
    19  C    6.710610   6.272748   5.466086   3.476265   6.575598
    20  H    5.349128   5.148322   3.962019   1.814158   5.130774
    21  C    7.248411   6.585634   6.311215   4.525470   7.271653
    22  H    7.450003   6.393537   7.165166   5.771250   7.801198
    23  H    7.402319   7.160840   5.868970   3.832974   7.096796
    24  H    8.260477   7.647045   7.229512   5.451591   8.223318
    25  C    4.617294   3.501065   4.554597   3.344426   5.093860
    26  C    4.822269   4.240406   4.329646   3.140894   5.011040
    27  C    5.679032   4.161822   5.912508   4.702564   6.338235
    28  C    5.995111   5.351119   5.549005   4.399983   6.189231
    29  H    4.353744   4.278300   3.445511   2.363285   4.268552
    30  C    6.703113   5.289448   6.854355   5.620223   7.304346
    31  H    5.927319   4.143234   6.398330   5.244922   6.727353
    32  C    6.842441   5.802975   6.703676   5.499588   7.243119
    33  H    6.448581   6.107096   5.774241   4.741785   6.461853
    34  H    7.596056   6.011947   7.895291   6.661319   8.289110
    35  H    7.813614   6.805331   7.659220   6.477939   8.191067
                   11         12         13         14         15
    11  H    0.000000
    12  H    4.304039   0.000000
    13  H    2.487489   2.488299   0.000000
    14  C    5.762786   5.036658   6.177378   0.000000
    15  C    6.364267   6.081786   7.017191   1.397028   0.000000
    16  C    6.551839   4.817240   6.470341   1.395844   2.407210
    17  C    7.570834   6.809112   7.991852   2.418141   1.390295
    18  H    6.102683   6.559992   7.120701   2.164630   1.096455
    19  C    7.730696   5.711375   7.518839   2.418690   2.780520
    20  H    6.418656   4.251197   6.090318   2.155668   3.401083
    21  C    8.186240   6.651537   8.221456   2.795708   2.410742
    22  H    8.196702   7.726828   8.760096   3.408643   2.155319
    23  H    8.458581   5.924952   7.975002   3.408587   3.875277
    24  H    9.194063   7.477756   9.132649   3.890350   3.403095
    25  C    5.441794   5.345971   6.154855   2.477891   3.556017
    26  C    5.698448   4.939984   5.982158   3.375632   4.654775
    27  C    6.367080   6.736285   7.395848   3.241848   3.933199
    28  C    6.786738   6.070104   7.091185   4.573455   5.777077
    29  H    5.307798   3.936521   5.182086   3.509578   4.883458
    30  C    7.356950   7.602099   8.317364   4.474327   5.212203
    31  H    6.535099   7.286182   7.797668   3.268914   3.561911
    32  C    7.545126   7.318928   8.186359   5.026171   6.013820
    33  H    7.240018   6.137846   7.260914   5.407622   6.682550
    34  H    8.178205   8.670400   9.303961   5.257235   5.792039
    35  H    8.477732   8.221982   9.092339   6.083439   7.045189
                   16         17         18         19         20
    16  C    0.000000
    17  C    2.777681   0.000000
    18  H    3.404281   2.154860   0.000000
    19  C    1.389617   2.405868   3.876952   0.000000
    20  H    1.100658   3.878066   4.308597   2.166946   0.000000
    21  C    2.408778   1.390571   3.401679   1.390676   3.409873
    22  H    3.872534   1.094858   2.477137   3.399067   4.972876
    23  H    2.154865   3.399630   4.971713   1.094762   2.493310
    24  H    3.401508   2.158550   4.304082   2.158646   4.315094
    25  C    3.048536   4.708909   3.810228   4.337965   2.910848
    26  C    3.443135   5.677974   5.068588   4.735694   2.840310
    27  C    3.935755   5.026518   3.988459   5.027006   3.994478
    28  C    4.530451   6.725903   6.172718   5.690326   3.883680
    29  H    3.366885   5.852255   5.385591   4.663090   2.549961
    30  C    4.913323   6.184414   5.321181   5.932788   4.790761
    31  H    4.217169   4.654568   3.381343   5.171493   4.536768
    32  C    5.166707   6.948682   6.281811   6.228463   4.748265
    33  H    5.170712   7.572189   7.146542   6.277916   4.354863
    34  H    5.762275   6.694943   5.793192   6.666864   5.748377
    35  H    6.145546   7.922650   7.313416   7.132760   5.684640
                   21         22         23         24         25
    21  C    0.000000
    22  H    2.157314   0.000000
    23  H    2.158387   4.304876   0.000000
    24  H    1.094645   2.486886   2.488589   0.000000
    25  C    5.028134   5.611290   5.046586   6.085053   0.000000
    26  C    5.713710   6.671671   5.190214   6.724506   1.394446
    27  C    5.493460   5.775830   5.775208   6.490129   1.398705
    28  C    6.690495   7.695593   6.016378   7.638321   2.417297
    29  H    5.764734   6.892989   5.012528   6.758642   2.162117
    30  C    6.501498   6.932145   6.525313   7.430793   2.419972
    31  H    5.357351   5.237819   6.042207   6.324306   2.165152
    32  C    7.043461   7.812978   6.636319   7.961150   2.796930
    33  H    7.398815   8.581642   6.445951   8.304936   3.406692
    34  H    7.090209   7.324851   7.277441   7.960009   3.410581
    35  H    7.962267   8.767924   7.454837   8.829550   3.891546
                   26         27         28         29         30
    26  C    0.000000
    27  C    2.407038   0.000000
    28  C    1.391015   2.777495   0.000000
    29  H    1.097481   3.404961   2.156692   0.000000
    30  C    2.779688   1.389219   2.404677   3.877126   0.000000
    31  H    3.403289   1.096284   3.873756   4.314412   2.153434
    32  C    2.411155   2.409639   1.389739   3.402980   1.391100
    33  H    2.154986   3.872337   1.094849   2.477383   3.398546
    34  H    3.874514   2.154811   3.398029   4.971955   1.094829
    35  H    3.403911   3.402046   2.158487   4.305888   2.159026
                   31         32         33         34         35
    31  H    0.000000
    32  C    3.400537   0.000000
    33  H    4.968603   2.157078   0.000000
    34  H    2.476215   2.157840   4.303983   0.000000
    35  H    4.303049   1.094616   2.487940   2.487541   0.000000
 Stoichiometry    C19H16
 Framework group  C1[X(C19H16)]
 Deg. of freedom    99
 Full point group                 C1      NOp   1
 Largest Abelian subgroup         C1      NOp   1
 Largest concise Abelian subgroup C1      NOp   1
                         Standard orientation:                         
 ---------------------------------------------------------------------
 Center     Atomic      Atomic             Coordinates (Angstroms)
 Number     Number       Type             X           Y           Z
 ---------------------------------------------------------------------
      1          6           0       -0.022724   -0.012903   -0.753929
      2          1           0       -0.000041   -0.006564   -1.877652
      3          6           0       -1.457558   -0.261691   -0.360364
      4          6           0       -2.455807   -0.040240   -1.314062
      5          6           0       -1.826195   -0.698596    0.913096
      6          6           0       -3.792365   -0.253096   -0.998453
      7          1           0       -2.186051    0.304931   -2.319241
      8          6           0       -3.163459   -0.913726    1.226370
      9          1           0       -1.047092   -0.880966    1.670768
     10          6           0       -4.149540   -0.691093    0.272261
     11          1           0       -4.565201   -0.075956   -1.753467
     12          1           0       -3.437996   -1.260160    2.227967
     13          1           0       -5.202338   -0.860423    0.519476
     14          6           0        0.915618   -1.104154   -0.299805
     15          6           0        1.500409   -1.937485   -1.256500
     16          6           0        1.232078   -1.291226    1.046760
     17          6           0        2.389547   -2.934208   -0.870630
     18          1           0        1.259614   -1.806675   -2.318159
     19          6           0        2.123765   -2.285426    1.430813
     20          1           0        0.747917   -0.652833    1.801407
     21          6           0        2.705820   -3.107900    0.472311
     22          1           0        2.842443   -3.582652   -1.627677
     23          1           0        2.366404   -2.420085    2.489820
     24          1           0        3.409256   -3.890421    0.774115
     25          6           0        0.487304    1.336426   -0.307614
     26          6           0        0.069187    1.945046    0.875281
     27          6           0        1.422587    1.992385   -1.114668
     28          6           0        0.574963    3.186921    1.245224
     29          1           0       -0.670345    1.446899    1.515130
     30          6           0        1.928018    3.231623   -0.742164
     31          1           0        1.763801    1.525787   -2.046171
     32          6           0        1.504958    3.832357    0.439063
     33          1           0        0.236791    3.655762    2.175021
     34          1           0        2.660772    3.735775   -1.380564
     35          1           0        1.902433    4.809498    0.731284
 ---------------------------------------------------------------------
 Rotational constants (GHZ):      0.3999993      0.3719978      0.2369117
 Standard basis: 6-311G (5D, 7F)
 There are   295 symmetry adapted basis functions of A   symmetry.
 Integral buffers will be    262144 words long.
 Raffenetti 1 integral format.
 Two-electron integral symmetry is turned on.
   295 basis functions,   574 primitive gaussians,   295 cartesian basis functions
    65 alpha electrons       65 beta electrons
       nuclear repulsion energy      1288.3515588890 Hartrees.
 NAtoms=   35 NActive=   35 NUniq=   35 SFac= 7.50D-01 NAtFMM=   80 NAOKFM=F Big=F
 One-electron integrals computed using PRISM.
 PrsmSu:  requested number of processors reduced to:  10 ShMem   1 Linda.
 NBasis=   295 RedAO= T  NBF=   295
 NBsUse=   295 1.00D-06 NBFU=   295
 Harris functional with IExCor=  205 diagonalized for initial guess.
 ExpMin= 1.03D-01 ExpMax= 4.56D+03 ExpMxC= 6.82D+02 IAcc=1 IRadAn=         1 AccDes= 0.00D+00
 HarFok:  IExCor=  205 AccDes= 0.00D+00 IRadAn=         1 IDoV= 1
 ScaDFX=  1.000000  1.000000  1.000000  1.000000
 FoFCou: FMM=F IPFlag=           0 FMFlag=      100000 FMFlg1=           0
         NFxFlg=           0 DoJE=T BraDBF=F KetDBF=T FulRan=T
         Omega=  0.000000  0.000000  1.000000  0.000000  0.000000 ICntrl=     500 IOpCl=  0
         NMat0=    1 NMatS0=    1 NMatT0=    0 NMatD0=    1 NMtDS0=    0 NMtDT0=    0
         I1Cent=           4 NGrid=           0.
 Petite list used in FoFCou.
 Initial guess orbital symmetries:
       Occupied  (A) (A) (A) (A) (A) (A) (A) (A) (A) (A) (A) (A)
                 (A) (A) (A) (A) (A) (A) (A) (A) (A) (A) (A) (A)
                 (A) (A) (A) (A) (A) (A) (A) (A) (A) (A) (A) (A)
                 (A) (A) (A) (A) (A) (A) (A) (A) (A) (A) (A) (A)
                 (A) (A) (A) (A) (A) (A) (A) (A) (A) (A) (A) (A)
                 (A) (A) (A) (A) (A)
       Virtual   (A) (A) (A) (A) (A) (A) (A) (A) (A) (A) (A) (A)
                 (A) (A) (A) (A) (A) (A) (A) (A) (A) (A) (A) (A)
                 (A) (A) (A) (A) (A) (A) (A) (A) (A) (A) (A) (A)
                 (A) (A) (A) (A) (A) (A) (A) (A) (A) (A) (A) (A)
                 (A) (A) (A) (A) (A) (A) (A) (A) (A) (A) (A) (A)
                 (A) (A) (A) (A) (A) (A) (A) (A) (A) (A) (A) (A)
                 (A) (A) (A) (A) (A) (A) (A) (A) (A) (A) (A) (A)
                 (A) (A) (A) (A) (A) (A) (A) (A) (A) (A) (A) (A)
                 (A) (A) (A) (A) (A) (A) (A) (A) (A) (A) (A) (A)
                 (A) (A) (A) (A) (A) (A) (A) (A) (A) (A) (A) (A)
                 (A) (A) (A) (A) (A) (A) (A) (A) (A) (A) (A) (A)
                 (A) (A) (A) (A) (A) (A) (A) (A) (A) (A) (A) (A)
                 (A) (A) (A) (A) (A) (A) (A) (A) (A) (A) (A) (A)
                 (A) (A) (A) (A) (A) (A) (A) (A) (A) (A) (A) (A)
                 (A) (A) (A) (A) (A) (A) (A) (A) (A) (A) (A) (A)
                 (A) (A) (A) (A) (A) (A) (A) (A) (A) (A) (A) (A)
                 (A) (A) (A) (A) (A) (A) (A) (A) (A) (A) (A) (A)
                 (A) (A) (A) (A) (A) (A) (A) (A) (A) (A) (A) (A)
                 (A) (A) (A) (A) (A) (A) (A) (A) (A) (A) (A) (A)
                 (A) (A)
 The electronic state of the initial guess is 1-A.
 Requested convergence on RMS density matrix=1.00D-08 within 128 cycles.
 Requested convergence on MAX density matrix=1.00D-06.
 Requested convergence on             energy=1.00D-06.
 No special actions if energy rises.
 Integral accuracy reduced to 1.0D-05 until final iterations.
 Initial convergence to 1.0D-05 achieved.  Increase integral accuracy.
 SCF Done:  E(RHF) =  -728.671706888     A.U. after   14 cycles
             Convg  =    0.6168D-08             -V/T =  2.0001

 **********************************************************************

            Population analysis using the SCF density.

 **********************************************************************

 Orbital symmetries:
       Occupied  (A) (A) (A) (A) (A) (A) (A) (A) (A) (A) (A) (A)
                 (A) (A) (A) (A) (A) (A) (A) (A) (A) (A) (A) (A)
                 (A) (A) (A) (A) (A) (A) (A) (A) (A) (A) (A) (A)
                 (A) (A) (A) (A) (A) (A) (A) (A) (A) (A) (A) (A)
                 (A) (A) (A) (A) (A) (A) (A) (A) (A) (A) (A) (A)
                 (A) (A) (A) (A) (A)
       Virtual   (A) (A) (A) (A) (A) (A) (A) (A) (A) (A) (A) (A)
                 (A) (A) (A) (A) (A) (A) (A) (A) (A) (A) (A) (A)
                 (A) (A) (A) (A) (A) (A) (A) (A) (A) (A) (A) (A)
                 (A) (A) (A) (A) (A) (A) (A) (A) (A) (A) (A) (A)
                 (A) (A) (A) (A) (A) (A) (A) (A) (A) (A) (A) (A)
                 (A) (A) (A) (A) (A) (A) (A) (A) (A) (A) (A) (A)
                 (A) (A) (A) (A) (A) (A) (A) (A) (A) (A) (A) (A)
                 (A) (A) (A) (A) (A) (A) (A) (A) (A) (A) (A) (A)
                 (A) (A) (A) (A) (A) (A) (A) (A) (A) (A) (A) (A)
                 (A) (A) (A) (A) (A) (A) (A) (A) (A) (A) (A) (A)
                 (A) (A) (A) (A) (A) (A) (A) (A) (A) (A) (A) (A)
                 (A) (A) (A) (A) (A) (A) (A) (A) (A) (A) (A) (A)
                 (A) (A) (A) (A) (A) (A) (A) (A) (A) (A) (A) (A)
                 (A) (A) (A) (A) (A) (A) (A) (A) (A) (A) (A) (A)
                 (A) (A) (A) (A) (A) (A) (A) (A) (A) (A) (A) (A)
                 (A) (A) (A) (A) (A) (A) (A) (A) (A) (A) (A) (A)
                 (A) (A) (A) (A) (A) (A) (A) (A) (A) (A) (A) (A)
                 (A) (A) (A) (A) (A) (A) (A) (A) (A) (A) (A) (A)
                 (A) (A) (A) (A) (A) (A) (A) (A) (A) (A) (A) (A)
                 (A) (A)
 The electronic state is 1-A.
 Alpha  occ. eigenvalues --  -11.25832 -11.25273 -11.25263 -11.25133 -11.24448
 Alpha  occ. eigenvalues --  -11.24431 -11.24355 -11.24350 -11.24211 -11.24191
 Alpha  occ. eigenvalues --  -11.24128 -11.24116 -11.24111 -11.24052 -11.24026
 Alpha  occ. eigenvalues --  -11.24019 -11.23915 -11.23835 -11.23741  -1.18591
 Alpha  occ. eigenvalues --   -1.15826  -1.15682  -1.09037  -1.02412  -1.02114
 Alpha  occ. eigenvalues --   -1.01888  -1.01499  -1.01390  -0.92963  -0.84539
 Alpha  occ. eigenvalues --   -0.82938  -0.82541  -0.81710  -0.81566  -0.77736
 Alpha  occ. eigenvalues --   -0.70730  -0.70449  -0.69110  -0.66001  -0.63614
 Alpha  occ. eigenvalues --   -0.63499  -0.62371  -0.62037  -0.61903  -0.59570
 Alpha  occ. eigenvalues --   -0.58772  -0.58517  -0.58432  -0.57618  -0.53910
 Alpha  occ. eigenvalues --   -0.51742  -0.51082  -0.50858  -0.49673  -0.49164
 Alpha  occ. eigenvalues --   -0.48682  -0.47794  -0.47471  -0.46766  -0.34691
 Alpha  occ. eigenvalues --   -0.34244  -0.33698  -0.33590  -0.33280  -0.31180
 Alpha virt. eigenvalues --    0.11654   0.12011   0.13590   0.13741   0.14045
 Alpha virt. eigenvalues --    0.14933   0.15135   0.16275   0.16374   0.16878
 Alpha virt. eigenvalues --    0.18805   0.19134   0.19284   0.21286   0.21419
 Alpha virt. eigenvalues --    0.21511   0.23644   0.24242   0.24981   0.27181
 Alpha virt. eigenvalues --    0.28524   0.29491   0.34029   0.34191   0.35878
 Alpha virt. eigenvalues --    0.37446   0.38516   0.39675   0.40946   0.43683
 Alpha virt. eigenvalues --    0.44100   0.44379   0.45036   0.45398   0.45577
 Alpha virt. eigenvalues --    0.45873   0.46405   0.48419   0.49912   0.50382
 Alpha virt. eigenvalues --    0.50794   0.51013   0.51450   0.54985   0.55778
 Alpha virt. eigenvalues --    0.56805   0.57909   0.58955   0.59059   0.59608
 Alpha virt. eigenvalues --    0.59681   0.60665   0.61065   0.61499   0.61696
 Alpha virt. eigenvalues --    0.61852   0.62380   0.62470   0.63284   0.63460
 Alpha virt. eigenvalues --    0.64124   0.64995   0.65159   0.65421   0.66900
 Alpha virt. eigenvalues --    0.67408   0.68214   0.68442   0.70104   0.71381
 Alpha virt. eigenvalues --    0.72343   0.73802   0.74452   0.75074   0.76215
 Alpha virt. eigenvalues --    0.77285   0.78314   0.78637   0.80472   0.81188
 Alpha virt. eigenvalues --    0.81862   0.82192   0.82342   0.82822   0.82904
 Alpha virt. eigenvalues --    0.83523   0.83914   0.84052   0.84780   0.85605
 Alpha virt. eigenvalues --    0.86044   0.86386   0.86910   0.87463   0.88062
 Alpha virt. eigenvalues --    0.89653   0.90560   0.91263   0.92976   0.94429
 Alpha virt. eigenvalues --    0.96094   0.96855   0.97671   0.98119   0.98938
 Alpha virt. eigenvalues --    0.99327   1.00291   1.02790   1.05759   1.06237
 Alpha virt. eigenvalues --    1.06807   1.07137   1.08010   1.08383   1.10491
 Alpha virt. eigenvalues --    1.11088   1.12219   1.12487   1.12974   1.14259
 Alpha virt. eigenvalues --    1.14646   1.15369   1.18587   1.19544   1.21719
 Alpha virt. eigenvalues --    1.25345   1.26736   1.27675   1.28227   1.28870
 Alpha virt. eigenvalues --    1.30339   1.35159   1.39549   1.45208   1.46596
 Alpha virt. eigenvalues --    1.51647   1.52267   1.56490   2.54619   2.55620
 Alpha virt. eigenvalues --    2.56168   2.59197   2.61964   2.62498   2.64472
 Alpha virt. eigenvalues --    2.67005   2.67710   2.68444   2.72318   2.76770
 Alpha virt. eigenvalues --    2.77784   2.83494   2.87930   2.88650   2.94128
 Alpha virt. eigenvalues --    2.94271   2.94419   2.97075   2.97453   2.98029
 Alpha virt. eigenvalues --    3.00364   3.00760   3.04044   3.05735   3.07127
 Alpha virt. eigenvalues --    3.08138   3.08431   3.08986   3.09975   3.14330
 Alpha virt. eigenvalues --    3.14763   3.16347   3.16832   3.17577   3.18807
 Alpha virt. eigenvalues --    3.22654   3.25641   3.25824   3.28294   3.28913
 Alpha virt. eigenvalues --    3.30924   3.33383   3.34269   3.35144   3.42632
 Alpha virt. eigenvalues --    3.43063   3.44428   3.46963   3.49476   3.52236
 Alpha virt. eigenvalues --    3.53447   3.54449   3.59259   3.60650   3.60668
 Alpha virt. eigenvalues --    3.63142   3.63485   3.63783   3.65974   3.66661
 Alpha virt. eigenvalues --    3.68385   3.70287   3.70460   3.71426   3.73493
 Alpha virt. eigenvalues --    3.74184   3.75560   3.80869   3.85855   3.86650
 Alpha virt. eigenvalues --    3.93048  24.24825  24.30686  24.31552  24.50539
 Alpha virt. eigenvalues --   24.50836  24.51118  24.53988  24.54670  24.56096
 Alpha virt. eigenvalues --   24.77289  24.78605  24.79140  24.79612  24.80639
 Alpha virt. eigenvalues --   24.81843  24.83232  25.05543  25.05808  25.06129
          Condensed to atoms (all electrons):
              1          2          3          4          5          6
     1  C    5.828795   0.463591   0.171289  -0.045206  -0.045882   0.008272
     2  H    0.463591   0.512432  -0.073699   0.002798   0.005110   0.001517
     3  C    0.171289  -0.073699   5.366476   0.495113   0.450131  -0.071550
     4  C   -0.045206   0.002798   0.495113   5.040977  -0.061500   0.471687
     5  C   -0.045882   0.005110   0.450131  -0.061500   5.121768  -0.031239
     6  C    0.008272   0.001517  -0.071550   0.471687  -0.031239   5.044556
     7  H   -0.000719   0.002690  -0.045666   0.394458   0.004753  -0.034684
     8  C    0.003571  -0.000276  -0.064380  -0.036131   0.473425  -0.075115
     9  H   -0.000301  -0.000140  -0.053074   0.004501   0.386576  -0.000211
    10  C    0.001135  -0.000016  -0.017781  -0.086720  -0.094848   0.494659
    11  H   -0.000389  -0.000029   0.007151  -0.039671  -0.000599   0.396664
    12  H   -0.000295   0.000014   0.006028  -0.000393  -0.036755   0.005897
    13  H   -0.000019  -0.000001  -0.001593   0.007489   0.008124  -0.042956
    14  C    0.185465  -0.074245  -0.112487   0.001951  -0.004584  -0.000680
    15  C   -0.026194   0.002084  -0.000351   0.000195   0.001490  -0.000004
    16  C   -0.054388   0.005546  -0.006281   0.000221  -0.017202   0.000029
    17  C    0.007684   0.001759  -0.000602  -0.000009   0.000125   0.000001
    18  H   -0.000485   0.002423   0.000558   0.000136   0.000002   0.000003
    19  C    0.001403  -0.000283   0.001778   0.000028  -0.001736  -0.000001
    20  H    0.003108   0.000067  -0.003189  -0.000197   0.000304   0.000016
    21  C    0.001272  -0.000013  -0.000035  -0.000001   0.000045   0.000000
    22  H   -0.000368  -0.000037   0.000020   0.000000  -0.000001   0.000000
    23  H   -0.000319   0.000012   0.000008   0.000000   0.000016   0.000000
    24  H   -0.000013  -0.000001  -0.000001   0.000000   0.000001   0.000000
    25  C    0.158327  -0.059902  -0.104315  -0.001437  -0.005921  -0.000715
    26  C   -0.040260   0.004921  -0.014307   0.001919  -0.007350   0.000223
    27  C   -0.049760  -0.003226   0.006301   0.000454  -0.000176   0.000003
    28  C    0.004785  -0.000249   0.000533  -0.000087   0.000017  -0.000003
    29  H   -0.001586  -0.000066  -0.003185  -0.000877   0.001143  -0.000135
    30  C    0.006268   0.001552  -0.000757  -0.000017   0.000025   0.000001
    31  H    0.001764   0.001079   0.000691   0.000013  -0.000038   0.000001
    32  C    0.000991   0.000009   0.000045  -0.000013  -0.000019   0.000000
    33  H   -0.000325   0.000013   0.000037   0.000007   0.000028   0.000001
    34  H   -0.000351  -0.000027   0.000011   0.000001   0.000000   0.000000
    35  H   -0.000012  -0.000002  -0.000001   0.000000   0.000001   0.000000
              7          8          9         10         11         12
     1  C   -0.000719   0.003571  -0.000301   0.001135  -0.000389  -0.000295
     2  H    0.002690  -0.000276  -0.000140  -0.000016  -0.000029   0.000014
     3  C   -0.045666  -0.064380  -0.053074  -0.017781   0.007151   0.006028
     4  C    0.394458  -0.036131   0.004501  -0.086720  -0.039671  -0.000393
     5  C    0.004753   0.473425   0.386576  -0.094848  -0.000599  -0.036755
     6  C   -0.034684  -0.075115  -0.000211   0.494659   0.396664   0.005897
     7  H    0.507709  -0.000400  -0.000243   0.005351  -0.004218   0.000022
     8  C   -0.000400   5.056429  -0.025320   0.495865   0.006230   0.395573
     9  H   -0.000243  -0.025320   0.498446   0.004794   0.000020  -0.003438
    10  C    0.005351   0.495865   0.004794   5.030294  -0.041066  -0.039644
    11  H   -0.004218   0.006230   0.000020  -0.041066   0.517951  -0.000212
    12  H    0.000022   0.395573  -0.003438  -0.039644  -0.000212   0.515471
    13  H   -0.000183  -0.042543  -0.000183   0.399169  -0.004550  -0.004355
    14  C    0.000363   0.001540  -0.003007   0.000021   0.000014   0.000011
    15  C   -0.000022   0.000042  -0.000259  -0.000011   0.000001   0.000002
    16  C   -0.000026  -0.000013   0.002872  -0.000004   0.000000   0.000031
    17  C    0.000001   0.000000  -0.000138   0.000000   0.000000   0.000000
    18  H   -0.000025   0.000003  -0.000005  -0.000001   0.000000   0.000000
    19  C    0.000002  -0.000089   0.001157   0.000001   0.000000   0.000000
    20  H   -0.000007   0.000862   0.003449  -0.000012   0.000000  -0.000053
    21  C    0.000000   0.000003   0.000079   0.000000   0.000000  -0.000001
    22  H    0.000000   0.000000   0.000000   0.000000   0.000000   0.000000
    23  H    0.000000   0.000001  -0.000105   0.000000   0.000000   0.000001
    24  H    0.000000   0.000000   0.000000   0.000000   0.000000   0.000000
    25  C    0.000478   0.000881  -0.000501   0.000024   0.000021  -0.000007
    26  C    0.000183  -0.001493   0.000328   0.000081  -0.000001   0.000013
    27  C    0.000120   0.000023  -0.000029  -0.000001   0.000000  -0.000001
    28  C    0.000009  -0.000031   0.000053   0.000004   0.000000   0.000001
    29  H   -0.000037   0.000956   0.000155   0.000048   0.000001  -0.000003
    30  C   -0.000008   0.000000   0.000006   0.000000   0.000000   0.000000
    31  H    0.000004   0.000000   0.000007   0.000000   0.000000   0.000000
    32  C   -0.000004   0.000000   0.000001   0.000000   0.000000   0.000000
    33  H    0.000000  -0.000001  -0.000017  -0.000001   0.000000   0.000000
    34  H    0.000000   0.000000   0.000000   0.000000   0.000000   0.000000
    35  H    0.000000   0.000000   0.000000   0.000000   0.000000   0.000000
             13         14         15         16         17         18
     1  C   -0.000019   0.185465  -0.026194  -0.054388   0.007684  -0.000485
     2  H   -0.000001  -0.074245   0.002084   0.005546   0.001759   0.002423
     3  C   -0.001593  -0.112487  -0.000351  -0.006281  -0.000602   0.000558
     4  C    0.007489   0.001951   0.000195   0.000221  -0.000009   0.000136
     5  C    0.008124  -0.004584   0.001490  -0.017202   0.000125   0.000002
     6  C   -0.042956  -0.000680  -0.000004   0.000029   0.000001   0.000003
     7  H   -0.000183   0.000363  -0.000022  -0.000026   0.000001  -0.000025
     8  C   -0.042543   0.001540   0.000042  -0.000013   0.000000   0.000003
     9  H   -0.000183  -0.003007  -0.000259   0.002872  -0.000138  -0.000005
    10  C    0.399169   0.000021  -0.000011  -0.000004   0.000000  -0.000001
    11  H   -0.004550   0.000014   0.000001   0.000000   0.000000   0.000000
    12  H   -0.004355   0.000011   0.000002   0.000031   0.000000   0.000000
    13  H    0.517650  -0.000002   0.000000   0.000001   0.000000   0.000000
    14  C   -0.000002   5.374835   0.503663   0.438907  -0.072802  -0.046628
    15  C    0.000000   0.503663   5.069922  -0.065384   0.459835   0.395702
    16  C    0.000001   0.438907  -0.065384   5.095283  -0.029625   0.004632
    17  C    0.000000  -0.072802   0.459835  -0.029625   5.054854  -0.035026
    18  H    0.000000  -0.046628   0.395702   0.004632  -0.035026   0.510856
    19  C    0.000000  -0.061696  -0.033484   0.479206  -0.076817  -0.000238
    20  H    0.000000  -0.048516   0.004047   0.388552  -0.000169  -0.000260
    21  C    0.000000  -0.017875  -0.086331  -0.092123   0.497001   0.005162
    22  H    0.000000   0.007063  -0.039706  -0.000618   0.396776  -0.004174
    23  H    0.000000   0.006070  -0.000449  -0.039049   0.005998   0.000024
    24  H    0.000000  -0.001594   0.007536   0.008021  -0.042754  -0.000186
    25  C    0.000001  -0.154496  -0.005706  -0.007650  -0.000464   0.000151
    26  C    0.000000  -0.014079  -0.000315  -0.000096   0.000048  -0.000048
    27  C    0.000000   0.000683   0.002043   0.000808  -0.000098   0.000251
    28  C    0.000000   0.000645   0.000028  -0.000665  -0.000001   0.000000
    29  H    0.000000  -0.001047  -0.000082   0.000494   0.000002   0.000000
    30  C    0.000000  -0.000422  -0.000036   0.000193   0.000006  -0.000006
    31  H    0.000000   0.000548   0.001425  -0.000051   0.000030   0.000254
    32  C    0.000000   0.000074  -0.000003   0.000029   0.000000   0.000000
    33  H    0.000000   0.000005   0.000000   0.000014   0.000000   0.000000
    34  H    0.000000   0.000012  -0.000001   0.000003   0.000000  -0.000001
    35  H    0.000000  -0.000001   0.000000  -0.000001   0.000000   0.000000
             19         20         21         22         23         24
     1  C    0.001403   0.003108   0.001272  -0.000368  -0.000319  -0.000013
     2  H   -0.000283   0.000067  -0.000013  -0.000037   0.000012  -0.000001
     3  C    0.001778  -0.003189  -0.000035   0.000020   0.000008  -0.000001
     4  C    0.000028  -0.000197  -0.000001   0.000000   0.000000   0.000000
     5  C   -0.001736   0.000304   0.000045  -0.000001   0.000016   0.000001
     6  C   -0.000001   0.000016   0.000000   0.000000   0.000000   0.000000
     7  H    0.000002  -0.000007   0.000000   0.000000   0.000000   0.000000
     8  C   -0.000089   0.000862   0.000003   0.000000   0.000001   0.000000
     9  H    0.001157   0.003449   0.000079   0.000000  -0.000105   0.000000
    10  C    0.000001  -0.000012   0.000000   0.000000   0.000000   0.000000
    11  H    0.000000   0.000000   0.000000   0.000000   0.000000   0.000000
    12  H    0.000000  -0.000053  -0.000001   0.000000   0.000001   0.000000
    13  H    0.000000   0.000000   0.000000   0.000000   0.000000   0.000000
    14  C   -0.061696  -0.048516  -0.017875   0.007063   0.006070  -0.001594
    15  C   -0.033484   0.004047  -0.086331  -0.039706  -0.000449   0.007536
    16  C    0.479206   0.388552  -0.092123  -0.000618  -0.039049   0.008021
    17  C   -0.076817  -0.000169   0.497001   0.396776   0.005998  -0.042754
    18  H   -0.000238  -0.000260   0.005162  -0.004174   0.000024  -0.000186
    19  C    5.036096  -0.027220   0.494370   0.006223   0.396668  -0.042921
    20  H   -0.027220   0.495357   0.004558   0.000021  -0.003435  -0.000169
    21  C    0.494370   0.004558   5.030996  -0.040778  -0.039544   0.399618
    22  H    0.006223   0.000021  -0.040778   0.518279  -0.000211  -0.004581
    23  H    0.396668  -0.003435  -0.039544  -0.000211   0.515368  -0.004454
    24  H   -0.042921  -0.000169   0.399618  -0.004581  -0.004454   0.517488
    25  C    0.000753  -0.001898   0.000096   0.000011   0.000018  -0.000002
    26  C   -0.000033   0.004798  -0.000004   0.000000  -0.000002   0.000000
    27  C   -0.000064  -0.000266  -0.000014   0.000003   0.000006   0.000000
    28  C   -0.000017   0.000447   0.000000   0.000000  -0.000001   0.000000
    29  H    0.000064   0.001051   0.000002   0.000000  -0.000009   0.000000
    30  C    0.000002  -0.000098   0.000000   0.000000   0.000001   0.000000
    31  H   -0.000017  -0.000037  -0.000011  -0.000003   0.000000   0.000000
    32  C    0.000003  -0.000011   0.000000   0.000000   0.000000   0.000000
    33  H    0.000000  -0.000001   0.000000   0.000000   0.000000   0.000000
    34  H    0.000000   0.000001   0.000000   0.000000   0.000000   0.000000
    35  H    0.000000  -0.000001   0.000000   0.000000   0.000000   0.000000
             25         26         27         28         29         30
     1  C    0.158327  -0.040260  -0.049760   0.004785  -0.001586   0.006268
     2  H   -0.059902   0.004921  -0.003226  -0.000249  -0.000066   0.001552
     3  C   -0.104315  -0.014307   0.006301   0.000533  -0.003185  -0.000757
     4  C   -0.001437   0.001919   0.000454  -0.000087  -0.000877  -0.000017
     5  C   -0.005921  -0.007350  -0.000176   0.000017   0.001143   0.000025
     6  C   -0.000715   0.000223   0.000003  -0.000003  -0.000135   0.000001
     7  H    0.000478   0.000183   0.000120   0.000009  -0.000037  -0.000008
     8  C    0.000881  -0.001493   0.000023  -0.000031   0.000956   0.000000
     9  H   -0.000501   0.000328  -0.000029   0.000053   0.000155   0.000006
    10  C    0.000024   0.000081  -0.000001   0.000004   0.000048   0.000000
    11  H    0.000021  -0.000001   0.000000   0.000000   0.000001   0.000000
    12  H   -0.000007   0.000013  -0.000001   0.000001  -0.000003   0.000000
    13  H    0.000001   0.000000   0.000000   0.000000   0.000000   0.000000
    14  C   -0.154496  -0.014079   0.000683   0.000645  -0.001047  -0.000422
    15  C   -0.005706  -0.000315   0.002043   0.000028  -0.000082  -0.000036
    16  C   -0.007650  -0.000096   0.000808  -0.000665   0.000494   0.000193
    17  C   -0.000464   0.000048  -0.000098  -0.000001   0.000002   0.000006
    18  H    0.000151  -0.000048   0.000251   0.000000   0.000000  -0.000006
    19  C    0.000753  -0.000033  -0.000064  -0.000017   0.000064   0.000002
    20  H   -0.001898   0.004798  -0.000266   0.000447   0.001051  -0.000098
    21  C    0.000096  -0.000004  -0.000014   0.000000   0.000002   0.000000
    22  H    0.000011   0.000000   0.000003   0.000000   0.000000   0.000000
    23  H    0.000018  -0.000002   0.000006  -0.000001  -0.000009   0.000001
    24  H   -0.000002   0.000000   0.000000   0.000000   0.000000   0.000000
    25  C    5.366530   0.485403   0.473411  -0.064511  -0.042754  -0.065398
    26  C    0.485403   5.087504  -0.071889   0.471726   0.390157  -0.027899
    27  C    0.473411  -0.071889   5.071424  -0.031578   0.004186   0.466314
    28  C   -0.064511   0.471726  -0.031578   5.050194  -0.029883  -0.076941
    29  H   -0.042754   0.390157   0.004186  -0.029883   0.481690  -0.000180
    30  C   -0.065398  -0.027899   0.466314  -0.076941  -0.000180   5.050256
    31  H   -0.050621   0.004147   0.399550  -0.000333  -0.000249  -0.035573
    32  C   -0.018523  -0.093451  -0.086118   0.499267   0.004710   0.488982
    33  H    0.006182  -0.037595  -0.000424   0.395912  -0.003337   0.006002
    34  H    0.006706  -0.000523  -0.039637   0.006126   0.000020   0.397080
    35  H   -0.001479   0.007821   0.007373  -0.042195  -0.000182  -0.042945
             31         32         33         34         35
     1  C    0.001764   0.000991  -0.000325  -0.000351  -0.000012
     2  H    0.001079   0.000009   0.000013  -0.000027  -0.000002
     3  C    0.000691   0.000045   0.000037   0.000011  -0.000001
     4  C    0.000013  -0.000013   0.000007   0.000001   0.000000
     5  C   -0.000038  -0.000019   0.000028   0.000000   0.000001
     6  C    0.000001   0.000000   0.000001   0.000000   0.000000
     7  H    0.000004  -0.000004   0.000000   0.000000   0.000000
     8  C    0.000000   0.000000  -0.000001   0.000000   0.000000
     9  H    0.000007   0.000001  -0.000017   0.000000   0.000000
    10  C    0.000000   0.000000  -0.000001   0.000000   0.000000
    11  H    0.000000   0.000000   0.000000   0.000000   0.000000
    12  H    0.000000   0.000000   0.000000   0.000000   0.000000
    13  H    0.000000   0.000000   0.000000   0.000000   0.000000
    14  C    0.000548   0.000074   0.000005   0.000012  -0.000001
    15  C    0.001425  -0.000003   0.000000  -0.000001   0.000000
    16  C   -0.000051   0.000029   0.000014   0.000003  -0.000001
    17  C    0.000030   0.000000   0.000000   0.000000   0.000000
    18  H    0.000254   0.000000   0.000000  -0.000001   0.000000
    19  C   -0.000017   0.000003   0.000000   0.000000   0.000000
    20  H   -0.000037  -0.000011  -0.000001   0.000001  -0.000001
    21  C   -0.000011   0.000000   0.000000   0.000000   0.000000
    22  H   -0.000003   0.000000   0.000000   0.000000   0.000000
    23  H    0.000000   0.000000   0.000000   0.000000   0.000000
    24  H    0.000000   0.000000   0.000000   0.000000   0.000000
    25  C   -0.050621  -0.018523   0.006182   0.006706  -0.001479
    26  C    0.004147  -0.093451  -0.037595  -0.000523   0.007821
    27  C    0.399550  -0.086118  -0.000424  -0.039637   0.007373
    28  C   -0.000333   0.499267   0.395912   0.006126  -0.042195
    29  H   -0.000249   0.004710  -0.003337   0.000020  -0.000182
    30  C   -0.035573   0.488982   0.006002   0.397080  -0.042945
    31  H    0.510028   0.005344   0.000024  -0.004287  -0.000185
    32  C    0.005344   5.033378  -0.040255  -0.040725   0.399182
    33  H    0.000024  -0.040255   0.516837  -0.000213  -0.004442
    34  H   -0.004287  -0.040725  -0.000213   0.518577  -0.004488
    35  H   -0.000185   0.399182  -0.004442  -0.004488   0.518499
 Mulliken atomic charges:
              1
     1  C   -0.580850
     2  H    0.204593
     3  C    0.067081
     4  C   -0.149688
     5  C   -0.145231
     6  C   -0.166237
     7  H    0.170098
     8  C   -0.189612
     9  H    0.184526
    10  C   -0.151342
    11  H    0.162681
    12  H    0.162091
    13  H    0.163952
    14  C    0.092291
    15  C   -0.189674
    16  C   -0.111665
    17  C   -0.165614
    18  H    0.166925
    19  C   -0.173142
    20  H    0.178899
    21  C   -0.156473
    22  H    0.162082
    23  H    0.163388
    24  H    0.164013
    25  C    0.087307
    26  C   -0.149928
    27  C   -0.149670
    28  C   -0.183252
    29  H    0.198934
    30  C   -0.166411
    31  H    0.166497
    32  C   -0.152893
    33  H    0.161550
    34  H    0.161716
    35  H    0.163059
 Sum of Mulliken atomic charges =   0.00000
 Mulliken charges with hydrogens summed into heavy atoms:
              1
     1  C   -0.376257
     3  C    0.067081
     4  C    0.020410
     5  C    0.039295
     6  C   -0.003555
     8  C   -0.027521
    10  C    0.012610
    14  C    0.092291
    15  C   -0.022749
    16  C    0.067234
    17  C   -0.003532
    19  C   -0.009754
    21  C    0.007541
    25  C    0.087307
    26  C    0.049006
    27  C    0.016827
    28  C   -0.021702
    30  C   -0.004695
    32  C    0.010166
 Sum of Mulliken charges with hydrogens summed into heavy atoms =   0.00000
 Electronic spatial extent (au):  <R**2>=           4939.9771
 Charge=              0.0000 electrons
 Dipole moment (field-independent basis, Debye):
    X=              0.0136    Y=             -0.0661    Z=             -0.0429  Tot=              0.0799
 Quadrupole moment (field-independent basis, Debye-Ang):
   XX=           -110.6295   YY=           -114.0677   ZZ=           -102.8271
   XY=             -0.7878   XZ=             -2.2703   YZ=             -0.1686
 Traceless Quadrupole moment (field-independent basis, Debye-Ang):
   XX=             -1.4547   YY=             -4.8929   ZZ=              6.3477
   XY=             -0.7878   XZ=             -2.2703   YZ=             -0.1686
 Octapole moment (field-independent basis, Debye-Ang**2):
  XXX=            -39.9814  YYY=             18.4403  ZZZ=             -0.1740  XYY=             44.6788
  XXY=            -14.4220  XXZ=             -6.4942  XZZ=             -0.6947  YZZ=             -4.7647
  YYZ=             10.3279  XYZ=             -0.1055
 Hexadecapole moment (field-independent basis, Debye-Ang**3):
 XXXX=          -3091.6078 YYYY=          -2907.6289 ZZZZ=           -787.4201 XXXY=              5.8776
 XXXZ=             -0.8201 YYYX=             -2.4515 YYYZ=             58.1819 ZZZX=             -6.3250
 ZZZY=             -4.0157 XXYY=           -972.9547 XXZZ=           -631.3940 YYZZ=           -601.3150
 XXYZ=            -49.7788 YYXZ=            -22.4393 ZZXY=            -15.4887
 N-N= 1.288351558889D+03 E-N=-4.272711693573D+03  KE= 7.285913915868D+02
 PrsmSu:  requested number of processors reduced to:  10 ShMem   1 Linda.
 Calling FoFJK, ICntrl=      2127 FMM=F ISym2X=0 I1Cent= 0 IOpClX= 0 NMat=1 NMatS=1 NMatT=0.
 ***** Axes restored to original set *****
 -------------------------------------------------------------------
 Center     Atomic                   Forces (Hartrees/Bohr)
 Number     Number              X              Y              Z
 -------------------------------------------------------------------
      1        6           0.004016889    0.023539145    0.001927330
      2        1          -0.003965108   -0.027208200   -0.000476749
      3        6           0.013115885    0.002585403   -0.000087235
      4        6          -0.000254914    0.006060783   -0.001771371
      5        6          -0.008103164   -0.009399739    0.005285747
      6        6           0.010317231    0.006923255   -0.004082306
      7        1           0.002337803   -0.017126529    0.003952981
      8        6           0.001667062   -0.011838449    0.002061277
      9        1           0.026526364    0.013428044   -0.006906735
     10        6           0.012736492   -0.004230459   -0.001357281
     11        1          -0.012410126   -0.009986032    0.004989497
     12        1          -0.002854376    0.016059423   -0.003498481
     13        1          -0.015537343    0.006172632    0.001510891
     14        6          -0.004773183    0.005535193    0.012163840
     15        6           0.001956556    0.005718492   -0.000589014
     16        6           0.000597592   -0.009249507   -0.007201055
     17        6          -0.003080971    0.007717491    0.010417667
     18        1          -0.005619977   -0.016733969    0.001717035
     19        6          -0.002689946   -0.012110479   -0.000200205
     20        1          -0.014040259    0.015383661    0.017434551
     21        6          -0.006535399   -0.001479876    0.011816775
     22        1           0.002572168   -0.011632971   -0.011648513
     23        1           0.005556159    0.015628376   -0.002033575
     24        1           0.008386837    0.004054855   -0.014021113
     25        6          -0.006295710    0.003416499   -0.012752077
     26        6           0.007267971   -0.008245624    0.001879988
     27        6          -0.001826375    0.005735809    0.002210487
     28        6          -0.000516577   -0.010309732   -0.006337502
     29        1          -0.013968628    0.014851873   -0.008219591
     30        6          -0.008597129    0.009075694   -0.002724152
     31        1           0.001908209   -0.014861726   -0.008821577
     32        6          -0.007719100   -0.002518221   -0.010869551
     33        1          -0.001245324    0.014199987    0.008694946
     34        1           0.011083920   -0.011639005    0.004312068
     35        1           0.009986472    0.002483904    0.013223004
 -------------------------------------------------------------------
 Cartesian Forces:  Max     0.027208200 RMS     0.009559999

 GradGradGradGradGradGradGradGradGradGradGradGradGradGradGradGradGradGrad
 Berny optimization.
 Internal  Forces:  Max     0.029856922 RMS     0.007838607
 Search for a local minimum.
 Step number   1 out of a maximum of  197
 All quantities printed in internal units (Hartrees-Bohrs-Radians)
 Mixed Optimization -- RFO/linear search
 Second derivative matrix not updated -- first step.
     Eigenvalues ---    0.00634   0.00645   0.00654   0.01530   0.01533
     Eigenvalues ---    0.01536   0.02137   0.02140   0.02145   0.02168
     Eigenvalues ---    0.02170   0.02172   0.02181   0.02185   0.02186
     Eigenvalues ---    0.02202   0.02202   0.02203   0.02213   0.02213
     Eigenvalues ---    0.02215   0.02215   0.02216   0.02217   0.02217
     Eigenvalues ---    0.02217   0.02219   0.02220   0.02220   0.02222
     Eigenvalues ---    0.04517   0.06373   0.06674   0.15996   0.15999
     Eigenvalues ---    0.15999   0.16000   0.16000   0.16000   0.16000
     Eigenvalues ---    0.16000   0.16000   0.16000   0.16000   0.16000
     Eigenvalues ---    0.16000   0.16000   0.16000   0.18941   0.19365
     Eigenvalues ---    0.22000   0.22000   0.22000   0.22000   0.22000
     Eigenvalues ---    0.22000   0.23476   0.23476   0.23477   0.24996
     Eigenvalues ---    0.24999   0.25000   0.31165   0.31353   0.31436
     Eigenvalues ---    0.31503   0.33466   0.33609   0.33962   0.34073
     Eigenvalues ---    0.34077   0.34096   0.34257   0.34258   0.34258
     Eigenvalues ---    0.34260   0.34264   0.34268   0.34281   0.34285
     Eigenvalues ---    0.34285   0.42410   0.42429   0.42482   0.42571
     Eigenvalues ---    0.42581   0.42620   0.46341   0.46351   0.46427
     Eigenvalues ---    0.46763   0.46770   0.46837   0.47216   0.47227
     Eigenvalues ---    0.47263   0.47332   0.47335   0.473631000.00000
     Eigenvalues --- 1000.000001000.000001000.000001000.000001000.00000
     Eigenvalues --- 1000.000001000.000001000.000001000.000001000.00000
     Eigenvalues --- 1000.000001000.000001000.000001000.000001000.00000
     Eigenvalues --- 1000.000001000.000001000.000001000.000001000.00000
     Eigenvalues --- 1000.000001000.000001000.000001000.000001000.00000
     Eigenvalues --- 1000.000001000.000001000.000001000.000001000.00000
     Eigenvalues --- 1000.000001000.000001000.000001000.000001000.00000
     Eigenvalues --- 1000.000001000.000001000.000001000.000001000.00000
     Eigenvalues --- 1000.000001000.000001000.000001000.000001000.00000
     Eigenvalues --- 1000.000001000.000001000.000001000.000001000.00000
     Eigenvalues --- 1000.000001000.000001000.000001000.000001000.00000
     Eigenvalues --- 1000.000001000.000001000.000001000.000001000.00000
     Eigenvalues --- 1000.000001000.000001000.000001000.000001000.00000
     Eigenvalues --- 1000.000001000.000001000.000001000.000001000.00000
     Eigenvalues --- 1000.000001000.000001000.000001000.000001000.00000
     Eigenvalues --- 1000.000001000.000001000.000001000.000001000.00000
     Eigenvalues --- 1000.000001000.000001000.000001000.000001000.00000
     Eigenvalues --- 1000.000001000.00000
 RFO step:  Lambda=-4.29111623D-02 EMin= 6.34040196D-03
 Linear search not attempted -- first point.
 Maximum step size (   0.300) exceeded in Quadratic search.
    -- Step size scaled by   0.575
 Iteration  1 RMS(Cart)=  0.12602876 RMS(Int)=  0.00284665
 Iteration  2 RMS(Cart)=  0.00585702 RMS(Int)=  0.00028947
 Iteration  3 RMS(Cart)=  0.00000907 RMS(Int)=  0.00028943
 Iteration  4 RMS(Cart)=  0.00000000 RMS(Int)=  0.00028943
 Variable       Old X    -DE/DX   Delta X   Delta X   Delta X     New X
                                 (Linear)    (Quad)   (Total)
    R1        2.12399  -0.02749   0.00000  -0.04458  -0.04458   2.07941
    R2        2.85063   0.02570   0.00000   0.04129   0.04129   2.89192
    R3        2.85189   0.02266   0.00000   0.03647   0.03647   2.88836
    R4        2.85343   0.02084   0.00000   0.03362   0.03362   2.88706
    R5        2.64230  -0.00354   0.00000  -0.00399  -0.00397   2.63833
    R6        2.63783   0.00072   0.00000   0.00101   0.00102   2.63885
    R7        2.62618  -0.00358   0.00000  -0.00410  -0.00409   2.62208
    R8        2.07207  -0.01772   0.00000  -0.02656  -0.02656   2.04551
    R9        2.62712  -0.00317   0.00000  -0.00341  -0.00342   2.62370
   R10        2.08241  -0.02986   0.00000  -0.04547  -0.04547   2.03694
   R11        2.62810  -0.00842   0.00000  -0.00959  -0.00960   2.61850
   R12        2.06897  -0.01669   0.00000  -0.02490  -0.02490   2.04407
   R13        2.62682  -0.00672   0.00000  -0.00755  -0.00757   2.61925
   R14        2.06887  -0.01668   0.00000  -0.02488  -0.02488   2.04399
   R15        2.06851  -0.01679   0.00000  -0.02502  -0.02502   2.04349
   R16        2.64000  -0.00423   0.00000  -0.00475  -0.00474   2.63526
   R17        2.63776   0.00071   0.00000   0.00095   0.00097   2.63874
   R18        2.62728  -0.00279   0.00000  -0.00318  -0.00319   2.62409
   R19        2.07200  -0.01773   0.00000  -0.02657  -0.02657   2.04543
   R20        2.62600  -0.00456   0.00000  -0.00501  -0.00500   2.62100
   R21        2.07994  -0.02547   0.00000  -0.03865  -0.03865   2.04130
   R22        2.62780  -0.00840   0.00000  -0.00953  -0.00955   2.61825
   R23        2.06898  -0.01666   0.00000  -0.02485  -0.02485   2.04413
   R24        2.62800  -0.00551   0.00000  -0.00623  -0.00624   2.62175
   R25        2.06880  -0.01671   0.00000  -0.02492  -0.02492   2.04388
   R26        2.06858  -0.01683   0.00000  -0.02510  -0.02510   2.04348
   R27        2.63512  -0.00243   0.00000  -0.00268  -0.00268   2.63244
   R28        2.64317  -0.00434   0.00000  -0.00499  -0.00499   2.63818
   R29        2.62864  -0.00281   0.00000  -0.00307  -0.00307   2.62557
   R30        2.07394  -0.02182   0.00000  -0.03281  -0.03281   2.04113
   R31        2.62524  -0.00415   0.00000  -0.00469  -0.00469   2.62056
   R32        2.07168  -0.01738   0.00000  -0.02603  -0.02603   2.04565
   R33        2.62623  -0.00631   0.00000  -0.00701  -0.00701   2.61921
   R34        2.06896  -0.01670   0.00000  -0.02491  -0.02491   2.04406
   R35        2.62880  -0.00596   0.00000  -0.00672  -0.00673   2.62207
   R36        2.06893  -0.01664   0.00000  -0.02482  -0.02482   2.04411
   R37        2.06852  -0.01675   0.00000  -0.02498  -0.02498   2.04355
    A1        1.85560  -0.00923   0.00000  -0.04551  -0.04456   1.81104
    A2        1.86751  -0.00591   0.00000  -0.03538  -0.03463   1.83288
    A3        1.85840  -0.00030   0.00000  -0.01910  -0.01893   1.83947
    A4        1.97539   0.01475   0.00000   0.05382   0.05264   2.02803
    A5        1.97310   0.00300   0.00000   0.02541   0.02350   1.99660
    A6        1.92538  -0.00405   0.00000   0.00959   0.00725   1.93263
    A7        2.06576  -0.01297   0.00000  -0.02548  -0.02550   2.04026
    A8        2.14223   0.02508   0.00000   0.04923   0.04921   2.19144
    A9        2.07520  -0.01211   0.00000  -0.02374  -0.02371   2.05149
   A10        2.10304   0.00830   0.00000   0.01760   0.01762   2.12066
   A11        2.09380  -0.00488   0.00000  -0.01087  -0.01089   2.08291
   A12        2.08635  -0.00342   0.00000  -0.00673  -0.00674   2.07961
   A13        2.10371   0.00440   0.00000   0.00977   0.00978   2.11349
   A14        2.08558   0.00421   0.00000   0.01327   0.01327   2.09885
   A15        2.09386  -0.00861   0.00000  -0.02307  -0.02308   2.07078
   A16        2.09757   0.00003   0.00000  -0.00099  -0.00100   2.09657
   A17        2.09150   0.00005   0.00000   0.00068   0.00068   2.09218
   A18        2.09412  -0.00008   0.00000   0.00031   0.00032   2.09443
   A19        2.09776   0.00244   0.00000   0.00500   0.00498   2.10274
   A20        2.09017  -0.00116   0.00000  -0.00233  -0.00231   2.08786
   A21        2.09525  -0.00128   0.00000  -0.00268  -0.00267   2.09259
   A22        2.08910  -0.00306   0.00000  -0.00764  -0.00767   2.08142
   A23        2.09681   0.00153   0.00000   0.00382   0.00384   2.10065
   A24        2.09728   0.00153   0.00000   0.00381   0.00383   2.10110
   A25        2.07776  -0.00632   0.00000  -0.01251  -0.01258   2.06518
   A26        2.12723   0.01651   0.00000   0.03231   0.03223   2.15946
   A27        2.07806  -0.01022   0.00000  -0.02009  -0.02010   2.05796
   A28        2.10051   0.00696   0.00000   0.01487   0.01487   2.11537
   A29        2.09437  -0.00406   0.00000  -0.00907  -0.00908   2.08530
   A30        2.08830  -0.00290   0.00000  -0.00579  -0.00580   2.08250
   A31        2.10363   0.00378   0.00000   0.00842   0.00836   2.11199
   A32        2.07598   0.00413   0.00000   0.01303   0.01291   2.08889
   A33        2.10336  -0.00785   0.00000  -0.02094  -0.02106   2.08230
   A34        2.09791  -0.00010   0.00000  -0.00100  -0.00102   2.09689
   A35        2.09121   0.00020   0.00000   0.00092   0.00094   2.09214
   A36        2.09406  -0.00010   0.00000   0.00007   0.00009   2.09415
   A37        2.09580   0.00213   0.00000   0.00428   0.00428   2.10008
   A38        2.09159  -0.00097   0.00000  -0.00187  -0.00188   2.08971
   A39        2.09580  -0.00116   0.00000  -0.00241  -0.00242   2.09338
   A40        2.09043  -0.00254   0.00000  -0.00636  -0.00640   2.08403
   A41        2.09638   0.00127   0.00000   0.00319   0.00319   2.09957
   A42        2.09638   0.00127   0.00000   0.00319   0.00319   2.09957
   A43        2.14062   0.00959   0.00000   0.01892   0.01891   2.15953
   A44        2.06507  -0.00204   0.00000  -0.00392  -0.00392   2.06115
   A45        2.07747  -0.00755   0.00000  -0.01500  -0.01499   2.06248
   A46        2.10162   0.00316   0.00000   0.00689   0.00689   2.10851
   A47        2.09267   0.00057   0.00000   0.00264   0.00263   2.09531
   A48        2.08885  -0.00373   0.00000  -0.00956  -0.00956   2.07929
   A49        2.10239   0.00528   0.00000   0.01107   0.01108   2.11348
   A50        2.09300  -0.00326   0.00000  -0.00731  -0.00731   2.08569
   A51        2.08779  -0.00201   0.00000  -0.00377  -0.00377   2.08401
   A52        2.09865   0.00129   0.00000   0.00272   0.00270   2.10135
   A53        2.08962  -0.00059   0.00000  -0.00120  -0.00119   2.08843
   A54        2.09491  -0.00070   0.00000  -0.00152  -0.00152   2.09339
   A55        2.09701   0.00010   0.00000  -0.00034  -0.00034   2.09667
   A56        2.09199  -0.00001   0.00000   0.00028   0.00028   2.09228
   A57        2.09419  -0.00009   0.00000   0.00005   0.00005   2.09424
[...]
 44108,-0.00073395,-0.00044340,0.00005790,-0.00025477,0.00025790,-0.000
 39380,-0.00002945,0.00040178,-0.00032893,0.00003607,-0.00003236,0.0000
 5802,0.00005926,-0.00034344,-0.00001217,0.00017075,0.00001164,-0.00001
 565,0.00002530,0.00006852,0.00035046,-0.00020229,-0.00001713,-0.000016
 51,0.00000315,-0.00000965,0.00002106,0.00001037,-0.00001624,0.00000296
 ,-0.00000316,0.00163911,-0.00044671,0.00072754,0.00016315,-0.00035447,
 -0.00022194,0.00012045,-0.00026871,0.00028469,-0.00035379,-0.00012200,
 0.00021185,0.00003208,-0.00000674,-0.00000188,0.00007485,-0.00007855,-
 0.00049760,-0.00031809,0.00005902,0.00003563,0.00016812,0.00028176,0.0
 0024515,-0.00004347,0.00003321,0.00001770,0.00001483,-0.00004425,0.000
 01167,-0.00000709,-0.00000428,0.00000355,-0.06626509,0.07769131,0.0091
 6142,-0.01765254,-0.04598000,-0.07379767,-0.09467671,-0.07885849,-0.28
 074650,0.06761639,-0.02506643,0.06501756,0.00020545,-0.00051943,-0.001
 00535,0.21121210,0.15068354,0.58521819,-0.00038989,-0.00018953,0.00283
 482,-0.00054729,-0.00107108,-0.00059189,-0.00014522,-0.00033048,-0.000
 03307,0.00000740,0.00010421,-0.00006581,0.00012325,-0.00008403,-0.0000
 7135,0.00000275,-0.00003134,0.00001609,-0.00003469,-0.00001487,0.00004
 107,0.00002215,-0.00002931,0.00004799,-0.00000731,-0.00000897,0.000013
 73,0.00001736,-0.00000332,-0.00000608,0.00000323,0.00000483,-0.0000007
 4,0.00001694,-0.00000909,0.00001142,0.00000878,-0.00000689,0.00000306,
 0.00033652,0.00007612,-0.00004683,-0.00009406,0.00005487,0.00010338,-0
 .00002454,0.00013719,0.00008954,0.00005452,0.00001050,-0.00005041,-0.0
 0003529,-0.00002053,-0.00004413,-0.00008604,-0.00000476,0.00005006,0.0
 0001114,-0.00009417,-0.00004430,-0.00006639,-0.00004677,0.00000838,0.0
 0000098,-0.00000453,0.00001532,-0.00001196,-0.00002558,0.00001773,-0.0
 0000056,-0.00001511,0.00000784,-0.00000565,0.02195085,0.01609558,-0.00
 058252,0.00589426,-0.00431937,-0.07422775,0.05380602,0.02582064,-0.001
 01779,-0.00029174,-0.00036110,-0.00013913,0.00096088,0.00088247,0.0090
 7602,-0.01731647,-0.01402139,0.06787634,-0.00247768,-0.00075542,0.0008
 5075,0.00059121,0.00039280,0.00039311,0.00007231,0.00035994,-0.0002302
 0,-0.00002868,0.00006567,0.00004121,-0.00016718,0.00007884,0.00005123,
 -0.00001622,-0.00002279,0.00002880,0.00000909,-0.00003078,-0.00002665,
 -0.00002829,0.00005392,-0.00001040,0.00000012,-0.00003630,-0.00002064,
 -0.00000904,0.00000737,-0.00000419,-0.00001464,-0.00000261,-0.00000366
 ,-0.00001575,0.00000214,-0.00000448,-0.00000469,-0.00000262,-0.0000041
 6,0.00027098,0.00029972,0.00040975,-0.00015906,0.00008690,0.00035956,-
 0.00023149,-0.00005573,-0.00017021,0.00008192,0.00012274,0.00004071,0.
 00003028,-0.00003188,0.00000048,-0.00012781,0.00000658,0.00016613,0.00
 013800,-0.00005997,-0.00009301,-0.00003197,-0.00007521,-0.00004678,-0.
 00000185,-0.00001764,-0.00000453,0.00002521,-0.00000219,-0.00000099,0.
 00001485,-0.00000111,-0.00001184,0.00154398,-0.01251988,-0.01680549,0.
 00603600,0.00104393,-0.00008272,0.05411178,-0.24839385,-0.14251699,-0.
 00023099,0.00026048,0.00101183,0.00008086,-0.00083945,-0.00073131,0.00
 419433,0.00073962,-0.00017283,-0.06276313,0.25674033,0.00077991,0.0016
 1498,-0.00100940,-0.00011700,0.00066077,0.00053720,0.00010722,0.000139
 81,0.00020839,0.00006714,-0.00013984,0.00005957,0.00001377,0.00003306,
 0.00002666,-0.00001910,0.00001533,-0.00002018,0.00001097,0.00002444,-0
 .00000656,0.00000535,0.00001881,-0.00004100,-0.00000204,0.00001136,-0.
 00000170,0.00002700,-0.00001360,0.00000941,0.00001787,-0.00000005,-0.0
 0000662,0.00000264,-0.00000808,-0.00000434,0.00000498,0.00000138,-0.00
 000144,-0.00005004,0.00012141,-0.00011829,0.00004738,-0.00006668,-0.00
 008156,-0.00000161,-0.00003392,-0.00000459,-0.00001760,-0.00001329,-0.
 00004530,-0.00000534,0.00000189,-0.00000473,0.00003992,0.00003393,-0.0
 0000143,-0.00000731,0.00000165,0.00004558,-0.00002022,0.00001216,0.000
 01817,0.00000076,0.00000673,0.00001287,-0.00000467,-0.00001023,-0.0000
 0152,-0.00000351,-0.00000504,0.00001415,-0.00392562,0.00777507,0.00879
 384,-0.00416119,-0.00055964,0.00250337,0.02574486,-0.14350116,-0.16655
 920,-0.00031266,0.00090102,-0.00039780,-0.00008861,0.00043682,0.000228
 47,0.00847890,-0.02537142,-0.01100404,-0.02262636,0.15863738,0.1697225
 5,-0.00020235,0.00018905,0.00153615,-0.00023981,-0.00060005,-0.0001079
 8,0.00029768,0.00023089,-0.00027611,-0.00031091,0.00001189,-0.00010871
 ,0.00015283,-0.00022822,-0.00001485,0.00023642,-0.00017927,0.00002075,
 0.00000229,0.00004230,0.00001622,-0.00021020,-0.00003356,0.00010195,0.
 00001104,-0.00002117,0.00002288,0.00000844,0.00023644,-0.00011598,-0.0
 0001869,-0.00001581,0.00000259,-0.00001475,0.00001921,-0.00000343,-0.0
 0001821,0.00000347,-0.00000279,0.00041459,-0.00030552,0.00041343,0.000
 22538,-0.00001548,-0.00023748,0.00011432,-0.00010585,-0.00003894,-0.00
 016871,-0.00011160,0.00006174,0.00000161,-0.00000117,0.00001528,-0.000
 01213,-0.00008063,-0.00028616,-0.00030497,-0.00017352,-0.00015213,0.00
 011858,0.00015329,0.00006241,-0.00001326,0.00002201,-0.00001956,0.0000
 3033,0.00001867,-0.00003626,0.00000383,-0.00000356,-0.00001717,-0.0356
 6222,0.04687124,0.01437994,-0.03185509,-0.01603126,-0.06530527,0.05431
 066,-0.03057577,0.01958425,-0.24478230,0.14803989,-0.03880851,0.002632
 07,0.00169041,-0.00555080,-0.13703666,0.03260065,-0.03033449,0.0015745
 0,0.00214750,-0.00661151,0.54265723,0.00023708,-0.00110357,-0.00189149
 ,-0.00005279,0.00103526,-0.00026919,-0.00032592,-0.00051100,0.00010280
 ,0.00038788,0.00005678,0.00021756,-0.00038308,0.00029035,0.00004046,-0
 .00034000,0.00028941,0.00000919,-0.00000158,-0.00008560,-0.00005036,0.
 00033487,0.00002238,-0.00014685,-0.00001368,0.00000694,-0.00001925,-0.
 00008432,-0.00030256,0.00018172,0.00000335,0.00001253,-0.00000617,-0.0
 0000196,-0.00000931,-0.00000629,0.00000912,-0.00000833,0.00000103,-0.0
 0109334,0.00052500,-0.00033732,-0.00024194,0.00027994,0.00033623,-0.00
 018293,0.00012557,-0.00036609,0.00033251,0.00017686,-0.00013709,-0.000
 00688,0.00000555,0.00000521,-0.00004942,0.00009195,0.00049110,0.000271
 48,0.00006098,0.00000035,-0.00015668,-0.00026475,-0.00024064,0.0000388
 5,-0.00003153,-0.00000537,-0.00000709,0.00004567,-0.00002131,0.0000073
 8,0.00000320,0.00000292,0.04746385,-0.07787312,-0.01474327,0.02239083,
 0.05786868,0.07544241,-0.06983647,0.02046194,-0.06988954,0.10056940,-0
 .21980279,-0.02155148,0.00142443,0.00350686,-0.00417662,0.08054733,-0.
 26145661,-0.08651432,0.00257282,0.00399210,-0.00219494,-0.19045643,0.5
 6752604,0.00109741,-0.00017714,-0.00089652,-0.00013327,0.00039294,-0.0
 0013513,0.00002631,-0.00024025,-0.00010234,0.00003902,0.00009508,-0.00
 001022,-0.00013268,-0.00004894,0.00003551,-0.00002390,0.00007610,0.000
 01613,0.00005210,-0.00001419,-0.00004056,0.00006091,-0.00002049,-0.000
 01247,0.00000202,-0.00000452,-0.00001067,-0.00007238,-0.00000356,0.000
 04269,-0.00004291,-0.00001316,-0.00000529,-0.00002024,0.00001167,-0.00
 001158,-0.00001610,0.00000173,-0.00000574,-0.00098144,0.00001458,-0.00
 007267,0.00008538,0.00023632,-0.00009874,-0.00001154,-0.00010915,-0.00
 022013,0.00008910,-0.00001774,-0.00003885,-0.00001896,0.00000854,0.000
 02706,0.00001939,0.00007210,0.00013048,0.00003507,0.00000363,-0.000010
 32,-0.00001370,-0.00004850,-0.00010474,0.00002564,-0.00000565,-0.00003
 468,0.00001579,0.00003556,-0.00003506,0.00001104,0.00000758,-0.0000035
 1,0.01473312,-0.01657587,-0.00576072,-0.02653906,0.03087725,0.01015112
 ,-0.01893156,-0.02570052,-0.03851744,-0.08869730,0.03606770,-0.1528662
 2,-0.00558067,-0.00381651,-0.00191788,0.01898669,-0.14411108,-0.209517
 30,-0.00629523,-0.00277146,-0.00119205,0.24289307,0.17763202,0.6486343
 8,0.00039029,-0.00076513,-0.00016511,-0.00008226,-0.00010600,-0.000139
 66,0.00009203,-0.00000452,0.00004054,-0.00004430,0.00001546,0.00000174
 ,0.00003366,0.00000897,0.00001514,0.00001561,-0.00001020,0.00002082,0.
 00000319,-0.00001266,-0.00001297,-0.00003118,0.00001352,0.00001739,0.0
 0000344,-0.00000791,-0.00000679,-0.00002863,0.00003575,0.00000274,-0.0
 0001396,-0.00000831,-0.00000487,-0.00000538,-0.00000209,-0.00000761,-0
 .00000548,-0.00000246,-0.00000755,-0.00008931,-0.00001093,-0.00005207,
 -0.00000562,0.00001216,-0.00003198,0.00002318,0.00002372,0.00003184,0.
 00001220,-0.00000586,-0.00001003,-0.00000506,0.00000404,0.00000278,0.0
 0001012,0.00000272,-0.00000129,0.00000970,0.00001637,-0.00001199,-0.00
 000262,-0.00000416,-0.00000631,0.00000229,-0.00000321,-0.00000479,-0.0
 0000310,-0.00000156,0.00000635,-0.00000096,0.00000222,-0.00000170,0.00
 138583,0.00224122,-0.00643854,0.00898269,-0.01702668,-0.01354307,-0.00
 116592,-0.00020886,-0.00041823,-0.07493626,0.05515069,0.02626446,-0.00
 118337,-0.00192179,0.00254553,-0.00012862,0.00598426,-0.00464963,-0.00
 045461,-0.00045775,0.00048001,0.00108384,0.02218053,0.01772121,0.06767
 812,0.00031952,-0.00022337,0.00025886,-0.00002127,-0.00004288,-0.00006
 191,0.00006300,-0.00001704,-0.00008673,-0.00006328,0.00002152,-0.00001
 273,-0.00000925,-0.00004068,0.00001163,0.00003839,-0.00000222,0.000014
 59,0.00002060,-0.00000383,-0.00001506,-0.00002352,-0.00000247,0.000023
 24,0.00000671,-0.00001068,0.00000696,-0.00002644,0.00004651,-0.0000020
 0,-0.00002522,-0.00001557,-0.00000156,-0.00000932,0.00000714,-0.000006
 90,-0.00001615,0.00000224,-0.00000704,-0.00013722,-0.00000745,-0.00003
 136,0.00001950,0.00004300,-0.00003253,0.00003436,0.00003710,-0.0000082
 0,0.00001483,-0.00000179,-0.00001220,-0.00000368,-0.00000181,0.0000086
 0,-0.00002199,-0.00001836,0.00000369,-0.00001195,-0.00003428,0.0000036
 1,-0.00000197,-0.00000639,-0.00001922,0.00000313,-0.00000571,-0.000013
 99,0.00000973,0.00000470,-0.00000102,0.00000438,0.00000121,-0.00001227
 ,0.00199720,0.00379953,-0.00265026,0.00406067,0.00087447,0.00002215,-0
 .00033172,0.00033424,0.00093920,0.05491151,-0.25088950,-0.14473756,-0.
 00246651,-0.00071696,0.00151800,0.00627508,0.00134368,-0.00040870,-0.0
 0045684,-0.00046383,0.00029259,0.00111820,-0.01122320,-0.01622643,-0.0
 6349367,0.25874780,0.00056050,-0.00096901,-0.00031598,-0.00018464,-0.0
 0008097,-0.00035994,0.00030053,-0.00005347,0.00002426,-0.00003040,0.00
 000886,0.00003530,-0.00009165,0.00004038,0.00003934,-0.00000215,0.0000
 1970,-0.00000443,0.00001623,0.00001978,-0.00001504,0.00001853,0.000016
 56,0.00000601,0.00001144,-0.00001443,-0.00002032,-0.00004736,0.0000132
 2,0.00002308,-0.00001262,-0.00000465,0.00000131,-0.00002175,0.00001310
 ,-0.00002029,-0.00001543,0.00000063,-0.00000570,-0.00022539,-0.0001509
 0,0.00005503,0.00008253,0.00006619,-0.00010523,-0.00000208,0.00003375,
 -0.00011479,0.00000204,-0.00000606,-0.00000933,0.00001078,0.00001182,0
 .00002163,-0.00001581,-0.00000536,0.00000704,-0.00000822,-0.00006473,0
 .00002572,0.00001344,0.00000642,-0.00002662,0.00000502,0.00000054,-0.0
 0001743,0.00002388,0.00001376,-0.00002013,0.00000760,0.00000093,-0.000
 00997,-0.00639435,-0.00207644,-0.00119659,0.00835481,-0.02533287,-0.01
 085870,-0.00039840,0.00099303,-0.00039502,0.02627139,-0.14480816,-0.16
 790261,0.00174220,0.00228597,-0.00053555,-0.00440499,-0.00077914,0.002
 86438,0.00049359,0.00028265,-0.00036814,-0.00435375,0.00917950,0.00997
 443,-0.02416068,0.15958839,0.16961566,-0.00053145,0.00069877,0.0002501
 6,-0.00001830,-0.00006296,-0.00003643,0.00006820,-0.00017111,-0.000209
 32,-0.00003032,0.00006973,-0.00002374,-0.00010294,0.00000470,0.0000257
 9,-0.00000624,0.00002865,-0.00000466,0.00001597,-0.00000130,-0.0000074
 6,0.00003299,-0.00000228,0.00000929,0.00000492,-0.00000434,0.00000545,
 -0.00003061,-0.00001478,0.00001565,-0.00002170,-0.00000147,0.00001021,
 -0.00001018,0.00001141,-0.00000415,-0.00001298,0.00000347,0.00000014,-
 0.00012190,-0.00006533,0.00009984,0.00006958,0.00001275,-0.00006141,0.
 00004000,0.00003175,-0.00001278,0.00000304,-0.00001291,-0.00001398,-0.
 00001134,0.00000332,0.00000928,-0.00001442,-0.00000809,-0.00000378,-0.
 00001961,-0.00003643,0.00001048,0.00000775,-0.00000396,-0.00001690,-0.
 00000313,0.00000011,-0.00002080,0.00000594,0.00000969,-0.00000346,0.00
 000450,0.00000293,-0.00001367,0.00291795,0.00150445,-0.00586572,0.0000
 7721,-0.00100819,0.00015839,-0.00847080,0.01511034,-0.00134745,0.00451
 214,0.00320363,-0.00167806,-0.00055970,-0.00038535,0.00044124,-0.22547
 144,0.14868523,-0.05871338,-0.00139384,-0.00264796,0.00182081,0.000569
 49,0.00133772,-0.00449960,-0.00023998,0.00008234,-0.00009393,0.2300417
 3,-0.00032897,0.00014677,-0.00009596,0.00001002,-0.00003639,0.00002989
 ,-0.00001678,-0.00006373,0.00004756,0.00003213,0.00002156,0.00001007,-
 0.00000017,0.00003758,0.00000570,-0.00003878,0.00001442,0.00000777,-0.
 00000981,-0.00001676,-0.00000600,0.00002584,0.00001168,-0.00000763,-0.
 00000308,-0.00000195,-0.00000803,-0.00000614,-0.00002769,0.00001943,0.
 00000084,0.00000262,-0.00000378,0.00000195,-0.00000803,-0.00000234,0.0
 0000523,-0.00000438,-0.00000202,0.00011139,0.00001705,0.00005982,-0.00
 000625,-0.00004794,0.00000797,-0.00002887,-0.00001611,0.00002215,-0.00
 001839,-0.00000277,0.00000677,-0.00000028,-0.00000417,-0.00000696,0.00
 000622,0.00003295,-0.00001059,0.00003802,0.00000053,-0.00001968,-0.000
 00757,0.00000926,0.00002845,-0.00000223,0.00000171,0.00000795,-0.00000
 252,-0.00002148,0.00000939,0.00000066,-0.00000387,0.00001100,0.0016557
 3,0.00350922,-0.00386142,-0.00101238,-0.00021236,-0.00045273,-0.006109
 64,0.00836281,-0.00459559,0.00290525,-0.00087960,-0.00631425,-0.000376
 63,-0.00040554,0.00042812,0.14884146,-0.18694971,0.03640962,-0.0019279
 4,-0.00070548,0.00229067,0.02243665,-0.01095580,0.01002466,0.00100210,
 -0.00082178,0.00041125,-0.16465253,0.18959924,-0.00083498,0.00098332,0
 .00008057,0.00003336,-0.00002142,0.00008151,-0.00001788,-0.00007296,-0
 .00043907,-0.00007599,0.00000464,0.00000759,-0.00005999,0.00000144,0.0
 0002803,0.00004679,-0.00000360,0.00001201,0.00000830,-0.00000085,-0.00
 000302,-0.00002567,0.00001127,0.00003783,0.00000112,-0.00000536,-0.000
 01655,-0.00002623,0.00004182,-0.00002115,-0.00000935,-0.00000425,0.000
 00395,-0.00001149,0.00001193,-0.00000266,-0.00000837,0.00000146,-0.000
 00231,-0.00015525,-0.00005225,0.00005547,0.00004257,0.00002329,-0.0000
 6555,0.00004778,0.00000821,-0.00003703,0.00000975,-0.00001835,-0.00000
 399,-0.00000837,0.00001337,0.00000955,0.00001242,-0.00001646,-0.000009
 98,-0.00004216,0.00000016,0.00000446,0.00002654,0.00000437,-0.00002849
 ,-0.00000166,0.00000395,-0.00001372,0.00000360,0.00002189,-0.00001264,
 -0.00000243,0.00000666,-0.00000985,-0.00533211,-0.00417757,-0.00183175
 ,0.00028826,-0.00048244,-0.00106625,-0.02327175,0.02103215,-0.00067731
 ,-0.00202058,-0.00597747,0.00008683,0.00038834,0.00046688,-0.00029727,
 -0.05862536,0.03623849,-0.08157100,0.00257267,0.00149285,-0.00054503,0
 .01729374,-0.01541889,0.01029736,0.00081624,-0.00065091,0.00021590,0.0
 6733863,-0.03577249,0.07624988,-0.00036327,-0.00039467,0.00051182,0.00
 000133,-0.00013971,-0.00009486,0.00005236,-0.00003085,-0.00003619,0.00
 000457,0.00003458,-0.00001654,-0.00005494,-0.00002510,-0.00000945,0.00
 000607,0.00001628,-0.00000459,0.00001462,0.00000005,-0.00000238,0.0000
 2555,-0.00002146,-0.00000592,0.00000333,-0.00000308,0.00002272,-0.0000
 0606,-0.00000447,0.00001105,-0.00001601,-0.00000764,0.00000335,-0.0000
 0384,0.00000941,-0.00000045,-0.00001268,0.00000335,-0.00000065,0.00002
 036,0.00002928,0.00009759,-0.00000137,0.00000509,0.00000793,0.00002607
 ,0.00003433,0.00000883,0.00000533,0.00000669,-0.00000161,-0.00000213,-
 0.00000196,0.00000342,-0.00001643,-0.00001535,-0.00000398,-0.00001878,
 -0.00001726,0.00000270,-0.00000107,-0.00000299,-0.00000794,-0.00000181
 ,-0.00000339,-0.00000761,0.00000446,0.00000118,0.00000251,0.00000340,0
 .00000030,-0.00000881,-0.00055688,0.00034256,0.00085227,0.00060912,0.0
 0680016,-0.00298209,0.00391657,0.00414129,-0.00145255,-0.00812040,-0.0
 0718779,-0.02346985,-0.00064151,-0.00030447,-0.00098381,0.00859454,0.0
 0348793,0.00786680,0.00013265,0.00006579,0.00032491,-0.15359487,-0.016
 87493,-0.14388274,-0.00129959,-0.00185916,0.00254911,-0.00130054,-0.00
 252456,0.00159951,0.15259183,-0.00042039,-0.00026318,0.00038033,0.0000
 7106,-0.00003117,-0.00000275,0.00004579,0.00000964,-0.00002019,-0.0000
 2504,0.00000788,0.00004078,-0.00002215,0.00004583,0.00001648,0.0000004
 0,-0.00000238,0.00000710,0.00000898,-0.00000332,-0.00001038,-0.0000211
 6,0.00001389,0.00000176,-0.00000033,-0.00000851,-0.00000816,-0.0000031
 2,0.00000487,-0.00000897,-0.00000500,-0.00000112,-0.00000138,-0.000000
 99,-0.00000018,0.00000158,0.00000006,0.00000048,-0.00000092,0.00001999
 ,0.00005926,0.00008090,-0.00002166,0.00000125,0.00002786,-0.00001945,0
 .00001174,-0.00000348,0.00000326,0.00001101,0.00000581,0.00000418,-0.0
 0000431,0.00000277,-0.00000187,0.00000439,0.00000607,0.00002671,-0.000
 00589,-0.00000921,-0.00000169,-0.00000639,-0.00000051,-0.00000088,-0.0
 0000311,-0.00000139,-0.00000029,-0.00000134,0.00000388,0.00000192,0.00
 000065,-0.00000212,0.00031397,-0.00123275,0.00011813,0.00640606,0.0000
 5519,-0.00166594,0.00452958,-0.00162927,-0.00515930,0.01387292,0.00907
 194,0.02063993,0.00053306,0.00017604,0.00090998,-0.01765350,0.00170039
 ,-0.02469967,-0.00082610,-0.00023633,-0.00111338,-0.01689287,-0.072755
 79,-0.04565229,-0.00263998,-0.00071336,0.00133979,-0.00172203,-0.00058
 185,0.00230712,0.01444057,0.06630581,0.00033699,0.00032964,-0.00033376
 ,0.00000517,0.00009870,0.00003592,0.00003603,-0.00000488,-0.00007113,-
 0.00002550,-0.00000379,-0.00003329,-0.00004370,-0.00003394,0.00000709,
 0.00002055,0.00001056,-0.00001602,0.00001414,0.00001651,0.00000118,0.0
 0001300,-0.00001420,0.00000521,0.00000659,0.00000161,0.00001077,-0.000
 01454,0.00000777,0.00000464,-0.00000846,-0.00000340,0.00000791,-0.0000
 0807,0.00001154,-0.00000572,-0.00001230,0.00000503,0.00000101,-0.00014
 070,-0.00006756,-0.00003150,0.00004568,0.00004359,-0.00004088,0.000029
 93,0.00002463,-0.00004144,0.00001272,0.00000116,-0.00000985,0.00000253
 ,0.00000373,0.00001117,-0.00002607,-0.00003290,0.00001389,-0.00004131,
 -0.00003868,0.00002376,0.00000525,-0.00000628,-0.00002484,0.00000139,-
 0.00000199,-0.00001476,0.00001165,0.00001881,-0.00001207,0.00000373,0.
 00000260,-0.00001525,0.00095877,0.00020456,0.00044889,-0.00340749,-0.0
 0126212,0.00358258,-0.00109094,-0.00557103,0.00163178,-0.00130050,-0.0
 0486331,-0.00141994,-0.00007197,-0.00011963,-0.00029457,-0.01399366,0.
 00085504,-0.01088913,-0.00054733,-0.00005390,-0.00076533,-0.14402250,-
 0.04565601,-0.26768831,0.00170808,0.00230706,-0.00060732,0.00243533,0.
 00132124,-0.00051631,0.15910751,0.05246981,0.27704561||0.00001663,-0.0
 0000453,-0.00001084,-0.00000728,0.00000018,0.00000219,-0.00002627,-0.0
 0003709,0.00002129,0.00004332,0.00000577,-0.00001519,-0.00004201,0.000
 04601,-0.00001726,-0.00003336,0.00003210,-0.00000560,-0.00000560,0.000
 00050,0.00000082,0.00005564,0.00000648,-0.00001709,-0.00000286,-0.0000
 0442,0.00000625,-0.00001044,-0.00004498,0.00002489,0.00000234,-0.00000
 231,0.00000028,-0.00000424,-0.00000188,0.00000153,0.00000245,0.0000024
 8,-0.00000181,0.00000147,-0.00000703,0.00000471,-0.00000361,0.00000262
 ,0.00000139,0.00001114,0.00001514,-0.00001176,0.00000554,-0.00000073,-
 0.00000343,0.00000148,0.00000042,-0.00000064,-0.00000570,0.00000474,0.
 00001590,-0.00000210,-0.00000362,-0.00000133,-0.00000334,-0.00001199,-
 0.00000187,-0.00000121,0.00000180,0.00000007,0.00000148,-0.00000318,-0
 .00000171,-0.00000072,0.00000142,0.00000132,0.00001091,-0.00003317,-0.
 00000254,0.00000973,0.00002667,0.00004186,-0.00002118,0.00001466,-0.00
 002137,-0.00002973,0.00001507,-0.00003257,0.00000660,-0.00000226,-0.00
 000144,0.00001428,0.00002507,0.00002786,0.00000349,-0.00000056,0.00000
 289,0.00001605,-0.00004206,-0.00000446,0.00000224,-0.00000195,0.000002
 08,-0.00000150,-0.00000289,-0.00000395,-0.00000365,0.00000354,-0.00000
 046|||@


 THERE'S SMALL CHOICE IN A BOWL OF ROTTEN APPLES.
                     SHAKESPEARE
 Job cpu time:  0 days  0 hours  6 minutes 37.0 seconds.
 File lengths (MBytes):  RWF=    350 Int=      0 D2E=      0 Chk=      7 Scr=      1
 Normal termination of Gaussian 09 at Mon Sep 06 17:42:26 2021.
