 Entering Link 1 = b:\programy\g09w\l1.exe PID=     20300.
  
 Copyright (c) 1988,1990,1992,1993,1995,1998,2003,2009, Gaussian, Inc.
                  All Rights Reserved.
  
 This is part of the Gaussian(R) 09 program.  It is based on
 the Gaussian(R) 03 system (copyright 2003, Gaussian, Inc.),
 the Gaussian(R) 98 system (copyright 1998, Gaussian, Inc.),
 the Gaussian(R) 94 system (copyright 1995, Gaussian, Inc.),
 the Gaussian 92(TM) system (copyright 1992, Gaussian, Inc.),
 the Gaussian 90(TM) system (copyright 1990, Gaussian, Inc.),
 the Gaussian 88(TM) system (copyright 1988, Gaussian, Inc.),
 the Gaussian 86(TM) system (copyright 1986, Carnegie Mellon
 University), and the Gaussian 82(TM) system (copyright 1983,
 Carnegie Mellon University). Gaussian is a federally registered
 trademark of Gaussian, Inc.
  
 This software contains proprietary and confidential information,
 including trade secrets, belonging to Gaussian, Inc.
  
 This software is provided under written license and may be
 used, copied, transmitted, or stored only in accord with that
 written license.
  
 The following legend is applicable only to US Government
 contracts under FAR:
  
                    RESTRICTED RIGHTS LEGEND
  
 Use, reproduction and disclosure by the US Government is
 subject to restrictions as set forth in subparagraphs (a)
 and (c) of the Commercial Computer Software - Restricted
 Rights clause in FAR 52.227-19.
  
 Gaussian, Inc.
 340 Quinnipiac St., Bldg. 40, Wallingford CT 06492
  
  
 ---------------------------------------------------------------
 Warning -- This program may not be used in any manner that
 competes with the business of Gaussian, Inc. or will provide
 assistance to any competitor of Gaussian, Inc.  The licensee
 of this program is prohibited from giving any competitor of
 Gaussian, Inc. access to this program.  By using this program,
 the user acknowledges that Gaussian, Inc. is engaged in the
 business of creating and licensing software in the field of
 computational chemistry and represents and warrants to the
 licensee that it is not a competitor of Gaussian, Inc. and that
 it will not use this program in any manner prohibited above.
 ---------------------------------------------------------------
  

 Cite this work as:
 Gaussian 09, Revision A.02,
 M. J. Frisch, G. W. Trucks, H. B. Schlegel, G. E. Scuseria, 
 M. A. Robb, J. R. Cheeseman, G. Scalmani, V. Barone, B. Mennucci, 
 G. A. Petersson, H. Nakatsuji, M. Caricato, X. Li, H. P. Hratchian, 
 A. F. Izmaylov, J. Bloino, G. Zheng, J. L. Sonnenberg, M. Hada, 
 M. Ehara, K. Toyota, R. Fukuda, J. Hasegawa, M. Ishida, T. Nakajima, 
 Y. Honda, O. Kitao, H. Nakai, T. Vreven, J. A. Montgomery, Jr., 
 J. E. Peralta, F. Ogliaro, M. Bearpark, J. J. Heyd, E. Brothers, 
 K. N. Kudin, V. N. Staroverov, R. Kobayashi, J. Normand, 
 K. Raghavachari, A. Rendell, J. C. Burant, S. S. Iyengar, J. Tomasi, 
 M. Cossi, N. Rega, J. M. Millam, M. Klene, J. E. Knox, J. B. Cross, 
 V. Bakken, C. Adamo, J. Jaramillo, R. Gomperts, R. E. Stratmann, 
 O. Yazyev, A. J. Austin, R. Cammi, C. Pomelli, J. W. Ochterski, 
 R. L. Martin, K. Morokuma, V. G. Zakrzewski, G. A. Voth, 
 P. Salvador, J. J. Dannenberg, S. Dapprich, A. D. Daniels, 
 O. Farkas, J. B. Foresman, J. V. Ortiz, J. Cioslowski, 
 and D. J. Fox, Gaussian, Inc., Wallingford CT, 2009.
 
 ******************************************
 Gaussian 09:  IA32W-G09RevA.02 11-Jun-2009
                06-Sep-2021 
 ******************************************
 %nprocshared=12
 Will use up to   12 processors via shared memory.
 ----------------------------------------------
 # opt freq=noraman hf/6-311g geom=connectivity
 ----------------------------------------------
 1/18=20,19=15,38=1,57=2/1,3;
 2/9=110,12=2,17=6,18=5,40=1/2;
 3/5=4,6=6,11=9,16=1,25=1,30=1,71=1/1,2,3;
 4//1;
 5/5=2,38=5/2;
 6/7=2,8=2,9=2,10=2,28=1/1;
 7//1,2,3,16;
 1/18=20,19=15/3(2);
 2/9=110/2;
 99//99;
 2/9=110/2;
 3/5=4,6=6,11=9,16=1,25=1,30=1,71=1/1,2,3;
 4/5=5,16=3/1;
 5/5=2,38=5/2;
 7//1,2,3,16;
 1/18=20,19=15/3(-5);
 2/9=110/2;
 6/7=2,8=2,9=2,10=2,19=2,28=1/1;
 99/9=1/99;
 -----
 M0001
 -----
 Symbolic Z-matrix:
 Charge =  0 Multiplicity = 1
 C                    -0.17478  -0.12511   0.73757 
 H                    -0.45774  -0.25      1.81813 
 C                     0.19344  -1.49866   0.2344 
 C                     0.9385   -1.70204  -0.92834 
 C                    -0.23528  -2.61083   0.9655 
 C                     1.25274  -2.98908  -1.34977 
 H                     1.28509  -0.83241  -1.50953 
 C                     0.07685  -3.89689   0.54109 
 H                    -0.82331  -2.4712    1.8804 
 C                     0.82239  -4.08925  -0.61709 
 H                     1.84169  -3.13388  -2.26125 
 H                    -0.26518  -4.76001   1.12144 
 H                     1.06967  -5.10246  -0.94953 
 C                    -1.38341   0.45484   0.04284 
 C                    -1.67698   0.1978   -1.29595 
 C                    -2.23393   1.28839   0.77648 
 C                    -2.80058   0.76166  -1.89126 
 H                    -1.02364  -0.46075  -1.88245 
 C                    -3.35416   1.85243   0.17924 
 H                    -2.0151    1.50277   1.82915 
 C                    -3.6406    1.58985  -1.15661 
 H                    -3.0222    0.54975  -2.94233 
 H                    -4.01257   2.50469   0.76221 
 H                    -4.52437   2.0333   -1.62615 
 C                     0.97455   0.85181   0.69221 
 C                     1.47935   1.34045  -0.51392 
 C                     1.53532   1.29571   1.89222 
 C                     2.51839   2.26313  -0.52209 
 H                     1.05576   0.96726  -1.45883 
 C                     2.57763   2.21567   1.88259 
 H                     1.15283   0.91922   2.84834 
 C                     3.06866   2.70378   0.67661 
 H                     2.90314   2.64184  -1.4744 
 H                     3.01117   2.55708   2.82825 
 H                     3.88668   3.43112   0.67081 
 

 GradGradGradGradGradGradGradGradGradGradGradGradGradGradGradGradGradGrad
 Berny optimization.
 Initialization pass.
                           ----------------------------
                           !    Initial Parameters    !
                           ! (Angstroms and Degrees)  !
 --------------------------                            --------------------------
 ! Name  Definition              Value          Derivative Info.                !
 --------------------------------------------------------------------------------
 ! R1    R(1,2)                  1.124          estimate D2E/DX2                !
 ! R2    R(1,3)                  1.5084         estimate D2E/DX2                !
 ! R3    R(1,14)                 1.5099         estimate D2E/DX2                !
 ! R4    R(1,25)                 1.5091         estimate D2E/DX2                !
 ! R5    R(3,4)                  1.3959         estimate D2E/DX2                !
 ! R6    R(3,5)                  1.3983         estimate D2E/DX2                !
 ! R7    R(4,6)                  1.3903         estimate D2E/DX2                !
 ! R8    R(4,7)                  1.1019         estimate D2E/DX2                !
 ! R9    R(5,8)                  1.3898         estimate D2E/DX2                !
 ! R10   R(5,9)                  1.0965         estimate D2E/DX2                !
 ! R11   R(6,10)                 1.3901         estimate D2E/DX2                !
 ! R12   R(6,11)                 1.0948         estimate D2E/DX2                !
 ! R13   R(8,10)                 1.3908         estimate D2E/DX2                !
 ! R14   R(8,12)                 1.0949         estimate D2E/DX2                !
 ! R15   R(10,13)                1.0946         estimate D2E/DX2                !
 ! R16   R(14,15)                1.3945         estimate D2E/DX2                !
 ! R17   R(14,16)                1.3987         estimate D2E/DX2                !
 ! R18   R(15,17)                1.391          estimate D2E/DX2                !
 ! R19   R(15,18)                1.0975         estimate D2E/DX2                !
 ! R20   R(16,19)                1.3892         estimate D2E/DX2                !
 ! R21   R(16,20)                1.0963         estimate D2E/DX2                !
 ! R22   R(17,21)                1.3897         estimate D2E/DX2                !
 ! R23   R(17,22)                1.0949         estimate D2E/DX2                !
 ! R24   R(19,21)                1.3912         estimate D2E/DX2                !
 ! R25   R(19,23)                1.0949         estimate D2E/DX2                !
 ! R26   R(21,24)                1.0946         estimate D2E/DX2                !
 ! R27   R(25,26)                1.3958         estimate D2E/DX2                !
 ! R28   R(25,27)                1.397          estimate D2E/DX2                !
 ! R29   R(26,28)                1.3896         estimate D2E/DX2                !
 ! R30   R(26,29)                1.1007         estimate D2E/DX2                !
 ! R31   R(27,30)                1.3903         estimate D2E/DX2                !
 ! R32   R(27,31)                1.0965         estimate D2E/DX2                !
 ! R33   R(28,32)                1.3906         estimate D2E/DX2                !
 ! R34   R(28,33)                1.0947         estimate D2E/DX2                !
 ! R35   R(30,32)                1.3906         estimate D2E/DX2                !
 ! R36   R(30,34)                1.0949         estimate D2E/DX2                !
 ! R37   R(32,35)                1.0946         estimate D2E/DX2                !
 ! A1    A(2,1,3)              106.3178         estimate D2E/DX2                !
 ! A2    A(2,1,14)             106.4699         estimate D2E/DX2                !
 ! A3    A(2,1,25)             107.0115         estimate D2E/DX2                !
 ! A4    A(3,1,14)             113.0584         estimate D2E/DX2                !
 ! A5    A(3,1,25)             113.174          estimate D2E/DX2                !
 ! A6    A(14,1,25)            110.3138         estimate D2E/DX2                !
 ! A7    A(1,3,4)              122.7397         estimate D2E/DX2                !
 ! A8    A(1,3,5)              118.3593         estimate D2E/DX2                !
 ! A9    A(4,3,5)              118.9008         estimate D2E/DX2                !
 ! A10   A(3,4,6)              120.5331         estimate D2E/DX2                !
 ! A11   A(3,4,7)              119.4892         estimate D2E/DX2                !
 ! A12   A(6,4,7)              119.9759         estimate D2E/DX2                !
 ! A13   A(3,5,8)              120.4965         estimate D2E/DX2                !
 ! A14   A(3,5,9)              119.9601         estimate D2E/DX2                !
 ! A15   A(8,5,9)              119.5434         estimate D2E/DX2                !
 ! A16   A(4,6,10)             120.1935         estimate D2E/DX2                !
 ! A17   A(4,6,11)             119.7622         estimate D2E/DX2                !
 ! A18   A(10,6,11)            120.0443         estimate D2E/DX2                !
 ! A19   A(5,8,10)             120.1785         estimate D2E/DX2                !
 ! A20   A(5,8,12)             119.8318         estimate D2E/DX2                !
 ! A21   A(10,8,12)            119.9897         estimate D2E/DX2                !
 ! A22   A(6,10,8)             119.6972         estimate D2E/DX2                !
 ! A23   A(6,10,13)            120.1687         estimate D2E/DX2                !
 ! A24   A(8,10,13)            120.1341         estimate D2E/DX2                !
 ! A25   A(1,14,15)            122.6468         estimate D2E/DX2                !
 ! A26   A(1,14,16)            118.3141         estimate D2E/DX2                !
 ! A27   A(15,14,16)           119.0381         estimate D2E/DX2                !
 ! A28   A(14,15,17)           120.4124         estimate D2E/DX2                !
 ! A29   A(14,15,18)           119.8892         estimate D2E/DX2                !
 ! A30   A(17,15,18)           119.696          estimate D2E/DX2                !
 ! A31   A(14,16,19)           120.4524         estimate D2E/DX2                !
 ! A32   A(14,16,20)           119.9189         estimate D2E/DX2                !
 ! A33   A(19,16,20)           119.6283         estimate D2E/DX2                !
 ! A34   A(15,17,21)           120.2389         estimate D2E/DX2                !
 ! A35   A(15,17,22)           119.7291         estimate D2E/DX2                !
 ! A36   A(21,17,22)           120.0319         estimate D2E/DX2                !
 ! A37   A(16,19,21)           120.1465         estimate D2E/DX2                !
 ! A38   A(16,19,23)           119.8612         estimate D2E/DX2                !
 ! A39   A(21,19,23)           119.9923         estimate D2E/DX2                !
 ! A40   A(17,21,19)           119.7116         estimate D2E/DX2                !
 ! A41   A(17,21,24)           120.179          estimate D2E/DX2                !
 ! A42   A(19,21,24)           120.1093         estimate D2E/DX2                !
 ! A43   A(1,25,26)            121.8721         estimate D2E/DX2                !
 ! A44   A(1,25,27)            119.0521         estimate D2E/DX2                !
 ! A45   A(26,25,27)           119.0681         estimate D2E/DX2                !
 ! A46   A(25,26,28)           120.5265         estimate D2E/DX2                !
 ! A47   A(25,26,29)           118.942          estimate D2E/DX2                !
 ! A48   A(28,26,29)           120.519          estimate D2E/DX2                !
 ! A49   A(25,27,30)           120.3492         estimate D2E/DX2                !
 ! A50   A(25,27,31)           119.9946         estimate D2E/DX2                !
 ! A51   A(30,27,31)           119.6562         estimate D2E/DX2                !
 ! A52   A(26,28,32)           120.0799         estimate D2E/DX2                !
 ! A53   A(26,28,33)           119.8429         estimate D2E/DX2                !
 ! A54   A(32,28,33)           120.0772         estimate D2E/DX2                !
 ! A55   A(27,30,32)           120.1996         estimate D2E/DX2                !
 ! A56   A(27,30,34)           119.816          estimate D2E/DX2                !
 ! A57   A(32,30,34)           119.9843         estimate D2E/DX2                !
 ! A58   A(28,32,30)           119.7748         estimate D2E/DX2                !
 ! A59   A(28,32,35)           120.112          estimate D2E/DX2                !
 ! A60   A(30,32,35)           120.1131         estimate D2E/DX2                !
 ! D1    D(2,1,3,4)           -161.8444         estimate D2E/DX2                !
 ! D2    D(2,1,3,5)             18.3296         estimate D2E/DX2                !
 ! D3    D(14,1,3,4)            81.6886         estimate D2E/DX2                !
 ! D4    D(14,1,3,5)           -98.1374         estimate D2E/DX2                !
 ! D5    D(25,1,3,4)           -44.656          estimate D2E/DX2                !
 ! D6    D(25,1,3,5)           135.518          estimate D2E/DX2                !
 ! D7    D(2,1,14,15)         -149.6161         estimate D2E/DX2                !
 ! D8    D(2,1,14,16)           30.7429         estimate D2E/DX2                !
 ! D9    D(3,1,14,15)          -33.2391         estimate D2E/DX2                !
 ! D10   D(3,1,14,16)          147.1199         estimate D2E/DX2                !
 ! D11   D(25,1,14,15)          94.614          estimate D2E/DX2                !
 ! D12   D(25,1,14,16)         -85.0269         estimate D2E/DX2                !
 ! D13   D(2,1,25,26)         -173.1034         estimate D2E/DX2                !
 ! D14   D(2,1,25,27)            5.8725         estimate D2E/DX2                !
 ! D15   D(3,1,25,26)           70.116          estimate D2E/DX2                !
 ! D16   D(3,1,25,27)         -110.9081         estimate D2E/DX2                !
 ! D17   D(14,1,25,26)         -57.6736         estimate D2E/DX2                !
 ! D18   D(14,1,25,27)         121.3024         estimate D2E/DX2                !
 ! D19   D(1,3,4,6)            179.9608         estimate D2E/DX2                !
 ! D20   D(1,3,4,7)              0.443          estimate D2E/DX2                !
 ! D21   D(5,3,4,6)             -0.2141         estimate D2E/DX2                !
 ! D22   D(5,3,4,7)           -179.7319         estimate D2E/DX2                !
 ! D23   D(1,3,5,8)            179.8865         estimate D2E/DX2                !
 ! D24   D(1,3,5,9)             -0.043          estimate D2E/DX2                !
 ! D25   D(4,3,5,8)              0.0537         estimate D2E/DX2                !
 ! D26   D(4,3,5,9)           -179.8758         estimate D2E/DX2                !
 ! D27   D(3,4,6,10)             0.2254         estimate D2E/DX2                !
 ! D28   D(3,4,6,11)          -179.7236         estimate D2E/DX2                !
 ! D29   D(7,4,6,10)           179.7409         estimate D2E/DX2                !
 ! D30   D(7,4,6,11)            -0.2081         estimate D2E/DX2                !
 ! D31   D(3,5,8,10)             0.0962         estimate D2E/DX2                !
 ! D32   D(3,5,8,12)          -179.9459         estimate D2E/DX2                !
 ! D33   D(9,5,8,10)          -179.9739         estimate D2E/DX2                !
 ! D34   D(9,5,8,12)            -0.0161         estimate D2E/DX2                !
 ! D35   D(4,6,10,8)            -0.073          estimate D2E/DX2                !
 ! D36   D(4,6,10,13)          179.9726         estimate D2E/DX2                !
 ! D37   D(11,6,10,8)          179.8758         estimate D2E/DX2                !
 ! D38   D(11,6,10,13)          -0.0785         estimate D2E/DX2                !
 ! D39   D(5,8,10,6)            -0.0869         estimate D2E/DX2                !
 ! D40   D(5,8,10,13)          179.8675         estimate D2E/DX2                !
 ! D41   D(12,8,10,6)          179.9553         estimate D2E/DX2                !
 ! D42   D(12,8,10,13)          -0.0903         estimate D2E/DX2                !
 ! D43   D(1,14,15,17)        -179.7133         estimate D2E/DX2                !
 ! D44   D(1,14,15,18)           0.8584         estimate D2E/DX2                !
 ! D45   D(16,14,15,17)         -0.0748         estimate D2E/DX2                !
 ! D46   D(16,14,15,18)       -179.5031         estimate D2E/DX2                !
 ! D47   D(1,14,16,19)         179.6099         estimate D2E/DX2                !
 ! D48   D(1,14,16,20)          -0.1517         estimate D2E/DX2                !
 ! D49   D(15,14,16,19)         -0.0443         estimate D2E/DX2                !
 ! D50   D(15,14,16,20)       -179.8059         estimate D2E/DX2                !
 ! D51   D(14,15,17,21)          0.1318         estimate D2E/DX2                !
 ! D52   D(14,15,17,22)       -179.8051         estimate D2E/DX2                !
 ! D53   D(18,15,17,21)        179.5612         estimate D2E/DX2                !
 ! D54   D(18,15,17,22)         -0.3757         estimate D2E/DX2                !
 ! D55   D(14,16,19,21)          0.1071         estimate D2E/DX2                !
 ! D56   D(14,16,19,23)       -179.9113         estimate D2E/DX2                !
 ! D57   D(20,16,19,21)        179.8694         estimate D2E/DX2                !
 ! D58   D(20,16,19,23)         -0.149          estimate D2E/DX2                !
 ! D59   D(15,17,21,19)         -0.0686         estimate D2E/DX2                !
 ! D60   D(15,17,21,24)        179.9817         estimate D2E/DX2                !
 ! D61   D(22,17,21,19)        179.8681         estimate D2E/DX2                !
 ! D62   D(22,17,21,24)         -0.0816         estimate D2E/DX2                !
 ! D63   D(16,19,21,17)         -0.0504         estimate D2E/DX2                !
 ! D64   D(16,19,21,24)        179.8994         estimate D2E/DX2                !
 ! D65   D(23,19,21,17)        179.9681         estimate D2E/DX2                !
 ! D66   D(23,19,21,24)         -0.0822         estimate D2E/DX2                !
 ! D67   D(1,25,26,28)         178.4985         estimate D2E/DX2                !
 ! D68   D(1,25,26,29)          -2.787          estimate D2E/DX2                !
 ! D69   D(27,25,26,28)         -0.4772         estimate D2E/DX2                !
 ! D70   D(27,25,26,29)        178.2373         estimate D2E/DX2                !
 ! D71   D(1,25,27,30)        -178.7312         estimate D2E/DX2                !
 ! D72   D(1,25,27,31)           1.2035         estimate D2E/DX2                !
 ! D73   D(26,25,27,30)          0.2738         estimate D2E/DX2                !
 ! D74   D(26,25,27,31)       -179.7915         estimate D2E/DX2                !
 ! D75   D(25,26,28,32)          0.2697         estimate D2E/DX2                !
 ! D76   D(25,26,28,33)       -179.7675         estimate D2E/DX2                !
 ! D77   D(29,26,28,32)       -178.4245         estimate D2E/DX2                !
 ! D78   D(29,26,28,33)          1.5383         estimate D2E/DX2                !
 ! D79   D(25,27,30,32)          0.1373         estimate D2E/DX2                !
 ! D80   D(25,27,30,34)       -179.9539         estimate D2E/DX2                !
 ! D81   D(31,27,30,32)       -179.7977         estimate D2E/DX2                !
 ! D82   D(31,27,30,34)          0.1111         estimate D2E/DX2                !
 ! D83   D(26,28,32,30)          0.1463         estimate D2E/DX2                !
 ! D84   D(26,28,32,35)       -179.9571         estimate D2E/DX2                !
 ! D85   D(33,28,32,30)       -179.8163         estimate D2E/DX2                !
 ! D86   D(33,28,32,35)          0.0803         estimate D2E/DX2                !
 ! D87   D(27,30,32,28)         -0.3489         estimate D2E/DX2                !
 ! D88   D(27,30,32,35)        179.7545         estimate D2E/DX2                !
 ! D89   D(34,30,32,28)        179.7425         estimate D2E/DX2                !
 ! D90   D(34,30,32,35)         -0.1541         estimate D2E/DX2                !
 --------------------------------------------------------------------------------
 Trust Radius=3.00D-01 FncErr=1.00D-07 GrdErr=1.00D-07
 Number of steps in this run= 197 maximum allowed number of steps= 210.
 GradGradGradGradGradGradGradGradGradGradGradGradGradGradGradGradGradGrad

                          Input orientation:                          
 ---------------------------------------------------------------------
 Center     Atomic      Atomic             Coordinates (Angstroms)
 Number     Number       Type             X           Y           Z
 ---------------------------------------------------------------------
      1          6           0       -0.174778   -0.125109    0.737572
      2          1           0       -0.457740   -0.249997    1.818133
      3          6           0        0.193439   -1.498660    0.234404
      4          6           0        0.938497   -1.702040   -0.928339
      5          6           0       -0.235283   -2.610830    0.965505
      6          6           0        1.252739   -2.989082   -1.349774
      7          1           0        1.285094   -0.832406   -1.509530
      8          6           0        0.076847   -3.896893    0.541091
      9          1           0       -0.823311   -2.471201    1.880399
     10          6           0        0.822394   -4.089254   -0.617089
     11          1           0        1.841688   -3.133880   -2.261246
     12          1           0       -0.265184   -4.760011    1.121445
     13          1           0        1.069667   -5.102456   -0.949526
     14          6           0       -1.383411    0.454843    0.042836
     15          6           0       -1.676985    0.197801   -1.295955
     16          6           0       -2.233931    1.288394    0.776479
     17          6           0       -2.800580    0.761664   -1.891263
     18          1           0       -1.023645   -0.460746   -1.882453
     19          6           0       -3.354165    1.852433    0.179240
     20          1           0       -2.015096    1.502774    1.829153
     21          6           0       -3.640597    1.589852   -1.156613
     22          1           0       -3.022203    0.549746   -2.942328
     23          1           0       -4.012573    2.504692    0.762211
     24          1           0       -4.524372    2.033299   -1.626153
     25          6           0        0.974550    0.851805    0.692212
     26          6           0        1.479346    1.340455   -0.513918
     27          6           0        1.535324    1.295711    1.892223
     28          6           0        2.518385    2.263129   -0.522086
     29          1           0        1.055760    0.967258   -1.458834
     30          6           0        2.577630    2.215667    1.882589
     31          1           0        1.152834    0.919218    2.848341
     32          6           0        3.068659    2.703784    0.676613
     33          1           0        2.903143    2.641840   -1.474403
     34          1           0        3.011172    2.557079    2.828251
     35          1           0        3.886685    3.431121    0.670814
 ---------------------------------------------------------------------
                    Distance matrix (angstroms):
                    1          2          3          4          5
     1  C    0.000000
     2  H    1.123956   0.000000
     3  C    1.508444   2.119290   0.000000
     4  C    2.549775   3.406026   1.395868   0.000000
     5  C    2.496882   2.519919   1.398297   2.406305   0.000000
     6  C    3.820623   4.523711   2.419317   1.390263   2.778093
     7  H    2.771455   3.801317   2.162617   1.101896   3.405897
     8  C    3.785271   3.900829   2.420573   2.778317   1.389788
     9  H    2.689014   2.251947   2.165391   3.403614   1.096497
    10  C    4.306263   4.723234   2.798536   2.410217   2.410191
    11  H    4.702313   5.499589   3.408657   2.154660   3.872894
    12  H    4.651650   4.567567   3.410805   3.873196   2.155038
    13  H    5.400827   5.791310   3.893176   3.403011   3.402711
    14  C    1.509899   2.122580   2.517802   3.314601   3.401156
    15  C    2.548750   3.374111   2.952704   3.253503   3.883441
    16  C    2.497922   2.570321   3.735457   4.681175   4.385690
    17  C    3.819944   4.502442   4.311806   4.580148   5.110341
    18  H    2.774483   3.749534   2.653232   2.510208   3.654482
    19  C    3.785618   3.936427   4.880405   5.682249   5.501486
    20  H    2.688554   2.344715   4.053327   5.157355   4.564577
    21  C    4.305918   4.729137   5.116020   5.644179   5.809069
    22  H    4.701586   5.466082   4.962654   4.981348   5.746940
    23  H    4.652433   4.619538   5.830604   6.713245   6.362218
    24  H    5.400453   5.797763   6.180141   6.654520   6.832343
    25  C    1.509097   2.129113   2.518811   3.024832   3.678074
    26  C    2.539730   3.423493   3.205326   3.117858   4.554261
    27  C    2.505274   2.523293   3.515327   4.159121   4.388043
    28  C    3.813600   4.544200   4.486503   4.287616   5.792330
    29  H    2.744392   3.809319   3.113102   2.724027   4.510756
    30  C    3.790257   3.911154   4.711380   5.092789   5.661148
    31  H    2.703428   2.241059   3.687715   4.602201   4.234759
    32  C    4.304211   4.739555   5.111064   5.150218   6.264552
    33  H    4.692807   5.522595   5.235099   4.798678   6.587368
    34  H    4.659973   4.575300   5.578233   6.045498   6.380954
    35  H    5.398770   5.808701   6.175213   6.131757   7.320016
                    6          7          8          9         10
     6  C    0.000000
     7  H    2.162827   0.000000
     8  C    2.404623   3.880205   0.000000
     9  H    3.874559   4.315396   2.153284   0.000000
    10  C    1.390109   3.408460   1.390763   3.400571   0.000000
    11  H    1.094810   2.484282   3.398521   4.969365   2.157534
    12  H    3.398118   4.975085   1.094883   2.475110   2.157601
    13  H    2.158718   4.312000   2.158938   4.302947   1.094641
    14  C    4.555136   3.344812   4.617166   3.500297   5.094103
    15  C    4.329250   3.143382   4.818422   4.235747   5.008652
    16  C    5.913934   4.701825   5.681752   4.164498   6.340524
    17  C    5.548937   4.402216   5.991502   5.346629   6.187153
    18  H    3.443566   2.368011   4.346464   4.270962   4.263223
    19  C    6.855779   5.619878   6.705038   5.290838   7.306259
    20  H    6.400085   5.243198   5.932263   4.149151   6.730990
    21  C    6.704378   5.500392   6.841488   5.801094   7.243039
    22  H    5.773617   4.745109   6.442897   6.100815   6.458171
    23  H    7.897186   6.660504   7.599510   6.015085   8.292135
    24  H    7.660007   6.478871   7.812512   6.803255   8.190957
    25  C    4.358843   2.789386   4.835168   3.960614   5.113852
    26  C    4.415302   2.397978   5.523573   5.056056   5.470280
    27  C    5.380506   4.020376   5.560202   4.444426   5.983541
    28  C    5.465587   3.475398   6.710985   6.273177   6.575574
    29  H    3.962741   1.814925   5.349573   5.148241   5.131403
    30  C    6.268406   4.740028   6.739208   5.790780   7.005802
    31  H    5.736633   4.698587   5.447576   4.041906   6.099442
    32  C    6.309717   4.523822   7.248327   6.586122   7.270814
    33  H    5.869127   3.832715   7.403053   7.161309   7.097333
    34  H    7.162952   5.769254   7.449505   6.394160   7.799670
    35  H    7.227686   5.449755   8.260235   7.647520   8.222202
                   11         12         13         14         15
    11  H    0.000000
    12  H    4.304162   0.000000
    13  H    2.488356   2.487573   0.000000
    14  C    5.346867   5.441372   6.155156   0.000000
    15  C    4.940946   5.693584   5.979703   1.394495   0.000000
    16  C    6.737577   6.370099   7.398366   1.398722   2.407189
    17  C    6.071475   6.781853   7.088977   2.417281   1.390970
    18  H    3.936910   5.299277   5.176657   2.162053   1.097506
    19  C    7.603695   7.358937   8.319549   2.419863   2.779737
    20  H    7.287298   6.541064   7.801660   2.165205   3.403464
    21  C    7.320472   7.543455   8.186359   2.796751   2.411015
    22  H    6.139251   7.232490   7.256862   3.406736   2.154999
    23  H    8.672207   8.182168   9.307412   3.410554   3.874631
    24  H    8.223735   8.475791   9.092311   3.891361   3.403777
    25  C    5.035924   5.763129   6.177182   2.477750   3.378042
    26  C    4.817065   6.552364   6.470602   3.047894   3.446689
    27  C    6.080003   6.364565   7.016332   3.556164   4.657125
    28  C    5.710543   7.731361   7.518865   4.337401   4.739787
    29  H    4.252161   6.419060   6.091060   2.909834   2.843675
    30  C    6.806661   7.571064   7.990604   4.709037   5.681256
    31  H    6.558201   6.102999   7.119781   3.810386   5.069863
    32  C    6.649420   8.186612   8.220564   5.027955   5.717701
    33  H    5.924926   8.459558   7.975667   5.045742   5.194491
    34  H    7.723839   8.196798   8.758397   5.611621   6.674884
    35  H    7.475173   9.194331   9.131431   6.084940   6.728815
                   16         17         18         19         20
    16  C    0.000000
    17  C    2.777657   0.000000
    18  H    3.405026   2.156818   0.000000
    19  C    1.389157   2.404832   3.877203   0.000000
    20  H    1.096344   3.873980   4.314441   2.153504   0.000000
    21  C    2.409653   1.389689   3.402975   1.391221   3.400681
    22  H    3.872530   1.094880   2.477633   3.398732   4.968858
    23  H    2.154798   3.398235   4.972099   1.094897   2.476312
    24  H    3.402006   2.158425   4.305932   2.159061   4.303146
    25  C    3.239145   4.575377   3.513470   4.472378   3.264105
    26  C    3.931445   4.533194   3.373748   4.909727   4.210398
    27  C    3.930932   5.779276   4.886885   5.210696   3.557012
    28  C    5.022040   5.693894   4.670768   5.928522   5.163227
    29  H    3.990215   3.885951   2.557845   4.786884   4.530761
    30  C    5.023389   6.729132   5.857295   6.182194   4.648032
    31  H    3.987366   6.173990   5.387186   5.320529   3.378619
    32  C    5.489149   6.694309   5.771483   6.498064   5.349330
    33  H    5.769559   6.020073   5.021176   6.520092   6.033244
    34  H    5.773252   7.698947   6.897662   6.930462   5.231934
    35  H    6.485706   7.642627   6.765880   7.427234   6.315955
                   21         22         23         24         25
    21  C    0.000000
    22  H    2.157084   0.000000
    23  H    2.158051   4.304214   0.000000
    24  H    1.094611   2.487923   2.487656   0.000000
    25  C    5.026176   5.410651   5.254363   6.083493   0.000000
    26  C    5.166147   5.175552   5.757181   6.145058   1.395832
    27  C    6.014323   6.685835   5.789450   7.045774   1.396978
    28  C    6.228081   6.284216   6.660420   7.132477   2.418632
    29  H    4.747076   4.359455   5.743235   5.683513   2.155673
    30  C    6.949441   7.577152   6.691006   7.923570   2.418053
    31  H    6.282228   7.148377   5.791986   7.313888   2.164538
    32  C    7.043839   7.405080   7.084548   7.962814   2.795596
    33  H    6.635375   6.453013   7.269690   7.453947   3.408507
    34  H    7.814134   8.586651   7.321494   8.769293   3.408585
    35  H    7.961767   8.312030   7.953924   8.830393   3.890226
                   26         27         28         29         30
    26  C    0.000000
    27  C    2.407208   0.000000
    28  C    1.389603   2.780503   0.000000
    29  H    1.100713   3.401095   2.167038   0.000000
    30  C    2.777673   1.390257   2.405873   3.878108   0.000000
    31  H    3.404238   1.096452   3.876932   4.308537   2.154878
    32  C    2.408723   2.410704   1.390632   3.409900   1.390592
    33  H    2.154840   3.875199   1.094701   2.493450   3.399556
    34  H    3.872565   2.155302   3.399118   4.972954   1.094896
    35  H    3.401434   3.403045   2.158578   4.315108   2.158553
                   31         32         33         34         35
    31  H    0.000000
    32  C    3.401685   0.000000
    33  H    4.971632   2.158264   0.000000
    34  H    2.477178   2.157399   4.304845   0.000000
    35  H    4.304093   1.094632   2.488428   2.486968   0.000000
 Stoichiometry    C19H16
 Framework group  C1[X(C19H16)]
 Deg. of freedom    99
 Full point group                 C1      NOp   1
 Largest Abelian subgroup         C1      NOp   1
 Largest concise Abelian subgroup C1      NOp   1
                         Standard orientation:                         
 ---------------------------------------------------------------------
 Center     Atomic      Atomic             Coordinates (Angstroms)
 Number     Number       Type             X           Y           Z
 ---------------------------------------------------------------------
      1          6           0        0.022463   -0.012852   -0.753899
      2          1           0       -0.000300   -0.006373   -1.877606
      3          6           0        1.457125   -0.262604   -0.360487
      4          6           0        1.825489   -0.700687    0.912635
      5          6           0        2.455546   -0.040903   -1.314026
      6          6           0        3.162642   -0.917204    1.225642
      7          1           0        1.046272   -0.882712    1.670172
      8          6           0        3.792074   -0.254627   -0.998548
      9          1           0        2.185886    0.305279   -2.318887
     10          6           0        4.148930   -0.694173    0.271757
     11          1           0        3.436999   -1.265186    2.226764
     12          1           0        4.565034   -0.076741   -1.753305
     13          1           0        5.201667   -0.864353    0.518784
     14          6           0       -0.486769    1.336712   -0.307633
     15          6           0       -0.063623    1.947880    0.872214
     16          6           0       -1.426076    1.990452   -1.111840
     17          6           0       -0.568109    3.190342    1.241782
     18          1           0        0.678992    1.451127    1.509614
     19          6           0       -1.930416    3.230134   -0.739568
     20          1           0       -1.771202    1.521677   -2.040876
     21          6           0       -1.502016    3.833589    0.438485
     22          1           0       -0.225691    3.661452    2.168911
     23          1           0       -2.666442    3.732591   -1.375652
     24          1           0       -1.898591    4.811179    0.730407
     25          6           0       -0.916396   -1.103493   -0.299564
     26          6           0       -1.233305   -1.289550    1.047024
     27          6           0       -1.501208   -1.937120   -1.255915
     28          6           0       -2.125508   -2.283138    1.431410
     29          1           0       -0.748992   -0.650848    1.801391
     30          6           0       -2.390459   -2.933546   -0.869676
     31          1           0       -1.260399   -1.806621   -2.317607
     32          6           0       -2.707142   -3.106305    0.473310
     33          1           0       -2.368965   -2.416744    2.490299
     34          1           0       -2.843156   -3.582471   -1.626485
     35          1           0       -3.410564   -3.888692    0.775449
 ---------------------------------------------------------------------
 Rotational constants (GHZ):      0.4000908      0.3720658      0.2368777
 Standard basis: 6-311G (5D, 7F)
 There are   295 symmetry adapted basis functions of A   symmetry.
 Integral buffers will be    262144 words long.
 Raffenetti 1 integral format.
 Two-electron integral symmetry is turned on.
   295 basis functions,   574 primitive gaussians,   295 cartesian basis functions
    65 alpha electrons       65 beta electrons
       nuclear repulsion energy      1288.3814056230 Hartrees.
 NAtoms=   35 NActive=   35 NUniq=   35 SFac= 7.50D-01 NAtFMM=   80 NAOKFM=F Big=F
 One-electron integrals computed using PRISM.
 PrsmSu:  requested number of processors reduced to:  10 ShMem   1 Linda.
 NBasis=   295 RedAO= T  NBF=   295
 NBsUse=   295 1.00D-06 NBFU=   295
 Harris functional with IExCor=  205 diagonalized for initial guess.
 ExpMin= 1.03D-01 ExpMax= 4.56D+03 ExpMxC= 6.82D+02 IAcc=1 IRadAn=         1 AccDes= 0.00D+00
 HarFok:  IExCor=  205 AccDes= 0.00D+00 IRadAn=         1 IDoV= 1
 ScaDFX=  1.000000  1.000000  1.000000  1.000000
 FoFCou: FMM=F IPFlag=           0 FMFlag=      100000 FMFlg1=           0
         NFxFlg=           0 DoJE=T BraDBF=F KetDBF=T FulRan=T
         Omega=  0.000000  0.000000  1.000000  0.000000  0.000000 ICntrl=     500 IOpCl=  0
         NMat0=    1 NMatS0=    1 NMatT0=    0 NMatD0=    1 NMtDS0=    0 NMtDT0=    0
         I1Cent=           4 NGrid=           0.
 Petite list used in FoFCou.
 Initial guess orbital symmetries:
       Occupied  (A) (A) (A) (A) (A) (A) (A) (A) (A) (A) (A) (A)
                 (A) (A) (A) (A) (A) (A) (A) (A) (A) (A) (A) (A)
                 (A) (A) (A) (A) (A) (A) (A) (A) (A) (A) (A) (A)
                 (A) (A) (A) (A) (A) (A) (A) (A) (A) (A) (A) (A)
                 (A) (A) (A) (A) (A) (A) (A) (A) (A) (A) (A) (A)
                 (A) (A) (A) (A) (A)
       Virtual   (A) (A) (A) (A) (A) (A) (A) (A) (A) (A) (A) (A)
                 (A) (A) (A) (A) (A) (A) (A) (A) (A) (A) (A) (A)
                 (A) (A) (A) (A) (A) (A) (A) (A) (A) (A) (A) (A)
                 (A) (A) (A) (A) (A) (A) (A) (A) (A) (A) (A) (A)
                 (A) (A) (A) (A) (A) (A) (A) (A) (A) (A) (A) (A)
                 (A) (A) (A) (A) (A) (A) (A) (A) (A) (A) (A) (A)
                 (A) (A) (A) (A) (A) (A) (A) (A) (A) (A) (A) (A)
                 (A) (A) (A) (A) (A) (A) (A) (A) (A) (A) (A) (A)
                 (A) (A) (A) (A) (A) (A) (A) (A) (A) (A) (A) (A)
                 (A) (A) (A) (A) (A) (A) (A) (A) (A) (A) (A) (A)
                 (A) (A) (A) (A) (A) (A) (A) (A) (A) (A) (A) (A)
                 (A) (A) (A) (A) (A) (A) (A) (A) (A) (A) (A) (A)
                 (A) (A) (A) (A) (A) (A) (A) (A) (A) (A) (A) (A)
                 (A) (A) (A) (A) (A) (A) (A) (A) (A) (A) (A) (A)
                 (A) (A) (A) (A) (A) (A) (A) (A) (A) (A) (A) (A)
                 (A) (A) (A) (A) (A) (A) (A) (A) (A) (A) (A) (A)
                 (A) (A) (A) (A) (A) (A) (A) (A) (A) (A) (A) (A)
                 (A) (A) (A) (A) (A) (A) (A) (A) (A) (A) (A) (A)
                 (A) (A) (A) (A) (A) (A) (A) (A) (A) (A) (A) (A)
                 (A) (A)
 The electronic state of the initial guess is 1-A.
 Requested convergence on RMS density matrix=1.00D-08 within 128 cycles.
 Requested convergence on MAX density matrix=1.00D-06.
 Requested convergence on             energy=1.00D-06.
 No special actions if energy rises.
 Integral accuracy reduced to 1.0D-05 until final iterations.
 Initial convergence to 1.0D-05 achieved.  Increase integral accuracy.
 SCF Done:  E(RHF) =  -728.671726832     A.U. after   14 cycles
             Convg  =    0.6177D-08             -V/T =  2.0001

 **********************************************************************

            Population analysis using the SCF density.

 **********************************************************************

 Orbital symmetries:
       Occupied  (A) (A) (A) (A) (A) (A) (A) (A) (A) (A) (A) (A)
                 (A) (A) (A) (A) (A) (A) (A) (A) (A) (A) (A) (A)
                 (A) (A) (A) (A) (A) (A) (A) (A) (A) (A) (A) (A)
                 (A) (A) (A) (A) (A) (A) (A) (A) (A) (A) (A) (A)
                 (A) (A) (A) (A) (A) (A) (A) (A) (A) (A) (A) (A)
                 (A) (A) (A) (A) (A)
       Virtual   (A) (A) (A) (A) (A) (A) (A) (A) (A) (A) (A) (A)
                 (A) (A) (A) (A) (A) (A) (A) (A) (A) (A) (A) (A)
                 (A) (A) (A) (A) (A) (A) (A) (A) (A) (A) (A) (A)
                 (A) (A) (A) (A) (A) (A) (A) (A) (A) (A) (A) (A)
                 (A) (A) (A) (A) (A) (A) (A) (A) (A) (A) (A) (A)
                 (A) (A) (A) (A) (A) (A) (A) (A) (A) (A) (A) (A)
                 (A) (A) (A) (A) (A) (A) (A) (A) (A) (A) (A) (A)
                 (A) (A) (A) (A) (A) (A) (A) (A) (A) (A) (A) (A)
                 (A) (A) (A) (A) (A) (A) (A) (A) (A) (A) (A) (A)
                 (A) (A) (A) (A) (A) (A) (A) (A) (A) (A) (A) (A)
                 (A) (A) (A) (A) (A) (A) (A) (A) (A) (A) (A) (A)
                 (A) (A) (A) (A) (A) (A) (A) (A) (A) (A) (A) (A)
                 (A) (A) (A) (A) (A) (A) (A) (A) (A) (A) (A) (A)
                 (A) (A) (A) (A) (A) (A) (A) (A) (A) (A) (A) (A)
                 (A) (A) (A) (A) (A) (A) (A) (A) (A) (A) (A) (A)
                 (A) (A) (A) (A) (A) (A) (A) (A) (A) (A) (A) (A)
                 (A) (A) (A) (A) (A) (A) (A) (A) (A) (A) (A) (A)
                 (A) (A) (A) (A) (A) (A) (A) (A) (A) (A) (A) (A)
                 (A) (A) (A) (A) (A) (A) (A) (A) (A) (A) (A) (A)
                 (A) (A)
 The electronic state is 1-A.
 Alpha  occ. eigenvalues --  -11.25830 -11.25272 -11.25261 -11.25131 -11.24447
 Alpha  occ. eigenvalues --  -11.24432 -11.24357 -11.24350 -11.24210 -11.24190
 Alpha  occ. eigenvalues --  -11.24128 -11.24117 -11.24110 -11.24054 -11.24026
 Alpha  occ. eigenvalues --  -11.24019 -11.23914 -11.23834 -11.23737  -1.18592
 Alpha  occ. eigenvalues --   -1.15826  -1.15680  -1.09038  -1.02411  -1.02115
 Alpha  occ. eigenvalues --   -1.01890  -1.01496  -1.01388  -0.92962  -0.84536
 Alpha  occ. eigenvalues --   -0.82942  -0.82543  -0.81707  -0.81562  -0.77732
 Alpha  occ. eigenvalues --   -0.70731  -0.70448  -0.69106  -0.65998  -0.63618
 Alpha  occ. eigenvalues --   -0.63502  -0.62368  -0.62032  -0.61900  -0.59569
 Alpha  occ. eigenvalues --   -0.58774  -0.58517  -0.58431  -0.57615  -0.53918
 Alpha  occ. eigenvalues --   -0.51740  -0.51079  -0.50852  -0.49676  -0.49167
 Alpha  occ. eigenvalues --   -0.48681  -0.47791  -0.47472  -0.46763  -0.34693
 Alpha  occ. eigenvalues --   -0.34245  -0.33700  -0.33586  -0.33278  -0.31179
 Alpha virt. eigenvalues --    0.11652   0.12014   0.13580   0.13744   0.14055
 Alpha virt. eigenvalues --    0.14930   0.15136   0.16274   0.16375   0.16882
 Alpha virt. eigenvalues --    0.18808   0.19132   0.19284   0.21284   0.21420
 Alpha virt. eigenvalues --    0.21511   0.23638   0.24242   0.24984   0.27155
 Alpha virt. eigenvalues --    0.28521   0.29478   0.34028   0.34193   0.35871
 Alpha virt. eigenvalues --    0.37466   0.38510   0.39683   0.40955   0.43680
 Alpha virt. eigenvalues --    0.44099   0.44376   0.45026   0.45395   0.45575
 Alpha virt. eigenvalues --    0.45869   0.46404   0.48412   0.49896   0.50379
 Alpha virt. eigenvalues --    0.50799   0.51018   0.51446   0.54975   0.55781
 Alpha virt. eigenvalues --    0.56804   0.57907   0.58955   0.59052   0.59612
 Alpha virt. eigenvalues --    0.59687   0.60668   0.61070   0.61496   0.61698
 Alpha virt. eigenvalues --    0.61851   0.62382   0.62467   0.63285   0.63464
 Alpha virt. eigenvalues --    0.64135   0.64997   0.65163   0.65420   0.66900
 Alpha virt. eigenvalues --    0.67409   0.68226   0.68436   0.70114   0.71401
 Alpha virt. eigenvalues --    0.72346   0.73796   0.74456   0.75069   0.76218
 Alpha virt. eigenvalues --    0.77290   0.78319   0.78614   0.80470   0.81179
 Alpha virt. eigenvalues --    0.81859   0.82195   0.82344   0.82823   0.82912
 Alpha virt. eigenvalues --    0.83517   0.83924   0.84057   0.84786   0.85603
 Alpha virt. eigenvalues --    0.86038   0.86385   0.86899   0.87458   0.88062
 Alpha virt. eigenvalues --    0.89670   0.90552   0.91266   0.92977   0.94404
 Alpha virt. eigenvalues --    0.96094   0.96852   0.97682   0.98141   0.98947
 Alpha virt. eigenvalues --    0.99329   1.00299   1.02795   1.05747   1.06224
 Alpha virt. eigenvalues --    1.06803   1.07137   1.08018   1.08372   1.10516
 Alpha virt. eigenvalues --    1.11088   1.12221   1.12488   1.12989   1.14258
 Alpha virt. eigenvalues --    1.14639   1.15384   1.18583   1.19492   1.21723
 Alpha virt. eigenvalues --    1.25344   1.26742   1.27698   1.28213   1.28827
 Alpha virt. eigenvalues --    1.30337   1.35121   1.39517   1.45232   1.46616
 Alpha virt. eigenvalues --    1.51676   1.52269   1.56505   2.54622   2.55623
 Alpha virt. eigenvalues --    2.56175   2.59195   2.61965   2.62495   2.64466
 Alpha virt. eigenvalues --    2.66995   2.67724   2.68457   2.72301   2.76747
 Alpha virt. eigenvalues --    2.77765   2.83501   2.87916   2.88620   2.94131
 Alpha virt. eigenvalues --    2.94274   2.94424   2.97079   2.97454   2.98028
 Alpha virt. eigenvalues --    3.00378   3.00775   3.04043   3.05738   3.07135
 Alpha virt. eigenvalues --    3.08140   3.08429   3.08976   3.09975   3.14335
 Alpha virt. eigenvalues --    3.14782   3.16345   3.16829   3.17567   3.18837
 Alpha virt. eigenvalues --    3.22644   3.25645   3.25820   3.28289   3.28891
 Alpha virt. eigenvalues --    3.30918   3.33376   3.34271   3.35154   3.42626
 Alpha virt. eigenvalues --    3.43067   3.44414   3.46940   3.49493   3.52249
 Alpha virt. eigenvalues --    3.53437   3.54459   3.59226   3.60656   3.60670
 Alpha virt. eigenvalues --    3.63123   3.63509   3.63777   3.65965   3.66665
 Alpha virt. eigenvalues --    3.68370   3.70273   3.70469   3.71423   3.73478
 Alpha virt. eigenvalues --    3.74197   3.75554   3.80870   3.85855   3.86662
 Alpha virt. eigenvalues --    3.93016  24.24839  24.30692  24.31559  24.50535
 Alpha virt. eigenvalues --   24.50835  24.51120  24.53995  24.54669  24.56109
 Alpha virt. eigenvalues --   24.77289  24.78595  24.79147  24.79613  24.80640
 Alpha virt. eigenvalues --   24.81840  24.83250  25.05545  25.05808  25.06126
          Condensed to atoms (all electrons):
              1          2          3          4          5          6
     1  C    5.830277   0.463933   0.170660  -0.045872  -0.045313   0.003573
     2  H    0.463933   0.512429  -0.073824   0.005105   0.002818  -0.000275
     3  C    0.170660  -0.073824   5.366671   0.450288   0.495176  -0.064471
     4  C   -0.045872   0.005105   0.450288   5.121811  -0.061483   0.473355
     5  C   -0.045313   0.002818   0.495176  -0.061483   5.040867  -0.036101
     6  C    0.003573  -0.000275  -0.064471   0.473355  -0.036101   5.056457
     7  H   -0.000312  -0.000141  -0.053038   0.386633   0.004509  -0.025350
     8  C    0.008267   0.001516  -0.071572  -0.031230   0.471733  -0.075115
     9  H   -0.000719   0.002685  -0.045666   0.004754   0.394464  -0.000401
    10  C    0.001139  -0.000016  -0.017745  -0.094832  -0.086747   0.495832
    11  H   -0.000295   0.000014   0.006028  -0.036763  -0.000392   0.395579
    12  H   -0.000389  -0.000029   0.007146  -0.000598  -0.039664   0.006225
    13  H   -0.000019  -0.000001  -0.001593   0.008119   0.007488  -0.042534
    14  C    0.157529  -0.059887  -0.103806  -0.005816  -0.001461   0.000880
    15  C   -0.040052   0.004913  -0.014452  -0.007369   0.001906  -0.001486
    16  C   -0.050147  -0.003300   0.006398  -0.000176   0.000450   0.000023
    17  C    0.004838  -0.000248   0.000514   0.000016  -0.000090  -0.000031
    18  H   -0.001659  -0.000068  -0.003173   0.001068  -0.000890   0.000960
    19  C    0.006260   0.001549  -0.000759   0.000025  -0.000017   0.000000
    20  H    0.001784   0.001055   0.000695  -0.000038   0.000013   0.000000
    21  C    0.000990   0.000009   0.000046  -0.000019  -0.000013   0.000000
    22  H   -0.000325   0.000013   0.000037   0.000028   0.000007  -0.000001
    23  H   -0.000351  -0.000026   0.000011   0.000000   0.000001   0.000000
    24  H   -0.000012  -0.000002  -0.000001   0.000001   0.000000   0.000000
    25  C    0.185210  -0.074342  -0.112215  -0.004645   0.001969   0.001541
    26  C   -0.054376   0.005553  -0.006307  -0.017204   0.000222  -0.000013
    27  C   -0.026196   0.002064  -0.000337   0.001493   0.000195   0.000042
    28  C    0.001398  -0.000282   0.001776  -0.001737   0.000028  -0.000089
    29  H    0.003105   0.000067  -0.003178   0.000306  -0.000195   0.000858
    30  C    0.007683   0.001759  -0.000602   0.000126  -0.000009   0.000000
    31  H   -0.000484   0.002416   0.000560   0.000002   0.000135   0.000003
    32  C    0.001273  -0.000013  -0.000035   0.000045  -0.000001   0.000003
    33  H   -0.000319   0.000012   0.000008   0.000016   0.000000   0.000001
    34  H   -0.000368  -0.000037   0.000020  -0.000001   0.000000   0.000000
    35  H   -0.000013  -0.000001  -0.000001   0.000001   0.000000   0.000000
              7          8          9         10         11         12
     1  C   -0.000312   0.008267  -0.000719   0.001139  -0.000295  -0.000389
     2  H   -0.000141   0.001516   0.002685  -0.000016   0.000014  -0.000029
     3  C   -0.053038  -0.071572  -0.045666  -0.017745   0.006028   0.007146
     4  C    0.386633  -0.031230   0.004754  -0.094832  -0.036763  -0.000598
     5  C    0.004509   0.471733   0.394464  -0.086747  -0.000392  -0.039664
     6  C   -0.025350  -0.075115  -0.000401   0.495832   0.395579   0.006225
     7  H    0.498381  -0.000213  -0.000243   0.004795  -0.003439   0.000020
     8  C   -0.000213   5.044560  -0.034680   0.494613   0.005897   0.396649
     9  H   -0.000243  -0.034680   0.507671   0.005349   0.000022  -0.004215
    10  C    0.004795   0.494613   0.005349   5.030396  -0.039658  -0.041054
    11  H   -0.003439   0.005897   0.000022  -0.039658   0.515467  -0.000212
    12  H    0.000020   0.396649  -0.004215  -0.041054  -0.000212   0.517929
    13  H   -0.000183  -0.042955  -0.000183   0.399164  -0.004353  -0.004547
    14  C   -0.000494  -0.000716   0.000480   0.000023  -0.000007   0.000022
    15  C    0.000341   0.000227   0.000187   0.000081   0.000013  -0.000001
    16  C   -0.000028   0.000003   0.000117  -0.000001  -0.000001   0.000000
    17  C    0.000051  -0.000003   0.000009   0.000004   0.000001   0.000000
    18  H    0.000140  -0.000135  -0.000037   0.000047  -0.000002   0.000001
    19  C    0.000006   0.000001  -0.000008   0.000000   0.000000   0.000000
    20  H    0.000007   0.000001   0.000004   0.000000   0.000000   0.000000
    21  C    0.000001   0.000000  -0.000004   0.000000   0.000000   0.000000
    22  H   -0.000017   0.000001   0.000000  -0.000001   0.000000   0.000000
    23  H    0.000000   0.000000   0.000000   0.000000   0.000000   0.000000
    24  H    0.000000   0.000000   0.000000   0.000000   0.000000   0.000000
    25  C   -0.003012  -0.000680   0.000362   0.000021   0.000011   0.000014
    26  C    0.002868   0.000029  -0.000026  -0.000005   0.000031   0.000000
    27  C   -0.000257  -0.000004  -0.000022  -0.000011   0.000002   0.000001
    28  C    0.001157  -0.000001   0.000002   0.000001   0.000000   0.000000
    29  H    0.003449   0.000016  -0.000007  -0.000011  -0.000053   0.000000
    30  C   -0.000139   0.000001   0.000001   0.000000   0.000000   0.000000
    31  H   -0.000005   0.000003  -0.000025  -0.000001   0.000000   0.000000
    32  C    0.000079   0.000000   0.000000   0.000000  -0.000001   0.000000
    33  H   -0.000105   0.000000   0.000000   0.000000   0.000001   0.000000
    34  H    0.000000   0.000000   0.000000   0.000000   0.000000   0.000000
    35  H    0.000000   0.000000   0.000000   0.000000   0.000000   0.000000
             13         14         15         16         17         18
     1  C   -0.000019   0.157529  -0.040052  -0.050147   0.004838  -0.001659
     2  H   -0.000001  -0.059887   0.004913  -0.003300  -0.000248  -0.000068
     3  C   -0.001593  -0.103806  -0.014452   0.006398   0.000514  -0.003173
     4  C    0.008119  -0.005816  -0.007369  -0.000176   0.000016   0.001068
     5  C    0.007488  -0.001461   0.001906   0.000450  -0.000090  -0.000890
     6  C   -0.042534   0.000880  -0.001486   0.000023  -0.000031   0.000960
     7  H   -0.000183  -0.000494   0.000341  -0.000028   0.000051   0.000140
     8  C   -0.042955  -0.000716   0.000227   0.000003  -0.000003  -0.000135
     9  H   -0.000183   0.000480   0.000187   0.000117   0.000009  -0.000037
    10  C    0.399164   0.000023   0.000081  -0.000001   0.000004   0.000047
    11  H   -0.004353  -0.000007   0.000013  -0.000001   0.000001  -0.000002
    12  H   -0.004547   0.000022  -0.000001   0.000000   0.000000   0.000001
    13  H    0.517643   0.000001  -0.000001   0.000000   0.000000   0.000001
    14  C    0.000001   5.366299   0.486029   0.473056  -0.064589  -0.042640
    15  C   -0.000001   0.486029   5.087603  -0.071981   0.471460   0.390197
    16  C    0.000000   0.473056  -0.071981   5.071768  -0.031575   0.004188
    17  C    0.000000  -0.064589   0.471460  -0.031575   5.050468  -0.029944
    18  H    0.000001  -0.042640   0.390197   0.004188  -0.029944   0.481462
    19  C    0.000000  -0.065288  -0.027891   0.466282  -0.076888  -0.000182
    20  H    0.000000  -0.050645   0.004139   0.399577  -0.000335  -0.000249
    21  C    0.000000  -0.018512  -0.093476  -0.086117   0.499307   0.004709
    22  H    0.000000   0.006182  -0.037583  -0.000424   0.395904  -0.003332
    23  H    0.000000   0.006702  -0.000523  -0.039638   0.006121   0.000020
    24  H    0.000000  -0.001479   0.007824   0.007375  -0.042205  -0.000182
    25  C   -0.000002  -0.154169  -0.014045   0.000705   0.000627  -0.001025
    26  C    0.000001  -0.007707  -0.000040   0.000791  -0.000657   0.000495
    27  C    0.000000  -0.005704  -0.000319   0.002049   0.000027  -0.000082
    28  C    0.000000   0.000736  -0.000031  -0.000067  -0.000016   0.000062
    29  H    0.000000  -0.001868   0.004740  -0.000267   0.000444   0.001019
    30  C    0.000000  -0.000463   0.000048  -0.000099  -0.000001   0.000002
    31  H    0.000000   0.000150  -0.000048   0.000252   0.000000   0.000000
    32  C    0.000000   0.000097  -0.000004  -0.000014   0.000000   0.000002
    33  H    0.000000   0.000017  -0.000002   0.000006  -0.000001  -0.000009
    34  H    0.000000   0.000011   0.000000   0.000003   0.000000   0.000000
    35  H    0.000000  -0.000002   0.000000   0.000000   0.000000   0.000000
             19         20         21         22         23         24
     1  C    0.006260   0.001784   0.000990  -0.000325  -0.000351  -0.000012
     2  H    0.001549   0.001055   0.000009   0.000013  -0.000026  -0.000002
     3  C   -0.000759   0.000695   0.000046   0.000037   0.000011  -0.000001
     4  C    0.000025  -0.000038  -0.000019   0.000028   0.000000   0.000001
     5  C   -0.000017   0.000013  -0.000013   0.000007   0.000001   0.000000
     6  C    0.000000   0.000000   0.000000  -0.000001   0.000000   0.000000
     7  H    0.000006   0.000007   0.000001  -0.000017   0.000000   0.000000
     8  C    0.000001   0.000001   0.000000   0.000001   0.000000   0.000000
     9  H   -0.000008   0.000004  -0.000004   0.000000   0.000000   0.000000
    10  C    0.000000   0.000000   0.000000  -0.000001   0.000000   0.000000
    11  H    0.000000   0.000000   0.000000   0.000000   0.000000   0.000000
    12  H    0.000000   0.000000   0.000000   0.000000   0.000000   0.000000
    13  H    0.000000   0.000000   0.000000   0.000000   0.000000   0.000000
    14  C   -0.065288  -0.050645  -0.018512   0.006182   0.006702  -0.001479
    15  C   -0.027891   0.004139  -0.093476  -0.037583  -0.000523   0.007824
    16  C    0.466282   0.399577  -0.086117  -0.000424  -0.039638   0.007375
    17  C   -0.076888  -0.000335   0.499307   0.395904   0.006121  -0.042205
    18  H   -0.000182  -0.000249   0.004709  -0.003332   0.000020  -0.000182
    19  C    5.050298  -0.035575   0.488878   0.005998   0.397079  -0.042958
    20  H   -0.035575   0.509922   0.005342   0.000024  -0.004287  -0.000185
    21  C    0.488878   0.005342   5.033462  -0.040258  -0.040717   0.399194
    22  H    0.005998   0.000024  -0.040258   0.516810  -0.000213  -0.004444
    23  H    0.397079  -0.004287  -0.040717  -0.000213   0.518566  -0.004485
    24  H   -0.042958  -0.000185   0.399194  -0.004444  -0.004485   0.518534
    25  C   -0.000426   0.000563   0.000075   0.000005   0.000012  -0.000001
    26  C    0.000193  -0.000050   0.000029   0.000014   0.000003  -0.000001
    27  C   -0.000036   0.001439  -0.000003   0.000000  -0.000001   0.000000
    28  C    0.000002  -0.000018   0.000003   0.000000   0.000000   0.000000
    29  H   -0.000098  -0.000037  -0.000012  -0.000001   0.000001  -0.000001
    30  C    0.000006   0.000030   0.000000   0.000000   0.000000   0.000000
    31  H   -0.000006   0.000256   0.000000   0.000000  -0.000001   0.000000
    32  C    0.000000  -0.000012   0.000000   0.000000   0.000000   0.000000
    33  H    0.000001   0.000000   0.000000   0.000000   0.000000   0.000000
    34  H    0.000000  -0.000003   0.000000   0.000000   0.000000   0.000000
    35  H    0.000000   0.000000   0.000000   0.000000   0.000000   0.000000
             25         26         27         28         29         30
     1  C    0.185210  -0.054376  -0.026196   0.001398   0.003105   0.007683
     2  H   -0.074342   0.005553   0.002064  -0.000282   0.000067   0.001759
     3  C   -0.112215  -0.006307  -0.000337   0.001776  -0.003178  -0.000602
     4  C   -0.004645  -0.017204   0.001493  -0.001737   0.000306   0.000126
     5  C    0.001969   0.000222   0.000195   0.000028  -0.000195  -0.000009
     6  C    0.001541  -0.000013   0.000042  -0.000089   0.000858   0.000000
     7  H   -0.003012   0.002868  -0.000257   0.001157   0.003449  -0.000139
     8  C   -0.000680   0.000029  -0.000004  -0.000001   0.000016   0.000001
     9  H    0.000362  -0.000026  -0.000022   0.000002  -0.000007   0.000001
    10  C    0.000021  -0.000005  -0.000011   0.000001  -0.000011   0.000000
    11  H    0.000011   0.000031   0.000002   0.000000  -0.000053   0.000000
    12  H    0.000014   0.000000   0.000001   0.000000   0.000000   0.000000
    13  H   -0.000002   0.000001   0.000000   0.000000   0.000000   0.000000
    14  C   -0.154169  -0.007707  -0.005704   0.000736  -0.001868  -0.000463
    15  C   -0.014045  -0.000040  -0.000319  -0.000031   0.004740   0.000048
    16  C    0.000705   0.000791   0.002049  -0.000067  -0.000267  -0.000099
    17  C    0.000627  -0.000657   0.000027  -0.000016   0.000444  -0.000001
    18  H   -0.001025   0.000495  -0.000082   0.000062   0.001019   0.000002
    19  C   -0.000426   0.000193  -0.000036   0.000002  -0.000098   0.000006
    20  H    0.000563  -0.000050   0.001439  -0.000018  -0.000037   0.000030
    21  C    0.000075   0.000029  -0.000003   0.000003  -0.000012   0.000000
    22  H    0.000005   0.000014   0.000000   0.000000  -0.000001   0.000000
    23  H    0.000012   0.000003  -0.000001   0.000000   0.000001   0.000000
    24  H   -0.000001  -0.000001   0.000000   0.000000  -0.000001   0.000000
    25  C    5.374486   0.438985   0.503598  -0.061713  -0.048462  -0.072760
    26  C    0.438985   5.095439  -0.065452   0.479258   0.388584  -0.029626
    27  C    0.503598  -0.065452   5.070186  -0.033427   0.004044   0.459697
    28  C   -0.061713   0.479258  -0.033427   5.035866  -0.027230  -0.076819
    29  H   -0.048462   0.388584   0.004044  -0.027230   0.495187  -0.000169
    30  C   -0.072760  -0.029626   0.459697  -0.076819  -0.000169   5.054992
    31  H   -0.046665   0.004632   0.395754  -0.000239  -0.000260  -0.035043
    32  C   -0.017861  -0.092110  -0.086347   0.494374   0.004557   0.496971
    33  H    0.006070  -0.039061  -0.000449   0.396685  -0.003434   0.006000
    34  H    0.007061  -0.000618  -0.039707   0.006221   0.000021   0.396775
    35  H   -0.001593   0.008019   0.007536  -0.042922  -0.000169  -0.042754
             31         32         33         34         35
     1  C   -0.000484   0.001273  -0.000319  -0.000368  -0.000013
     2  H    0.002416  -0.000013   0.000012  -0.000037  -0.000001
     3  C    0.000560  -0.000035   0.000008   0.000020  -0.000001
     4  C    0.000002   0.000045   0.000016  -0.000001   0.000001
     5  C    0.000135  -0.000001   0.000000   0.000000   0.000000
     6  C    0.000003   0.000003   0.000001   0.000000   0.000000
     7  H   -0.000005   0.000079  -0.000105   0.000000   0.000000
     8  C    0.000003   0.000000   0.000000   0.000000   0.000000
     9  H   -0.000025   0.000000   0.000000   0.000000   0.000000
    10  C   -0.000001   0.000000   0.000000   0.000000   0.000000
    11  H    0.000000  -0.000001   0.000001   0.000000   0.000000
    12  H    0.000000   0.000000   0.000000   0.000000   0.000000
    13  H    0.000000   0.000000   0.000000   0.000000   0.000000
    14  C    0.000150   0.000097   0.000017   0.000011  -0.000002
    15  C   -0.000048  -0.000004  -0.000002   0.000000   0.000000
    16  C    0.000252  -0.000014   0.000006   0.000003   0.000000
    17  C    0.000000   0.000000  -0.000001   0.000000   0.000000
    18  H    0.000000   0.000002  -0.000009   0.000000   0.000000
    19  C   -0.000006   0.000000   0.000001   0.000000   0.000000
    20  H    0.000256  -0.000012   0.000000  -0.000003   0.000000
    21  C    0.000000   0.000000   0.000000   0.000000   0.000000
    22  H    0.000000   0.000000   0.000000   0.000000   0.000000
    23  H   -0.000001   0.000000   0.000000   0.000000   0.000000
    24  H    0.000000   0.000000   0.000000   0.000000   0.000000
    25  C   -0.046665  -0.017861   0.006070   0.007061  -0.001593
    26  C    0.004632  -0.092110  -0.039061  -0.000618   0.008019
    27  C    0.395754  -0.086347  -0.000449  -0.039707   0.007536
    28  C   -0.000239   0.494374   0.396685   0.006221  -0.042922
    29  H   -0.000260   0.004557  -0.003434   0.000021  -0.000169
    30  C   -0.035043   0.496971   0.006000   0.396775  -0.042754
    31  H    0.510855   0.005163   0.000024  -0.004175  -0.000186
    32  C    0.005163   5.031034  -0.039552  -0.040772   0.399626
    33  H    0.000024  -0.039552   0.515358  -0.000211  -0.004456
    34  H   -0.004175  -0.040772  -0.000211   0.518273  -0.004580
    35  H   -0.000186   0.399626  -0.004456  -0.004580   0.517487
 Mulliken atomic charges:
              1
     1  C   -0.580700
     2  H    0.204583
     3  C    0.066742
     4  C   -0.145412
     5  C   -0.149604
     6  C   -0.189466
     7  H    0.184538
     8  C   -0.166213
     9  H    0.170128
    10  C   -0.151386
    11  H    0.162108
    12  H    0.162702
    13  H    0.163955
    14  C    0.087041
    15  C   -0.150406
    16  C   -0.149211
    17  C   -0.183209
    18  H    0.199236
    19  C   -0.166446
    20  H    0.166582
    21  C   -0.152914
    22  H    0.161577
    23  H    0.161725
    24  H    0.163027
    25  C    0.092300
    26  C   -0.111894
    27  C   -0.189774
    28  C   -0.172979
    29  H    0.179053
    30  C   -0.165606
    31  H    0.166930
    32  C   -0.156503
    33  H    0.163400
    34  H    0.162087
    35  H    0.164010
 Sum of Mulliken atomic charges =   0.00000
 Mulliken charges with hydrogens summed into heavy atoms:
              1
     1  C   -0.376117
     3  C    0.066742
     4  C    0.039126
     5  C    0.020523
     6  C   -0.027359
     8  C   -0.003510
    10  C    0.012570
    14  C    0.087041
    15  C    0.048830
    16  C    0.017371
    17  C   -0.021632
    19  C   -0.004722
    21  C    0.010113
    25  C    0.092300
    26  C    0.067159
    27  C   -0.022843
    28  C   -0.009579
    30  C   -0.003520
    32  C    0.007507
 Sum of Mulliken charges with hydrogens summed into heavy atoms =   0.00000
 Electronic spatial extent (au):  <R**2>=           4939.7561
 Charge=              0.0000 electrons
 Dipole moment (field-independent basis, Debye):
    X=             -0.0130    Y=             -0.0663    Z=             -0.0428  Tot=              0.0800
 Quadrupole moment (field-independent basis, Debye-Ang):
   XX=           -110.5977   YY=           -114.0630   ZZ=           -102.8676
   XY=              0.7996   XZ=              2.2815   YZ=             -0.1610
 Traceless Quadrupole moment (field-independent basis, Debye-Ang):
   XX=             -1.4216   YY=             -4.8869   ZZ=              6.3085
   XY=              0.7996   XZ=              2.2815   YZ=             -0.1610
 Octapole moment (field-independent basis, Debye-Ang**2):
  XXX=             39.8626  YYY=             18.4808  ZZZ=             -0.1878  XYY=            -44.5573
  XXY=            -14.4112  XXZ=             -6.5086  XZZ=              0.7107  YZZ=             -4.8513
  YYZ=             10.4073  XYZ=              0.1314
 Hexadecapole moment (field-independent basis, Debye-Ang**3):
 XXXX=          -3091.9432 YYYY=          -2907.8447 ZZZZ=           -786.5245 XXXY=             -6.2281
 XXXZ=              0.8104 YYYX=              2.7544 YYYZ=             58.5854 ZZZX=              6.2538
 ZZZY=             -4.0701 XXYY=           -972.9821 XXZZ=           -631.2637 YYZZ=           -601.4580
 XXYZ=            -49.9316 YYXZ=             22.6314 ZZXY=             15.6963
 N-N= 1.288381405623D+03 E-N=-4.272771983839D+03  KE= 7.285911281292D+02
 PrsmSu:  requested number of processors reduced to:  10 ShMem   1 Linda.
 Calling FoFJK, ICntrl=      2127 FMM=F ISym2X=0 I1Cent= 0 IOpClX= 0 NMat=1 NMatS=1 NMatT=0.
 ***** Axes restored to original set *****
 -------------------------------------------------------------------
 Center     Atomic                   Forces (Hartrees/Bohr)
 Number     Number              X              Y              Z
 -------------------------------------------------------------------
      1        6          -0.004953589   -0.003377993    0.023201722
      2        1           0.007507499    0.003605866   -0.026184319
      3        6           0.001699882   -0.012900749    0.003426310
      4        6           0.006295313    0.008919246   -0.007833787
      5        6          -0.003620258   -0.000099508    0.005121827
      6        6           0.006032410   -0.001282136   -0.010407089
      7        1          -0.005384304   -0.027266097    0.012496245
      8        6          -0.003979255   -0.010835066    0.006037151
      9        1           0.009624371   -0.001565092   -0.014811724
     10        6           0.002634423   -0.012738624   -0.003479485
     11        1          -0.008997982    0.002156936    0.013889432
     12        1           0.005394717    0.013136654   -0.008813658
     13        1          -0.003671512    0.015565022    0.005168999
     14        6          -0.014186590    0.003441365   -0.001311635
     15        6           0.005892816   -0.006831548   -0.006560954
     16        6          -0.000125615    0.002310865    0.005998591
     17        6          -0.002747349   -0.000927249   -0.011798603
     18        1          -0.015121251    0.012076283    0.010451628
     19        6          -0.007147603    0.007925233    0.007053497
     20        1          -0.003084181   -0.003891844   -0.016702684
     21        6          -0.010825219    0.005272907   -0.006282014
     22        1           0.003310763    0.003231964    0.016065358
     23        1           0.009906224   -0.010072264   -0.008879716
     24        1           0.013435368   -0.006933428    0.007207687
     25        6           0.008527678    0.007279638    0.008660069
     26        6          -0.003616588   -0.002174980   -0.010984022
     27        6          -0.002006092   -0.002008356    0.005404429
     28        6           0.003139091    0.002499246   -0.011736692
     29        1           0.008414936    0.017516201    0.018982856
     30        6           0.006604867    0.005292323    0.010344047
     31        1           0.005850655    0.005739411   -0.015724418
     32        6           0.010132009    0.008891393    0.001851202
     33        1          -0.005743217   -0.005786863    0.014541140
     34        1          -0.006567479   -0.005048329   -0.014485971
     35        1          -0.012624940   -0.011120428    0.000094581
 -------------------------------------------------------------------
 Cartesian Forces:  Max     0.027266097 RMS     0.009561340

 GradGradGradGradGradGradGradGradGradGradGradGradGradGradGradGradGradGrad
 Berny optimization.
 Internal  Forces:  Max     0.029803541 RMS     0.007837563
 Search for a local minimum.
 Step number   1 out of a maximum of  197
 All quantities printed in internal units (Hartrees-Bohrs-Radians)
 Mixed Optimization -- RFO/linear search
 Second derivative matrix not updated -- first step.
     Eigenvalues ---    0.00635   0.00646   0.00654   0.01530   0.01533
     Eigenvalues ---    0.01536   0.02137   0.02140   0.02146   0.02167
     Eigenvalues ---    0.02170   0.02172   0.02181   0.02185   0.02186
     Eigenvalues ---    0.02201   0.02202   0.02203   0.02212   0.02213
     Eigenvalues ---    0.02215   0.02215   0.02216   0.02217   0.02217
     Eigenvalues ---    0.02218   0.02218   0.02219   0.02220   0.02222
     Eigenvalues ---    0.04518   0.06373   0.06675   0.15996   0.15999
     Eigenvalues ---    0.15999   0.16000   0.16000   0.16000   0.16000
     Eigenvalues ---    0.16000   0.16000   0.16000   0.16000   0.16000
     Eigenvalues ---    0.16000   0.16000   0.16000   0.18941   0.19365
     Eigenvalues ---    0.22000   0.22000   0.22000   0.22000   0.22000
     Eigenvalues ---    0.22000   0.23476   0.23476   0.23477   0.24996
     Eigenvalues ---    0.24999   0.25000   0.31166   0.31361   0.31441
     Eigenvalues ---    0.31507   0.33473   0.33603   0.33959   0.34072
     Eigenvalues ---    0.34078   0.34090   0.34253   0.34253   0.34254
     Eigenvalues ---    0.34255   0.34263   0.34275   0.34282   0.34283
     Eigenvalues ---    0.34285   0.42411   0.42422   0.42487   0.42567
     Eigenvalues ---    0.42583   0.42616   0.46335   0.46351   0.46433
     Eigenvalues ---    0.46759   0.46772   0.46825   0.47219   0.47230
     Eigenvalues ---    0.47255   0.47321   0.47339   0.473701000.00000
     Eigenvalues --- 1000.000001000.000001000.000001000.000001000.00000
     Eigenvalues --- 1000.000001000.000001000.000001000.000001000.00000
     Eigenvalues --- 1000.000001000.000001000.000001000.000001000.00000
     Eigenvalues --- 1000.000001000.000001000.000001000.000001000.00000
     Eigenvalues --- 1000.000001000.000001000.000001000.000001000.00000
     Eigenvalues --- 1000.000001000.000001000.000001000.000001000.00000
     Eigenvalues --- 1000.000001000.000001000.000001000.000001000.00000
     Eigenvalues --- 1000.000001000.000001000.000001000.000001000.00000
     Eigenvalues --- 1000.000001000.000001000.000001000.000001000.00000
     Eigenvalues --- 1000.000001000.000001000.000001000.000001000.00000
     Eigenvalues --- 1000.000001000.000001000.000001000.000001000.00000
     Eigenvalues --- 1000.000001000.000001000.000001000.000001000.00000
     Eigenvalues --- 1000.000001000.000001000.000001000.000001000.00000
     Eigenvalues --- 1000.000001000.000001000.000001000.000001000.00000
     Eigenvalues --- 1000.000001000.000001000.000001000.000001000.00000
     Eigenvalues --- 1000.000001000.000001000.000001000.000001000.00000
     Eigenvalues --- 1000.000001000.000001000.000001000.000001000.00000
     Eigenvalues --- 1000.000001000.00000
 RFO step:  Lambda=-4.28824790D-02 EMin= 6.35007384D-03
 Linear search not attempted -- first point.
 Maximum step size (   0.300) exceeded in Quadratic search.
    -- Step size scaled by   0.575
 Iteration  1 RMS(Cart)=  0.12586504 RMS(Int)=  0.00284076
 Iteration  2 RMS(Cart)=  0.00584325 RMS(Int)=  0.00028859
 Iteration  3 RMS(Cart)=  0.00000906 RMS(Int)=  0.00028854
 Iteration  4 RMS(Cart)=  0.00000000 RMS(Int)=  0.00028854
 Variable       Old X    -DE/DX   Delta X   Delta X   Delta X     New X
                                 (Linear)    (Quad)   (Total)
    R1        2.12397  -0.02746   0.00000  -0.04456  -0.04456   2.07941
    R2        2.85055   0.02571   0.00000   0.04131   0.04131   2.89186
    R3        2.85329   0.02091   0.00000   0.03373   0.03373   2.88703
    R4        2.85178   0.02266   0.00000   0.03648   0.03648   2.88826
    R5        2.63781   0.00072   0.00000   0.00101   0.00102   2.63883
    R6        2.64240  -0.00359   0.00000  -0.00405  -0.00403   2.63836
    R7        2.62722  -0.00322   0.00000  -0.00347  -0.00348   2.62374
    R8        2.08228  -0.02980   0.00000  -0.04540  -0.04540   2.03688
    R9        2.62632  -0.00365   0.00000  -0.00419  -0.00418   2.62214
   R10        2.07208  -0.01772   0.00000  -0.02657  -0.02657   2.04551
   R11        2.62693  -0.00678   0.00000  -0.00762  -0.00764   2.61929
   R12        2.06889  -0.01669   0.00000  -0.02490  -0.02490   2.04399
   R13        2.62816  -0.00845   0.00000  -0.00962  -0.00964   2.61853
   R14        2.06903  -0.01671   0.00000  -0.02494  -0.02494   2.04409
   R15        2.06857  -0.01681   0.00000  -0.02506  -0.02506   2.04351
   R16        2.63521  -0.00250   0.00000  -0.00277  -0.00276   2.63245
   R17        2.64320  -0.00432   0.00000  -0.00498  -0.00497   2.63823
   R18        2.62855  -0.00272   0.00000  -0.00297  -0.00297   2.62558
   R19        2.07399  -0.02183   0.00000  -0.03284  -0.03284   2.04115
   R20        2.62513  -0.00412   0.00000  -0.00466  -0.00466   2.62047
   R21        2.07179  -0.01741   0.00000  -0.02610  -0.02610   2.04569
   R22        2.62613  -0.00630   0.00000  -0.00700  -0.00700   2.61913
   R23        2.06902  -0.01672   0.00000  -0.02495  -0.02495   2.04407
   R24        2.62903  -0.00604   0.00000  -0.00682  -0.00682   2.62220
   R25        2.06906  -0.01669   0.00000  -0.02490  -0.02490   2.04415
   R26        2.06851  -0.01675   0.00000  -0.02498  -0.02498   2.04354
   R27        2.63774   0.00071   0.00000   0.00095   0.00097   2.63871
   R28        2.63990  -0.00419   0.00000  -0.00470  -0.00469   2.63521
   R29        2.62597  -0.00454   0.00000  -0.00499  -0.00498   2.62099
   R30        2.08005  -0.02547   0.00000  -0.03867  -0.03867   2.04138
   R31        2.62720  -0.00274   0.00000  -0.00313  -0.00314   2.62406
   R32        2.07199  -0.01772   0.00000  -0.02657  -0.02657   2.04542
   R33        2.62791  -0.00546   0.00000  -0.00617  -0.00619   2.62173
   R34        2.06868  -0.01667   0.00000  -0.02487  -0.02487   2.04382
   R35        2.62784  -0.00841   0.00000  -0.00954  -0.00956   2.61828
   R36        2.06905  -0.01669   0.00000  -0.02490  -0.02490   2.04415
   R37        2.06856  -0.01682   0.00000  -0.02509  -0.02509   2.04346
    A1        1.85560  -0.00923   0.00000  -0.04550  -0.04456   1.81104
    A2        1.85825  -0.00027   0.00000  -0.01894  -0.01877   1.83948
    A3        1.86770  -0.00590   0.00000  -0.03536  -0.03461   1.83309
    A4        1.97324   0.00302   0.00000   0.02542   0.02352   1.99676
    A5        1.97526   0.01474   0.00000   0.05377   0.05260   2.02786
    A6        1.92534  -0.00408   0.00000   0.00946   0.00713   1.93247
    A7        2.14221   0.02504   0.00000   0.04917   0.04915   2.19136
    A8        2.06576  -0.01294   0.00000  -0.02543  -0.02545   2.04031
    A9        2.07521  -0.01210   0.00000  -0.02373  -0.02369   2.05152
   A10        2.10370   0.00439   0.00000   0.00977   0.00977   2.11347
   A11        2.08548   0.00422   0.00000   0.01330   0.01329   2.09877
   A12        2.09398  -0.00862   0.00000  -0.02309  -0.02310   2.07088
   A13        2.10306   0.00829   0.00000   0.01757   0.01760   2.12066
   A14        2.09370  -0.00486   0.00000  -0.01083  -0.01084   2.08286
   A15        2.08643  -0.00343   0.00000  -0.00675  -0.00676   2.07966
   A16        2.09777   0.00243   0.00000   0.00499   0.00496   2.10273
   A17        2.09024  -0.00116   0.00000  -0.00235  -0.00233   2.08791
   A18        2.09517  -0.00127   0.00000  -0.00264  -0.00263   2.09254
   A19        2.09751   0.00005   0.00000  -0.00096  -0.00097   2.09654
   A20        2.09146   0.00005   0.00000   0.00069   0.00069   2.09215
   A21        2.09422  -0.00010   0.00000   0.00027   0.00028   2.09449
   A22        2.08911  -0.00306   0.00000  -0.00763  -0.00767   2.08144
   A23        2.09734   0.00151   0.00000   0.00378   0.00379   2.10113
   A24        2.09674   0.00154   0.00000   0.00386   0.00387   2.10061
   A25        2.14059   0.00960   0.00000   0.01894   0.01893   2.15952
   A26        2.06497  -0.00202   0.00000  -0.00387  -0.00388   2.06109
   A27        2.07761  -0.00758   0.00000  -0.01507  -0.01506   2.06255
   A28        2.10159   0.00316   0.00000   0.00689   0.00689   2.10848
   A29        2.09246   0.00058   0.00000   0.00267   0.00267   2.09513
   A30        2.08909  -0.00374   0.00000  -0.00959  -0.00959   2.07950
   A31        2.10229   0.00530   0.00000   0.01113   0.01114   2.11343
   A32        2.09298  -0.00327   0.00000  -0.00732  -0.00733   2.08565
   A33        2.08791  -0.00203   0.00000  -0.00381  -0.00382   2.08409
   A34        2.09856   0.00131   0.00000   0.00277   0.00276   2.10132
   A35        2.08967  -0.00060   0.00000  -0.00121  -0.00121   2.08846
   A36        2.09495  -0.00072   0.00000  -0.00156  -0.00156   2.09340
   A37        2.09695   0.00011   0.00000  -0.00031  -0.00031   2.09664
   A38        2.09197   0.00000   0.00000   0.00031   0.00031   2.09229
   A39        2.09426  -0.00011   0.00000  -0.00001  -0.00001   2.09426
   A40        2.08936  -0.00231   0.00000  -0.00542  -0.00543   2.08393
   A41        2.09752   0.00113   0.00000   0.00263   0.00263   2.10015
   A42        2.09630   0.00118   0.00000   0.00279   0.00279   2.09910
   A43        2.12707   0.01645   0.00000   0.03220   0.03212   2.15919
   A44        2.07785  -0.00626   0.00000  -0.01240  -0.01247   2.06538
   A45        2.07813  -0.01022   0.00000  -0.02009  -0.02010   2.05803
   A46        2.10358   0.00378   0.00000   0.00843   0.00836   2.11195
   A47        2.07593   0.00412   0.00000   0.01300   0.01288   2.08881
   A48        2.10345  -0.00784   0.00000  -0.02091  -0.02103   2.08242
   A49        2.10049   0.00695   0.00000   0.01485   0.01485   2.11534
   A50        2.09430  -0.00404   0.00000  -0.00903  -0.00904   2.08526
   A51        2.08839  -0.00290   0.00000  -0.00581  -0.00582   2.08257
   A52        2.09579   0.00213   0.00000   0.00428   0.00428   2.10006
   A53        2.09165  -0.00098   0.00000  -0.00189  -0.00190   2.08975
   A54        2.09574  -0.00115   0.00000  -0.00238  -0.00239   2.09335
   A55        2.09788  -0.00009   0.00000  -0.00099  -0.00101   2.09687
   A56        2.09118   0.00020   0.00000   0.00094   0.00095   2.09214
   A57        2.09412  -0.00011   0.00000   0.00004   0.00005   2.09417
[...]
 0010577,0.00028835,0.00032006,0.00064497,-0.00023829,-0.00005332,-0.00
 010161,-0.00004206,-0.00012980,0.00030244,0.00004895,0.00009444,0.0002
 7181,-0.00007800,0.00011100,-0.00002421,-0.00012842,0.00016343,-0.0001
 1163,-0.00011080,-0.00001880,-0.00000765,-0.00003737,-0.00015342,-0.00
 004485,0.00012040,-0.00001911,0.00000774,0.00000541,0.00000980,0.00002
 451,0.00000811,0.00000074,0.00002500,0.00000197,-0.00117537,-0.0011172
 5,0.00065774,-0.00024944,0.00015181,-0.00014341,0.00013337,-0.00002538
 ,-0.00019095,0.00021117,-0.00001394,-0.00000721,-0.00003511,-0.0000369
 0,-0.00001103,-0.00005036,0.00010166,-0.00016281,-0.00006949,-0.000003
 37,0.00011907,-0.00008821,0.00009298,0.00012732,-0.00000801,0.00000576
 ,-0.00000739,-0.00001924,0.00001218,-0.00000857,-0.00000370,-0.0000062
 2,0.00001197,-0.00985498,-0.03628398,0.04569532,0.02575004,0.03301671,
 -0.02420620,-0.05205218,0.00456097,-0.14229714,-0.04718165,0.00845708,
 -0.05056043,0.00105044,0.00001909,-0.00000883,0.20405837,-0.19472135,0
 .64973853,0.00025800,0.00256486,-0.00000690,-0.00065195,-0.00022975,0.
 00066433,0.00034427,-0.00011104,-0.00010725,-0.00002195,0.00007776,-0.
 00011301,-0.00005029,0.00015427,-0.00004669,-0.00006286,0.00009550,-0.
 00001139,0.00000060,-0.00005437,0.00009659,0.00004384,-0.00006843,-0.0
 0002149,-0.00004467,-0.00003315,0.00001554,-0.00007566,0.00002512,0.00
 004241,-0.00000790,0.00001677,0.00002744,0.00000507,0.00001618,0.00000
 664,0.00000104,0.00000827,0.00001668,-0.00012526,0.00001235,0.00020285
 ,0.00006666,-0.00008093,0.00006518,0.00001989,-0.00004028,-0.00006811,
 0.00002427,0.00002454,0.00001942,-0.00000601,0.00001069,0.00001043,-0.
 00000540,0.00001330,0.00002884,-0.00001916,0.00003921,0.00001085,0.000
 01960,-0.00001056,0.00000847,0.00001459,0.00000369,0.00001314,0.000005
 39,-0.00000457,-0.00000361,0.00000808,-0.00000122,0.00000778,0.0066925
 7,0.01579928,-0.01959262,-0.00092017,-0.00271066,-0.00591672,-0.068747
 34,-0.02779301,0.01612751,-0.00111234,0.00003445,-0.00018976,0.0002262
 6,0.00084052,-0.00084416,0.00276160,-0.02027499,0.02327923,0.06406313,
 0.00043006,-0.00182551,-0.00160319,0.00042401,0.00069660,-0.00088026,-
 0.00013393,-0.00003075,-0.00013109,-0.00002817,-0.00003938,0.00007040,
 0.00002446,-0.00010982,0.00007507,0.00005720,-0.00002326,-0.00002688,0
 .00001556,0.00005228,-0.00002212,-0.00003652,-0.00001694,0.00000353,0.
 00000996,0.00000648,-0.00000457,0.00000584,0.00001338,-0.00002058,-0.0
 0000199,-0.00000664,0.00000169,0.00000352,0.00000740,-0.00000612,0.000
 00065,0.00001083,0.00000100,0.00023488,0.00015596,-0.00020861,-0.00000
 690,0.00005914,-0.00005926,0.00005535,0.00004875,0.00017392,-0.0000135
 6,-0.00004913,-0.00003417,0.00000007,-0.00000589,-0.00001215,-0.000021
 84,-0.00001463,-0.00002714,0.00001839,-0.00002372,-0.00002496,0.000020
 34,0.00000359,0.00001515,-0.00000606,-0.00000665,0.00000371,0.00001253
 ,-0.00001060,0.00000301,0.00000161,-0.00000277,-0.00000316,-0.00262026
 ,0.00377871,-0.00052249,-0.00260276,0.00442906,0.00207882,-0.02797027,
 -0.18786861,0.15345539,0.00007293,-0.00016518,-0.00096774,-0.00004616,
 -0.00005931,-0.00010232,0.00061208,-0.00862682,0.01894222,0.03562168,0
 .19010533,0.00230150,-0.00122663,-0.00058613,-0.00081890,-0.00022180,0
 .00033619,-0.00037832,-0.00034714,0.00020455,0.00027519,0.00010751,-0.
 00002308,0.00002820,-0.00038169,0.00007184,0.00006666,-0.00018642,0.00
 000533,-0.00009525,0.00012879,-0.00005659,-0.00010454,-0.00003148,0.00
 010519,-0.00003043,0.00000546,-0.00003380,0.00004479,0.00004390,-0.000
 06154,-0.00002485,0.00001085,-0.00000118,0.00000676,0.00000753,-0.0000
 1628,-0.00001042,0.00001778,0.00000058,-0.00006503,0.00023586,0.000391
 47,0.00014287,-0.00011291,0.00010324,0.00001130,-0.00005553,0.00006371
 ,0.00002492,0.00000014,0.00005994,0.00001057,0.00002318,-0.00003345,0.
 00000878,-0.00003022,-0.00002026,0.00000171,0.00003479,-0.00002903,0.0
 0001271,-0.00000043,0.00001102,0.00001799,-0.00000025,0.00000681,0.000
 01691,-0.00000193,-0.00000075,0.00000741,0.00000243,-0.00000059,0.0061
 9995,0.01989804,-0.01419992,-0.00618605,0.00164530,-0.00054265,0.01554
 172,0.15262179,-0.23256442,-0.00027812,-0.00106226,0.00012247,0.000295
 19,0.00089675,-0.00091690,-0.00363052,-0.00211970,0.00467455,-0.013544
 92,-0.16989673,0.24016999,0.00040630,0.00081996,0.00014110,-0.00035552
 ,-0.00010666,0.00024362,0.00000950,0.00031145,0.00022454,0.00001196,-0
 .00017598,0.00010759,0.00014694,-0.00024831,-0.00008571,-0.00006454,-0
 .00015023,0.00002526,-0.00029022,-0.00007683,0.00010749,-0.00008465,0.
 00004651,0.00007445,0.00000226,0.00002351,-0.00000074,0.00009199,-0.00
 002756,-0.00007985,0.00002208,-0.00005327,-0.00003433,-0.00000560,-0.0
 0002740,-0.00001685,0.00000254,-0.00001840,0.00000020,0.00015964,-0.00
 032955,-0.00006476,0.00001865,-0.00002137,0.00019008,-0.00022582,-0.00
 000087,-0.00008225,-0.00010864,0.00010439,0.00002320,0.00000989,0.0000
 1139,0.00002268,0.00014812,-0.00002955,0.00012654,0.00001835,-0.000007
 58,-0.00002080,-0.00001737,-0.00005060,-0.00018425,-0.00001809,-0.0000
 0029,-0.00002316,-0.00003041,0.00000792,0.00001277,-0.00002019,0.00000
 223,-0.00000553,-0.01418049,0.01725856,-0.02954759,-0.04578117,-0.0350
 1122,-0.01111391,0.02766337,-0.01500571,0.03712541,-0.23516646,-0.0025
 3171,-0.15475061,-0.00064137,-0.00641149,-0.00145627,-0.14272183,-0.06
 623449,0.02548008,-0.00164104,-0.00654019,-0.00243018,0.64469335,0.000
 61324,-0.00168167,0.00029542,0.00000361,-0.00005891,-0.00061297,-0.001
 09115,0.00013695,-0.00029184,-0.00012267,-0.00019347,0.00003894,0.0000
 3730,0.00000353,-0.00024078,0.00009980,0.00022077,-0.00007233,0.000148
 09,-0.00000457,-0.00003569,0.00012876,-0.00010273,-0.00001022,-0.00001
 034,0.00002653,-0.00000914,-0.00010574,-0.00011244,0.00008415,0.000003
 23,-0.00002285,-0.00003160,0.00001872,-0.00003587,0.00001477,0.0000110
 5,-0.00000071,-0.00000685,-0.00012657,-0.00000265,0.00030632,-0.000163
 35,0.00009644,-0.00005551,0.00016288,-0.00000813,-0.00006652,0.0001137
 7,-0.00008776,0.00002169,-0.00000666,-0.00001640,-0.00000423,-0.000079
 44,0.00004835,-0.00015112,0.00002849,-0.00005967,0.00003202,-0.0000608
 1,0.00009802,0.00008462,-0.00001641,-0.00000516,-0.00000783,-0.0000361
 4,0.00000425,0.00000201,-0.00001028,-0.00000157,-0.00000187,0.01742605
 ,-0.01957267,0.03558591,0.00094783,0.03733224,-0.03549621,-0.05083817,
 -0.03335059,0.00526675,-0.04859220,-0.12791745,0.00668836,-0.00641890,
 0.00123437,0.00310494,-0.02069029,-0.21227901,0.14827960,-0.00626447,0
 .00241875,0.00229037,0.25550742,0.52346845,0.00058368,0.00199375,-0.00
 092835,-0.00008263,0.00017531,0.00107464,0.00101230,0.00002741,0.00072
 015,0.00025846,0.00025725,0.00020257,0.00011567,-0.00044891,0.00025676
 ,-0.00011365,-0.00050576,0.00005414,-0.00030606,0.00006700,0.00003882,
 -0.00031253,0.00022608,0.00015630,0.00000407,-0.00000245,0.00000537,0.
 00026944,0.00018867,-0.00023031,0.00000953,0.00000702,0.00004184,-0.00
 003081,0.00001246,-0.00003808,-0.00000751,-0.00000354,0.00000157,0.000
 37941,-0.00022197,-0.00047121,0.00030582,-0.00016676,0.00036278,-0.000
 46896,-0.00009706,-0.00003001,-0.00029234,0.00025258,-0.00000368,0.000
 01880,0.00001513,0.00001389,0.00029721,-0.00012703,0.00034483,0.000033
 49,0.00004829,-0.00008214,0.00006880,-0.00018862,-0.00033156,0.0000015
 6,0.00000562,-0.00001237,-0.00000971,0.00000778,0.00001468,-0.00001136
 ,0.00000240,-0.00001055,-0.03064073,0.03396490,-0.08554187,-0.05911549
 ,-0.07248391,0.04461385,0.08582806,0.04162236,0.04194332,-0.09477980,0
 .05510561,-0.25430236,-0.00109809,0.00337395,0.00362981,-0.03496389,0.
 10010371,-0.25308328,-0.00299168,0.00181921,0.00359504,0.15508966,-0.1
 9201950,0.59066345,0.00033153,-0.00041923,0.00107842,-0.00021625,-0.00
 019975,0.00008889,-0.00018002,0.00001109,0.00002850,0.00002968,-0.0000
 0991,-0.00003407,0.00000701,-0.00006687,-0.00003965,0.00000177,0.00000
 071,0.00000206,0.00000248,-0.00000513,0.00000842,0.00000841,-0.0000180
 0,0.00000807,0.00000182,0.00001066,-0.00000623,-0.00000419,-0.00001619
 ,0.00000169,0.00000558,-0.00000136,-0.00000243,-0.00000003,-0.00001249
 ,0.00000319,0.00000040,-0.00000647,-0.00000284,0.00017874,-0.00002446,
 0.00004862,0.00001396,0.00002554,-0.00001074,-0.00005102,0.00002821,-0
 .00002712,-0.00001743,0.00002972,-0.00001862,0.00000195,-0.00001358,0.
 00001303,0.00002410,0.00001356,0.00000876,0.00000376,-0.00002149,0.000
 00649,-0.00003294,0.00002388,-0.00004905,-0.00001564,-0.00000952,-0.00
 000575,-0.00002252,0.00000128,0.00000829,-0.00001449,-0.00000590,-0.00
 000067,-0.00185183,-0.00635138,-0.00271647,0.00282039,-0.01971747,0.02
 300676,-0.00128304,0.00003226,-0.00033294,-0.06913396,-0.02795436,0.01
 555670,-0.00041822,0.00260211,0.00135027,-0.00061033,-0.00307015,-0.00
 595487,-0.00028910,0.00046022,0.00040563,0.00817463,0.01745810,-0.0201
 1042,0.06296878,0.00023552,-0.00039170,0.00073378,-0.00023907,-0.00024
 766,-0.00000004,-0.00018692,0.00011443,0.00011990,-0.00003691,-0.00011
 023,-0.00003841,0.00005979,-0.00010938,-0.00005849,-0.00001706,0.00001
 225,0.00000490,-0.00001286,0.00002701,0.00006845,-0.00000344,-0.000006
 14,0.00000338,0.00001828,0.00001631,-0.00000650,0.00000684,-0.00002696
 ,-0.00000740,0.00001890,-0.00002664,-0.00001237,-0.00000035,-0.0000163
 6,-0.00000205,0.00000462,-0.00001144,-0.00000013,0.00024258,-0.0000734
 5,0.00008459,-0.00007788,0.00006270,-0.00004313,-0.00000792,0.00003681
 ,-0.00000443,0.00002665,-0.00000546,-0.00000798,0.00000300,-0.00001986
 ,0.00001160,-0.00000404,-0.00000675,-0.00002293,0.00001487,-0.00001421
 ,-0.00002112,-0.00002924,0.00003158,-0.00000724,-0.00002151,-0.0000101
 7,-0.00001743,-0.00000829,0.00000507,0.00000172,-0.00001392,0.00000081
 ,-0.00000355,-0.00625555,0.00239550,0.00165783,0.00051465,-0.00859199,
 0.01897309,0.00004669,-0.00013430,-0.00103781,-0.02798017,-0.18961002,
 0.15515262,0.00185994,-0.00156967,-0.00254344,-0.00284986,0.00493007,0
 .00228954,0.00047248,-0.00061198,-0.00034575,-0.00293781,0.00470592,-0
 .00187597,0.03457657,0.19095438,-0.00028517,-0.00022627,-0.00008877,0.
 00000021,0.00001305,-0.00002089,0.00010521,-0.00000321,0.00002371,-0.0
 0003352,0.00000957,0.00002619,-0.00001185,0.00001968,0.00003452,0.0000
 2225,-0.00000859,-0.00001523,0.00001541,-0.00000494,-0.00002842,-0.000
 00927,0.00001330,-0.00000125,0.00000248,-0.00000690,-0.00000337,0.0000
 0815,0.00001450,-0.00000448,-0.00000798,0.00000217,0.00000253,0.000001
 91,0.00001203,-0.00000447,-0.00000054,0.00001157,0.00000130,0.00000642
 ,0.00009622,-0.00000601,0.00001003,-0.00000505,-0.00004420,0.00005281,
 -0.00000165,0.00002673,0.00001478,-0.00002509,-0.00000473,-0.00000637,
 -0.00000723,-0.00000966,-0.00003716,-0.00000077,-0.00000840,-0.0000134
 7,0.00001692,-0.00000521,0.00001233,-0.00000312,0.00004230,0.00000640,
 0.00000158,0.00000728,0.00002315,-0.00000485,-0.00001073,0.00001429,0.
 00000099,0.00000474,-0.00231048,0.00212251,0.00344619,-0.00357506,-0.0
 0226812,0.00476985,-0.00019985,-0.00102514,0.00019060,0.01576297,0.155
 01806,-0.23498151,0.00205918,-0.00185225,-0.00044884,-0.00632998,0.001
 98594,-0.00024206,0.00040235,-0.00035683,-0.00038546,0.00645514,0.0194
 4622,-0.01304656,-0.01366974,-0.17124770,0.24211702,-0.00053338,0.0005
 1510,-0.00103378,-0.00001861,-0.00000790,0.00006887,-0.00011231,0.0001
 5285,0.00006537,0.00004371,-0.00003100,-0.00002520,0.00005297,-0.00009
 450,-0.00000807,-0.00001206,-0.00000531,0.00000542,-0.00002642,0.00001
 360,0.00003138,-0.00000379,-0.00001447,0.00001684,-0.00000849,0.000014
 19,-0.00000705,0.00000720,-0.00002311,0.00000112,0.00000621,-0.0000065
 1,-0.00001174,-0.00000977,-0.00002019,-0.00000399,0.00000003,-0.000014
 34,-0.00000484,-0.00006614,-0.00032811,0.00016907,-0.00009725,0.000066
 16,-0.00002229,-0.00003793,-0.00000099,-0.00007739,0.00003196,0.000009
 56,0.00000253,0.00000316,-0.00000237,0.00000637,0.00000593,0.00000113,
 -0.00002766,0.00001199,-0.00001336,0.00000528,-0.00003300,0.00002190,0
 .00000226,-0.00001142,-0.00000044,-0.00001494,-0.00001925,0.00001648,0
 .00000010,-0.00001292,0.00000347,-0.00000489,-0.00039300,-0.00675198,-
 0.00115183,-0.00022991,-0.00026836,0.00109029,-0.01213651,0.00360455,-
 0.02353536,0.00336336,-0.00356491,-0.00086151,-0.00037963,0.00050523,0
 .00026220,-0.19906018,-0.00252785,-0.15495488,-0.00060529,0.00197639,0
 .00221521,0.00773191,-0.00266875,0.00591395,0.00012425,-0.00002467,0.0
 0025307,0.20299897,-0.00050897,0.00022778,-0.00081364,0.00006096,0.000
 07452,0.00001647,-0.00009763,0.00005519,0.00001771,0.00002151,-0.00003
 885,0.00000386,0.00000844,-0.00004691,-0.00001731,0.00001121,-0.000013
 90,0.00001291,-0.00002912,0.00001043,-0.00001510,0.00000522,-0.0000022
 6,0.00001465,-0.00000089,0.00000767,-0.00001149,0.00001633,-0.00002629
 ,-0.00000461,0.00000101,-0.00000976,-0.00001753,-0.00000201,-0.0000058
 2,-0.00000445,-0.00000400,-0.00000327,-0.00000614,-0.00014076,-0.00032
 788,-0.00001512,-0.00001938,0.00002645,-0.00000349,-0.00005671,0.00003
 171,0.00000824,-0.00002002,0.00004182,-0.00001315,-0.00000620,-0.00001
 700,0.00000219,0.00004432,-0.00000114,0.00001812,0.00000210,-0.0000017
 7,0.00000149,-0.00001569,-0.00001590,-0.00004669,-0.00000668,0.0000013
 4,-0.00000867,-0.00000268,0.00000108,0.00000318,-0.00000432,-0.0000010
 8,-0.00000087,-0.00625240,0.00135279,0.00342764,-0.00014512,-0.0011045
 6,0.00009785,-0.01662790,0.00624810,-0.01841443,-0.00388615,0.00086983
 ,0.00622922,0.00045886,-0.00050341,-0.00050143,-0.00245051,-0.06219276
 ,0.01536643,0.00267982,-0.00162377,-0.00187354,0.01744949,0.00518726,0
 .01874201,0.00081915,-0.00005726,0.00081577,0.00693098,0.05335789,0.00
 021443,0.00007648,0.00000156,-0.00001257,-0.00002167,-0.00002912,-0.00
 014852,0.00000079,0.00000773,0.00003138,-0.00003603,-0.00001795,0.0000
 1952,-0.00002393,-0.00004996,-0.00000926,0.00000905,0.00003456,-0.0000
 3629,0.00003303,0.00000133,0.00001576,-0.00001425,0.00000231,0.0000016
 0,0.00000938,-0.00000513,-0.00000054,-0.00003503,0.00000762,0.00000399
 ,-0.00001028,-0.00002466,-0.00000201,-0.00001179,0.00000046,-0.0000034
 2,-0.00001258,-0.00000599,-0.00000478,-0.00011394,-0.00004084,-0.00002
 304,0.00000397,0.00003348,-0.00004553,0.00000024,0.00000497,-0.0000204
 3,0.00001803,0.00000872,0.00000575,0.00000576,0.00000028,0.00003575,-0
 .00001971,0.00001549,0.00001563,0.00000155,-0.00001401,-0.00000129,-0.
 00001668,-0.00003057,-0.00000203,0.00000324,-0.00001077,-0.00000318,0.
 00000634,0.00000303,-0.00000594,0.00000421,-0.00000567,-0.00136496,0.0
 0309261,0.00363422,0.00109109,0.00004840,0.00013315,0.00325388,0.00305
 103,0.00509988,-0.00049315,0.00651348,-0.00051224,0.00026294,-0.000454
 41,-0.00037945,-0.15515369,0.01523587,-0.23273757,0.00132804,-0.002534
 69,-0.00041422,-0.02070781,-0.00256454,-0.01300558,-0.00089529,-0.0000
 6278,-0.00091269,0.17053100,-0.02048865,0.23953265,-0.00021389,0.00050
 187,0.00031436,-0.00002657,-0.00008542,0.00010180,0.00001282,0.0000972
 5,-0.00001087,0.00003374,-0.00001090,-0.00003719,0.00001072,-0.0000016
 9,-0.00001618,-0.00002523,0.00000692,0.00002005,-0.00002616,0.00001384
 ,0.00002531,0.00000897,-0.00000565,-0.00000733,0.00000112,0.00000667,0
 .00000194,-0.00000486,-0.00001437,0.00000425,0.00000792,-0.00000241,-0
 .00000529,-0.00000535,-0.00001087,0.00000295,0.00000077,-0.00001372,-0
 .00000169,0.00004224,-0.00007614,0.00003236,-0.00006948,0.00001451,0.0
 0001698,-0.00000689,-0.00001458,-0.00003505,0.00001893,-0.00001208,0.0
 0002491,0.00001084,0.00002065,0.00000647,0.00001153,-0.00001005,-0.000
 01702,0.00001783,-0.00000879,-0.00000200,-0.00000701,0.00001296,0.0000
 0086,-0.00000444,0.00000065,-0.00001299,-0.00001710,0.00001000,0.00000
 635,-0.00001410,0.00000437,-0.00000669,0.00010902,0.00097901,-0.000135
 24,0.00086298,-0.00182599,-0.00611519,0.00368564,-0.00271489,-0.001673
 28,-0.01226537,-0.01716212,0.00421014,-0.00081415,-0.00068949,0.000141
 98,0.00213000,0.00032473,-0.00350930,-0.00016849,-0.00002913,-0.000038
 46,-0.24795806,-0.15540599,-0.00485426,-0.00055823,0.00260609,0.001261
 88,-0.00057438,0.00176776,0.00212294,0.25579470,0.00032052,-0.00053196
 ,-0.00040121,0.00004563,0.00006347,-0.00012574,-0.00015806,-0.00001463
 ,0.00004637,0.00000875,-0.00004557,-0.00001493,0.00003525,-0.00004897,
 -0.00003761,-0.00001885,0.00001872,0.00002498,-0.00002953,0.00002855,0
 .00002937,0.00000757,-0.00001144,0.00000096,0.00000647,0.00000854,-0.0
 0000257,-0.00000197,-0.00002217,0.00000410,0.00000845,-0.00001358,-0.0
 0001711,-0.00000184,-0.00001192,0.00000019,-0.00000059,-0.00001215,-0.
 00000313,0.00000402,-0.00006144,-0.00000747,-0.00002555,0.00001664,0.0
 0001990,-0.00003455,-0.00001647,0.00000752,0.00000459,0.00000503,0.000
 00754,0.00000622,0.00000154,-0.00000103,0.00001373,-0.00001796,-0.0000
 0400,0.00001180,-0.00000082,-0.00001398,-0.00001001,0.00000476,-0.0000
 1035,-0.00000651,-0.00000264,-0.00000945,-0.00000168,0.00000719,0.0000
 0114,-0.00000665,0.00000360,-0.00000472,0.00109260,-0.00015029,0.00012
 444,-0.00222902,0.00479732,0.00315224,-0.00237541,0.00192976,0.0064363
 6,0.00331590,0.00564979,0.00287776,0.00015265,0.00000763,0.00003915,-0
 .01985003,-0.00830376,-0.00329173,-0.00083331,-0.00066490,-0.00007609,
 -0.15554578,-0.17946753,0.01012299,0.00183065,-0.00164120,-0.00255238,
 0.00253752,-0.00150026,-0.00169248,0.17172700,0.17999712,0.00031555,-0
 .00043010,-0.00021419,-0.00006429,0.00001567,-0.00003093,-0.00005738,-
 0.00006088,0.00004995,0.00002341,-0.00000692,0.00000828,0.00001582,-0.
 00003617,-0.00000270,-0.00000539,-0.00000472,0.00000834,-0.00002744,0.
 00002071,-0.00000333,-0.00000479,-0.00000655,0.00000899,-0.00000364,0.
 00000023,-0.00000495,0.00000194,-0.00000296,-0.00000530,0.00000098,-0.
 00000480,-0.00000328,0.00000082,-0.00000100,-0.00000241,-0.00000123,-0
 .00000009,0.00000018,-0.00003282,0.00001815,0.00000986,-0.00000249,-0.
 00002177,0.00005077,0.00000833,-0.00005033,0.00000249,0.00002079,-0.00
 001038,0.00002069,0.00000594,0.00001144,-0.00000678,0.00000031,-0.0000
 0902,-0.00000593,-0.00000178,0.00001149,-0.00000453,0.00000328,0.00000
 973,0.00000577,-0.00000048,-0.00000184,-0.00000264,0.00000267,0.000001
 77,0.00000069,-0.00000233,0.00000173,-0.00000070,-0.00007730,0.0001822
 2,-0.00129954,-0.00563979,0.00348543,-0.00141466,-0.00214780,0.0061039
 2,-0.00169468,-0.02237595,-0.01855315,0.00614598,-0.00091850,-0.000832
 09,0.00004645,0.02318357,0.01811690,0.00558200,0.00108455,0.00080191,-
 0.00003569,-0.00484520,0.01013667,-0.06661590,0.00225309,-0.00173474,-
 0.00042001,0.00110508,-0.00252143,-0.00032502,0.00818248,-0.01462903,0
 .06015271||-0.00000518,-0.00001867,-0.00000658,0.00000035,0.00000744,0
 .00000030,0.00002563,0.00002947,-0.00002943,-0.00003848,0.00003680,0.0
 0003421,-0.00000697,-0.00004437,0.00000386,-0.00000668,-0.00005662,0.0
 0000487,0.00000666,0.00000416,-0.00000242,-0.00002150,0.00003087,0.000
 02556,-0.00000058,0.00000554,0.00000036,0.00003449,0.00001483,-0.00003
 483,0.00000121,0.00000439,-0.00000164,0.00000140,-0.00000224,-0.000001
 85,-0.00000192,-0.00000277,0.00000191,0.00001028,-0.00001110,-0.000031
 10,0.00003179,-0.00000049,0.00003860,-0.00002831,0.00001598,0.00000558
 ,-0.00004039,0.00002199,0.00000196,0.00000067,-0.00000670,-0.00000213,
 0.00002037,-0.00000782,0.00003298,0.00000353,-0.00000272,0.00000065,0.
 00001241,-0.00001667,-0.00003947,0.00000293,-0.00000177,-0.00000105,-0
 .00000304,0.00000063,-0.00000400,-0.00000233,0.00000347,0.00000286,0.0
 0000703,-0.00000045,-0.00000495,-0.00001330,-0.00001305,0.00001141,-0.
 00000039,0.00000387,0.00000260,0.00001193,0.00000883,0.00000895,-0.000
 00053,0.00000173,-0.00000400,-0.00000176,-0.00000615,-0.00000147,-0.00
 000040,-0.00000163,0.00000034,0.00000138,0.00000273,-0.00001203,-0.000
 00026,-0.00000179,-0.00000345,-0.00000070,0.00000122,0.00000168,0.0000
 0064,0.00000105,0.00000173|||@


 A people that values its privileges above its principles soon loses both.
 -- Dwight D. Eisenhower
 Job cpu time:  0 days  0 hours  6 minutes 32.0 seconds.
 File lengths (MBytes):  RWF=    350 Int=      0 D2E=      0 Chk=      7 Scr=      1
 Normal termination of Gaussian 09 at Mon Sep 06 15:44:24 2021.
