 Entering Link 1 = b:\programy\g09w\l1.exe PID=     16168.
  
 Copyright (c) 1988,1990,1992,1993,1995,1998,2003,2009, Gaussian, Inc.
                  All Rights Reserved.
  
 This is part of the Gaussian(R) 09 program.  It is based on
 the Gaussian(R) 03 system (copyright 2003, Gaussian, Inc.),
 the Gaussian(R) 98 system (copyright 1998, Gaussian, Inc.),
 the Gaussian(R) 94 system (copyright 1995, Gaussian, Inc.),
 the Gaussian 92(TM) system (copyright 1992, Gaussian, Inc.),
 the Gaussian 90(TM) system (copyright 1990, Gaussian, Inc.),
 the Gaussian 88(TM) system (copyright 1988, Gaussian, Inc.),
 the Gaussian 86(TM) system (copyright 1986, Carnegie Mellon
 University), and the Gaussian 82(TM) system (copyright 1983,
 Carnegie Mellon University). Gaussian is a federally registered
 trademark of Gaussian, Inc.
  
 This software contains proprietary and confidential information,
 including trade secrets, belonging to Gaussian, Inc.
  
 This software is provided under written license and may be
 used, copied, transmitted, or stored only in accord with that
 written license.
  
 The following legend is applicable only to US Government
 contracts under FAR:
  
                    RESTRICTED RIGHTS LEGEND
  
 Use, reproduction and disclosure by the US Government is
 subject to restrictions as set forth in subparagraphs (a)
 and (c) of the Commercial Computer Software - Restricted
 Rights clause in FAR 52.227-19.
  
 Gaussian, Inc.
 340 Quinnipiac St., Bldg. 40, Wallingford CT 06492
  
  
 ---------------------------------------------------------------
 Warning -- This program may not be used in any manner that
 competes with the business of Gaussian, Inc. or will provide
 assistance to any competitor of Gaussian, Inc.  The licensee
 of this program is prohibited from giving any competitor of
 Gaussian, Inc. access to this program.  By using this program,
 the user acknowledges that Gaussian, Inc. is engaged in the
 business of creating and licensing software in the field of
 computational chemistry and represents and warrants to the
 licensee that it is not a competitor of Gaussian, Inc. and that
 it will not use this program in any manner prohibited above.
 ---------------------------------------------------------------
  

 Cite this work as:
 Gaussian 09, Revision A.02,
 M. J. Frisch, G. W. Trucks, H. B. Schlegel, G. E. Scuseria, 
 M. A. Robb, J. R. Cheeseman, G. Scalmani, V. Barone, B. Mennucci, 
 G. A. Petersson, H. Nakatsuji, M. Caricato, X. Li, H. P. Hratchian, 
 A. F. Izmaylov, J. Bloino, G. Zheng, J. L. Sonnenberg, M. Hada, 
 M. Ehara, K. Toyota, R. Fukuda, J. Hasegawa, M. Ishida, T. Nakajima, 
 Y. Honda, O. Kitao, H. Nakai, T. Vreven, J. A. Montgomery, Jr., 
 J. E. Peralta, F. Ogliaro, M. Bearpark, J. J. Heyd, E. Brothers, 
 K. N. Kudin, V. N. Staroverov, R. Kobayashi, J. Normand, 
 K. Raghavachari, A. Rendell, J. C. Burant, S. S. Iyengar, J. Tomasi, 
 M. Cossi, N. Rega, J. M. Millam, M. Klene, J. E. Knox, J. B. Cross, 
 V. Bakken, C. Adamo, J. Jaramillo, R. Gomperts, R. E. Stratmann, 
 O. Yazyev, A. J. Austin, R. Cammi, C. Pomelli, J. W. Ochterski, 
 R. L. Martin, K. Morokuma, V. G. Zakrzewski, G. A. Voth, 
 P. Salvador, J. J. Dannenberg, S. Dapprich, A. D. Daniels, 
 O. Farkas, J. B. Foresman, J. V. Ortiz, J. Cioslowski, 
 and D. J. Fox, Gaussian, Inc., Wallingford CT, 2009.
 
 ******************************************
 Gaussian 09:  IA32W-G09RevA.02 11-Jun-2009
                06-Sep-2021 
 ******************************************
 %nprocshared=12
 Will use up to   12 processors via shared memory.
 ----------------------------------------------
 # opt freq=noraman hf/6-311g geom=connectivity
 ----------------------------------------------
 1/18=20,19=15,38=1,57=2/1,3;
 2/9=110,12=2,17=6,18=5,40=1/2;
 3/5=4,6=6,11=9,16=1,25=1,30=1,71=1/1,2,3;
 4//1;
 5/5=2,38=5/2;
 6/7=2,8=2,9=2,10=2,28=1/1;
 7//1,2,3,16;
 1/18=20,19=15/3(2);
 2/9=110/2;
 99//99;
 2/9=110/2;
 3/5=4,6=6,11=9,16=1,25=1,30=1,71=1/1,2,3;
 4/5=5,16=3/1;
 5/5=2,38=5/2;
 7//1,2,3,16;
 1/18=20,19=15/3(-5);
 2/9=110/2;
 6/7=2,8=2,9=2,10=2,19=2,28=1/1;
 99/9=1/99;
 -----
 M0001
 -----
 Symbolic Z-matrix:
 Charge =  0 Multiplicity = 1
 C                     0.21286   0.07229   0.7347 
 H                     0.52747   0.24157   1.80038 
 C                     0.37307  -1.405     0.47492 
 C                    -0.24991  -2.0559   -0.59113 
 C                     1.18327  -2.14747   1.33949 
 C                    -0.07097  -3.42059  -0.78725 
 H                    -0.8944   -1.4812   -1.2757 
 C                     1.3633   -3.51109   1.1405 
 H                     1.68281  -1.65342   2.18133 
 C                     0.73598  -4.1513    0.0772 
 H                    -0.56876  -3.91898  -1.62535 
 H                     2.0003   -4.08184   1.82397 
 H                     0.87643  -5.22576  -0.07767 
 C                    -1.21562   0.54447   0.61593 
 C                    -1.89377   0.95065   1.76784 
 C                    -1.87159   0.60667  -0.6146 
 C                    -3.20151   1.41558   1.68605 
 H                    -1.39444   0.90467   2.74291 
 C                    -3.17737   1.0752   -0.69552 
 H                    -1.34569   0.2587   -1.51675 
 C                    -3.84445   1.48237   0.45485 
 H                    -3.725     1.73101   2.59445 
 H                    -3.67992   1.12238  -1.66698 
 H                    -4.87266   1.85258   0.39157 
 C                     1.11966   0.92489  -0.12009 
 C                     1.4773    0.57267  -1.42101 
 C                     1.61039   2.11847   0.41909 
 C                     2.31093   1.39682  -2.16982 
 H                     1.10723  -0.36489  -1.85531 
 C                     2.44096   2.94118  -0.33135 
 H                     1.33593   2.4112    1.43926 
 C                     2.79378   2.58196  -1.62811 
 H                     2.58681   1.1079   -3.18914 
 H                     2.81814   3.87426   0.09976 
 H                     3.44944   3.22995  -2.2184 
 

 GradGradGradGradGradGradGradGradGradGradGradGradGradGradGradGradGradGrad
 Berny optimization.
 Initialization pass.
                           ----------------------------
                           !    Initial Parameters    !
                           ! (Angstroms and Degrees)  !
 --------------------------                            --------------------------
 ! Name  Definition              Value          Derivative Info.                !
 --------------------------------------------------------------------------------
 ! R1    R(1,2)                  1.124          estimate D2E/DX2                !
 ! R2    R(1,3)                  1.5085         estimate D2E/DX2                !
 ! R3    R(1,14)                 1.5092         estimate D2E/DX2                !
 ! R4    R(1,25)                 1.5099         estimate D2E/DX2                !
 ! R5    R(3,4)                  1.3958         estimate D2E/DX2                !
 ! R6    R(3,5)                  1.3983         estimate D2E/DX2                !
 ! R7    R(4,6)                  1.3903         estimate D2E/DX2                !
 ! R8    R(4,7)                  1.1019         estimate D2E/DX2                !
 ! R9    R(5,8)                  1.3898         estimate D2E/DX2                !
 ! R10   R(5,9)                  1.0965         estimate D2E/DX2                !
 ! R11   R(6,10)                 1.3901         estimate D2E/DX2                !
 ! R12   R(6,11)                 1.0948         estimate D2E/DX2                !
 ! R13   R(8,10)                 1.3907         estimate D2E/DX2                !
 ! R14   R(8,12)                 1.0948         estimate D2E/DX2                !
 ! R15   R(10,13)                1.0946         estimate D2E/DX2                !
 ! R16   R(14,15)                1.3971         estimate D2E/DX2                !
 ! R17   R(14,16)                1.3958         estimate D2E/DX2                !
 ! R18   R(15,17)                1.3903         estimate D2E/DX2                !
 ! R19   R(15,18)                1.0965         estimate D2E/DX2                !
 ! R20   R(16,19)                1.3897         estimate D2E/DX2                !
 ! R21   R(16,20)                1.1007         estimate D2E/DX2                !
 ! R22   R(17,21)                1.3906         estimate D2E/DX2                !
 ! R23   R(17,22)                1.0949         estimate D2E/DX2                !
 ! R24   R(19,21)                1.3907         estimate D2E/DX2                !
 ! R25   R(19,23)                1.0948         estimate D2E/DX2                !
 ! R26   R(21,24)                1.0947         estimate D2E/DX2                !
 ! R27   R(25,26)                1.3944         estimate D2E/DX2                !
 ! R28   R(25,27)                1.3986         estimate D2E/DX2                !
 ! R29   R(26,28)                1.391          estimate D2E/DX2                !
 ! R30   R(26,29)                1.0975         estimate D2E/DX2                !
 ! R31   R(27,30)                1.3892         estimate D2E/DX2                !
 ! R32   R(27,31)                1.0963         estimate D2E/DX2                !
 ! R33   R(28,32)                1.3897         estimate D2E/DX2                !
 ! R34   R(28,33)                1.0948         estimate D2E/DX2                !
 ! R35   R(30,32)                1.3911         estimate D2E/DX2                !
 ! R36   R(30,34)                1.0949         estimate D2E/DX2                !
 ! R37   R(32,35)                1.0946         estimate D2E/DX2                !
 ! A1    A(2,1,3)              106.3225         estimate D2E/DX2                !
 ! A2    A(2,1,14)             107.004          estimate D2E/DX2                !
 ! A3    A(2,1,25)             106.4756         estimate D2E/DX2                !
 ! A4    A(3,1,14)             113.1649         estimate D2E/DX2                !
 ! A5    A(3,1,25)             113.0611         estimate D2E/DX2                !
 ! A6    A(14,1,25)            110.3178         estimate D2E/DX2                !
 ! A7    A(1,3,4)              122.7389         estimate D2E/DX2                !
 ! A8    A(1,3,5)              118.3638         estimate D2E/DX2                !
 ! A9    A(4,3,5)              118.8971         estimate D2E/DX2                !
 ! A10   A(3,4,6)              120.5337         estimate D2E/DX2                !
 ! A11   A(3,4,7)              119.4928         estimate D2E/DX2                !
 ! A12   A(6,4,7)              119.9716         estimate D2E/DX2                !
 ! A13   A(3,5,8)              120.4992         estimate D2E/DX2                !
 ! A14   A(3,5,9)              119.9628         estimate D2E/DX2                !
 ! A15   A(8,5,9)              119.5379         estimate D2E/DX2                !
 ! A16   A(4,6,10)             120.1967         estimate D2E/DX2                !
 ! A17   A(4,6,11)             119.7573         estimate D2E/DX2                !
 ! A18   A(10,6,11)            120.046          estimate D2E/DX2                !
 ! A19   A(5,8,10)             120.1811         estimate D2E/DX2                !
 ! A20   A(5,8,12)             119.8343         estimate D2E/DX2                !
 ! A21   A(10,8,12)            119.9846         estimate D2E/DX2                !
 ! A22   A(6,10,8)             119.6918         estimate D2E/DX2                !
 ! A23   A(6,10,13)            120.164          estimate D2E/DX2                !
 ! A24   A(8,10,13)            120.1442         estimate D2E/DX2                !
 ! A25   A(1,14,15)            119.0477         estimate D2E/DX2                !
 ! A26   A(1,14,16)            121.8793         estimate D2E/DX2                !
 ! A27   A(15,14,16)           119.0653         estimate D2E/DX2                !
 ! A28   A(14,15,17)           120.351          estimate D2E/DX2                !
 ! A29   A(14,15,18)           119.9997         estimate D2E/DX2                !
 ! A30   A(17,15,18)           119.6492         estimate D2E/DX2                !
 ! A31   A(14,16,19)           120.5266         estimate D2E/DX2                !
 ! A32   A(14,16,20)           118.9428         estimate D2E/DX2                !
 ! A33   A(19,16,20)           120.5179         estimate D2E/DX2                !
 ! A34   A(15,17,21)           120.2011         estimate D2E/DX2                !
 ! A35   A(15,17,22)           119.8192         estimate D2E/DX2                !
 ! A36   A(21,17,22)           119.9796         estimate D2E/DX2                !
 ! A37   A(16,19,21)           120.0827         estimate D2E/DX2                !
 ! A38   A(16,19,23)           119.8374         estimate D2E/DX2                !
 ! A39   A(21,19,23)           120.0799         estimate D2E/DX2                !
 ! A40   A(17,21,19)           119.7711         estimate D2E/DX2                !
 ! A41   A(17,21,24)           120.1135         estimate D2E/DX2                !
 ! A42   A(19,21,24)           120.1152         estimate D2E/DX2                !
 ! A43   A(1,25,26)            122.6536         estimate D2E/DX2                !
 ! A44   A(1,25,27)            118.3176         estimate D2E/DX2                !
 ! A45   A(26,25,27)           119.0277         estimate D2E/DX2                !
 ! A46   A(25,26,28)           120.4166         estimate D2E/DX2                !
 ! A47   A(25,26,29)           119.8992         estimate D2E/DX2                !
 ! A48   A(28,26,29)           119.6818         estimate D2E/DX2                !
 ! A49   A(25,27,30)           120.4596         estimate D2E/DX2                !
 ! A50   A(25,27,31)           119.9199         estimate D2E/DX2                !
 ! A51   A(30,27,31)           119.6201         estimate D2E/DX2                !
 ! A52   A(26,28,32)           120.2438         estimate D2E/DX2                !
 ! A53   A(26,28,33)           119.727          estimate D2E/DX2                !
 ! A54   A(32,28,33)           120.0292         estimate D2E/DX2                !
 ! A55   A(27,30,32)           120.1505         estimate D2E/DX2                !
 ! A56   A(27,30,34)           119.8659         estimate D2E/DX2                !
 ! A57   A(32,30,34)           119.9835         estimate D2E/DX2                !
 ! A58   A(28,32,30)           119.7016         estimate D2E/DX2                !
 ! A59   A(28,32,35)           120.1829         estimate D2E/DX2                !
 ! A60   A(30,32,35)           120.1155         estimate D2E/DX2                !
 ! D1    D(2,1,3,4)            161.9065         estimate D2E/DX2                !
 ! D2    D(2,1,3,5)            -18.2556         estimate D2E/DX2                !
 ! D3    D(14,1,3,4)            44.7293         estimate D2E/DX2                !
 ! D4    D(14,1,3,5)          -135.4327         estimate D2E/DX2                !
 ! D5    D(25,1,3,4)           -81.6153         estimate D2E/DX2                !
 ! D6    D(25,1,3,5)            98.2227         estimate D2E/DX2                !
 ! D7    D(2,1,14,15)           -5.8341         estimate D2E/DX2                !
 ! D8    D(2,1,14,16)          173.1462         estimate D2E/DX2                !
 ! D9    D(3,1,14,15)          110.9423         estimate D2E/DX2                !
 ! D10   D(3,1,14,16)          -70.0774         estimate D2E/DX2                !
 ! D11   D(25,1,14,15)        -121.2685         estimate D2E/DX2                !
 ! D12   D(25,1,14,16)          57.7118         estimate D2E/DX2                !
 ! D13   D(2,1,25,26)          149.8007         estimate D2E/DX2                !
 ! D14   D(2,1,25,27)          -30.5794         estimate D2E/DX2                !
 ! D15   D(3,1,25,26)           33.413          estimate D2E/DX2                !
 ! D16   D(3,1,25,27)         -146.967          estimate D2E/DX2                !
 ! D17   D(14,1,25,26)         -94.4333         estimate D2E/DX2                !
 ! D18   D(14,1,25,27)          85.1867         estimate D2E/DX2                !
 ! D19   D(1,3,4,6)           -179.961          estimate D2E/DX2                !
 ! D20   D(1,3,4,7)             -0.4538         estimate D2E/DX2                !
 ! D21   D(5,3,4,6)              0.2019         estimate D2E/DX2                !
 ! D22   D(5,3,4,7)            179.7091         estimate D2E/DX2                !
 ! D23   D(1,3,5,8)           -179.9152         estimate D2E/DX2                !
 ! D24   D(1,3,5,9)              0.0214         estimate D2E/DX2                !
 ! D25   D(4,3,5,8)             -0.0709         estimate D2E/DX2                !
 ! D26   D(4,3,5,9)            179.8657         estimate D2E/DX2                !
 ! D27   D(3,4,6,10)            -0.1905         estimate D2E/DX2                !
 ! D28   D(3,4,6,11)           179.7659         estimate D2E/DX2                !
 ! D29   D(7,4,6,10)          -179.6953         estimate D2E/DX2                !
 ! D30   D(7,4,6,11)             0.261          estimate D2E/DX2                !
 ! D31   D(3,5,8,10)            -0.0723         estimate D2E/DX2                !
 ! D32   D(3,5,8,12)           179.9822         estimate D2E/DX2                !
 ! D33   D(9,5,8,10)           179.9909         estimate D2E/DX2                !
 ! D34   D(9,5,8,12)             0.0453         estimate D2E/DX2                !
 ! D35   D(4,6,10,8)             0.0449         estimate D2E/DX2                !
 ! D36   D(4,6,10,13)          179.9959         estimate D2E/DX2                !
 ! D37   D(11,6,10,8)         -179.9113         estimate D2E/DX2                !
 ! D38   D(11,6,10,13)           0.0397         estimate D2E/DX2                !
 ! D39   D(5,8,10,6)             0.0857         estimate D2E/DX2                !
 ! D40   D(5,8,10,13)         -179.8653         estimate D2E/DX2                !
 ! D41   D(12,8,10,6)         -179.9688         estimate D2E/DX2                !
 ! D42   D(12,8,10,13)           0.0802         estimate D2E/DX2                !
 ! D43   D(1,14,15,17)         178.7211         estimate D2E/DX2                !
 ! D44   D(1,14,15,18)          -1.2184         estimate D2E/DX2                !
 ! D45   D(16,14,15,17)         -0.2882         estimate D2E/DX2                !
 ! D46   D(16,14,15,18)        179.7723         estimate D2E/DX2                !
 ! D47   D(1,14,16,19)        -178.5042         estimate D2E/DX2                !
 ! D48   D(1,14,16,20)           2.7807         estimate D2E/DX2                !
 ! D49   D(15,14,16,19)          0.476          estimate D2E/DX2                !
 ! D50   D(15,14,16,20)       -178.2392         estimate D2E/DX2                !
 ! D51   D(14,15,17,21)         -0.1263         estimate D2E/DX2                !
 ! D52   D(14,15,17,22)        179.9569         estimate D2E/DX2                !
 ! D53   D(18,15,17,21)        179.8134         estimate D2E/DX2                !
 ! D54   D(18,15,17,22)         -0.1034         estimate D2E/DX2                !
 ! D55   D(14,16,19,21)         -0.2492         estimate D2E/DX2                !
 ! D56   D(14,16,19,23)        179.7922         estimate D2E/DX2                !
 ! D57   D(20,16,19,21)        178.4457         estimate D2E/DX2                !
 ! D58   D(20,16,19,23)         -1.513          estimate D2E/DX2                !
 ! D59   D(15,17,21,19)          0.3573         estimate D2E/DX2                !
 ! D60   D(15,17,21,24)       -179.7451         estimate D2E/DX2                !
 ! D61   D(22,17,21,19)       -179.726          estimate D2E/DX2                !
 ! D62   D(22,17,21,24)          0.1716         estimate D2E/DX2                !
 ! D63   D(16,19,21,17)         -0.1704         estimate D2E/DX2                !
 ! D64   D(16,19,21,24)        179.932          estimate D2E/DX2                !
 ! D65   D(23,19,21,17)        179.7882         estimate D2E/DX2                !
 ! D66   D(23,19,21,24)         -0.1095         estimate D2E/DX2                !
 ! D67   D(1,25,26,28)         179.6725         estimate D2E/DX2                !
 ! D68   D(1,25,26,29)          -0.8953         estimate D2E/DX2                !
 ! D69   D(27,25,26,28)          0.0552         estimate D2E/DX2                !
 ! D70   D(27,25,26,29)        179.4874         estimate D2E/DX2                !
 ! D71   D(1,25,27,30)        -179.5782         estimate D2E/DX2                !
 ! D72   D(1,25,27,31)           0.1696         estimate D2E/DX2                !
 ! D73   D(26,25,27,30)          0.0559         estimate D2E/DX2                !
 ! D74   D(26,25,27,31)        179.8036         estimate D2E/DX2                !
 ! D75   D(25,26,28,32)         -0.118          estimate D2E/DX2                !
 ! D76   D(25,26,28,33)        179.8288         estimate D2E/DX2                !
 ! D77   D(29,26,28,32)       -179.5514         estimate D2E/DX2                !
 ! D78   D(29,26,28,33)          0.3954         estimate D2E/DX2                !
 ! D79   D(25,27,30,32)         -0.1047         estimate D2E/DX2                !
 ! D80   D(25,27,30,34)        179.8925         estimate D2E/DX2                !
 ! D81   D(31,27,30,32)       -179.8533         estimate D2E/DX2                !
 ! D82   D(31,27,30,34)          0.144          estimate D2E/DX2                !
 ! D83   D(26,28,32,30)          0.0689         estimate D2E/DX2                !
 ! D84   D(26,28,32,35)       -179.9779         estimate D2E/DX2                !
 ! D85   D(33,28,32,30)       -179.8777         estimate D2E/DX2                !
 ! D86   D(33,28,32,35)          0.0755         estimate D2E/DX2                !
 ! D87   D(27,30,32,28)          0.042          estimate D2E/DX2                !
 ! D88   D(27,30,32,35)       -179.9113         estimate D2E/DX2                !
 ! D89   D(34,30,32,28)       -179.9552         estimate D2E/DX2                !
 ! D90   D(34,30,32,35)          0.0915         estimate D2E/DX2                !
 --------------------------------------------------------------------------------
 Trust Radius=3.00D-01 FncErr=1.00D-07 GrdErr=1.00D-07
 Number of steps in this run= 197 maximum allowed number of steps= 210.
 GradGradGradGradGradGradGradGradGradGradGradGradGradGradGradGradGradGrad

                          Input orientation:                          
 ---------------------------------------------------------------------
 Center     Atomic      Atomic             Coordinates (Angstroms)
 Number     Number       Type             X           Y           Z
 ---------------------------------------------------------------------
      1          6           0        0.212857    0.072288    0.734698
      2          1           0        0.527471    0.241567    1.800385
      3          6           0        0.373068   -1.404999    0.474920
      4          6           0       -0.249905   -2.055899   -0.591133
      5          6           0        1.183266   -2.147468    1.339489
      6          6           0       -0.070967   -3.420586   -0.787253
      7          1           0       -0.894401   -1.481205   -1.275705
      8          6           0        1.363302   -3.511086    1.140496
      9          1           0        1.682813   -1.653419    2.181327
     10          6           0        0.735976   -4.151299    0.077205
     11          1           0       -0.568759   -3.918982   -1.625348
     12          1           0        2.000300   -4.081845    1.823969
     13          1           0        0.876433   -5.225760   -0.077670
     14          6           0       -1.215623    0.544471    0.615931
     15          6           0       -1.893772    0.950654    1.767838
     16          6           0       -1.871586    0.606667   -0.614598
     17          6           0       -3.201508    1.415578    1.686048
     18          1           0       -1.394440    0.904675    2.742913
     19          6           0       -3.177374    1.075203   -0.695522
     20          1           0       -1.345688    0.258700   -1.516752
     21          6           0       -3.844446    1.482369    0.454848
     22          1           0       -3.725004    1.731015    2.594446
     23          1           0       -3.679920    1.122377   -1.666984
     24          1           0       -4.872661    1.852579    0.391571
     25          6           0        1.119658    0.924891   -0.120089
     26          6           0        1.477300    0.572667   -1.421006
     27          6           0        1.610388    2.118465    0.419086
     28          6           0        2.310934    1.396819   -2.169815
     29          1           0        1.107227   -0.364888   -1.855310
     30          6           0        2.440959    2.941185   -0.331350
     31          1           0        1.335930    2.411198    1.439258
     32          6           0        2.793777    2.581963   -1.628113
     33          1           0        2.586811    1.107900   -3.189143
     34          1           0        2.818140    3.874258    0.099761
     35          1           0        3.449441    3.229948   -2.218397
 ---------------------------------------------------------------------
                    Distance matrix (angstroms):
                    1          2          3          4          5
     1  C    0.000000
     2  H    1.123977   0.000000
     3  C    1.508485   2.119404   0.000000
     4  C    2.549737   3.406174   1.395792   0.000000
     5  C    2.496955   2.519916   1.398271   2.406173   0.000000
     6  C    3.820610   4.523865   2.419264   1.390270   2.777942
     7  H    2.771476   3.801577   2.162631   1.101947   3.405855
     8  C    3.785336   3.900829   2.420570   2.778227   1.389772
     9  H    2.689158   2.251867   2.165403   3.403516   1.096504
    10  C    4.306348   4.723356   2.798579   2.410256   2.410139
    11  H    4.702231   5.499775   3.408559   2.154610   3.872740
    12  H    4.651697   4.567457   3.410766   3.873060   2.155012
    13  H    5.400888   5.791418   3.893193   3.402984   3.402700
    14  C    1.509177   2.129097   2.518780   3.025151   3.677599
    15  C    2.505352   2.523149   3.515579   4.160097   4.387483
    16  C    2.539894   3.423581   3.205046   3.117637   4.553662
    17  C    3.790433   3.911094   4.711695   5.093983   5.660534
    18  H    2.703554   2.240940   3.688152   4.603349   4.234353
    19  C    3.813795   4.544267   4.486309   4.287746   5.791551
    20  H    2.744602   3.809516   3.112680   2.723028   4.510363
    21  C    4.304457   4.739590   5.111234   5.151130   6.263880
    22  H    4.660127   4.575208   5.578634   6.046895   6.380334
    23  H    4.693024   5.522735   5.234700   4.798322   6.586452
    24  H    5.399043   5.808747   6.175470   6.132844   7.319370
    25  C    1.509927   2.122695   2.517899   3.314015   3.402029
    26  C    2.548775   3.374784   2.953816   3.252889   3.886635
    27  C    2.497908   2.569717   3.734819   4.680443   4.384947
    28  C    3.820014   4.503092   4.312787   4.579454   5.113592
    29  H    2.774736   3.750734   2.655333   2.509875   3.659251
    30  C    3.785692   3.936199   4.880118   5.681468   5.501625
    31  H    2.688531   2.343356   4.052210   5.156774   4.562312
    32  C    4.306099   4.729503   5.116488   5.643500   5.811018
    33  H    4.701561   5.466883   4.963938   4.980586   5.751162
    34  H    4.652485   4.619062   5.830066   6.712451   6.361676
    35  H    5.400654   5.798185   6.180677   6.653821   6.834523
                    6          7          8          9         10
     6  C    0.000000
     7  H    2.162829   0.000000
     8  C    2.404482   3.880164   0.000000
     9  H    3.874414   4.315409   2.153217   0.000000
    10  C    1.390102   3.408503   1.390683   3.400475   0.000000
    11  H    1.094805   2.484160   3.398401   4.969217   2.157542
    12  H    3.397924   4.974997   1.094836   2.475026   2.157435
    13  H    2.158640   4.311941   2.158953   4.302898   1.094615
    14  C    4.358995   2.790131   4.834621   3.960064   5.113630
    15  C    5.381342   4.021919   5.559605   4.443436   5.983622
    16  C    4.414839   2.398158   5.522748   5.055584   5.469571
    17  C    6.269448   4.741948   6.738481   5.789700   7.005874
    18  H    5.737729   4.700186   5.447185   4.040880   6.099799
    19  C    5.465372   3.476175   6.709899   6.272404   6.574779
    20  H    3.961594   1.813569   5.348915   5.148185   5.130508
    21  C    6.310382   4.525522   7.247437   6.585172   7.270563
    22  H    7.164276   5.771371   7.448788   6.392929   7.799900
    23  H    5.868302   3.832864   7.401690   7.160547   7.096054
    24  H    7.228565   5.451648   8.259360   7.646534   8.222054
    25  C    4.554763   3.343827   4.618044   3.501619   5.094491
    26  C    4.329532   3.140775   4.821964   4.239635   5.010993
    27  C    5.912977   4.701479   5.680962   4.163874   6.339670
    28  C    5.549083   4.399617   5.995306   5.350787   6.189604
    29  H    3.444732   2.364026   4.351896   4.276219   4.267241
    30  C    6.854907   5.619071   6.705182   5.291381   7.305970
    31  H    6.398938   5.243682   5.929878   4.146336   6.729153
    32  C    6.704058   5.498744   6.843735   5.803838   7.244271
    33  H    5.774084   4.741682   6.448084   6.106066   6.461717
    34  H    7.896105   6.660019   7.598881   6.014740   8.291289
    35  H    7.659703   6.477083   7.815093   6.806308   8.192404
                   11         12         13         14         15
    11  H    0.000000
    12  H    4.303995   0.000000
    13  H    2.488283   2.487539   0.000000
    14  C    5.036286   5.762318   6.176839   0.000000
    15  C    6.081342   6.363410   7.016268   1.397054   0.000000
    16  C    4.816687   6.551355   6.469707   1.395836   2.407243
    17  C    6.808394   7.569642   7.990474   2.418205   1.390330
    18  H    6.559811   6.101975   7.120027   2.164665   1.096457
    19  C    5.710633   7.729895   7.517794   2.418688   2.780519
    20  H    4.250699   6.418441   6.089999   2.155672   3.401137
    21  C    6.650709   8.185110   8.220053   2.795767   2.410766
    22  H    7.725995   8.195246   8.758432   3.408724   2.155378
    23  H    5.924217   8.457870   7.974027   3.408583   3.875283
    24  H    7.476794   9.192754   9.130999   3.890426   3.403140
    25  C    5.345995   5.442636   6.155604   2.477899   3.556078
    26  C    4.939942   5.698059   5.982253   3.376647   4.655720
    27  C    6.736405   6.369425   7.397506   3.240763   3.932182
    28  C    6.070158   6.786940   7.091785   4.574220   5.777865
    29  H    3.936165   5.305700   5.180864   3.511353   4.885064
    30  C    7.602284   7.359519   8.319319   4.473496   5.211400
    31  H    7.286345   6.538271   7.799701   3.266950   3.559793
    32  C    7.319081   7.546709   8.187833   5.026171   6.013881
    33  H    6.137802   7.239388   7.260985   5.408747   6.683713
    34  H    8.670737   8.181768   9.306558   5.255964   5.790687
    35  H    8.222217   8.479567   9.094068   6.083423   7.045224
                   16         17         18         19         20
    16  C    0.000000
    17  C    2.777769   0.000000
    18  H    3.404315   2.154873   0.000000
    19  C    1.389660   2.405891   3.876953   0.000000
    20  H    1.100696   3.878191   4.308644   2.167064   0.000000
    21  C    2.408889   1.390570   3.401691   1.390727   3.410039
    22  H    3.872632   1.094867   2.477177   3.399099   4.973007
    23  H    2.154889   3.399657   4.971721   1.094768   2.493420
    24  H    3.401635   2.158563   4.304109   2.158722   4.315285
    25  C    3.048499   4.709074   3.810234   4.337995   2.910741
    26  C    3.444777   5.679395   5.069058   4.737600   2.842007
    27  C    3.934231   5.025295   3.987789   5.025277   3.993067
    28  C    4.531723   6.727187   6.173079   5.691968   3.884931
    29  H    3.369957   5.854611   5.386445   4.666559   2.553483
    30  C    4.912051   6.183430   5.320597   5.931288   4.789530
    31  H    4.214595   4.651936   3.379948   5.168373   4.534569
    32  C    5.166683   6.948925   6.281746   6.228539   4.748170
    33  H    5.172699   7.574087   7.147095   6.280529   4.356900
    34  H    5.760294   6.693099   5.792281   6.664336   5.746550
    35  H    6.145494   7.922863   7.313323   7.132794   5.684530
                   21         22         23         24         25
    21  C    0.000000
    22  H    2.157306   0.000000
    23  H    2.158433   4.304910   0.000000
    24  H    1.094662   2.486876   2.488669   0.000000
    25  C    5.028287   5.611531   5.046567   6.085252   0.000000
    26  C    5.715537   6.673049   5.192264   6.726486   1.394402
    27  C    5.491914   5.774835   5.773321   6.488558   1.398622
    28  C    6.692151   7.696909   6.018180   7.640187   2.417278
    29  H    5.767864   6.895186   5.016392   6.762003   2.162100
    30  C    6.500197   6.931370   6.523583   7.429449   2.419898
    31  H    5.354258   5.235471   6.038920   6.321100   2.165051
    32  C    7.043709   7.813362   6.636313   7.961495   2.796909
    33  H    7.401349   8.583541   6.448961   8.307814   3.406630
    34  H    7.087826   7.323229   7.274546   7.957435   3.410563
    35  H    7.962479   8.768291   7.454777   8.829862   3.891539
                   26         27         28         29         30
    26  C    0.000000
    27  C    2.406895   0.000000
    28  C    1.391002   2.777399   0.000000
    29  H    1.097535   3.404863   2.156718   0.000000
    30  C    2.779544   1.389197   2.404564   3.877036   0.000000
    31  H    3.403130   1.096253   3.873630   4.314294   2.153376
    32  C    2.411073   2.409619   1.389656   3.402940   1.391085
    33  H    2.154947   3.872204   1.094812   2.477374   3.398410
    34  H    3.874414   2.154865   3.397931   4.971909   1.094873
    35  H    3.403868   3.402033   2.158454   4.305885   2.159021
                   31         32         33         34         35
    31  H    0.000000
    32  C    3.400477   0.000000
    33  H    4.968439   2.156969   0.000000
    34  H    2.476236   2.157815   4.303852   0.000000
    35  H    4.302990   1.094630   2.487885   2.487475   0.000000
 Stoichiometry    C19H16
 Framework group  C1[X(C19H16)]
 Deg. of freedom    99
 Full point group                 C1      NOp   1
 Largest Abelian subgroup         C1      NOp   1
 Largest concise Abelian subgroup C1      NOp   1
                         Standard orientation:                         
 ---------------------------------------------------------------------
 Center     Atomic      Atomic             Coordinates (Angstroms)
 Number     Number       Type             X           Y           Z
 ---------------------------------------------------------------------
      1          6           0       -0.022723   -0.012483   -0.753944
      2          1           0        0.000037   -0.006274   -1.877674
      3          6           0       -1.458166   -0.257628   -0.360328
      4          6           0       -1.827847   -0.693071    0.913235
      5          6           0       -2.455912   -0.034494   -1.314203
      6          6           0       -3.165640   -0.905360    1.226435
      7          1           0       -1.049204   -0.876608    1.671072
      8          6           0       -3.793000   -0.244572   -0.998720
      9          1           0       -2.185324    0.309841   -2.319458
     10          6           0       -4.151226   -0.681377    0.272058
     11          1           0       -3.441011   -1.250661    2.228202
     12          1           0       -4.565351   -0.066167   -1.753909
     13          1           0       -5.204355   -0.848757    0.519211
     14          6           0        0.912552   -1.106310   -0.299609
     15          6           0        1.495056   -1.941452   -1.256158
     16          6           0        1.228396   -1.294026    1.047003
     17          6           0        2.381223   -2.940783   -0.870073
     18          1           0        1.254882   -1.809992   -2.317880
     19          6           0        2.117265   -2.290733    1.431247
     20          1           0        0.745933   -0.654113    1.801505
     21          6           0        2.696946   -3.115157    0.472908
     22          1           0        2.832141   -3.590804   -1.626962
     23          1           0        2.359565   -2.425812    2.490285
     24          1           0        3.398050   -3.899727    0.774885
     25          6           0        0.490977    1.335449   -0.307773
     26          6           0        0.072779    1.946504    0.873786
     27          6           0        1.429787    1.987606   -1.113671
     28          6           0        0.581930    3.187042    1.243539
     29          1           0       -0.669634    1.451369    1.512728
     30          6           0        1.938684    3.225446   -0.741321
     31          1           0        1.771201    1.519047   -2.044080
     32          6           0        1.515451    3.828669    0.438557
     33          1           0        0.243590    3.657821    2.172251
     34          1           0        2.674542    3.726517   -1.378650
     35          1           0        1.915733    4.804712    0.730671
 ---------------------------------------------------------------------
 Rotational constants (GHZ):      0.4000038      0.3720293      0.2368953
 Standard basis: 6-311G (5D, 7F)
 There are   295 symmetry adapted basis functions of A   symmetry.
 Integral buffers will be    262144 words long.
 Raffenetti 1 integral format.
 Two-electron integral symmetry is turned on.
   295 basis functions,   574 primitive gaussians,   295 cartesian basis functions
    65 alpha electrons       65 beta electrons
       nuclear repulsion energy      1288.3581602949 Hartrees.
 NAtoms=   35 NActive=   35 NUniq=   35 SFac= 7.50D-01 NAtFMM=   80 NAOKFM=F Big=F
 One-electron integrals computed using PRISM.
 PrsmSu:  requested number of processors reduced to:  10 ShMem   1 Linda.
 NBasis=   295 RedAO= T  NBF=   295
 NBsUse=   295 1.00D-06 NBFU=   295
 Harris functional with IExCor=  205 diagonalized for initial guess.
 ExpMin= 1.03D-01 ExpMax= 4.56D+03 ExpMxC= 6.82D+02 IAcc=1 IRadAn=         1 AccDes= 0.00D+00
 HarFok:  IExCor=  205 AccDes= 0.00D+00 IRadAn=         1 IDoV= 1
 ScaDFX=  1.000000  1.000000  1.000000  1.000000
 FoFCou: FMM=F IPFlag=           0 FMFlag=      100000 FMFlg1=           0
         NFxFlg=           0 DoJE=T BraDBF=F KetDBF=T FulRan=T
         Omega=  0.000000  0.000000  1.000000  0.000000  0.000000 ICntrl=     500 IOpCl=  0
         NMat0=    1 NMatS0=    1 NMatT0=    0 NMatD0=    1 NMtDS0=    0 NMtDT0=    0
         I1Cent=           4 NGrid=           0.
 Petite list used in FoFCou.
 Initial guess orbital symmetries:
       Occupied  (A) (A) (A) (A) (A) (A) (A) (A) (A) (A) (A) (A)
                 (A) (A) (A) (A) (A) (A) (A) (A) (A) (A) (A) (A)
                 (A) (A) (A) (A) (A) (A) (A) (A) (A) (A) (A) (A)
                 (A) (A) (A) (A) (A) (A) (A) (A) (A) (A) (A) (A)
                 (A) (A) (A) (A) (A) (A) (A) (A) (A) (A) (A) (A)
                 (A) (A) (A) (A) (A)
       Virtual   (A) (A) (A) (A) (A) (A) (A) (A) (A) (A) (A) (A)
                 (A) (A) (A) (A) (A) (A) (A) (A) (A) (A) (A) (A)
                 (A) (A) (A) (A) (A) (A) (A) (A) (A) (A) (A) (A)
                 (A) (A) (A) (A) (A) (A) (A) (A) (A) (A) (A) (A)
                 (A) (A) (A) (A) (A) (A) (A) (A) (A) (A) (A) (A)
                 (A) (A) (A) (A) (A) (A) (A) (A) (A) (A) (A) (A)
                 (A) (A) (A) (A) (A) (A) (A) (A) (A) (A) (A) (A)
                 (A) (A) (A) (A) (A) (A) (A) (A) (A) (A) (A) (A)
                 (A) (A) (A) (A) (A) (A) (A) (A) (A) (A) (A) (A)
                 (A) (A) (A) (A) (A) (A) (A) (A) (A) (A) (A) (A)
                 (A) (A) (A) (A) (A) (A) (A) (A) (A) (A) (A) (A)
                 (A) (A) (A) (A) (A) (A) (A) (A) (A) (A) (A) (A)
                 (A) (A) (A) (A) (A) (A) (A) (A) (A) (A) (A) (A)
                 (A) (A) (A) (A) (A) (A) (A) (A) (A) (A) (A) (A)
                 (A) (A) (A) (A) (A) (A) (A) (A) (A) (A) (A) (A)
                 (A) (A) (A) (A) (A) (A) (A) (A) (A) (A) (A) (A)
                 (A) (A) (A) (A) (A) (A) (A) (A) (A) (A) (A) (A)
                 (A) (A) (A) (A) (A) (A) (A) (A) (A) (A) (A) (A)
                 (A) (A) (A) (A) (A) (A) (A) (A) (A) (A) (A) (A)
                 (A) (A)
 The electronic state of the initial guess is 1-A.
 Requested convergence on RMS density matrix=1.00D-08 within 128 cycles.
 Requested convergence on MAX density matrix=1.00D-06.
 Requested convergence on             energy=1.00D-06.
 No special actions if energy rises.
 Integral accuracy reduced to 1.0D-05 until final iterations.
 Initial convergence to 1.0D-05 achieved.  Increase integral accuracy.
 SCF Done:  E(RHF) =  -728.671699955     A.U. after   14 cycles
             Convg  =    0.6174D-08             -V/T =  2.0001

 **********************************************************************

            Population analysis using the SCF density.

 **********************************************************************

 Orbital symmetries:
       Occupied  (A) (A) (A) (A) (A) (A) (A) (A) (A) (A) (A) (A)
                 (A) (A) (A) (A) (A) (A) (A) (A) (A) (A) (A) (A)
                 (A) (A) (A) (A) (A) (A) (A) (A) (A) (A) (A) (A)
                 (A) (A) (A) (A) (A) (A) (A) (A) (A) (A) (A) (A)
                 (A) (A) (A) (A) (A) (A) (A) (A) (A) (A) (A) (A)
                 (A) (A) (A) (A) (A)
       Virtual   (A) (A) (A) (A) (A) (A) (A) (A) (A) (A) (A) (A)
                 (A) (A) (A) (A) (A) (A) (A) (A) (A) (A) (A) (A)
                 (A) (A) (A) (A) (A) (A) (A) (A) (A) (A) (A) (A)
                 (A) (A) (A) (A) (A) (A) (A) (A) (A) (A) (A) (A)
                 (A) (A) (A) (A) (A) (A) (A) (A) (A) (A) (A) (A)
                 (A) (A) (A) (A) (A) (A) (A) (A) (A) (A) (A) (A)
                 (A) (A) (A) (A) (A) (A) (A) (A) (A) (A) (A) (A)
                 (A) (A) (A) (A) (A) (A) (A) (A) (A) (A) (A) (A)
                 (A) (A) (A) (A) (A) (A) (A) (A) (A) (A) (A) (A)
                 (A) (A) (A) (A) (A) (A) (A) (A) (A) (A) (A) (A)
                 (A) (A) (A) (A) (A) (A) (A) (A) (A) (A) (A) (A)
                 (A) (A) (A) (A) (A) (A) (A) (A) (A) (A) (A) (A)
                 (A) (A) (A) (A) (A) (A) (A) (A) (A) (A) (A) (A)
                 (A) (A) (A) (A) (A) (A) (A) (A) (A) (A) (A) (A)
                 (A) (A) (A) (A) (A) (A) (A) (A) (A) (A) (A) (A)
                 (A) (A) (A) (A) (A) (A) (A) (A) (A) (A) (A) (A)
                 (A) (A) (A) (A) (A) (A) (A) (A) (A) (A) (A) (A)
                 (A) (A) (A) (A) (A) (A) (A) (A) (A) (A) (A) (A)
                 (A) (A) (A) (A) (A) (A) (A) (A) (A) (A) (A) (A)
                 (A) (A)
 The electronic state is 1-A.
 Alpha  occ. eigenvalues --  -11.25832 -11.25273 -11.25264 -11.25131 -11.24449
 Alpha  occ. eigenvalues --  -11.24432 -11.24355 -11.24350 -11.24209 -11.24189
 Alpha  occ. eigenvalues --  -11.24129 -11.24117 -11.24112 -11.24053 -11.24026
 Alpha  occ. eigenvalues --  -11.24020 -11.23913 -11.23833 -11.23739  -1.18591
 Alpha  occ. eigenvalues --   -1.15825  -1.15683  -1.09038  -1.02411  -1.02113
 Alpha  occ. eigenvalues --   -1.01888  -1.01500  -1.01390  -0.92963  -0.84539
 Alpha  occ. eigenvalues --   -0.82939  -0.82541  -0.81710  -0.81565  -0.77735
 Alpha  occ. eigenvalues --   -0.70732  -0.70448  -0.69110  -0.66000  -0.63615
 Alpha  occ. eigenvalues --   -0.63500  -0.62371  -0.62035  -0.61903  -0.59569
 Alpha  occ. eigenvalues --   -0.58772  -0.58519  -0.58430  -0.57617  -0.53914
 Alpha  occ. eigenvalues --   -0.51742  -0.51081  -0.50856  -0.49674  -0.49165
 Alpha  occ. eigenvalues --   -0.48682  -0.47794  -0.47472  -0.46764  -0.34692
 Alpha  occ. eigenvalues --   -0.34244  -0.33697  -0.33589  -0.33280  -0.31181
 Alpha virt. eigenvalues --    0.11653   0.12012   0.13588   0.13741   0.14048
 Alpha virt. eigenvalues --    0.14933   0.15136   0.16274   0.16374   0.16880
 Alpha virt. eigenvalues --    0.18806   0.19134   0.19284   0.21286   0.21419
 Alpha virt. eigenvalues --    0.21511   0.23641   0.24242   0.24984   0.27170
 Alpha virt. eigenvalues --    0.28522   0.29492   0.34027   0.34193   0.35877
 Alpha virt. eigenvalues --    0.37449   0.38514   0.39676   0.40950   0.43682
 Alpha virt. eigenvalues --    0.44101   0.44377   0.45035   0.45397   0.45577
 Alpha virt. eigenvalues --    0.45873   0.46407   0.48414   0.49905   0.50382
 Alpha virt. eigenvalues --    0.50796   0.51016   0.51449   0.54982   0.55777
 Alpha virt. eigenvalues --    0.56808   0.57908   0.58954   0.59058   0.59609
 Alpha virt. eigenvalues --    0.59683   0.60664   0.61068   0.61499   0.61697
 Alpha virt. eigenvalues --    0.61853   0.62381   0.62467   0.63286   0.63462
 Alpha virt. eigenvalues --    0.64128   0.64994   0.65161   0.65419   0.66900
 Alpha virt. eigenvalues --    0.67407   0.68220   0.68441   0.70105   0.71391
 Alpha virt. eigenvalues --    0.72343   0.73800   0.74454   0.75071   0.76222
 Alpha virt. eigenvalues --    0.77288   0.78315   0.78627   0.80472   0.81181
 Alpha virt. eigenvalues --    0.81860   0.82192   0.82342   0.82821   0.82908
 Alpha virt. eigenvalues --    0.83518   0.83918   0.84054   0.84780   0.85604
 Alpha virt. eigenvalues --    0.86042   0.86386   0.86908   0.87461   0.88063
 Alpha virt. eigenvalues --    0.89662   0.90556   0.91266   0.92975   0.94421
 Alpha virt. eigenvalues --    0.96097   0.96853   0.97676   0.98129   0.98941
 Alpha virt. eigenvalues --    0.99327   1.00297   1.02791   1.05757   1.06234
 Alpha virt. eigenvalues --    1.06804   1.07136   1.08009   1.08382   1.10498
 Alpha virt. eigenvalues --    1.11090   1.12219   1.12488   1.12981   1.14256
 Alpha virt. eigenvalues --    1.14644   1.15375   1.18583   1.19527   1.21718
 Alpha virt. eigenvalues --    1.25339   1.26738   1.27681   1.28224   1.28856
 Alpha virt. eigenvalues --    1.30336   1.35140   1.39529   1.45215   1.46611
 Alpha virt. eigenvalues --    1.51660   1.52273   1.56497   2.54614   2.55619
 Alpha virt. eigenvalues --    2.56169   2.59185   2.61968   2.62499   2.64461
 Alpha virt. eigenvalues --    2.67000   2.67716   2.68448   2.72316   2.76770
 Alpha virt. eigenvalues --    2.77776   2.83490   2.87941   2.88635   2.94129
 Alpha virt. eigenvalues --    2.94272   2.94421   2.97076   2.97452   2.98029
 Alpha virt. eigenvalues --    3.00367   3.00765   3.04043   3.05735   3.07134
 Alpha virt. eigenvalues --    3.08141   3.08431   3.08978   3.09977   3.14327
 Alpha virt. eigenvalues --    3.14770   3.16346   3.16832   3.17573   3.18815
 Alpha virt. eigenvalues --    3.22648   3.25643   3.25820   3.28295   3.28906
 Alpha virt. eigenvalues --    3.30927   3.33380   3.34270   3.35149   3.42629
 Alpha virt. eigenvalues --    3.43064   3.44423   3.46953   3.49482   3.52236
 Alpha virt. eigenvalues --    3.53443   3.54448   3.59248   3.60648   3.60668
 Alpha virt. eigenvalues --    3.63136   3.63493   3.63785   3.65968   3.66662
 Alpha virt. eigenvalues --    3.68376   3.70289   3.70464   3.71427   3.73488
 Alpha virt. eigenvalues --    3.74186   3.75556   3.80868   3.85852   3.86654
 Alpha virt. eigenvalues --    3.93041  24.24829  24.30687  24.31553  24.50538
 Alpha virt. eigenvalues --   24.50837  24.51120  24.53989  24.54665  24.56099
 Alpha virt. eigenvalues --   24.77293  24.78601  24.79136  24.79612  24.80641
 Alpha virt. eigenvalues --   24.81843  24.83238  25.05542  25.05810  25.06132
          Condensed to atoms (all electrons):
              1          2          3          4          5          6
     1  C    5.829269   0.463696   0.171099  -0.045909  -0.045167   0.003564
     2  H    0.463696   0.512412  -0.073749   0.005107   0.002813  -0.000275
     3  C    0.171099  -0.073749   5.366665   0.450051   0.495148  -0.064393
     4  C   -0.045909   0.005107   0.450051   5.121873  -0.061482   0.473425
     5  C   -0.045167   0.002813   0.495148  -0.061482   5.040894  -0.036144
     6  C    0.003564  -0.000275  -0.064393   0.473425  -0.036144   5.056451
     7  H   -0.000296  -0.000140  -0.053082   0.386584   0.004504  -0.025316
     8  C    0.008268   0.001517  -0.071552  -0.031241   0.471748  -0.075128
     9  H   -0.000725   0.002689  -0.045663   0.004757   0.394455  -0.000400
    10  C    0.001137  -0.000016  -0.017778  -0.094819  -0.086719   0.495855
    11  H   -0.000295   0.000014   0.006030  -0.036763  -0.000392   0.395575
    12  H   -0.000389  -0.000029   0.007150  -0.000600  -0.039668   0.006231
    13  H   -0.000019  -0.000001  -0.001593   0.008121   0.007487  -0.042536
    14  C    0.185479  -0.074249  -0.112534  -0.004596   0.001936   0.001543
    15  C   -0.026177   0.002073  -0.000343   0.001488   0.000196   0.000042
    16  C   -0.054380   0.005547  -0.006285  -0.017229   0.000223  -0.000013
    17  C    0.007678   0.001759  -0.000602   0.000125  -0.000009   0.000000
    18  H   -0.000482   0.002420   0.000558   0.000002   0.000136   0.000003
    19  C    0.001400  -0.000283   0.001780  -0.001735   0.000028  -0.000089
    20  H    0.003107   0.000067  -0.003190   0.000291  -0.000197   0.000863
    21  C    0.001272  -0.000013  -0.000035   0.000045  -0.000001   0.000003
    22  H   -0.000368  -0.000037   0.000020  -0.000001   0.000000   0.000000
    23  H   -0.000319   0.000012   0.000008   0.000016   0.000000   0.000001
    24  H   -0.000013  -0.000001  -0.000001   0.000001   0.000000   0.000000
    25  C    0.157929  -0.059893  -0.104103  -0.005873  -0.001441   0.000881
    26  C   -0.040166   0.004914  -0.014320  -0.007366   0.001919  -0.001492
    27  C   -0.049917  -0.003246   0.006334  -0.000175   0.000450   0.000023
    28  C    0.004807  -0.000248   0.000529   0.000017  -0.000088  -0.000031
    29  H   -0.001618  -0.000066  -0.003184   0.001117  -0.000881   0.000958
    30  C    0.006264   0.001551  -0.000758   0.000025  -0.000017   0.000000
    31  H    0.001770   0.001070   0.000693  -0.000038   0.000013   0.000000
    32  C    0.000991   0.000009   0.000045  -0.000019  -0.000013   0.000000
    33  H   -0.000325   0.000013   0.000037   0.000028   0.000007  -0.000001
    34  H   -0.000351  -0.000026   0.000011   0.000000   0.000001   0.000000
    35  H   -0.000012  -0.000002  -0.000001   0.000001   0.000000   0.000000
              7          8          9         10         11         12
     1  C   -0.000296   0.008268  -0.000725   0.001137  -0.000295  -0.000389
     2  H   -0.000140   0.001517   0.002689  -0.000016   0.000014  -0.000029
     3  C   -0.053082  -0.071552  -0.045663  -0.017778   0.006030   0.007150
     4  C    0.386584  -0.031241   0.004757  -0.094819  -0.036763  -0.000600
     5  C    0.004504   0.471748   0.394455  -0.086719  -0.000392  -0.039668
     6  C   -0.025316  -0.075128  -0.000400   0.495855   0.395575   0.006231
     7  H    0.498466  -0.000212  -0.000243   0.004793  -0.003437   0.000020
     8  C   -0.000212   5.044529  -0.034685   0.494617   0.005899   0.396663
     9  H   -0.000243  -0.034685   0.507712   0.005352   0.000022  -0.004217
    10  C    0.004793   0.494617   0.005352   5.030329  -0.039649  -0.041069
    11  H   -0.003437   0.005899   0.000022  -0.039649   0.515489  -0.000212
    12  H    0.000020   0.396663  -0.004217  -0.041069  -0.000212   0.517945
    13  H   -0.000183  -0.042951  -0.000183   0.399166  -0.004354  -0.004549
    14  C   -0.003012  -0.000680   0.000362   0.000021   0.000011   0.000014
    15  C   -0.000258  -0.000004  -0.000022  -0.000011   0.000002   0.000001
    16  C    0.002876   0.000029  -0.000026  -0.000004   0.000031   0.000000
    17  C   -0.000138   0.000001   0.000001   0.000000   0.000000   0.000000
    18  H   -0.000005   0.000003  -0.000025  -0.000001   0.000000   0.000000
    19  C    0.001159  -0.000001   0.000002   0.000001   0.000000   0.000000
    20  H    0.003447   0.000016  -0.000007  -0.000012  -0.000053   0.000000
    21  C    0.000079   0.000000   0.000000   0.000000  -0.000001   0.000000
    22  H    0.000000   0.000000   0.000000   0.000000   0.000000   0.000000
    23  H   -0.000105   0.000000   0.000000   0.000000   0.000001   0.000000
    24  H    0.000000   0.000000   0.000000   0.000000   0.000000   0.000000
    25  C   -0.000499  -0.000715   0.000478   0.000024  -0.000007   0.000021
    26  C    0.000335   0.000223   0.000184   0.000081   0.000013  -0.000001
    27  C   -0.000029   0.000003   0.000119  -0.000001  -0.000001   0.000000
    28  C    0.000053  -0.000003   0.000009   0.000004   0.000001   0.000000
    29  H    0.000152  -0.000135  -0.000037   0.000048  -0.000003   0.000001
    30  C    0.000006   0.000001  -0.000008   0.000000   0.000000   0.000000
    31  H    0.000007   0.000001   0.000003   0.000000   0.000000   0.000000
    32  C    0.000001   0.000000  -0.000004   0.000000   0.000000   0.000000
    33  H   -0.000017   0.000001   0.000000  -0.000001   0.000000   0.000000
    34  H    0.000000   0.000000   0.000000   0.000000   0.000000   0.000000
    35  H    0.000000   0.000000   0.000000   0.000000   0.000000   0.000000
             13         14         15         16         17         18
     1  C   -0.000019   0.185479  -0.026177  -0.054380   0.007678  -0.000482
     2  H   -0.000001  -0.074249   0.002073   0.005547   0.001759   0.002420
     3  C   -0.001593  -0.112534  -0.000343  -0.006285  -0.000602   0.000558
     4  C    0.008121  -0.004596   0.001488  -0.017229   0.000125   0.000002
     5  C    0.007487   0.001936   0.000196   0.000223  -0.000009   0.000136
     6  C   -0.042536   0.001543   0.000042  -0.000013   0.000000   0.000003
     7  H   -0.000183  -0.003012  -0.000258   0.002876  -0.000138  -0.000005
     8  C   -0.042951  -0.000680  -0.000004   0.000029   0.000001   0.000003
     9  H   -0.000183   0.000362  -0.000022  -0.000026   0.000001  -0.000025
    10  C    0.399166   0.000021  -0.000011  -0.000004   0.000000  -0.000001
    11  H   -0.004354   0.000011   0.000002   0.000031   0.000000   0.000000
    12  H   -0.004549   0.000014   0.000001   0.000000   0.000000   0.000000
    13  H    0.517628  -0.000002   0.000000   0.000001   0.000000   0.000000
    14  C   -0.000002   5.374789   0.503639   0.438884  -0.072774  -0.046646
    15  C    0.000000   0.503639   5.070016  -0.065421   0.459790   0.395726
    16  C    0.000001   0.438884  -0.065421   5.095308  -0.029615   0.004631
    17  C    0.000000  -0.072774   0.459790  -0.029615   5.054935  -0.035035
    18  H    0.000000  -0.046646   0.395726   0.004631  -0.035035   0.510866
    19  C    0.000000  -0.061699  -0.033446   0.479242  -0.076827  -0.000238
    20  H    0.000000  -0.048485   0.004046   0.388550  -0.000169  -0.000260
    21  C    0.000000  -0.017875  -0.086336  -0.092097   0.496964   0.005163
    22  H    0.000000   0.007060  -0.039701  -0.000618   0.396772  -0.004173
    23  H    0.000000   0.006071  -0.000449  -0.039057   0.005999   0.000024
    24  H    0.000000  -0.001593   0.007534   0.008016  -0.042749  -0.000186
    25  C    0.000001  -0.154408  -0.005707  -0.007659  -0.000463   0.000151
    26  C    0.000000  -0.014062  -0.000317  -0.000072   0.000048  -0.000048
    27  C    0.000000   0.000682   0.002046   0.000802  -0.000099   0.000252
    28  C    0.000000   0.000637   0.000027  -0.000661  -0.000001   0.000000
    29  H    0.000000  -0.001036  -0.000082   0.000491   0.000002   0.000000
    30  C    0.000000  -0.000423  -0.000036   0.000193   0.000006  -0.000006
    31  H    0.000000   0.000552   0.001432  -0.000051   0.000030   0.000255
    32  C    0.000000   0.000074  -0.000003   0.000029   0.000000   0.000000
    33  H    0.000000   0.000005   0.000000   0.000014   0.000000   0.000000
    34  H    0.000000   0.000012  -0.000001   0.000003   0.000000  -0.000001
    35  H    0.000000  -0.000001   0.000000  -0.000001   0.000000   0.000000
             19         20         21         22         23         24
     1  C    0.001400   0.003107   0.001272  -0.000368  -0.000319  -0.000013
     2  H   -0.000283   0.000067  -0.000013  -0.000037   0.000012  -0.000001
     3  C    0.001780  -0.003190  -0.000035   0.000020   0.000008  -0.000001
     4  C   -0.001735   0.000291   0.000045  -0.000001   0.000016   0.000001
     5  C    0.000028  -0.000197  -0.000001   0.000000   0.000000   0.000000
     6  C   -0.000089   0.000863   0.000003   0.000000   0.000001   0.000000
     7  H    0.001159   0.003447   0.000079   0.000000  -0.000105   0.000000
     8  C   -0.000001   0.000016   0.000000   0.000000   0.000000   0.000000
     9  H    0.000002  -0.000007   0.000000   0.000000   0.000000   0.000000
    10  C    0.000001  -0.000012   0.000000   0.000000   0.000000   0.000000
    11  H    0.000000  -0.000053  -0.000001   0.000000   0.000001   0.000000
    12  H    0.000000   0.000000   0.000000   0.000000   0.000000   0.000000
    13  H    0.000000   0.000000   0.000000   0.000000   0.000000   0.000000
    14  C   -0.061699  -0.048485  -0.017875   0.007060   0.006071  -0.001593
    15  C   -0.033446   0.004046  -0.086336  -0.039701  -0.000449   0.007534
    16  C    0.479242   0.388550  -0.092097  -0.000618  -0.039057   0.008016
    17  C   -0.076827  -0.000169   0.496964   0.396772   0.005999  -0.042749
    18  H   -0.000238  -0.000260   0.005163  -0.004173   0.000024  -0.000186
    19  C    5.035998  -0.027219   0.494363   0.006222   0.396669  -0.042914
    20  H   -0.027219   0.495305   0.004556   0.000021  -0.003433  -0.000169
    21  C    0.494363   0.004556   5.031032  -0.040775  -0.039546   0.399614
    22  H    0.006222   0.000021  -0.040775   0.518272  -0.000211  -0.004580
    23  H    0.396669  -0.003433  -0.039546  -0.000211   0.515374  -0.004453
    24  H   -0.042914  -0.000169   0.399614  -0.004580  -0.004453   0.517475
    25  C    0.000746  -0.001885   0.000096   0.000011   0.000018  -0.000002
    26  C   -0.000032   0.004773  -0.000004   0.000000  -0.000002   0.000000
    27  C   -0.000065  -0.000267  -0.000014   0.000003   0.000006   0.000000
    28  C   -0.000016   0.000446   0.000000   0.000000  -0.000001   0.000000
    29  H    0.000063   0.001036   0.000002   0.000000  -0.000009   0.000000
    30  C    0.000002  -0.000098   0.000000   0.000000   0.000001   0.000000
    31  H   -0.000017  -0.000037  -0.000011  -0.000003   0.000000   0.000000
    32  C    0.000003  -0.000011   0.000000   0.000000   0.000000   0.000000
    33  H    0.000000  -0.000001   0.000000   0.000000   0.000000   0.000000
    34  H    0.000000   0.000001   0.000000   0.000000   0.000000   0.000000
    35  H    0.000000  -0.000001   0.000000   0.000000   0.000000   0.000000
             25         26         27         28         29         30
     1  C    0.157929  -0.040166  -0.049917   0.004807  -0.001618   0.006264
     2  H   -0.059893   0.004914  -0.003246  -0.000248  -0.000066   0.001551
     3  C   -0.104103  -0.014320   0.006334   0.000529  -0.003184  -0.000758
     4  C   -0.005873  -0.007366  -0.000175   0.000017   0.001117   0.000025
     5  C   -0.001441   0.001919   0.000450  -0.000088  -0.000881  -0.000017
     6  C    0.000881  -0.001492   0.000023  -0.000031   0.000958   0.000000
     7  H   -0.000499   0.000335  -0.000029   0.000053   0.000152   0.000006
     8  C   -0.000715   0.000223   0.000003  -0.000003  -0.000135   0.000001
     9  H    0.000478   0.000184   0.000119   0.000009  -0.000037  -0.000008
    10  C    0.000024   0.000081  -0.000001   0.000004   0.000048   0.000000
    11  H   -0.000007   0.000013  -0.000001   0.000001  -0.000003   0.000000
    12  H    0.000021  -0.000001   0.000000   0.000000   0.000001   0.000000
    13  H    0.000001   0.000000   0.000000   0.000000   0.000000   0.000000
    14  C   -0.154408  -0.014062   0.000682   0.000637  -0.001036  -0.000423
    15  C   -0.005707  -0.000317   0.002046   0.000027  -0.000082  -0.000036
    16  C   -0.007659  -0.000072   0.000802  -0.000661   0.000491   0.000193
    17  C   -0.000463   0.000048  -0.000099  -0.000001   0.000002   0.000006
    18  H    0.000151  -0.000048   0.000252   0.000000   0.000000  -0.000006
    19  C    0.000746  -0.000032  -0.000065  -0.000016   0.000063   0.000002
    20  H   -0.001885   0.004773  -0.000267   0.000446   0.001036  -0.000098
    21  C    0.000096  -0.000004  -0.000014   0.000000   0.000002   0.000000
    22  H    0.000011   0.000000   0.000003   0.000000   0.000000   0.000000
    23  H    0.000018  -0.000002   0.000006  -0.000001  -0.000009   0.000001
    24  H   -0.000002   0.000000   0.000000   0.000000   0.000000   0.000000
    25  C    5.366412   0.485628   0.473294  -0.064534  -0.042713  -0.065346
    26  C    0.485628   5.087549  -0.071942   0.471676   0.390165  -0.027909
    27  C    0.473294  -0.071942   5.071521  -0.031588   0.004190   0.466341
    28  C   -0.064534   0.471676  -0.031588   5.050287  -0.029908  -0.076944
    29  H   -0.042713   0.390165   0.004190  -0.029908   0.481617  -0.000181
    30  C   -0.065346  -0.027909   0.466341  -0.076944  -0.000181   5.050262
    31  H   -0.050635   0.004148   0.399570  -0.000334  -0.000249  -0.035580
    32  C   -0.018532  -0.093449  -0.086107   0.499267   0.004711   0.488943
    33  H    0.006183  -0.037588  -0.000424   0.395914  -0.003337   0.006003
    34  H    0.006704  -0.000523  -0.039637   0.006128   0.000020   0.397083
    35  H   -0.001479   0.007821   0.007373  -0.042195  -0.000182  -0.042944
             31         32         33         34         35
     1  C    0.001770   0.000991  -0.000325  -0.000351  -0.000012
     2  H    0.001070   0.000009   0.000013  -0.000026  -0.000002
     3  C    0.000693   0.000045   0.000037   0.000011  -0.000001
     4  C   -0.000038  -0.000019   0.000028   0.000000   0.000001
     5  C    0.000013  -0.000013   0.000007   0.000001   0.000000
     6  C    0.000000   0.000000  -0.000001   0.000000   0.000000
     7  H    0.000007   0.000001  -0.000017   0.000000   0.000000
     8  C    0.000001   0.000000   0.000001   0.000000   0.000000
     9  H    0.000003  -0.000004   0.000000   0.000000   0.000000
    10  C    0.000000   0.000000  -0.000001   0.000000   0.000000
    11  H    0.000000   0.000000   0.000000   0.000000   0.000000
    12  H    0.000000   0.000000   0.000000   0.000000   0.000000
    13  H    0.000000   0.000000   0.000000   0.000000   0.000000
    14  C    0.000552   0.000074   0.000005   0.000012  -0.000001
    15  C    0.001432  -0.000003   0.000000  -0.000001   0.000000
    16  C   -0.000051   0.000029   0.000014   0.000003  -0.000001
    17  C    0.000030   0.000000   0.000000   0.000000   0.000000
    18  H    0.000255   0.000000   0.000000  -0.000001   0.000000
    19  C   -0.000017   0.000003   0.000000   0.000000   0.000000
    20  H   -0.000037  -0.000011  -0.000001   0.000001  -0.000001
    21  C   -0.000011   0.000000   0.000000   0.000000   0.000000
    22  H   -0.000003   0.000000   0.000000   0.000000   0.000000
    23  H    0.000000   0.000000   0.000000   0.000000   0.000000
    24  H    0.000000   0.000000   0.000000   0.000000   0.000000
    25  C   -0.050635  -0.018532   0.006183   0.006704  -0.001479
    26  C    0.004148  -0.093449  -0.037588  -0.000523   0.007821
    27  C    0.399570  -0.086107  -0.000424  -0.039637   0.007373
    28  C   -0.000334   0.499267   0.395914   0.006128  -0.042195
    29  H   -0.000249   0.004711  -0.003337   0.000020  -0.000182
    30  C   -0.035580   0.488943   0.006003   0.397083  -0.042944
    31  H    0.510002   0.005345   0.000024  -0.004288  -0.000185
    32  C    0.005345   5.033423  -0.040263  -0.040732   0.399185
    33  H    0.000024  -0.040263   0.516837  -0.000213  -0.004444
    34  H   -0.004288  -0.040732  -0.000213   0.518586  -0.004489
    35  H   -0.000185   0.399185  -0.004444  -0.004489   0.518495
 Mulliken atomic charges:
              1
     1  C   -0.580803
     2  H    0.204593
     3  C    0.067010
     4  C   -0.145227
     5  C   -0.149739
     6  C   -0.189600
     7  H    0.184490
     8  C   -0.166211
     9  H    0.170100
    10  C   -0.151346
    11  H    0.162078
    12  H    0.162688
    13  H    0.163969
    14  C    0.092303
    15  C   -0.189743
    16  C   -0.111681
    17  C   -0.165629
    18  H    0.166914
    19  C   -0.173098
    20  H    0.178968
    21  C   -0.156481
    22  H    0.162085
    23  H    0.163385
    24  H    0.164022
    25  C    0.087318
    26  C   -0.150184
    27  C   -0.149493
    28  C   -0.183249
    29  H    0.199048
    30  C   -0.166432
    31  H    0.166515
    32  C   -0.152891
    33  H    0.161548
    34  H    0.161712
    35  H    0.163061
 Sum of Mulliken atomic charges =   0.00000
 Mulliken charges with hydrogens summed into heavy atoms:
              1
     1  C   -0.376210
     3  C    0.067010
     4  C    0.039264
     5  C    0.020362
     6  C   -0.027523
     8  C   -0.003523
    10  C    0.012623
    14  C    0.092303
    15  C   -0.022829
    16  C    0.067287
    17  C   -0.003544
    19  C   -0.009712
    21  C    0.007542
    25  C    0.087318
    26  C    0.048863
    27  C    0.017022
    28  C   -0.021701
    30  C   -0.004720
    32  C    0.010170
 Sum of Mulliken charges with hydrogens summed into heavy atoms =   0.00000
 Electronic spatial extent (au):  <R**2>=           4939.9952
 Charge=              0.0000 electrons
 Dipole moment (field-independent basis, Debye):
    X=              0.0134    Y=             -0.0669    Z=             -0.0427  Tot=              0.0805
 Quadrupole moment (field-independent basis, Debye-Ang):
   XX=           -110.6198   YY=           -114.0639   ZZ=           -102.8410
   XY=             -0.7950   XZ=             -2.2742   YZ=             -0.1516
 Traceless Quadrupole moment (field-independent basis, Debye-Ang):
   XX=             -1.4449   YY=             -4.8890   ZZ=              6.3339
   XY=             -0.7950   XZ=             -2.2742   YZ=             -0.1516
 Octapole moment (field-independent basis, Debye-Ang**2):
  XXX=            -40.0544  YYY=             18.0621  ZZZ=             -0.1748  XYY=             44.7803
  XXY=            -14.0688  XXZ=             -6.5125  XZZ=             -0.7277  YZZ=             -4.8025
  YYZ=             10.3663  XYZ=             -0.0826
 Hexadecapole moment (field-independent basis, Debye-Ang**3):
 XXXX=          -3091.5321 YYYY=          -2907.9069 ZZZZ=           -787.1183 XXXY=              6.4091
 XXXZ=             -1.2363 YYYX=             -2.9545 YYYZ=             58.5773 ZZZX=             -6.3050
 ZZZY=             -3.9935 XXYY=           -972.9726 XXZZ=           -631.3917 YYZZ=           -601.3664
 XXYZ=            -49.8740 YYXZ=            -22.0195 ZZXY=            -15.5952
 N-N= 1.288358160295D+03 E-N=-4.272725080489D+03  KE= 7.285914779171D+02
 PrsmSu:  requested number of processors reduced to:  10 ShMem   1 Linda.
 Calling FoFJK, ICntrl=      2127 FMM=F ISym2X=0 I1Cent= 0 IOpClX= 0 NMat=1 NMatS=1 NMatT=0.
 ***** Axes restored to original set *****
 -------------------------------------------------------------------
 Center     Atomic                   Forces (Hartrees/Bohr)
 Number     Number              X              Y              Z
 -------------------------------------------------------------------
      1        6           0.005949052    0.002577968    0.023057633
      2        1          -0.008431407   -0.003813373   -0.025897057
      3        6           0.003204787   -0.011810311    0.005518959
      4        6          -0.009203021    0.004547827   -0.008769568
      5        6           0.003448540    0.002089090    0.004867590
      6        6          -0.005196663   -0.005084825   -0.009693991
      7        1           0.015133126   -0.020996312    0.016189700
      8        6           0.007708073   -0.007493246    0.007410725
      9        1          -0.008453286   -0.007395429   -0.013728718
     10        6           0.002170766   -0.013208126   -0.001355509
     11        1           0.007600132    0.007544130    0.012794789
     12        1          -0.009835641    0.008620441   -0.010355104
     13        1          -0.002254531    0.016458026    0.002451202
     14        6          -0.010570824    0.005071033    0.008043964
     15        6           0.002597351   -0.000204635    0.005461807
     16        6           0.004041839   -0.002514882   -0.010715069
     17        6          -0.007968261    0.004173950    0.009807414
     18        1          -0.007623973    0.000506391   -0.016006724
     19        6          -0.003909823   -0.000808647   -0.011729107
     20        1          -0.014194639    0.016219806    0.016575806
     21        6          -0.012642688    0.004767759    0.001045471
     22        1           0.007888524   -0.004683427   -0.013916465
     23        1           0.007571572   -0.000751184    0.014882160
     24        1           0.015844971   -0.005639353    0.000961327
     25        6           0.011876082    0.008054341   -0.002697034
     26        6          -0.002975069   -0.009518035   -0.005188752
     27        6          -0.000663203    0.003245890    0.005560869
     28        6           0.002768667   -0.001881310   -0.011667744
     29        1           0.009703123    0.018298130    0.007468686
     30        6           0.003762376    0.011070905    0.005334973
     31        1           0.004161330   -0.005224491   -0.016029867
     32        6           0.008099460    0.007685785   -0.007780988
     33        1          -0.004124767    0.004412576    0.015539554
     34        1          -0.005576188   -0.014291246   -0.006520360
     35        1          -0.009905788   -0.010025215    0.009079431
 -------------------------------------------------------------------
 Cartesian Forces:  Max     0.025897057 RMS     0.009563720

 GradGradGradGradGradGradGradGradGradGradGradGradGradGradGradGradGradGrad
 Berny optimization.
 Internal  Forces:  Max     0.029858708 RMS     0.007842985
 Search for a local minimum.
 Step number   1 out of a maximum of  197
 All quantities printed in internal units (Hartrees-Bohrs-Radians)
 Mixed Optimization -- RFO/linear search
 Second derivative matrix not updated -- first step.
     Eigenvalues ---    0.00635   0.00645   0.00654   0.01531   0.01533
     Eigenvalues ---    0.01536   0.02138   0.02141   0.02145   0.02167
     Eigenvalues ---    0.02171   0.02171   0.02181   0.02185   0.02186
     Eigenvalues ---    0.02202   0.02202   0.02203   0.02212   0.02213
     Eigenvalues ---    0.02215   0.02215   0.02215   0.02217   0.02217
     Eigenvalues ---    0.02218   0.02219   0.02219   0.02219   0.02222
     Eigenvalues ---    0.04518   0.06373   0.06674   0.15996   0.15999
     Eigenvalues ---    0.15999   0.16000   0.16000   0.16000   0.16000
     Eigenvalues ---    0.16000   0.16000   0.16000   0.16000   0.16000
     Eigenvalues ---    0.16000   0.16000   0.16000   0.18941   0.19364
     Eigenvalues ---    0.22000   0.22000   0.22000   0.22000   0.22000
     Eigenvalues ---    0.22000   0.23476   0.23476   0.23477   0.24996
     Eigenvalues ---    0.24999   0.25000   0.31164   0.31358   0.31433
     Eigenvalues ---    0.31503   0.33468   0.33605   0.33956   0.34072
     Eigenvalues ---    0.34077   0.34100   0.34255   0.34256   0.34260
     Eigenvalues ---    0.34262   0.34263   0.34267   0.34279   0.34283
     Eigenvalues ---    0.34285   0.42419   0.42426   0.42479   0.42573
     Eigenvalues ---    0.42578   0.42623   0.46340   0.46362   0.46424
     Eigenvalues ---    0.46767   0.46769   0.46843   0.47222   0.47223
     Eigenvalues ---    0.47259   0.47323   0.47328   0.473681000.00000
     Eigenvalues --- 1000.000001000.000001000.000001000.000001000.00000
     Eigenvalues --- 1000.000001000.000001000.000001000.000001000.00000
     Eigenvalues --- 1000.000001000.000001000.000001000.000001000.00000
     Eigenvalues --- 1000.000001000.000001000.000001000.000001000.00000
     Eigenvalues --- 1000.000001000.000001000.000001000.000001000.00000
     Eigenvalues --- 1000.000001000.000001000.000001000.000001000.00000
     Eigenvalues --- 1000.000001000.000001000.000001000.000001000.00000
     Eigenvalues --- 1000.000001000.000001000.000001000.000001000.00000
     Eigenvalues --- 1000.000001000.000001000.000001000.000001000.00000
     Eigenvalues --- 1000.000001000.000001000.000001000.000001000.00000
     Eigenvalues --- 1000.000001000.000001000.000001000.000001000.00000
     Eigenvalues --- 1000.000001000.000001000.000001000.000001000.00000
     Eigenvalues --- 1000.000001000.000001000.000001000.000001000.00000
     Eigenvalues --- 1000.000001000.000001000.000001000.000001000.00000
     Eigenvalues --- 1000.000001000.000001000.000001000.000001000.00000
     Eigenvalues --- 1000.000001000.000001000.000001000.000001000.00000
     Eigenvalues --- 1000.000001000.000001000.000001000.000001000.00000
     Eigenvalues --- 1000.000001000.00000
 RFO step:  Lambda=-4.29632922D-02 EMin= 6.34631928D-03
 Linear search not attempted -- first point.
 Maximum step size (   0.300) exceeded in Quadratic search.
    -- Step size scaled by   0.575
 Iteration  1 RMS(Cart)=  0.12608227 RMS(Int)=  0.00284971
 Iteration  2 RMS(Cart)=  0.00586174 RMS(Int)=  0.00028954
 Iteration  3 RMS(Cart)=  0.00000908 RMS(Int)=  0.00028949
 Iteration  4 RMS(Cart)=  0.00000000 RMS(Int)=  0.00028949
 Variable       Old X    -DE/DX   Delta X   Delta X   Delta X     New X
                                 (Linear)    (Quad)   (Total)
    R1        2.12401  -0.02749   0.00000  -0.04455  -0.04455   2.07945
    R2        2.85062   0.02572   0.00000   0.04129   0.04129   2.89191
    R3        2.85193   0.02265   0.00000   0.03644   0.03644   2.88837
    R4        2.85335   0.02087   0.00000   0.03364   0.03364   2.88699
    R5        2.63767   0.00082   0.00000   0.00112   0.00113   2.63879
    R6        2.64235  -0.00356   0.00000  -0.00402  -0.00400   2.63835
    R7        2.62723  -0.00323   0.00000  -0.00348  -0.00349   2.62374
    R8        2.08238  -0.02986   0.00000  -0.04544  -0.04544   2.03693
    R9        2.62629  -0.00364   0.00000  -0.00417  -0.00416   2.62213
   R10        2.07209  -0.01772   0.00000  -0.02655  -0.02655   2.04554
   R11        2.62691  -0.00677   0.00000  -0.00760  -0.00762   2.61929
   R12        2.06888  -0.01668   0.00000  -0.02487  -0.02487   2.04401
   R13        2.62801  -0.00838   0.00000  -0.00953  -0.00955   2.61846
   R14        2.06894  -0.01668   0.00000  -0.02487  -0.02487   2.04407
   R15        2.06852  -0.01679   0.00000  -0.02501  -0.02501   2.04351
   R16        2.64005  -0.00427   0.00000  -0.00479  -0.00478   2.63527
   R17        2.63775   0.00072   0.00000   0.00096   0.00098   2.63873
   R18        2.62734  -0.00282   0.00000  -0.00321  -0.00322   2.62412
   R19        2.07200  -0.01773   0.00000  -0.02655  -0.02655   2.04545
   R20        2.62608  -0.00461   0.00000  -0.00506  -0.00505   2.62103
   R21        2.08001  -0.02550   0.00000  -0.03866  -0.03866   2.04135
   R22        2.62780  -0.00840   0.00000  -0.00952  -0.00954   2.61826
   R23        2.06900  -0.01667   0.00000  -0.02485  -0.02485   2.04415
   R24        2.62809  -0.00556   0.00000  -0.00629  -0.00630   2.62180
   R25        2.06881  -0.01671   0.00000  -0.02491  -0.02491   2.04390
   R26        2.06861  -0.01685   0.00000  -0.02510  -0.02510   2.04351
   R27        2.63504  -0.00239   0.00000  -0.00264  -0.00264   2.63240
   R28        2.64301  -0.00424   0.00000  -0.00488  -0.00487   2.63814
   R29        2.62861  -0.00278   0.00000  -0.00303  -0.00303   2.62558
   R30        2.07404  -0.02186   0.00000  -0.03284  -0.03284   2.04120
   R31        2.62520  -0.00415   0.00000  -0.00468  -0.00468   2.62053
   R32        2.07162  -0.01735   0.00000  -0.02598  -0.02598   2.04564
   R33        2.62607  -0.00624   0.00000  -0.00692  -0.00693   2.61914
   R34        2.06889  -0.01667   0.00000  -0.02485  -0.02485   2.04404
   R35        2.62877  -0.00592   0.00000  -0.00668  -0.00668   2.62209
   R36        2.06901  -0.01667   0.00000  -0.02485  -0.02485   2.04416
   R37        2.06855  -0.01676   0.00000  -0.02498  -0.02498   2.04358
    A1        1.85568  -0.00925   0.00000  -0.04556  -0.04462   1.81106
    A2        1.86757  -0.00592   0.00000  -0.03539  -0.03463   1.83294
    A3        1.85835  -0.00027   0.00000  -0.01901  -0.01884   1.83951
    A4        1.97510   0.01481   0.00000   0.05392   0.05275   2.02785
    A5        1.97329   0.00300   0.00000   0.02539   0.02348   1.99677
    A6        1.92541  -0.00409   0.00000   0.00948   0.00714   1.93255
    A7        2.14220   0.02513   0.00000   0.04927   0.04925   2.19145
    A8        2.06584  -0.01301   0.00000  -0.02555  -0.02557   2.04027
    A9        2.07515  -0.01211   0.00000  -0.02371  -0.02368   2.05147
   A10        2.10371   0.00440   0.00000   0.00978   0.00978   2.11349
   A11        2.08554   0.00423   0.00000   0.01331   0.01331   2.09885
   A12        2.09390  -0.00863   0.00000  -0.02311  -0.02312   2.07078
   A13        2.10311   0.00829   0.00000   0.01755   0.01758   2.12069
   A14        2.09375  -0.00487   0.00000  -0.01084  -0.01085   2.08290
   A15        2.08633  -0.00342   0.00000  -0.00672  -0.00673   2.07960
   A16        2.09783   0.00242   0.00000   0.00496   0.00493   2.10276
   A17        2.09016  -0.00115   0.00000  -0.00231  -0.00230   2.08786
   A18        2.09520  -0.00127   0.00000  -0.00265  -0.00263   2.09256
   A19        2.09756   0.00003   0.00000  -0.00098  -0.00099   2.09657
   A20        2.09150   0.00004   0.00000   0.00066   0.00066   2.09216
   A21        2.09413  -0.00008   0.00000   0.00032   0.00033   2.09445
   A22        2.08902  -0.00304   0.00000  -0.00759  -0.00762   2.08140
   A23        2.09726   0.00152   0.00000   0.00380   0.00381   2.10107
   A24        2.09691   0.00152   0.00000   0.00379   0.00380   2.10072
   A25        2.07777  -0.00632   0.00000  -0.01251  -0.01258   2.06520
   A26        2.12720   0.01652   0.00000   0.03230   0.03222   2.15942
   A27        2.07808  -0.01023   0.00000  -0.02009  -0.02009   2.05799
   A28        2.10052   0.00695   0.00000   0.01484   0.01484   2.11536
   A29        2.09439  -0.00406   0.00000  -0.00906  -0.00907   2.08532
   A30        2.08827  -0.00289   0.00000  -0.00577  -0.00578   2.08249
   A31        2.10359   0.00379   0.00000   0.00844   0.00838   2.11196
   A32        2.07594   0.00414   0.00000   0.01304   0.01292   2.08886
   A33        2.10343  -0.00787   0.00000  -0.02096  -0.02108   2.08235
   A34        2.09791  -0.00009   0.00000  -0.00099  -0.00102   2.09689
   A35        2.09124   0.00019   0.00000   0.00091   0.00092   2.09216
   A36        2.09404  -0.00010   0.00000   0.00009   0.00010   2.09414
   A37        2.09584   0.00212   0.00000   0.00425   0.00425   2.10009
   A38        2.09156  -0.00096   0.00000  -0.00185  -0.00186   2.08970
   A39        2.09579  -0.00116   0.00000  -0.00240  -0.00241   2.09338
   A40        2.09040  -0.00253   0.00000  -0.00634  -0.00637   2.08403
   A41        2.09638   0.00127   0.00000   0.00319   0.00319   2.09957
   A42        2.09641   0.00126   0.00000   0.00316   0.00316   2.09957
   A43        2.14071   0.00958   0.00000   0.01888   0.01888   2.15959
   A44        2.06503  -0.00204   0.00000  -0.00393  -0.00393   2.06110
   A45        2.07743  -0.00754   0.00000  -0.01496  -0.01495   2.06247
   A46        2.10167   0.00315   0.00000   0.00686   0.00686   2.10852
   A47        2.09264   0.00058   0.00000   0.00265   0.00265   2.09529
   A48        2.08884  -0.00373   0.00000  -0.00954  -0.00954   2.07930
   A49        2.10242   0.00527   0.00000   0.01105   0.01106   2.11348
   A50        2.09300  -0.00326   0.00000  -0.00729  -0.00730   2.08570
   A51        2.08776  -0.00201   0.00000  -0.00377  -0.00377   2.08399
   A52        2.09865   0.00129   0.00000   0.00271   0.00270   2.10135
   A53        2.08963  -0.00059   0.00000  -0.00121  -0.00120   2.08843
   A54        2.09491  -0.00070   0.00000  -0.00151  -0.00150   2.09340
   A55        2.09702   0.00009   0.00000  -0.00035  -0.00035   2.09667
   A56        2.09206  -0.00002   0.00000   0.00026   0.00026   2.09231
   A57        2.09411  -0.00008   0.00000   0.00009   0.00009   2.09420
[...]
 7306,-0.00017888,-0.00034716,-0.00027093,-0.00053809,0.00134480,0.0000
 4911,-0.00042886,-0.00018869,0.00004917,0.00024352,-0.00027370,-0.0001
 0211,0.00028261,-0.00010228,-0.00005374,-0.00003392,0.00002249,0.00000
 202,-0.00033483,-0.00021187,0.00000857,0.00002180,0.00013038,0.0002402
 9,-0.00002440,0.00022067,0.00000055,-0.00000233,0.00000529,-0.00000076
 ,-0.00001678,-0.00000738,-0.00000137,0.00001030,0.00000989,0.00031249,
 -0.00076089,-0.00058694,0.00044499,-0.00032578,-0.00021961,-0.00030194
 ,-0.00023894,-0.00004918,-0.00030060,0.00027768,-0.00022769,-0.0000147
 3,-0.00003569,-0.00000879,0.00049332,-0.00006164,-0.00030695,-0.000079
 58,0.00030088,-0.00010430,-0.00006787,-0.00013504,0.00040811,0.0000175
 4,0.00003251,0.00001536,0.00000039,-0.00002475,-0.00000658,0.00001352,
 0.00000424,-0.00000530,-0.00617414,0.06540846,0.07545694,0.04729175,0.
 01210240,-0.07547584,0.08312222,0.01077126,-0.20694760,-0.04203175,-0.
 09472254,-0.00277024,0.00019658,0.00061405,-0.00106447,-0.19893668,0.1
 3853963,0.62404715,-0.00239446,0.00082730,-0.00141233,0.00028523,-0.00
 033336,-0.00074696,0.00021100,0.00010076,-0.00018915,0.00000683,0.0000
 3551,-0.00003733,0.00009005,0.00011948,0.00011899,-0.00004464,0.000003
 51,0.00000642,-0.00000476,-0.00000693,-0.00002166,-0.00003415,-0.00002
 310,-0.00001092,-0.00001781,0.00000279,-0.00003313,0.00001040,0.000028
 91,0.00000345,-0.00000318,0.00000550,0.00000663,-0.00000823,0.00001927
 ,-0.00000311,-0.00000237,0.00000337,-0.00000386,-0.00018218,-0.0002017
 2,0.00011061,-0.00017941,0.00011354,0.00013189,0.00002831,0.00008282,0
 .00000800,-0.00001882,-0.00003808,0.00007405,-0.00000016,-0.00001150,-
 0.00001279,-0.00008134,0.00007294,-0.00002931,0.00007150,-0.00005122,-
 0.00004730,0.00001472,-0.00000708,-0.00004893,0.00000617,-0.00000149,-
 0.00001518,-0.00000090,-0.00000855,0.00000782,0.00001636,-0.00000546,-
 0.00000179,0.00838431,-0.00506089,-0.00911733,0.00447466,-0.00456380,0
 .00198117,-0.09335611,0.02901087,0.09791110,-0.00081308,-0.00032756,-0
 .00052816,0.00012841,-0.00019333,-0.00052443,-0.00191768,0.01008047,0.
 02054825,0.08593449,0.00211235,0.00053589,-0.00105129,-0.00014415,-0.0
 0042187,0.00135739,0.00019588,-0.00002488,0.00038694,-0.00007434,0.000
 17946,0.00007840,-0.00008924,-0.00000531,-0.00004445,0.00004964,0.0000
 4391,0.00001563,0.00001807,-0.00000596,-0.00000700,0.00001087,0.000011
 97,0.00001709,0.00005038,-0.00002816,-0.00000418,-0.00000540,0.0000220
 3,0.00000206,0.00001041,0.00002377,0.00000022,-0.00000339,0.00000687,-
 0.00000687,0.00000366,0.00001166,0.00000148,-0.00020157,0.00021562,0.0
 0000076,-0.00000824,-0.00004629,-0.00000734,0.00007425,0.00001093,-0.0
 0018556,-0.00005676,0.00002791,0.00003819,-0.00002944,-0.00004163,0.00
 003404,0.00000952,-0.00003988,0.00001287,0.00001551,-0.00000805,0.0000
 7747,0.00003793,-0.00004545,0.00002619,0.00001535,0.00000262,-0.000007
 20,0.00002676,-0.00000963,0.00002129,0.00001657,0.00000037,0.00001042,
 0.01215049,-0.00597788,-0.02978452,-0.00477326,-0.00433067,-0.00289747
 ,0.02894970,-0.10619881,-0.09585518,-0.00037754,-0.00087614,0.00069312
 ,0.00067265,-0.00039676,-0.00140766,-0.00916605,0.01194898,0.02017829,
 -0.02660712,0.10556284,-0.00146077,0.00184500,-0.00029611,-0.00021116,
 -0.00029715,0.00051933,0.00023940,0.00003179,0.00023697,-0.00003813,0.
 00012763,0.00004246,-0.00002844,0.00000858,0.00004790,0.00002246,0.000
 03260,0.00003581,0.00000530,-0.00000518,-0.00003459,-0.00003234,0.0000
 1112,-0.00001805,0.00000937,-0.00000867,-0.00002605,0.00000323,-0.0000
 0415,0.00000170,0.00000013,0.00000847,-0.00000585,0.00000385,0.0000064
 3,-0.00000463,0.00000217,-0.00000019,-0.00000456,-0.00014866,-0.000231
 39,0.00048451,-0.00031008,0.00013558,0.00013698,0.00008014,0.00021136,
 -0.00012411,0.00003796,-0.00004807,0.00012287,0.00000393,-0.00002499,-
 0.00003011,-0.00016937,0.00010821,0.00004033,0.00007404,-0.00013479,-0
 .00006670,0.00000068,0.00003121,-0.00009271,-0.00000826,-0.00000337,-0
 .00001258,-0.00000281,-0.00002123,-0.00000514,0.00000417,-0.00001307,-
 0.00000424,0.00695302,-0.00033957,-0.00613808,0.00158229,-0.00316126,0
 .00282079,0.09697619,-0.09629112,-0.28962596,-0.00061510,0.00060224,0.
 00053412,0.00024169,-0.00008664,-0.00048177,0.00468066,-0.01115440,-0.
 01121969,-0.11074336,0.10577566,0.30284195,-0.00072069,0.00086432,-0.0
 0017387,-0.00006234,-0.00011219,-0.00012306,-0.00005232,0.00009196,0.0
 0011195,0.00005656,-0.00000622,0.00008552,-0.00006901,-0.00004902,-0.0
 0003898,0.00002089,0.00000050,0.00001498,-0.00000764,0.00000390,0.0000
 0420,-0.00000326,0.00003302,-0.00002640,-0.00003419,0.00004308,-0.0000
 0749,-0.00000081,-0.00005454,-0.00003362,-0.00000820,-0.00001877,-0.00
 000291,0.00000731,-0.00003286,0.00002234,-0.00000338,-0.00001545,0.000
 00202,0.00010668,-0.00061295,0.00025302,-0.00020451,0.00005553,-0.0001
 0354,-0.00005177,0.00004929,0.00013523,0.00000712,0.00002616,0.0000447
 2,0.00002065,-0.00001526,-0.00000928,0.00000093,0.00002059,-0.00006598
 ,0.00001032,0.00000160,-0.00002081,-0.00003909,0.00000760,0.00000258,-
 0.00002844,0.00001152,0.00000546,-0.00002583,0.00000475,-0.00001090,-0
 .00000443,0.00000514,-0.00000754,-0.00417827,0.00532628,0.00011688,-0.
 00138278,-0.02907653,-0.00635802,-0.00881871,-0.00063822,0.03041735,-0
 .13185037,-0.09970363,-0.00698389,0.00294959,-0.00442868,0.00579755,-0
 .13923761,0.01970531,0.10815135,0.00312207,-0.00540988,0.00521547,0.43
 840799,0.00168629,-0.00011979,-0.00103966,0.00025158,0.00001328,0.0008
 2295,-0.00045207,0.00023867,-0.00030074,0.00002799,0.00031455,0.000227
 33,-0.00008631,-0.00040046,0.00014759,0.00019165,-0.00025329,0.0000589
 2,0.00002892,0.00002258,0.00000829,0.00003554,0.00037583,0.00014225,0.
 00000419,-0.00000854,-0.00006809,-0.00024596,-0.00007692,-0.00023600,-
 0.00000631,-0.00002105,-0.00001558,0.00001340,-0.00001570,0.00002213,-
 0.00000125,-0.00002238,0.00000094,0.00047709,0.00075493,0.00009089,-0.
 00033856,0.00026922,0.00010821,0.00005925,0.00019761,0.00007984,0.0001
 7875,-0.00018318,0.00017071,0.00001482,0.00000363,-0.00000389,-0.00034
 665,-0.00000436,0.00022143,-0.00001869,-0.00031009,0.00030201,0.000018
 29,0.00009880,-0.00027402,-0.00002408,-0.00003042,-0.00001494,-0.00003
 790,0.00002584,-0.00000442,-0.00001580,0.00000192,0.00000859,0.0047695
 8,-0.06083835,-0.05435449,-0.06205168,-0.03654049,0.06334085,0.0317377
 3,0.08028589,0.00566169,-0.05654011,-0.31991707,-0.10923611,-0.0044056
 0,0.00108917,0.00079332,-0.02277541,-0.17301254,-0.03996673,-0.0056917
 3,-0.00048837,0.00127202,0.21863970,0.67981371,0.00134559,-0.00065323,
 -0.00136199,0.00055095,0.00043315,0.00070938,-0.00018012,0.00007058,-0
 .00050200,-0.00004666,0.00039230,0.00010758,-0.00008139,-0.00027073,0.
 00020512,0.00015673,-0.00025213,0.00003212,0.00001307,0.00001010,-0.00
 000764,0.00001083,0.00031807,0.00016937,0.00003327,-0.00003139,-0.0000
 8114,-0.00022675,0.00001929,-0.00017369,0.00000767,0.00001246,-0.00000
 639,0.00000459,0.00001661,-0.00000306,-0.00000056,-0.00000025,-0.00000
 653,0.00012823,0.00131006,0.00000530,-0.00012837,0.00020611,0.00034187
 ,0.00038170,0.00018879,-0.00012607,0.00020565,-0.00023308,0.00014536,-
 0.00001622,0.00001232,0.00000994,-0.00037789,0.00002716,0.00021373,0.0
 0007415,-0.00017090,0.00004544,0.00013750,0.00007308,-0.00031064,0.000
 01938,-0.00004435,-0.00002062,0.00005579,0.00001403,0.00004092,0.00000
 579,-0.00000932,0.00000603,-0.00148314,-0.05533662,-0.05427941,-0.0346
 7564,0.00788021,0.07408795,0.05837180,0.06176769,-0.03521202,0.0298885
 4,-0.03966855,-0.16568396,0.00610985,0.00111464,0.00018230,0.07118303,
 -0.10980640,-0.29576050,0.00479080,0.00067743,0.00174084,-0.24403686,0
 .07586475,0.64059613,-0.00017425,0.00051364,0.00067566,-0.00023614,-0.
 00015911,0.00017564,0.00000926,0.00025196,-0.00003213,0.00002983,-0.00
 009601,-0.00003348,0.00003490,0.00000180,-0.00001111,-0.00001351,0.000
 02427,-0.00001827,-0.00001744,0.00000850,0.00001294,-0.00001485,-0.000
 02250,-0.00001113,-0.00001492,0.00000130,-0.00001952,0.00002825,-0.000
 02595,0.00000726,-0.00001489,-0.00002025,-0.00000038,0.00000218,-0.000
 00201,-0.00000204,-0.00000038,-0.00000854,0.00000237,0.00013401,-0.000
 10293,0.00013822,-0.00010491,0.00004875,-0.00003203,-0.00010590,-0.000
 02996,0.00002617,-0.00000107,-0.00000360,0.00000598,0.00001074,0.00001
 002,-0.00001860,0.00000711,-0.00000904,0.00000043,0.00004057,0.0000116
 1,0.00004148,-0.00002194,0.00000902,-0.00000505,-0.00001203,0.00000144
 ,0.00000047,-0.00002548,0.00001409,-0.00000884,-0.00000611,0.00000520,
 0.00000027,0.00299004,-0.00548754,0.00452249,-0.00189621,0.01003815,0.
 02061454,-0.00079149,-0.00036164,-0.00057923,-0.09383699,0.02951192,0.
 09869515,-0.00257616,0.00158659,-0.00259602,0.00509798,-0.00479566,0.0
 0218902,-0.00074901,0.00046781,-0.00042864,0.00880741,-0.00569622,-0.0
 1003444,0.08590605,-0.00007395,0.00050692,0.00069541,-0.00009413,-0.00
 007097,0.00015864,0.00004554,0.00009945,-0.00004096,0.00000202,0.00002
 018,-0.00003272,0.00000973,-0.00002798,-0.00000503,0.00000920,-0.00002
 390,-0.00001221,-0.00000827,0.00000304,0.00000818,0.00001597,0.0000072
 1,0.00000062,-0.00000589,0.00000053,0.00001195,0.00000242,-0.00002884,
 -0.00001635,-0.00000505,-0.00000407,0.00000604,-0.00000136,-0.00000629
 ,0.00000676,-0.00000414,-0.00000166,0.00000508,-0.00001569,-0.00006086
 ,0.00004768,-0.00002980,-0.00000763,0.00000625,0.00001446,0.00000949,-
 0.00002440,-0.00000619,0.00000830,0.00000566,0.00000089,-0.00000406,-0
 .00000499,-0.00000625,0.00001162,-0.00000951,-0.00001752,0.00000498,-0
 .00001722,-0.00000218,-0.00000054,0.00000266,-0.00000193,0.00000188,0.
 00000161,0.00000540,-0.00000258,0.00000077,0.00000058,-0.00000185,-0.0
 0000167,-0.00547399,-0.00054632,0.00099330,-0.00883859,0.01185768,0.01
 983251,-0.00040827,-0.00101335,0.00067242,0.02940849,-0.10745921,-0.09
 766996,0.00231763,0.00030325,0.00071576,-0.00500862,-0.00401284,-0.002
 89862,0.00045338,-0.00014141,0.00020388,0.01336241,-0.00476690,-0.0305
 3417,-0.02786652,0.10562526,-0.00019841,-0.00075420,-0.00048172,0.0001
 5227,0.00008936,-0.00017796,0.00007861,-0.00017655,-0.00000946,-0.0000
 3759,0.00002146,-0.00001768,-0.00000644,0.00008224,0.00000560,-0.00002
 761,0.00002101,0.00000978,-0.00000110,-0.00001474,-0.00001316,-0.00000
 841,-0.00003715,0.00001660,0.00002490,-0.00002191,-0.00000128,0.000002
 26,0.00005967,0.00004155,0.00001413,0.00002056,0.00000044,-0.00000865,
 0.00002440,-0.00002410,0.00000628,0.00002163,-0.00000690,-0.00003583,0
 .00019727,-0.00011488,0.00009512,-0.00001776,0.00004470,0.00005768,-0.
 00001686,0.00004189,0.00001707,-0.00001629,-0.00000616,-0.00001396,0.0
 0000042,0.00000807,-0.00001448,0.00001644,-0.00001992,-0.00002527,-0.0
 0000374,-0.00004442,0.00002519,-0.00000084,-0.00001314,0.00001766,-0.0
 0000474,-0.00001071,0.00001119,-0.00001251,0.00000953,0.00001570,-0.00
 000418,-0.00000176,0.00506178,0.00130913,0.00154505,0.00439096,-0.0109
 4954,-0.01096301,-0.00053305,0.00079108,0.00057813,0.09860850,-0.09746
 011,-0.29243215,-0.00213567,0.00160205,-0.00016296,0.00192932,-0.00330
 954,0.00299431,-0.00043424,0.00019720,-0.00039616,0.00619031,0.0002865
 1,-0.00420545,-0.11080293,0.10746343,0.30451026,-0.00006679,-0.0007719
 2,-0.00056938,0.00006316,0.00003607,-0.00003395,-0.00035519,-0.0000515
 2,0.00015413,0.00002872,-0.00003172,0.00001211,0.00002524,-0.00006751,
 0.00002818,0.00003822,-0.00003484,-0.00001005,-0.00001227,0.00000086,0
 .00000782,0.00000306,0.00005854,-0.00000509,-0.00000247,0.00000636,-0.
 00000604,-0.00003864,-0.00003320,-0.00003202,-0.00000281,-0.00001251,-
 0.00000796,0.00000513,-0.00000345,0.00000433,-0.00000086,-0.00000756,0
 .00000033,0.00005595,-0.00013729,0.00007068,-0.00006521,0.00001408,-0.
 00002016,-0.00004692,0.00003901,-0.00000422,-0.00000135,0.00001718,0.0
 0001064,0.00000588,-0.00000840,-0.00001384,-0.00000014,0.00001798,0.00
 002075,0.00001414,-0.00004648,0.00000268,-0.00003540,0.00002124,0.0000
 0292,-0.00001179,-0.00000224,0.00000110,-0.00002133,-0.00000538,-0.000
 01905,-0.00001102,-0.00000595,-0.00000210,0.00306044,-0.00423034,0.006
 03646,-0.00087021,0.00051699,0.00036045,-0.00022120,-0.02168985,-0.009
 22838,0.00452348,-0.00154139,0.00545747,-0.00074309,0.00033086,-0.0005
 4483,-0.08108093,-0.08241018,-0.01826501,-0.00261132,0.00237543,-0.002
 14704,0.00875325,0.01281904,0.00567504,0.00011440,0.00059843,0.0001925
 7,0.07196016,0.00012736,-0.00064375,-0.00062627,-0.00001516,-0.0000052
 2,0.00006348,-0.00020269,0.00008573,0.00020721,0.00004383,-0.00009512,
 0.00002136,-0.00003380,-0.00006204,-0.00003667,0.00001096,0.00002356,-
 0.00000597,0.00000586,0.00000708,0.00000036,-0.00001372,0.00000170,-0.
 00002125,-0.00000965,0.00001646,-0.00000560,0.00001318,-0.00002710,0.0
 0000692,-0.00000562,-0.00001509,-0.00000909,0.00001504,-0.00001914,0.0
 0000370,0.00000162,-0.00001523,-0.00000097,0.00012812,-0.00012679,0.00
 007564,-0.00008346,0.00005516,-0.00001988,-0.00003988,0.00003640,-0.00
 003712,-0.00001225,0.00001086,0.00001515,0.00001129,-0.00001151,-0.000
 00623,0.00000664,-0.00000875,0.00002073,0.00003123,-0.00002045,0.00003
 435,-0.00002527,0.00001069,0.00001162,-0.00002142,-0.00000445,0.000008
 46,-0.00001296,0.00000095,-0.00001492,-0.00001799,0.00000096,0.0000007
 2,-0.00474076,0.00133452,0.00105882,0.00039015,0.00064848,0.00071003,-
 0.00276904,-0.01198149,-0.01069950,-0.00124972,0.00240612,-0.00338041,
 0.00039119,-0.00029326,0.00019535,-0.08247844,-0.31284246,-0.09344348,
 0.00174317,0.00017160,0.00178721,-0.00597946,-0.00543001,0.00035812,-0
 .00017358,-0.00050642,-0.00006326,0.09272057,0.32714599,0.00006677,0.0
 0085199,0.00040643,-0.00005696,-0.00003489,-0.00003113,0.00010632,-0.0
 0001607,-0.00016516,-0.00001648,0.00005095,0.00002907,0.00000501,0.000
 01333,0.00003563,0.00000068,-0.00001853,0.00002073,0.00000926,0.000000
 94,-0.00000840,-0.00000746,0.00002454,0.00001543,0.00000256,-0.0000014
 6,-0.00001780,-0.00002161,0.00001532,-0.00001371,0.00000279,0.00000448
 ,-0.00000297,-0.00000141,0.00000733,-0.00000112,0.00000142,0.00000054,
 -0.00000358,-0.00009245,-0.00003304,0.00002145,0.00002200,-0.00003062,
 -0.00003387,-0.00000589,-0.00000090,-0.00000262,-0.00000718,0.00000877
 ,-0.00001323,0.00000032,0.00000600,-0.00000033,0.00002095,0.00000143,0
 .00001744,0.00001343,-0.00001618,-0.00000831,-0.00000822,-0.00000225,0
 .00001324,0.00000244,0.00000421,0.00000110,-0.00000620,-0.00000340,-0.
 00000780,-0.00000329,-0.00000129,0.00000083,0.00589746,0.00070144,0.00
 020047,0.00036814,0.00066975,-0.00097967,0.00723673,0.02026251,0.01141
 738,0.00565686,-0.00293889,-0.00321023,-0.00052187,0.00020984,-0.00022
 616,-0.01839007,-0.09364631,-0.10006872,-0.00263490,0.00074679,-0.0002
 0464,-0.01066148,-0.03041886,-0.00341218,-0.00048586,-0.00138472,-0.00
 045383,0.01542643,0.10317492,0.09678467,-0.00071015,0.00030942,-0.0003
 6280,0.00001289,-0.00004695,-0.00012838,-0.00005220,0.00000619,0.00001
 758,0.00001984,-0.00001176,0.00004229,-0.00003144,-0.00001665,0.000028
 61,0.00000672,0.00001778,0.00000738,0.00000566,0.00000491,-0.00000843,
 -0.00002083,0.00001366,-0.00000587,-0.00000199,0.00000344,-0.00001847,
 0.00000485,-0.00001253,-0.00000498,-0.00000702,-0.00000941,-0.00000492
 ,0.00000788,-0.00000241,-0.00000019,0.00000168,-0.00000993,-0.00000188
 ,-0.00001583,-0.00011726,0.00013597,-0.00006565,0.00003202,-0.00003168
 ,-0.00004610,0.00002077,-0.00000609,-0.00001077,0.00000958,0.00000431,
 0.00000667,0.00000078,-0.00000807,0.00002368,-0.00001076,0.00002785,0.
 00004009,-0.00003055,0.00003073,-0.00002034,0.00000442,0.00000912,-0.0
 0001156,0.00000083,0.00000392,-0.00001926,0.00000364,-0.00001434,-0.00
 001243,0.00000054,0.00000153,-0.00008679,0.00074198,-0.00075083,0.0057
 3876,-0.00393703,0.00194217,0.00530146,-0.00110552,0.00458162,-0.00071
 041,-0.00240093,0.00758683,-0.00030026,-0.00011225,0.00025617,-0.00218
 235,-0.00918711,0.00389814,-0.00036490,-0.00031686,0.00020801,-0.17548
 711,-0.11221950,0.11213808,-0.00259906,0.00162178,-0.00260782,-0.00245
 229,0.00224468,-0.00191824,0.17403855,0.00044815,-0.00008246,0.0001785
 6,-0.00004327,0.00000752,0.00013926,-0.00003026,0.00004463,0.00003201,
 0.00000851,-0.00003788,0.00005258,-0.00003907,-0.00000249,-0.00001982,
 -0.00000314,0.00003682,0.00001785,0.00002285,0.00000600,-0.00000892,-0
 .00001377,0.00000166,-0.00001480,-0.00000226,0.00001152,-0.00000547,0.
 00001522,-0.00000335,0.00000145,-0.00000360,-0.00000687,-0.00000774,0.
 00000877,-0.00001157,0.00000867,0.00000100,-0.00001364,0.00000002,0.00
 006169,0.00000584,-0.00002803,-0.00000766,0.00000573,-0.00000841,-0.00
 000989,0.00002316,-0.00003863,-0.00000573,0.00000376,-0.00000300,0.000
 00389,-0.00000245,-0.00000016,0.00000469,-0.00001180,0.00002272,0.0000
 1738,-0.00002203,0.00002109,-0.00000853,-0.00000048,0.00000474,-0.0000
 0667,-0.00000131,0.00000539,-0.00000166,0.00000427,-0.00000424,-0.0000
 0923,0.00000200,0.00000206,0.00065576,-0.00063377,-0.00077949,-0.00358
 610,-0.00342121,-0.00475503,-0.00140212,0.00118636,-0.00420782,-0.0215
 6917,-0.01098640,0.02129096,-0.00090572,-0.00074431,0.00091267,0.00968
 461,0.01177443,-0.01003319,0.00042931,0.00031074,-0.00037370,-0.112099
 02,-0.16106574,0.08624415,0.00235501,0.00022788,0.00066006,0.00151909,
 0.00015203,0.00179238,0.12451098,0.16324339,-0.00046259,0.00024632,-0.
 00016760,0.00001527,-0.00007068,-0.00001433,0.00005924,-0.00005887,-0.
 00000157,-0.00001525,0.00005129,0.00001603,-0.00002175,0.00003098,0.00
 001309,-0.00000254,0.00000909,0.00000112,-0.00000338,-0.00000495,-0.00
 000608,0.00000309,-0.00000686,0.00000683,0.00001266,-0.00001411,0.0000
 0296,0.00000395,0.00001079,0.00000194,0.00000155,0.00000604,0.00000415
 ,-0.00000520,0.00000938,-0.00000554,0.00000026,0.00000765,0.00000076,-
 0.00007364,0.00002630,0.00005812,-0.00000841,0.00000809,0.00001893,0.0
 0002196,0.00001037,0.00001931,0.00000359,-0.00000490,0.00001350,-0.000
 00686,-0.00000548,0.00000050,-0.00001441,0.00000990,-0.00001004,-0.000
 00591,-0.00001208,-0.00001897,0.00000742,-0.00000145,-0.00001148,0.000
 00610,0.00000023,-0.00000681,0.00000237,-0.00000299,0.00000605,0.00000
 970,-0.00000240,-0.00000077,-0.00064085,-0.00076956,-0.00062019,0.0021
 7391,-0.00418714,0.00192934,0.00432391,-0.00475249,-0.00256875,-0.0087
 0455,-0.00957356,0.01122840,-0.00039793,-0.00032651,0.00028452,0.02031
 830,0.02082324,-0.01018627,0.00089699,0.00090978,-0.00081486,0.1120937
 2,0.08630232,-0.15748612,-0.00198841,0.00181389,-0.00024909,-0.0025549
 8,0.00061650,-0.00009844,-0.12504733,-0.09109816,0.15866132||0.0000117
 4,-0.00001624,-0.00000391,-0.00000322,0.00000679,-0.00000080,-0.000035
 54,0.00001280,-0.00003279,0.00002263,0.00005443,0.00002614,0.00002342,
 -0.00003832,0.00001042,0.00002761,-0.00004967,0.00001328,-0.00000771,0
 .00000096,-0.00000260,0.00000902,0.00004127,0.00001948,-0.00000159,0.0
 0000541,-0.00000058,-0.00003856,-0.00000483,-0.00003506,-0.00000277,0.
 00000338,-0.00000220,-0.00000053,-0.00000290,-0.00000146,0.00000287,-0
 .00000147,0.00000224,-0.00000637,-0.00000392,-0.00000423,-0.00000097,0
 .00000407,0.00000190,0.00001735,-0.00000523,0.00001236,0.00000380,-0.0
 0000526,-0.00000065,0.00000098,-0.00000123,0.00000054,-0.00001432,0.00
 000525,0.00000819,-0.00000020,0.00000111,-0.00000422,-0.00000241,0.000
 00006,-0.00001214,0.00000027,0.00000167,0.00000140,0.00000089,-0.00000
 215,-0.00000312,-0.00000093,0.00000098,0.00000157,-0.00000568,-0.00001
 944,-0.00002844,-0.00002943,-0.00000551,0.00004057,0.00002070,0.000026
 20,0.00000116,0.00002977,0.00003546,-0.00000424,0.00000184,-0.00000676
 ,-0.00000098,-0.00001603,-0.00000909,0.00003552,-0.00000228,-0.0000037
 4,0.00000126,-0.00000564,-0.00002671,-0.00003594,-0.00000212,-0.000002
 86,-0.00000055,0.00000256,0.00000098,-0.00000431,0.00000085,0.00000452
 ,0.00000219|||@


 In the beginning there was nothing, which exploded.
 Job cpu time:  0 days  0 hours  6 minutes 24.0 seconds.
 File lengths (MBytes):  RWF=    350 Int=      0 D2E=      0 Chk=      7 Scr=      1
 Normal termination of Gaussian 09 at Mon Sep 06 16:37:40 2021.
