 Entering Link 1 = b:\programy\g09w\l1.exe PID=      4044.
  
 Copyright (c) 1988,1990,1992,1993,1995,1998,2003,2009, Gaussian, Inc.
                  All Rights Reserved.
  
 This is part of the Gaussian(R) 09 program.  It is based on
 the Gaussian(R) 03 system (copyright 2003, Gaussian, Inc.),
 the Gaussian(R) 98 system (copyright 1998, Gaussian, Inc.),
 the Gaussian(R) 94 system (copyright 1995, Gaussian, Inc.),
 the Gaussian 92(TM) system (copyright 1992, Gaussian, Inc.),
 the Gaussian 90(TM) system (copyright 1990, Gaussian, Inc.),
 the Gaussian 88(TM) system (copyright 1988, Gaussian, Inc.),
 the Gaussian 86(TM) system (copyright 1986, Carnegie Mellon
 University), and the Gaussian 82(TM) system (copyright 1983,
 Carnegie Mellon University). Gaussian is a federally registered
 trademark of Gaussian, Inc.
  
 This software contains proprietary and confidential information,
 including trade secrets, belonging to Gaussian, Inc.
  
 This software is provided under written license and may be
 used, copied, transmitted, or stored only in accord with that
 written license.
  
 The following legend is applicable only to US Government
 contracts under FAR:
  
                    RESTRICTED RIGHTS LEGEND
  
 Use, reproduction and disclosure by the US Government is
 subject to restrictions as set forth in subparagraphs (a)
 and (c) of the Commercial Computer Software - Restricted
 Rights clause in FAR 52.227-19.
  
 Gaussian, Inc.
 340 Quinnipiac St., Bldg. 40, Wallingford CT 06492
  
  
 ---------------------------------------------------------------
 Warning -- This program may not be used in any manner that
 competes with the business of Gaussian, Inc. or will provide
 assistance to any competitor of Gaussian, Inc.  The licensee
 of this program is prohibited from giving any competitor of
 Gaussian, Inc. access to this program.  By using this program,
 the user acknowledges that Gaussian, Inc. is engaged in the
 business of creating and licensing software in the field of
 computational chemistry and represents and warrants to the
 licensee that it is not a competitor of Gaussian, Inc. and that
 it will not use this program in any manner prohibited above.
 ---------------------------------------------------------------
  

 Cite this work as:
 Gaussian 09, Revision A.02,
 M. J. Frisch, G. W. Trucks, H. B. Schlegel, G. E. Scuseria, 
 M. A. Robb, J. R. Cheeseman, G. Scalmani, V. Barone, B. Mennucci, 
 G. A. Petersson, H. Nakatsuji, M. Caricato, X. Li, H. P. Hratchian, 
 A. F. Izmaylov, J. Bloino, G. Zheng, J. L. Sonnenberg, M. Hada, 
 M. Ehara, K. Toyota, R. Fukuda, J. Hasegawa, M. Ishida, T. Nakajima, 
 Y. Honda, O. Kitao, H. Nakai, T. Vreven, J. A. Montgomery, Jr., 
 J. E. Peralta, F. Ogliaro, M. Bearpark, J. J. Heyd, E. Brothers, 
 K. N. Kudin, V. N. Staroverov, R. Kobayashi, J. Normand, 
 K. Raghavachari, A. Rendell, J. C. Burant, S. S. Iyengar, J. Tomasi, 
 M. Cossi, N. Rega, J. M. Millam, M. Klene, J. E. Knox, J. B. Cross, 
 V. Bakken, C. Adamo, J. Jaramillo, R. Gomperts, R. E. Stratmann, 
 O. Yazyev, A. J. Austin, R. Cammi, C. Pomelli, J. W. Ochterski, 
 R. L. Martin, K. Morokuma, V. G. Zakrzewski, G. A. Voth, 
 P. Salvador, J. J. Dannenberg, S. Dapprich, A. D. Daniels, 
 O. Farkas, J. B. Foresman, J. V. Ortiz, J. Cioslowski, 
 and D. J. Fox, Gaussian, Inc., Wallingford CT, 2009.
 
 ******************************************
 Gaussian 09:  IA32W-G09RevA.02 11-Jun-2009
                07-Sep-2021 
 ******************************************
 %nprocshared=12
 Will use up to   12 processors via shared memory.
 ----------------------------------------------
 # opt freq=noraman hf/6-311g geom=connectivity
 ----------------------------------------------
 1/18=20,19=15,38=1,57=2/1,3;
 2/9=110,12=2,17=6,18=5,40=1/2;
 3/5=4,6=6,11=9,16=1,25=1,30=1,71=1/1,2,3;
 4//1;
 5/5=2,38=5/2;
 6/7=2,8=2,9=2,10=2,28=1/1;
 7//1,2,3,16;
 1/18=20,19=15/3(2);
 2/9=110/2;
 99//99;
 2/9=110/2;
 3/5=4,6=6,11=9,16=1,25=1,30=1,71=1/1,2,3;
 4/5=5,16=3/1;
 5/5=2,38=5/2;
 7//1,2,3,16;
 1/18=20,19=15/3(-5);
 2/9=110/2;
 6/7=2,8=2,9=2,10=2,19=2,28=1/1;
 99/9=1/99;
 -----
 M0001
 -----
 Symbolic Z-matrix:
 Charge =  0 Multiplicity = 1
 C                    -0.07449  -0.02865  -0.77486 
 H                    -0.18584  -0.10081  -1.88989 
 C                    -1.48528   0.10664  -0.25842 
 C                    -2.30607  -1.0242   -0.20636 
 C                    -2.01708   1.34491   0.10351 
 C                    -3.62784  -0.91767   0.20717 
 H                    -1.89778  -2.00164  -0.49074 
 C                    -3.34117   1.44959   0.51598 
 H                    -1.38599   2.24172   0.06496 
 C                    -4.14912   0.32011   0.56977 
 H                    -4.25967  -1.81092   0.24659 
 H                    -3.74605   2.42693   0.79801 
 H                    -5.19093   0.40363   0.89507 
 C                     0.58869  -1.29541  -0.28991 
 C                     1.04465  -2.2312   -1.22058 
 C                     0.75722  -1.55084   1.07259 
 C                     1.65447  -3.40545  -0.79253 
 H                     0.92393  -2.04187  -2.29352 
 C                     1.36455  -2.72575   1.498 
 H                     0.41804  -0.80034   1.80267 
 C                     1.81277  -3.65613   0.56602 
 H                     2.01043  -4.13366  -1.52881 
 H                     1.49156  -2.91712   2.56827 
 H                     2.29103  -4.58199   0.90123 
 C                     0.80055   1.16377  -0.47755 
 C                     1.33792   1.89801  -1.53687 
 C                     1.09363   1.54637   0.83353 
 C                     2.15234   2.99729  -1.28658 
 H                     1.11923   1.60887  -2.57163 
 C                     1.90683   2.6454    1.08111 
 H                     0.68367   0.95454   1.667 
 C                     2.43699   3.37372   0.02116 
 H                     2.5701    3.56668  -2.12326 
 H                     2.13095   2.93594   2.11259 
 H                     3.07778   4.23952   0.21631 
 

 GradGradGradGradGradGradGradGradGradGradGradGradGradGradGradGradGradGrad
 Berny optimization.
 Initialization pass.
                           ----------------------------
                           !    Initial Parameters    !
                           ! (Angstroms and Degrees)  !
 --------------------------                            --------------------------
 ! Name  Definition              Value          Derivative Info.                !
 --------------------------------------------------------------------------------
 ! R1    R(1,2)                  1.1229         estimate D2E/DX2                !
 ! R2    R(1,3)                  1.5084         estimate D2E/DX2                !
 ! R3    R(1,14)                 1.5099         estimate D2E/DX2                !
 ! R4    R(1,25)                 1.5086         estimate D2E/DX2                !
 ! R5    R(3,4)                  1.3983         estimate D2E/DX2                !
 ! R6    R(3,5)                  1.3954         estimate D2E/DX2                !
 ! R7    R(4,6)                  1.389          estimate D2E/DX2                !
 ! R8    R(4,7)                  1.0968         estimate D2E/DX2                !
 ! R9    R(5,8)                  1.3908         estimate D2E/DX2                !
 ! R10   R(5,9)                  1.0973         estimate D2E/DX2                !
 ! R11   R(6,10)                 1.3911         estimate D2E/DX2                !
 ! R12   R(6,11)                 1.0948         estimate D2E/DX2                !
 ! R13   R(8,10)                 1.3898         estimate D2E/DX2                !
 ! R14   R(8,12)                 1.0948         estimate D2E/DX2                !
 ! R15   R(10,13)                1.0946         estimate D2E/DX2                !
 ! R16   R(14,15)                1.3963         estimate D2E/DX2                !
 ! R17   R(14,16)                1.3964         estimate D2E/DX2                !
 ! R18   R(15,17)                1.3907         estimate D2E/DX2                !
 ! R19   R(15,18)                1.0962         estimate D2E/DX2                !
 ! R20   R(16,19)                1.3893         estimate D2E/DX2                !
 ! R21   R(16,20)                1.1006         estimate D2E/DX2                !
 ! R22   R(17,21)                1.3905         estimate D2E/DX2                !
 ! R23   R(17,22)                1.095          estimate D2E/DX2                !
 ! R24   R(19,21)                1.3911         estimate D2E/DX2                !
 ! R25   R(19,23)                1.0946         estimate D2E/DX2                !
 ! R26   R(21,24)                1.0947         estimate D2E/DX2                !
 ! R27   R(25,26)                1.3964         estimate D2E/DX2                !
 ! R28   R(25,27)                1.3969         estimate D2E/DX2                !
 ! R29   R(26,28)                1.3908         estimate D2E/DX2                !
 ! R30   R(26,29)                1.0964         estimate D2E/DX2                !
 ! R31   R(27,30)                1.3894         estimate D2E/DX2                !
 ! R32   R(27,31)                1.1014         estimate D2E/DX2                !
 ! R33   R(28,32)                1.3903         estimate D2E/DX2                !
 ! R34   R(28,33)                1.0949         estimate D2E/DX2                !
 ! R35   R(30,32)                1.391          estimate D2E/DX2                !
 ! R36   R(30,34)                1.0948         estimate D2E/DX2                !
 ! R37   R(32,35)                1.0947         estimate D2E/DX2                !
 ! A1    A(2,1,3)              104.6546         estimate D2E/DX2                !
 ! A2    A(2,1,14)             107.9735         estimate D2E/DX2                !
 ! A3    A(2,1,25)             107.6976         estimate D2E/DX2                !
 ! A4    A(3,1,14)             112.0915         estimate D2E/DX2                !
 ! A5    A(3,1,25)             113.8363         estimate D2E/DX2                !
 ! A6    A(14,1,25)            110.1868         estimate D2E/DX2                !
 ! A7    A(1,3,4)              119.2895         estimate D2E/DX2                !
 ! A8    A(1,3,5)              121.657          estimate D2E/DX2                !
 ! A9    A(4,3,5)              118.9665         estimate D2E/DX2                !
 ! A10   A(3,4,6)              120.5062         estimate D2E/DX2                !
 ! A11   A(3,4,7)              119.5087         estimate D2E/DX2                !
 ! A12   A(6,4,7)              119.9845         estimate D2E/DX2                !
 ! A13   A(3,5,8)              120.4343         estimate D2E/DX2                !
 ! A14   A(3,5,9)              119.7997         estimate D2E/DX2                !
 ! A15   A(8,5,9)              119.7659         estimate D2E/DX2                !
 ! A16   A(4,6,10)             120.159          estimate D2E/DX2                !
 ! A17   A(4,6,11)             119.8215         estimate D2E/DX2                !
 ! A18   A(10,6,11)            120.0195         estimate D2E/DX2                !
 ! A19   A(5,8,10)             120.2507         estimate D2E/DX2                !
 ! A20   A(5,8,12)             119.7135         estimate D2E/DX2                !
 ! A21   A(10,8,12)            120.0359         estimate D2E/DX2                !
 ! A22   A(6,10,8)             119.6823         estimate D2E/DX2                !
 ! A23   A(6,10,13)            120.1316         estimate D2E/DX2                !
 ! A24   A(8,10,13)            120.1861         estimate D2E/DX2                !
 ! A25   A(1,14,15)            119.4477         estimate D2E/DX2                !
 ! A26   A(1,14,16)            121.3226         estimate D2E/DX2                !
 ! A27   A(15,14,16)           119.2296         estimate D2E/DX2                !
 ! A28   A(14,15,17)           120.2599         estimate D2E/DX2                !
 ! A29   A(14,15,18)           120.0436         estimate D2E/DX2                !
 ! A30   A(17,15,18)           119.6964         estimate D2E/DX2                !
 ! A31   A(14,16,19)           120.411          estimate D2E/DX2                !
 ! A32   A(14,16,20)           119.0319         estimate D2E/DX2                !
 ! A33   A(19,16,20)           120.5485         estimate D2E/DX2                !
 ! A34   A(15,17,21)           120.1894         estimate D2E/DX2                !
 ! A35   A(15,17,22)           119.8089         estimate D2E/DX2                !
 ! A36   A(21,17,22)           120.0017         estimate D2E/DX2                !
 ! A37   A(16,19,21)           120.0867         estimate D2E/DX2                !
 ! A38   A(16,19,23)           119.8643         estimate D2E/DX2                !
 ! A39   A(21,19,23)           120.0489         estimate D2E/DX2                !
 ! A40   A(17,21,19)           119.8221         estimate D2E/DX2                !
 ! A41   A(17,21,24)           120.0917         estimate D2E/DX2                !
 ! A42   A(19,21,24)           120.0861         estimate D2E/DX2                !
 ! A43   A(1,25,26)            119.2946         estimate D2E/DX2                !
 ! A44   A(1,25,27)            121.5443         estimate D2E/DX2                !
 ! A45   A(26,25,27)           119.1597         estimate D2E/DX2                !
 ! A46   A(25,26,28)           120.2923         estimate D2E/DX2                !
 ! A47   A(25,26,29)           120.0338         estimate D2E/DX2                !
 ! A48   A(28,26,29)           119.674          estimate D2E/DX2                !
 ! A49   A(25,27,30)           120.445          estimate D2E/DX2                !
 ! A50   A(25,27,31)           119.0129         estimate D2E/DX2                !
 ! A51   A(30,27,31)           120.535          estimate D2E/DX2                !
 ! A52   A(26,28,32)           120.2096         estimate D2E/DX2                !
 ! A53   A(26,28,33)           119.7989         estimate D2E/DX2                !
 ! A54   A(32,28,33)           119.9915         estimate D2E/DX2                !
 ! A55   A(27,30,32)           120.0951         estimate D2E/DX2                !
 ! A56   A(27,30,34)           119.8426         estimate D2E/DX2                !
 ! A57   A(32,30,34)           120.0622         estimate D2E/DX2                !
 ! A58   A(28,32,30)           119.798          estimate D2E/DX2                !
 ! A59   A(28,32,35)           120.1115         estimate D2E/DX2                !
 ! A60   A(30,32,35)           120.0904         estimate D2E/DX2                !
 ! D1    D(2,1,3,4)             76.5004         estimate D2E/DX2                !
 ! D2    D(2,1,3,5)           -100.0715         estimate D2E/DX2                !
 ! D3    D(14,1,3,4)           -40.2666         estimate D2E/DX2                !
 ! D4    D(14,1,3,5)           143.1615         estimate D2E/DX2                !
 ! D5    D(25,1,3,4)          -166.1739         estimate D2E/DX2                !
 ! D6    D(25,1,3,5)            17.2542         estimate D2E/DX2                !
 ! D7    D(2,1,14,15)            5.6881         estimate D2E/DX2                !
 ! D8    D(2,1,14,16)         -174.3765         estimate D2E/DX2                !
 ! D9    D(3,1,14,15)          120.4417         estimate D2E/DX2                !
 ! D10   D(3,1,14,16)          -59.6229         estimate D2E/DX2                !
 ! D11   D(25,1,14,15)        -111.6849         estimate D2E/DX2                !
 ! D12   D(25,1,14,16)          68.2506         estimate D2E/DX2                !
 ! D13   D(2,1,25,26)           -2.4677         estimate D2E/DX2                !
 ! D14   D(2,1,25,27)          177.9557         estimate D2E/DX2                !
 ! D15   D(3,1,25,26)         -118.0178         estimate D2E/DX2                !
 ! D16   D(3,1,25,27)           62.4056         estimate D2E/DX2                !
 ! D17   D(14,1,25,26)         115.0761         estimate D2E/DX2                !
 ! D18   D(14,1,25,27)         -64.5005         estimate D2E/DX2                !
 ! D19   D(1,3,4,6)           -177.0602         estimate D2E/DX2                !
 ! D20   D(1,3,4,7)              3.2185         estimate D2E/DX2                !
 ! D21   D(5,3,4,6)             -0.3953         estimate D2E/DX2                !
 ! D22   D(5,3,4,7)            179.8834         estimate D2E/DX2                !
 ! D23   D(1,3,5,8)            176.9125         estimate D2E/DX2                !
 ! D24   D(1,3,5,9)             -3.2424         estimate D2E/DX2                !
 ! D25   D(4,3,5,8)              0.3298         estimate D2E/DX2                !
 ! D26   D(4,3,5,9)           -179.8251         estimate D2E/DX2                !
 ! D27   D(3,4,6,10)             0.2255         estimate D2E/DX2                !
 ! D28   D(3,4,6,11)          -179.8154         estimate D2E/DX2                !
 ! D29   D(7,4,6,10)           179.9454         estimate D2E/DX2                !
 ! D30   D(7,4,6,11)            -0.0954         estimate D2E/DX2                !
 ! D31   D(3,5,8,10)            -0.0948         estimate D2E/DX2                !
 ! D32   D(3,5,8,12)           179.9544         estimate D2E/DX2                !
 ! D33   D(9,5,8,10)          -179.9399         estimate D2E/DX2                !
 ! D34   D(9,5,8,12)             0.1092         estimate D2E/DX2                !
 ! D35   D(4,6,10,8)             0.0152         estimate D2E/DX2                !
 ! D36   D(4,6,10,13)          179.9677         estimate D2E/DX2                !
 ! D37   D(11,6,10,8)         -179.9439         estimate D2E/DX2                !
 ! D38   D(11,6,10,13)           0.0086         estimate D2E/DX2                !
 ! D39   D(5,8,10,6)            -0.0804         estimate D2E/DX2                !
 ! D40   D(5,8,10,13)          179.9671         estimate D2E/DX2                !
 ! D41   D(12,8,10,6)          179.8703         estimate D2E/DX2                !
 ! D42   D(12,8,10,13)          -0.0822         estimate D2E/DX2                !
 ! D43   D(1,14,15,17)        -179.8151         estimate D2E/DX2                !
 ! D44   D(1,14,15,18)           0.2544         estimate D2E/DX2                !
 ! D45   D(16,14,15,17)          0.2481         estimate D2E/DX2                !
 ! D46   D(16,14,15,18)       -179.6824         estimate D2E/DX2                !
 ! D47   D(1,14,16,19)         179.6982         estimate D2E/DX2                !
 ! D48   D(1,14,16,20)          -1.3621         estimate D2E/DX2                !
 ! D49   D(15,14,16,19)         -0.3662         estimate D2E/DX2                !
 ! D50   D(15,14,16,20)        178.5735         estimate D2E/DX2                !
 ! D51   D(14,15,17,21)          0.0763         estimate D2E/DX2                !
 ! D52   D(14,15,17,22)       -179.9239         estimate D2E/DX2                !
 ! D53   D(18,15,17,21)       -179.993          estimate D2E/DX2                !
 ! D54   D(18,15,17,22)          0.0068         estimate D2E/DX2                !
 ! D55   D(14,16,19,21)          0.1597         estimate D2E/DX2                !
 ! D56   D(14,16,19,23)       -179.9634         estimate D2E/DX2                !
 ! D57   D(20,16,19,21)       -178.7637         estimate D2E/DX2                !
 ! D58   D(20,16,19,23)          1.1131         estimate D2E/DX2                !
 ! D59   D(15,17,21,19)         -0.2856         estimate D2E/DX2                !
 ! D60   D(15,17,21,24)        179.8649         estimate D2E/DX2                !
 ! D61   D(22,17,21,19)        179.7146         estimate D2E/DX2                !
 ! D62   D(22,17,21,24)         -0.1349         estimate D2E/DX2                !
 ! D63   D(16,19,21,17)          0.1678         estimate D2E/DX2                !
 ! D64   D(16,19,21,24)       -179.9826         estimate D2E/DX2                !
 ! D65   D(23,19,21,17)       -179.7088         estimate D2E/DX2                !
 ! D66   D(23,19,21,24)          0.1408         estimate D2E/DX2                !
 ! D67   D(1,25,26,28)        -179.7012         estimate D2E/DX2                !
 ! D68   D(1,25,26,29)           0.2622         estimate D2E/DX2                !
 ! D69   D(27,25,26,28)         -0.1145         estimate D2E/DX2                !
 ! D70   D(27,25,26,29)        179.8489         estimate D2E/DX2                !
 ! D71   D(1,25,27,30)         179.7316         estimate D2E/DX2                !
 ! D72   D(1,25,27,31)           0.6912         estimate D2E/DX2                !
 ! D73   D(26,25,27,30)          0.1544         estimate D2E/DX2                !
 ! D74   D(26,25,27,31)       -178.886          estimate D2E/DX2                !
 ! D75   D(25,26,28,32)         -0.0318         estimate D2E/DX2                !
 ! D76   D(25,26,28,33)        179.946          estimate D2E/DX2                !
 ! D77   D(29,26,28,32)       -179.9954         estimate D2E/DX2                !
 ! D78   D(29,26,28,33)         -0.0175         estimate D2E/DX2                !
 ! D79   D(25,27,30,32)         -0.048          estimate D2E/DX2                !
 ! D80   D(25,27,30,34)       -179.9384         estimate D2E/DX2                !
 ! D81   D(31,27,30,32)        178.9777         estimate D2E/DX2                !
 ! D82   D(31,27,30,34)         -0.9127         estimate D2E/DX2                !
 ! D83   D(26,28,32,30)          0.1395         estimate D2E/DX2                !
 ! D84   D(26,28,32,35)       -179.9683         estimate D2E/DX2                !
 ! D85   D(33,28,32,30)       -179.8383         estimate D2E/DX2                !
 ! D86   D(33,28,32,35)          0.0539         estimate D2E/DX2                !
 ! D87   D(27,30,32,28)         -0.0997         estimate D2E/DX2                !
 ! D88   D(27,30,32,35)       -179.9919         estimate D2E/DX2                !
 ! D89   D(34,30,32,28)        179.7905         estimate D2E/DX2                !
 ! D90   D(34,30,32,35)         -0.1017         estimate D2E/DX2                !
 --------------------------------------------------------------------------------
 Trust Radius=3.00D-01 FncErr=1.00D-07 GrdErr=1.00D-07
 Number of steps in this run= 197 maximum allowed number of steps= 210.
 GradGradGradGradGradGradGradGradGradGradGradGradGradGradGradGradGradGrad

                          Input orientation:                          
 ---------------------------------------------------------------------
 Center     Atomic      Atomic             Coordinates (Angstroms)
 Number     Number       Type             X           Y           Z
 ---------------------------------------------------------------------
      1          6           0       -0.074492   -0.028649   -0.774857
      2          1           0       -0.185838   -0.100805   -1.889891
      3          6           0       -1.485279    0.106637   -0.258423
      4          6           0       -2.306073   -1.024198   -0.206361
      5          6           0       -2.017079    1.344911    0.103509
      6          6           0       -3.627839   -0.917666    0.207167
      7          1           0       -1.897784   -2.001644   -0.490741
      8          6           0       -3.341171    1.449595    0.515981
      9          1           0       -1.385990    2.241717    0.064964
     10          6           0       -4.149119    0.320107    0.569771
     11          1           0       -4.259674   -1.810921    0.246589
     12          1           0       -3.746051    2.426931    0.798008
     13          1           0       -5.190929    0.403627    0.895073
     14          6           0        0.588685   -1.295409   -0.289911
     15          6           0        1.044652   -2.231198   -1.220580
     16          6           0        0.757222   -1.550841    1.072587
     17          6           0        1.654475   -3.405452   -0.792534
     18          1           0        0.923927   -2.041867   -2.293516
     19          6           0        1.364546   -2.725748    1.497996
     20          1           0        0.418038   -0.800336    1.802666
     21          6           0        1.812769   -3.656133    0.566019
     22          1           0        2.010430   -4.133660   -1.528807
     23          1           0        1.491557   -2.917119    2.568265
     24          1           0        2.291034   -4.581993    0.901225
     25          6           0        0.800548    1.163771   -0.477555
     26          6           0        1.337917    1.898009   -1.536868
     27          6           0        1.093634    1.546371    0.833525
     28          6           0        2.152343    2.997286   -1.286584
     29          1           0        1.119232    1.608868   -2.571629
     30          6           0        1.906827    2.645404    1.081109
     31          1           0        0.683666    0.954543    1.667000
     32          6           0        2.436988    3.373720    0.021159
     33          1           0        2.570098    3.566679   -2.123258
     34          1           0        2.130951    2.935942    2.112592
     35          1           0        3.077778    4.239522    0.216309
 ---------------------------------------------------------------------
                    Distance matrix (angstroms):
                    1          2          3          4          5
     1  C    0.000000
     2  H    1.122900   0.000000
     3  C    1.508419   2.096012   0.000000
     4  C    2.508837   2.860476   1.398285   0.000000
     5  C    2.536107   3.068743   1.395396   2.406702   0.000000
     6  C    3.792229   4.112455   2.420028   1.389036   2.779307
     7  H    2.701449   2.915745   2.160782   1.096802   3.400999
     8  C    3.810861   4.260057   2.418175   2.777202   1.390795
     9  H    2.753159   3.278602   2.161713   3.403875   1.097278
    10  C    4.304909   4.683450   2.797770   2.409638   2.411062
    11  H    4.662144   4.907665   3.410180   2.154217   3.874142
    12  H    4.688723   5.127316   3.407477   3.872025   2.154632
    13  H    5.399394   5.749905   3.892377   3.402092   3.403809
    14  C    1.509854   2.141705   2.503608   2.908636   3.730426
    15  C    2.510453   2.549638   3.576558   3.703087   4.890395
    16  C    2.534140   3.430487   3.089925   3.361078   4.125681
    17  C    3.793737   3.938481   4.741107   4.658317   6.070350
    18  H    2.712234   2.272050   3.816011   3.978036   5.085814
    19  C    3.809335   4.557608   4.385078   4.390166   5.472681
    20  H    2.735272   3.806440   2.948441   3.392210   3.663197
    21  C    4.303294   4.760911   5.071021   4.948587   6.316018
    22  H    4.665453   4.606287   5.640387   5.481771   6.992854
    23  H    4.687455   5.533573   5.098512   5.069882   6.045697
    24  H    5.397953   5.831489   6.130952   5.917605   7.370507
    25  C    1.508624   2.137008   2.527955   3.809442   2.882614
    26  C    2.507502   2.538052   3.579647   4.856769   3.775281
    27  C    2.536158   3.430340   3.148964   4.387163   3.201568
    28  C    3.791693   3.928007   4.758704   6.100548   4.695400
    29  H    2.708289   2.256315   3.793560   4.925469   4.130676
    30  C    3.810615   4.554969   4.443654   5.733418   4.247825
    31  H    2.739367   3.810678   3.021675   4.045175   3.144982
    32  C    4.303172   4.754330   5.112356   6.472255   4.895055
    33  H    4.662449   4.593483   5.647618   6.966182   5.562098
    34  H    4.689364   5.532559   5.167572   6.383371   4.875853
    35  H    5.397824   5.824578   6.174755   7.541303   5.860807
                    6          7          8          9         10
     6  C    0.000000
     7  H    2.157586   0.000000
     8  C    2.404468   3.874004   0.000000
     9  H    3.876572   4.310087   2.157222   0.000000
    10  C    1.391149   3.403487   1.389754   3.403278   0.000000
    11  H    1.094839   2.481643   3.398114   4.971410   2.158228
    12  H    3.398440   4.968827   1.094830   2.478214   2.157142
    13  H    2.159230   4.307042   2.158556   4.306416   1.094607
    14  C    4.262494   2.592610   4.860893   4.066514   5.078950
    15  C    5.059250   3.040278   5.983254   5.250487   6.057208
    16  C    4.514270   3.113884   5.109722   4.471259   5.274984
    17  C    5.923793   3.831488   7.088030   6.470722   7.029749
    18  H    5.313739   3.348682   6.186650   5.408071   6.285947
    19  C    5.464367   3.888727   6.367229   5.856170   6.367051
    20  H    4.350691   3.473599   4.566115   3.940585   4.861518
    21  C    6.101491   4.197889   7.254933   6.728131   7.166213
    22  H    6.719100   4.571346   7.999595   7.397377   7.885436
    23  H    5.981707   4.656527   6.829006   6.415636   6.803738
    24  H    6.995861   5.112921   8.261367   7.796335   8.100371
    25  C    4.940833   4.159449   4.268798   2.497447   5.129119
    26  C    5.968954   5.174112   5.129242   3.178627   6.085661
    27  C    5.362472   4.826041   4.447211   2.687513   5.390709
    28  C    7.139233   6.482762   5.985255   3.862301   7.093784
    29  H    6.053080   5.144733   5.427145   3.691647   6.267761
    30  C    6.640163   6.208126   5.412098   3.469604   6.507146
    31  H    4.921926   4.478702   4.215357   2.916644   4.996222
    32  C    7.431872   6.924365   6.110174   3.987294   7.280271
    33  H    7.997166   7.323477   6.811074   4.711101   7.933506
    34  H    7.186417   6.883879   5.890883   4.128389   6.975827
    35  H    8.459431   8.013008   7.005455   4.892786   8.228900
                   11         12         13         14         15
    11  H    0.000000
    12  H    4.304330   0.000000
    13  H    2.488371   2.488143   0.000000
    14  C    4.905116   5.816298   6.139613   0.000000
    15  C    5.519519   6.980236   7.092303   1.396335   0.000000
    16  C    5.091086   6.014776   6.263542   1.396443   2.409174
    17  C    6.212846   8.106305   8.013529   2.416778   1.390676
    18  H    5.777126   7.164940   7.317035   2.164259   1.096181
    19  C    5.833933   7.290972   7.289084   2.417527   2.781648
    20  H    5.032261   5.363229   5.808077   2.157104   3.402944
    21  C    6.354636   8.243661   8.101957   2.793566   2.410887
    22  H    6.918189   9.032856   8.849956   3.407621   2.155711
    23  H    6.300041   7.689292   7.647388   3.407975   3.876282
    24  H    7.142769   9.251057   8.990895   3.888242   3.403198
    25  C    5.914306   4.888168   6.193522   2.475412   3.483890
    26  C    6.947654   5.619442   7.125541   3.509155   4.151673
    27  C    6.346164   4.919267   6.387909   3.097225   4.300207
    28  C    8.159867   6.281869   8.087666   4.676068   5.344940
    29  H    6.969213   5.974501   7.299915   3.731292   4.071487
    30  C    7.653821   5.664176   7.445690   4.375751   5.460985
    31  H    5.839689   4.748206   5.950651   2.983422   4.314786
    32  C    8.472107   6.303164   8.232272   5.031278   5.907252
    33  H    9.010024   7.051706   8.907793   5.561211   6.062771
    34  H    8.176475   6.043704   7.842505   5.104404   6.244150
    35  H    9.510361   7.084384   9.140368   6.089935   6.933143
                   16         17         18         19         20
    16  C    0.000000
    17  C    2.779086   0.000000
    18  H    3.405811   2.155461   0.000000
    19  C    1.389323   2.406779   3.877808   0.000000
    20  H    1.100599   3.879493   4.309992   2.167005   0.000000
    21  C    2.408951   1.390526   3.401887   1.391079   3.410300
    22  H    3.874110   1.095029   2.478077   3.400135   4.974482
    23  H    2.154766   3.399997   4.972443   1.094638   2.493864
    24  H    3.401444   2.158304   4.304369   2.158740   4.315279
    25  C    3.126329   4.658991   3.686333   4.398778   3.033716
    26  C    4.363603   5.364787   4.033177   5.530844   4.390869
    27  C    3.124588   5.242057   4.762629   4.331964   2.627299
    28  C    5.310133   6.441041   5.283557   6.413082   5.193574
    29  H    4.836851   5.347435   3.666518   5.950707   5.042856
    30  C    4.350877   6.339327   5.858727   5.414529   3.822337
    31  H    2.575983   5.099150   4.972110   3.746558   1.780046
    32  C    5.308335   6.872525   6.080761   6.366686   4.967160
    33  H    6.299918   7.156801   5.847619   7.359448   6.254204
    34  H    4.806242   6.991427   6.756424   5.746288   4.121880
    35  H    6.296547   7.841504   7.098883   7.286485   5.915312
                   21         22         23         24         25
    21  C    0.000000
    22  H    2.157637   0.000000
    23  H    2.158312   4.305253   0.000000
    24  H    1.094677   2.486925   2.487969   0.000000
    25  C    5.034392   5.534592   5.138888   6.093963   0.000000
    26  C    5.957861   6.069049   6.329390   6.988787   1.396430
    27  C    5.258780   6.219636   4.805248   6.244613   1.396858
    28  C    6.914870   7.136469   7.090605   7.889943   2.417366
    29  H    6.168149   5.904094   6.858695   7.194483   2.164445
    30  C    6.323253   7.264853   5.772845   7.239836   2.418371
    31  H    4.872922   6.153315   4.056444   5.815778   2.157905
    32  C    7.078514   7.677571   6.852463   8.005572   2.794733
    33  H    7.744338   7.743501   8.075474   8.696334   3.407876
    34  H    6.778538   7.953212   5.905488   7.616586   3.408727
    35  H    8.003994   8.619445   7.698397   8.882973   3.889405
                   26         27         28         29         30
    26  C    0.000000
    27  C    2.408752   0.000000
    28  C    1.390807   2.778647   0.000000
    29  H    1.096429   3.405824   2.155543   0.000000
    30  C    2.781377   1.389407   2.406256   3.877784   0.000000
    31  H    3.403372   1.101369   3.879880   4.310897   2.167579
    32  C    2.411044   2.409096   1.390294   3.402019   1.391047
    33  H    2.155594   3.873520   1.094875   2.477715   3.399507
    34  H    3.876179   2.154749   3.399797   4.972588   1.094807
    35  H    3.403444   3.401595   2.158302   4.304514   2.158754
                   31         32         33         34         35
    31  H    0.000000
    32  C    3.411063   0.000000
    33  H    4.974730   2.157191   0.000000
    34  H    2.493817   2.158565   4.305009   0.000000
    35  H    4.315943   1.094673   2.486771   2.488311   0.000000
 Stoichiometry    C19H16
 Framework group  C1[X(C19H16)]
 Deg. of freedom    99
 Full point group                 C1      NOp   1
 Largest Abelian subgroup         C1      NOp   1
 Largest concise Abelian subgroup C1      NOp   1
                         Standard orientation:                         
 ---------------------------------------------------------------------
 Center     Atomic      Atomic             Coordinates (Angstroms)
 Number     Number       Type             X           Y           Z
 ---------------------------------------------------------------------
      1          6           0        0.004914    0.013265   -0.764314
      2          1           0       -0.016408    0.023734   -1.886963
      3          6           0       -0.550639    1.355967   -0.359540
      4          6           0       -1.929460    1.576321   -0.433680
      5          6           0        0.282489    2.408766    0.020775
      6          6           0       -2.462092    2.821605   -0.125477
      7          1           0       -2.592365    0.755574   -0.733524
      8          6           0       -0.252743    3.655230    0.327640
      9          1           0        1.366831    2.251809    0.080666
     10          6           0       -1.624747    3.864850    0.256347
     11          1           0       -3.543681    2.980880   -0.184375
     12          1           0        0.411789    4.472774    0.625417
     13          1           0       -2.044910    4.846142    0.498613
     14          6           0       -0.865134   -1.126903   -0.292410
     15          6           0       -1.415769   -2.003595   -1.229406
     16          6           0       -1.130255   -1.324378    1.064338
     17          6           0       -2.222701   -3.057195   -0.813754
     18          1           0       -1.212125   -1.864117   -2.297436
     19          6           0       -1.938669   -2.376183    1.477127
     20          1           0       -0.675395   -0.645672    1.801752
     21          6           0       -2.487862   -3.243599    0.538469
     22          1           0       -2.649680   -3.741027   -1.554800
     23          1           0       -2.141086   -2.522313    2.542915
     24          1           0       -3.125058   -4.072165    0.863704
     25          6           0        1.433783   -0.209924   -0.334818
     26          6           0        2.416412   -0.408363   -1.306970
     27          6           0        1.796558   -0.231549    1.013937
     28          6           0        3.739121   -0.622198   -0.934068
     29          1           0        2.147172   -0.396723   -2.369763
     30          6           0        3.118721   -0.444533    1.384036
     31          1           0        1.016610   -0.093245    1.779160
     32          6           0        4.092901   -0.639274    0.410352
     33          1           0        4.502867   -0.777765   -1.702992
     34          1           0        3.391917   -0.460545    2.444088
     35          1           0        5.134549   -0.807204    0.702033
 ---------------------------------------------------------------------
 Rotational constants (GHZ):      0.4017519      0.3861967      0.2320863
 Standard basis: 6-311G (5D, 7F)
 There are   295 symmetry adapted basis functions of A   symmetry.
 Integral buffers will be    262144 words long.
 Raffenetti 1 integral format.
 Two-electron integral symmetry is turned on.
   295 basis functions,   574 primitive gaussians,   295 cartesian basis functions
    65 alpha electrons       65 beta electrons
       nuclear repulsion energy      1291.1300038169 Hartrees.
 NAtoms=   35 NActive=   35 NUniq=   35 SFac= 7.50D-01 NAtFMM=   80 NAOKFM=F Big=F
 One-electron integrals computed using PRISM.
 PrsmSu:  requested number of processors reduced to:  10 ShMem   1 Linda.
 NBasis=   295 RedAO= T  NBF=   295
 NBsUse=   295 1.00D-06 NBFU=   295
 Harris functional with IExCor=  205 diagonalized for initial guess.
 ExpMin= 1.03D-01 ExpMax= 4.56D+03 ExpMxC= 6.82D+02 IAcc=1 IRadAn=         1 AccDes= 0.00D+00
 HarFok:  IExCor=  205 AccDes= 0.00D+00 IRadAn=         1 IDoV= 1
 ScaDFX=  1.000000  1.000000  1.000000  1.000000
 FoFCou: FMM=F IPFlag=           0 FMFlag=      100000 FMFlg1=           0
         NFxFlg=           0 DoJE=T BraDBF=F KetDBF=T FulRan=T
         Omega=  0.000000  0.000000  1.000000  0.000000  0.000000 ICntrl=     500 IOpCl=  0
         NMat0=    1 NMatS0=    1 NMatT0=    0 NMatD0=    1 NMtDS0=    0 NMtDT0=    0
         I1Cent=           4 NGrid=           0.
 Petite list used in FoFCou.
 Initial guess orbital symmetries:
       Occupied  (A) (A) (A) (A) (A) (A) (A) (A) (A) (A) (A) (A)
                 (A) (A) (A) (A) (A) (A) (A) (A) (A) (A) (A) (A)
                 (A) (A) (A) (A) (A) (A) (A) (A) (A) (A) (A) (A)
                 (A) (A) (A) (A) (A) (A) (A) (A) (A) (A) (A) (A)
                 (A) (A) (A) (A) (A) (A) (A) (A) (A) (A) (A) (A)
                 (A) (A) (A) (A) (A)
       Virtual   (A) (A) (A) (A) (A) (A) (A) (A) (A) (A) (A) (A)
                 (A) (A) (A) (A) (A) (A) (A) (A) (A) (A) (A) (A)
                 (A) (A) (A) (A) (A) (A) (A) (A) (A) (A) (A) (A)
                 (A) (A) (A) (A) (A) (A) (A) (A) (A) (A) (A) (A)
                 (A) (A) (A) (A) (A) (A) (A) (A) (A) (A) (A) (A)
                 (A) (A) (A) (A) (A) (A) (A) (A) (A) (A) (A) (A)
                 (A) (A) (A) (A) (A) (A) (A) (A) (A) (A) (A) (A)
                 (A) (A) (A) (A) (A) (A) (A) (A) (A) (A) (A) (A)
                 (A) (A) (A) (A) (A) (A) (A) (A) (A) (A) (A) (A)
                 (A) (A) (A) (A) (A) (A) (A) (A) (A) (A) (A) (A)
                 (A) (A) (A) (A) (A) (A) (A) (A) (A) (A) (A) (A)
                 (A) (A) (A) (A) (A) (A) (A) (A) (A) (A) (A) (A)
                 (A) (A) (A) (A) (A) (A) (A) (A) (A) (A) (A) (A)
                 (A) (A) (A) (A) (A) (A) (A) (A) (A) (A) (A) (A)
                 (A) (A) (A) (A) (A) (A) (A) (A) (A) (A) (A) (A)
                 (A) (A) (A) (A) (A) (A) (A) (A) (A) (A) (A) (A)
                 (A) (A) (A) (A) (A) (A) (A) (A) (A) (A) (A) (A)
                 (A) (A) (A) (A) (A) (A) (A) (A) (A) (A) (A) (A)
                 (A) (A) (A) (A) (A) (A) (A) (A) (A) (A) (A) (A)
                 (A) (A)
 The electronic state of the initial guess is 1-A.
 Requested convergence on RMS density matrix=1.00D-08 within 128 cycles.
 Requested convergence on MAX density matrix=1.00D-06.
 Requested convergence on             energy=1.00D-06.
 No special actions if energy rises.
 Integral accuracy reduced to 1.0D-05 until final iterations.
 Initial convergence to 1.0D-05 achieved.  Increase integral accuracy.
 SCF Done:  E(RHF) =  -728.672604198     A.U. after   14 cycles
             Convg  =    0.9000D-08             -V/T =  2.0001

 **********************************************************************

            Population analysis using the SCF density.

 **********************************************************************

 Orbital symmetries:
       Occupied  (A) (A) (A) (A) (A) (A) (A) (A) (A) (A) (A) (A)
                 (A) (A) (A) (A) (A) (A) (A) (A) (A) (A) (A) (A)
                 (A) (A) (A) (A) (A) (A) (A) (A) (A) (A) (A) (A)
                 (A) (A) (A) (A) (A) (A) (A) (A) (A) (A) (A) (A)
                 (A) (A) (A) (A) (A) (A) (A) (A) (A) (A) (A) (A)
                 (A) (A) (A) (A) (A)
       Virtual   (A) (A) (A) (A) (A) (A) (A) (A) (A) (A) (A) (A)
                 (A) (A) (A) (A) (A) (A) (A) (A) (A) (A) (A) (A)
                 (A) (A) (A) (A) (A) (A) (A) (A) (A) (A) (A) (A)
                 (A) (A) (A) (A) (A) (A) (A) (A) (A) (A) (A) (A)
                 (A) (A) (A) (A) (A) (A) (A) (A) (A) (A) (A) (A)
                 (A) (A) (A) (A) (A) (A) (A) (A) (A) (A) (A) (A)
                 (A) (A) (A) (A) (A) (A) (A) (A) (A) (A) (A) (A)
                 (A) (A) (A) (A) (A) (A) (A) (A) (A) (A) (A) (A)
                 (A) (A) (A) (A) (A) (A) (A) (A) (A) (A) (A) (A)
                 (A) (A) (A) (A) (A) (A) (A) (A) (A) (A) (A) (A)
                 (A) (A) (A) (A) (A) (A) (A) (A) (A) (A) (A) (A)
                 (A) (A) (A) (A) (A) (A) (A) (A) (A) (A) (A) (A)
                 (A) (A) (A) (A) (A) (A) (A) (A) (A) (A) (A) (A)
                 (A) (A) (A) (A) (A) (A) (A) (A) (A) (A) (A) (A)
                 (A) (A) (A) (A) (A) (A) (A) (A) (A) (A) (A) (A)
                 (A) (A) (A) (A) (A) (A) (A) (A) (A) (A) (A) (A)
                 (A) (A) (A) (A) (A) (A) (A) (A) (A) (A) (A) (A)
                 (A) (A) (A) (A) (A) (A) (A) (A) (A) (A) (A) (A)
                 (A) (A) (A) (A) (A) (A) (A) (A) (A) (A) (A) (A)
                 (A) (A)
 The electronic state is 1-A.
 Alpha  occ. eigenvalues --  -11.25748 -11.25211 -11.25178 -11.24892 -11.24506
 Alpha  occ. eigenvalues --  -11.24433 -11.24429 -11.24390 -11.24209 -11.24154
 Alpha  occ. eigenvalues --  -11.24138 -11.24129 -11.24081 -11.24057 -11.24001
 Alpha  occ. eigenvalues --  -11.23957 -11.23726 -11.23586 -11.23513  -1.18620
 Alpha  occ. eigenvalues --   -1.15871  -1.15561  -1.09025  -1.02362  -1.02250
 Alpha  occ. eigenvalues --   -1.01877  -1.01485  -1.01049  -0.92914  -0.84236
 Alpha  occ. eigenvalues --   -0.83413  -0.82270  -0.81985  -0.81073  -0.77567
 Alpha  occ. eigenvalues --   -0.70887  -0.70354  -0.68977  -0.65629  -0.63928
 Alpha  occ. eigenvalues --   -0.63636  -0.62529  -0.61677  -0.61530  -0.59741
 Alpha  occ. eigenvalues --   -0.58844  -0.58507  -0.58301  -0.56565  -0.55306
 Alpha  occ. eigenvalues --   -0.51720  -0.50877  -0.50167  -0.49893  -0.49364
 Alpha  occ. eigenvalues --   -0.48353  -0.48038  -0.47478  -0.46285  -0.35064
 Alpha  occ. eigenvalues --   -0.34306  -0.34055  -0.33298  -0.32304  -0.31598
 Alpha virt. eigenvalues --    0.11625   0.12316   0.12588   0.13349   0.15092
 Alpha virt. eigenvalues --    0.15220   0.15788   0.16239   0.16496   0.16884
 Alpha virt. eigenvalues --    0.18906   0.19173   0.19264   0.21195   0.21279
 Alpha virt. eigenvalues --    0.21628   0.23517   0.24115   0.24768   0.25377
 Alpha virt. eigenvalues --    0.26473   0.31940   0.32935   0.34167   0.35788
 Alpha virt. eigenvalues --    0.37856   0.39381   0.40734   0.41469   0.43016
 Alpha virt. eigenvalues --    0.44114   0.44433   0.45073   0.45364   0.45506
 Alpha virt. eigenvalues --    0.45992   0.46783   0.47285   0.47690   0.50543
 Alpha virt. eigenvalues --    0.51113   0.51353   0.52521   0.55045   0.56274
 Alpha virt. eigenvalues --    0.57087   0.57801   0.58489   0.58704   0.59412
 Alpha virt. eigenvalues --    0.60343   0.60571   0.60768   0.61112   0.61581
 Alpha virt. eigenvalues --    0.61968   0.62071   0.62739   0.63030   0.63498
 Alpha virt. eigenvalues --    0.64244   0.64800   0.65222   0.65923   0.66336
 Alpha virt. eigenvalues --    0.67363   0.67890   0.68689   0.69741   0.72211
 Alpha virt. eigenvalues --    0.73035   0.73768   0.75023   0.75402   0.75731
 Alpha virt. eigenvalues --    0.77072   0.78729   0.79782   0.80135   0.81016
 Alpha virt. eigenvalues --    0.81465   0.82329   0.82460   0.82767   0.83520
 Alpha virt. eigenvalues --    0.83855   0.84413   0.85043   0.85268   0.85487
 Alpha virt. eigenvalues --    0.85824   0.86144   0.86764   0.87910   0.88010
 Alpha virt. eigenvalues --    0.89880   0.90616   0.92454   0.93597   0.95178
 Alpha virt. eigenvalues --    0.95795   0.96334   0.96811   0.98682   0.99819
 Alpha virt. eigenvalues --    1.00527   1.02637   1.03418   1.05384   1.06302
 Alpha virt. eigenvalues --    1.07161   1.07834   1.09440   1.09985   1.10942
 Alpha virt. eigenvalues --    1.11514   1.11993   1.12249   1.13095   1.13812
 Alpha virt. eigenvalues --    1.14913   1.16627   1.19946   1.20403   1.22278
 Alpha virt. eigenvalues --    1.22770   1.24167   1.27754   1.27964   1.29002
 Alpha virt. eigenvalues --    1.29639   1.31771   1.32476   1.47641   1.48048
 Alpha virt. eigenvalues --    1.51402   1.54727   1.56182   2.53432   2.55735
 Alpha virt. eigenvalues --    2.55850   2.57725   2.62118   2.62583   2.63766
 Alpha virt. eigenvalues --    2.66442   2.67221   2.68272   2.72637   2.74185
 Alpha virt. eigenvalues --    2.78468   2.83236   2.87118   2.92218   2.94296
 Alpha virt. eigenvalues --    2.94668   2.94751   2.96059   2.98420   2.98577
 Alpha virt. eigenvalues --    2.99751   3.02403   3.03827   3.04399   3.07093
 Alpha virt. eigenvalues --    3.08367   3.09413   3.09734   3.10209   3.13251
 Alpha virt. eigenvalues --    3.14930   3.15799   3.17881   3.18232   3.19682
 Alpha virt. eigenvalues --    3.21686   3.24032   3.24589   3.27824   3.28792
 Alpha virt. eigenvalues --    3.31811   3.33855   3.34593   3.35917   3.40380
 Alpha virt. eigenvalues --    3.40875   3.44196   3.44732   3.50282   3.52616
 Alpha virt. eigenvalues --    3.53654   3.56116   3.58101   3.58889   3.59295
 Alpha virt. eigenvalues --    3.62578   3.63722   3.65269   3.66154   3.67270
 Alpha virt. eigenvalues --    3.67806   3.69246   3.71300   3.71514   3.74853
 Alpha virt. eigenvalues --    3.77118   3.77475   3.78384   3.85844   3.88764
 Alpha virt. eigenvalues --    3.90704  24.26303  24.30004  24.31529  24.50565
 Alpha virt. eigenvalues --   24.50775  24.51105  24.52825  24.54657  24.56402
 Alpha virt. eigenvalues --   24.75944  24.77062  24.79119  24.80258  24.80898
 Alpha virt. eigenvalues --   24.83105  24.87806  25.04684  25.05793  25.07095
          Condensed to atoms (all electrons):
              1          2          3          4          5          6
     1  C    6.142472   0.469327   0.025957  -0.080780  -0.042909   0.009798
     2  H    0.469327   0.499179  -0.061153  -0.003938  -0.000489   0.000355
     3  C    0.025957  -0.061153   5.345562   0.475635   0.493850  -0.057805
     4  C   -0.080780  -0.003938   0.475635   5.129286  -0.086501   0.460093
     5  C   -0.042909  -0.000489   0.493850  -0.086501   5.109427  -0.031150
     6  C    0.009798   0.000355  -0.057805   0.460093  -0.031150   5.067989
     7  H   -0.006185  -0.000118  -0.042086   0.396981   0.004686  -0.035487
     8  C    0.012453  -0.000046  -0.065715  -0.033144   0.453954  -0.073192
     9  H   -0.011525  -0.000237  -0.035824   0.005021   0.395193  -0.000487
    10  C    0.000222   0.000046  -0.021163  -0.085528  -0.088351   0.482357
    11  H   -0.000357   0.000008   0.006151  -0.037821  -0.000409   0.396744
    12  H   -0.000364   0.000013   0.006414  -0.000398  -0.037004   0.005992
    13  H   -0.000014  -0.000002  -0.001441   0.007473   0.007594  -0.042979
    14  C    0.139985  -0.070004  -0.082494  -0.010010   0.005213  -0.001949
    15  C   -0.024045   0.002867  -0.000933   0.000537  -0.000443  -0.000056
    16  C   -0.061814   0.005005  -0.003200  -0.012092   0.001558  -0.000575
    17  C    0.006930   0.001496  -0.000458  -0.000044   0.000016   0.000013
    18  H   -0.000451   0.002555   0.000218   0.000255  -0.000024  -0.000007
    19  C    0.003733  -0.000246  -0.000384  -0.000486   0.000011  -0.000022
    20  H   -0.000413   0.000073   0.001419   0.000928  -0.000351   0.000168
    21  C    0.001301   0.000002   0.000007   0.000159  -0.000001   0.000003
    22  H   -0.000343  -0.000038   0.000012  -0.000004   0.000000   0.000000
    23  H   -0.000356   0.000011   0.000028   0.000010   0.000000   0.000000
    24  H   -0.000015  -0.000002   0.000001  -0.000001   0.000000   0.000000
    25  C    0.117000  -0.072428  -0.063739   0.011169  -0.013247  -0.000889
    26  C   -0.023088   0.005743   0.000037  -0.000350   0.000995   0.000009
    27  C   -0.074585   0.004483   0.005782   0.001132  -0.018926  -0.000020
    28  C    0.007883   0.001422  -0.000700   0.000007   0.000245   0.000000
    29  H   -0.001752   0.002861   0.000447   0.000007   0.000134   0.000000
    30  C    0.003577  -0.000225   0.000362   0.000011  -0.001325   0.000000
    31  H   -0.000266   0.000021   0.001907  -0.000083   0.002033  -0.000103
    32  C    0.001540   0.000009  -0.000052   0.000000   0.000192   0.000000
    33  H   -0.000388  -0.000035   0.000020   0.000000  -0.000008   0.000000
    34  H   -0.000369   0.000011   0.000024   0.000000  -0.000004   0.000000
    35  H   -0.000026  -0.000002   0.000002   0.000000  -0.000003   0.000000
              7          8          9         10         11         12
     1  C   -0.006185   0.012453  -0.011525   0.000222  -0.000357  -0.000364
     2  H   -0.000118  -0.000046  -0.000237   0.000046   0.000008   0.000013
     3  C   -0.042086  -0.065715  -0.035824  -0.021163   0.006151   0.006414
     4  C    0.396981  -0.033144   0.005021  -0.085528  -0.037821  -0.000398
     5  C    0.004686   0.453954   0.395193  -0.088351  -0.000409  -0.037004
     6  C   -0.035487  -0.073192  -0.000487   0.482357   0.396744   0.005992
     7  H    0.485802  -0.000498  -0.000188   0.005224  -0.003772   0.000017
     8  C   -0.000498   5.078717  -0.036687   0.491612   0.005971   0.395863
     9  H   -0.000188  -0.036687   0.479357   0.005137   0.000017  -0.003616
    10  C    0.005224   0.491612   0.005137   5.043532  -0.040911  -0.041236
    11  H   -0.003772   0.005971   0.000017  -0.040911   0.517452  -0.000214
    12  H    0.000017   0.395863  -0.003616  -0.041236  -0.000214   0.517735
    13  H   -0.000172  -0.042310  -0.000170   0.399451  -0.004403  -0.004443
    14  C    0.004259  -0.000866   0.000503   0.000140   0.000025   0.000012
    15  C    0.000921   0.000008  -0.000014  -0.000003  -0.000003   0.000000
    16  C   -0.000687   0.000034   0.000013   0.000023   0.000013   0.000000
    17  C    0.000089   0.000000   0.000000   0.000000   0.000000   0.000000
    18  H    0.000193   0.000000   0.000001   0.000001   0.000000   0.000000
    19  C   -0.000356   0.000002   0.000001   0.000002   0.000001   0.000000
    20  H    0.000031  -0.000157   0.000033  -0.000027   0.000004  -0.000001
    21  C   -0.000033   0.000000   0.000000   0.000000   0.000000   0.000000
    22  H    0.000010   0.000000   0.000000   0.000000   0.000000   0.000000
    23  H    0.000006   0.000000   0.000000   0.000000   0.000000   0.000000
    24  H    0.000004   0.000000   0.000000   0.000000   0.000000   0.000000
    25  C    0.000720  -0.001978   0.002080   0.000135   0.000012   0.000056
    26  C   -0.000007  -0.000098  -0.000626  -0.000004   0.000000   0.000002
    27  C   -0.000036  -0.001066  -0.000580  -0.000004   0.000000   0.000017
    28  C    0.000000   0.000007  -0.000123   0.000000   0.000000   0.000000
    29  H   -0.000001   0.000000   0.000130   0.000000   0.000000   0.000000
    30  C    0.000000  -0.000039  -0.000170   0.000000   0.000000  -0.000001
    31  H    0.000024   0.000198   0.000195  -0.000003  -0.000001   0.000002
    32  C    0.000000   0.000004   0.000144   0.000000   0.000000  -0.000001
    33  H    0.000000   0.000000   0.000012   0.000000   0.000000   0.000000
    34  H    0.000000  -0.000003   0.000023   0.000000   0.000000   0.000000
    35  H    0.000000   0.000000   0.000010   0.000000   0.000000   0.000000
             13         14         15         16         17         18
     1  C   -0.000014   0.139985  -0.024045  -0.061814   0.006930  -0.000451
     2  H   -0.000002  -0.070004   0.002867   0.005005   0.001496   0.002555
     3  C   -0.001441  -0.082494  -0.000933  -0.003200  -0.000458   0.000218
     4  C    0.007473  -0.010010   0.000537  -0.012092  -0.000044   0.000255
     5  C    0.007594   0.005213  -0.000443   0.001558   0.000016  -0.000024
     6  C   -0.042979  -0.001949  -0.000056  -0.000575   0.000013  -0.000007
     7  H   -0.000172   0.004259   0.000921  -0.000687   0.000089   0.000193
     8  C   -0.042310  -0.000866   0.000008   0.000034   0.000000   0.000000
     9  H   -0.000170   0.000503  -0.000014   0.000013   0.000000   0.000001
    10  C    0.399451   0.000140  -0.000003   0.000023   0.000000   0.000001
    11  H   -0.004403   0.000025  -0.000003   0.000013   0.000000   0.000000
    12  H   -0.004443   0.000012   0.000000   0.000000   0.000000   0.000000
    13  H    0.519426   0.000002   0.000000   0.000000   0.000000   0.000000
    14  C    0.000002   5.402703   0.491048   0.452102  -0.075122  -0.050032
    15  C    0.000000   0.491048   5.087058  -0.071644   0.456819   0.399651
    16  C    0.000000   0.452102  -0.071644   5.065293  -0.026347   0.004420
    17  C    0.000000  -0.075122   0.456819  -0.026347   5.056592  -0.034440
    18  H    0.000000  -0.050032   0.399651   0.004420  -0.034440   0.508722
    19  C    0.000000  -0.057562  -0.030977   0.478307  -0.078907  -0.000283
    20  H    0.000000  -0.044234   0.004241   0.387618   0.000036  -0.000274
    21  C    0.000000  -0.018634  -0.087109  -0.091891   0.498974   0.005193
    22  H    0.000000   0.006901  -0.039594  -0.000689   0.396799  -0.004174
    23  H    0.000000   0.006024  -0.000463  -0.038752   0.005941   0.000025
    24  H    0.000000  -0.001575   0.007511   0.007928  -0.042561  -0.000183
    25  C    0.000001  -0.148394  -0.002974  -0.002457  -0.000528   0.000276
    26  C    0.000000  -0.004710   0.000637   0.000776  -0.000017   0.000288
    27  C    0.000001  -0.002941   0.000547  -0.011299   0.000109  -0.000011
    28  C    0.000000  -0.000553  -0.000015   0.000069   0.000002   0.000004
    29  H    0.000000   0.000140   0.000276  -0.000023  -0.000001   0.000083
    30  C    0.000000   0.001927   0.000034  -0.000130   0.000001  -0.000001
    31  H    0.000000  -0.003849  -0.000205   0.001087  -0.000039   0.000002
    32  C    0.000000  -0.000082  -0.000012  -0.000014   0.000000  -0.000001
    33  H    0.000000   0.000023   0.000001   0.000000   0.000000   0.000000
    34  H    0.000000   0.000032   0.000001   0.000045   0.000000   0.000000
    35  H    0.000000  -0.000002   0.000000   0.000000   0.000000   0.000000
             19         20         21         22         23         24
     1  C    0.003733  -0.000413   0.001301  -0.000343  -0.000356  -0.000015
     2  H   -0.000246   0.000073   0.000002  -0.000038   0.000011  -0.000002
     3  C   -0.000384   0.001419   0.000007   0.000012   0.000028   0.000001
     4  C   -0.000486   0.000928   0.000159  -0.000004   0.000010  -0.000001
     5  C    0.000011  -0.000351  -0.000001   0.000000   0.000000   0.000000
     6  C   -0.000022   0.000168   0.000003   0.000000   0.000000   0.000000
     7  H   -0.000356   0.000031  -0.000033   0.000010   0.000006   0.000004
     8  C    0.000002  -0.000157   0.000000   0.000000   0.000000   0.000000
     9  H    0.000001   0.000033   0.000000   0.000000   0.000000   0.000000
    10  C    0.000002  -0.000027   0.000000   0.000000   0.000000   0.000000
    11  H    0.000001   0.000004   0.000000   0.000000   0.000000   0.000000
    12  H    0.000000  -0.000001   0.000000   0.000000   0.000000   0.000000
    13  H    0.000000   0.000000   0.000000   0.000000   0.000000   0.000000
    14  C   -0.057562  -0.044234  -0.018634   0.006901   0.006024  -0.001575
    15  C   -0.030977   0.004241  -0.087109  -0.039594  -0.000463   0.007511
    16  C    0.478307   0.387618  -0.091891  -0.000689  -0.038752   0.007928
    17  C   -0.078907   0.000036   0.498974   0.396799   0.005941  -0.042561
    18  H   -0.000283  -0.000274   0.005193  -0.004174   0.000025  -0.000183
    19  C    5.043017  -0.028907   0.490858   0.006244   0.397284  -0.042950
    20  H   -0.028907   0.498749   0.004588   0.000014  -0.003331  -0.000174
    21  C    0.490858   0.004588   5.034090  -0.040693  -0.039862   0.399596
    22  H    0.006244   0.000014  -0.040693   0.518000  -0.000204  -0.004577
    23  H    0.397284  -0.003331  -0.039862  -0.000204   0.514562  -0.004451
    24  H   -0.042950  -0.000174   0.399596  -0.004577  -0.004451   0.517367
    25  C    0.001887  -0.003199  -0.000090   0.000026   0.000030  -0.000003
    26  C    0.000027  -0.000204  -0.000011   0.000001   0.000001   0.000000
    27  C   -0.000233  -0.000225  -0.000025   0.000000   0.000053   0.000000
    28  C    0.000000  -0.000010   0.000000   0.000000   0.000000   0.000000
    29  H    0.000000   0.000000  -0.000001   0.000000   0.000000   0.000000
    30  C   -0.000101   0.000970   0.000001   0.000000   0.000001   0.000000
    31  H    0.001086   0.000984  -0.000008   0.000001  -0.000045   0.000000
    32  C    0.000002  -0.000017   0.000000   0.000000   0.000000   0.000000
    33  H    0.000000   0.000001   0.000000   0.000000   0.000000   0.000000
    34  H    0.000000  -0.000030   0.000000   0.000000   0.000001   0.000000
    35  H    0.000000   0.000000   0.000000   0.000000   0.000000   0.000000
             25         26         27         28         29         30
     1  C    0.117000  -0.023088  -0.074585   0.007883  -0.001752   0.003577
     2  H   -0.072428   0.005743   0.004483   0.001422   0.002861  -0.000225
     3  C   -0.063739   0.000037   0.005782  -0.000700   0.000447   0.000362
     4  C    0.011169  -0.000350   0.001132   0.000007   0.000007   0.000011
     5  C   -0.013247   0.000995  -0.018926   0.000245   0.000134  -0.001325
     6  C   -0.000889   0.000009  -0.000020   0.000000   0.000000   0.000000
     7  H    0.000720  -0.000007  -0.000036   0.000000  -0.000001   0.000000
     8  C   -0.001978  -0.000098  -0.001066   0.000007   0.000000  -0.000039
     9  H    0.002080  -0.000626  -0.000580  -0.000123   0.000130  -0.000170
    10  C    0.000135  -0.000004  -0.000004   0.000000   0.000000   0.000000
    11  H    0.000012   0.000000   0.000000   0.000000   0.000000   0.000000
    12  H    0.000056   0.000002   0.000017   0.000000   0.000000  -0.000001
    13  H    0.000001   0.000000   0.000001   0.000000   0.000000   0.000000
    14  C   -0.148394  -0.004710  -0.002941  -0.000553   0.000140   0.001927
    15  C   -0.002974   0.000637   0.000547  -0.000015   0.000276   0.000034
    16  C   -0.002457   0.000776  -0.011299   0.000069  -0.000023  -0.000130
    17  C   -0.000528  -0.000017   0.000109   0.000002  -0.000001   0.000001
    18  H    0.000276   0.000288  -0.000011   0.000004   0.000083  -0.000001
    19  C    0.001887   0.000027  -0.000233   0.000000   0.000000  -0.000101
    20  H   -0.003199  -0.000204  -0.000225  -0.000010   0.000000   0.000970
    21  C   -0.000090  -0.000011  -0.000025   0.000000  -0.000001   0.000001
    22  H    0.000026   0.000001   0.000000   0.000000   0.000000   0.000000
    23  H    0.000030   0.000001   0.000053   0.000000   0.000000   0.000001
    24  H   -0.000003   0.000000   0.000000   0.000000   0.000000   0.000000
    25  C    5.404773   0.493709   0.451545  -0.075994  -0.047004  -0.060873
    26  C    0.493709   5.059570  -0.065670   0.465252   0.395914  -0.033135
    27  C    0.451545  -0.065670   5.089157  -0.029026   0.004740   0.479240
    28  C   -0.075994   0.465252  -0.029026   5.049762  -0.033828  -0.077684
    29  H   -0.047004   0.395914   0.004740  -0.033828   0.507006  -0.000293
    30  C   -0.060873  -0.033135   0.479240  -0.077684  -0.000293   5.046199
    31  H   -0.045777   0.004564   0.386610  -0.000081  -0.000272  -0.027981
    32  C   -0.016856  -0.088767  -0.093121   0.499980   0.005089   0.490345
    33  H    0.006940  -0.039393  -0.000642   0.396388  -0.004085   0.006251
    34  H    0.005995  -0.000402  -0.038595   0.005909   0.000025   0.397072
    35  H   -0.001686   0.007579   0.008006  -0.042558  -0.000178  -0.043061
             31         32         33         34         35
     1  C   -0.000266   0.001540  -0.000388  -0.000369  -0.000026
     2  H    0.000021   0.000009  -0.000035   0.000011  -0.000002
     3  C    0.001907  -0.000052   0.000020   0.000024   0.000002
     4  C   -0.000083   0.000000   0.000000   0.000000   0.000000
     5  C    0.002033   0.000192  -0.000008  -0.000004  -0.000003
     6  C   -0.000103   0.000000   0.000000   0.000000   0.000000
     7  H    0.000024   0.000000   0.000000   0.000000   0.000000
     8  C    0.000198   0.000004   0.000000  -0.000003   0.000000
     9  H    0.000195   0.000144   0.000012   0.000023   0.000010
    10  C   -0.000003   0.000000   0.000000   0.000000   0.000000
    11  H   -0.000001   0.000000   0.000000   0.000000   0.000000
    12  H    0.000002  -0.000001   0.000000   0.000000   0.000000
    13  H    0.000000   0.000000   0.000000   0.000000   0.000000
    14  C   -0.003849  -0.000082   0.000023   0.000032  -0.000002
    15  C   -0.000205  -0.000012   0.000001   0.000001   0.000000
    16  C    0.001087  -0.000014   0.000000   0.000045   0.000000
    17  C   -0.000039   0.000000   0.000000   0.000000   0.000000
    18  H    0.000002  -0.000001   0.000000   0.000000   0.000000
    19  C    0.001086   0.000002   0.000000   0.000000   0.000000
    20  H    0.000984  -0.000017   0.000001  -0.000030   0.000000
    21  C   -0.000008   0.000000   0.000000   0.000000   0.000000
    22  H    0.000001   0.000000   0.000000   0.000000   0.000000
    23  H   -0.000045   0.000000   0.000000   0.000001   0.000000
    24  H    0.000000   0.000000   0.000000   0.000000   0.000000
    25  C   -0.045777  -0.016856   0.006940   0.005995  -0.001686
    26  C    0.004564  -0.088767  -0.039393  -0.000402   0.007579
    27  C    0.386610  -0.093121  -0.000642  -0.038595   0.008006
    28  C   -0.000081   0.499980   0.396388   0.005909  -0.042558
    29  H   -0.000272   0.005089  -0.004085   0.000025  -0.000178
    30  C   -0.027981   0.490345   0.006251   0.397072  -0.043061
    31  H    0.497469   0.004611   0.000015  -0.003374  -0.000167
    32  C    0.004611   5.033206  -0.040886  -0.039777   0.399518
    33  H    0.000015  -0.040886   0.517919  -0.000205  -0.004558
    34  H   -0.003374  -0.039777  -0.000205   0.514254  -0.004395
    35  H   -0.000167   0.399518  -0.004558  -0.004395   0.517032
 Mulliken atomic charges:
              1
     1  C   -0.612129
     2  H    0.213476
     3  C    0.073313
     4  C   -0.137524
     5  C   -0.153958
     6  C   -0.178801
     7  H    0.190660
     8  C   -0.183022
     9  H    0.202376
    10  C   -0.150653
    11  H    0.161490
    12  H    0.161153
    13  H    0.161984
    14  C    0.061975
    15  C   -0.193665
    16  C   -0.082678
    17  C   -0.165354
    18  H    0.167997
    19  C   -0.181046
    20  H    0.181697
    21  C   -0.156415
    22  H    0.162308
    23  H    0.163488
    24  H    0.164083
    25  C    0.061759
    26  C   -0.178622
    27  C   -0.094414
    28  C   -0.166359
    29  H    0.170584
    30  C   -0.180973
    31  H    0.181445
    32  C   -0.155054
    33  H    0.162631
    34  H    0.163762
    35  H    0.164486
 Sum of Mulliken atomic charges =   0.00000
 Mulliken charges with hydrogens summed into heavy atoms:
              1
     1  C   -0.398654
     3  C    0.073313
     4  C    0.053136
     5  C    0.048419
     6  C   -0.017311
     8  C   -0.021870
    10  C    0.011331
    14  C    0.061975
    15  C   -0.025668
    16  C    0.099019
    17  C   -0.003046
    19  C   -0.017558
    21  C    0.007669
    25  C    0.061759
    26  C   -0.008038
    27  C    0.087031
    28  C   -0.003728
    30  C   -0.017211
    32  C    0.009433
 Sum of Mulliken charges with hydrogens summed into heavy atoms =   0.00000
 Electronic spatial extent (au):  <R**2>=           4929.3195
 Charge=              0.0000 electrons
 Dipole moment (field-independent basis, Debye):
    X=              0.0817    Y=             -0.1813    Z=             -0.0159  Tot=              0.1995
 Quadrupole moment (field-independent basis, Debye-Ang):
   XX=           -106.9538   YY=           -113.4232   ZZ=           -107.4254
   XY=              2.5372   XZ=              0.3885   YZ=              2.5068
 Traceless Quadrupole moment (field-independent basis, Debye-Ang):
   XX=              2.3137   YY=             -4.1558   ZZ=              1.8421
   XY=              2.5372   XZ=              0.3885   YZ=              2.5068
 Octapole moment (field-independent basis, Debye-Ang**2):
  XXX=             25.2252  YYY=             21.8072  ZZZ=              1.1038  XYY=            -32.5445
  XXY=             -8.5407  XXZ=             -0.0616  XZZ=              8.8329  YZZ=            -21.3643
  YYZ=              9.6418  XYZ=              1.3916
 Hexadecapole moment (field-independent basis, Debye-Ang**3):
 XXXX=          -3057.3161 YYYY=          -2960.5561 ZZZZ=           -645.1435 XXXY=            -69.9985
 XXXZ=              6.7248 YYYX=             74.4154 YYYZ=             66.3306 ZZZX=             -4.8460
 ZZZY=             -0.3393 XXYY=           -995.4371 XXZZ=           -619.9822 YYZZ=           -651.0262
 XXYZ=             -0.6498 YYXZ=             -9.4270 ZZXY=             28.7620
 N-N= 1.291130003817D+03 E-N=-4.278345783311D+03  KE= 7.286027262110D+02
 PrsmSu:  requested number of processors reduced to:  10 ShMem   1 Linda.
 Calling FoFJK, ICntrl=      2127 FMM=F ISym2X=0 I1Cent= 0 IOpClX= 0 NMat=1 NMatS=1 NMatT=0.
 ***** Axes restored to original set *****
 -------------------------------------------------------------------
 Center     Atomic                   Forces (Hartrees/Bohr)
 Number     Number              X              Y              Z
 -------------------------------------------------------------------
      1        6          -0.001025727   -0.001203045   -0.022968158
      2        1           0.007354035    0.000918532    0.023852864
      3        6          -0.013785221    0.002706147    0.005049649
      4        6           0.001218568   -0.009198633   -0.002226149
      5        6           0.005829558    0.009981971   -0.000827507
      6        6          -0.006557755   -0.010689706   -0.000421380
      7        1          -0.008243864    0.016750377    0.005419922
      8        6          -0.006703267    0.010108712    0.003437386
      9        1          -0.013614673   -0.016517163    0.000627757
     10        6          -0.012680048    0.002397488    0.004340300
     11        1           0.009609807    0.013597732   -0.000638745
     12        1           0.006125069   -0.014888589   -0.004264788
     13        1           0.015890439   -0.001262523   -0.004801261
     14        6           0.005184257   -0.011910142   -0.006068381
     15        6          -0.000602445    0.001583188   -0.005594030
     16        6          -0.002968589    0.006335135    0.009083599
     17        6           0.005379841   -0.010560268   -0.007026446
     18        1           0.001500818   -0.002519225    0.017235566
     19        6           0.000478770    0.000390912    0.012290028
     20        1           0.004858775   -0.024376274   -0.013331403
     21        6           0.006294681   -0.012123035    0.001793994
     22        1          -0.005449279    0.010972347    0.011420607
     23        1          -0.001916973    0.002840182   -0.016274661
     24        1          -0.007367748    0.014202623   -0.005177070
     25        6           0.006332757    0.009569680   -0.007739715
     26        6          -0.001746481   -0.001896463   -0.005362060
     27        6          -0.002207386   -0.005516237    0.010539478
     28        6           0.006456691    0.008548366   -0.008648628
     29        1           0.003044594    0.004311240    0.016967126
     30        6           0.000956161    0.001053849    0.012474778
     31        1           0.009703432    0.021558327   -0.017190289
     32        6           0.008135157    0.011073112   -0.000011472
     33        1          -0.006282835   -0.008559013    0.012864662
     34        1          -0.003368021   -0.004379418   -0.015784317
     35        1          -0.009833099   -0.013300185   -0.003041256
 -------------------------------------------------------------------
 Cartesian Forces:  Max     0.024376274 RMS     0.009529998

 GradGradGradGradGradGradGradGradGradGradGradGradGradGradGradGradGradGrad
 Berny optimization.
 Internal  Forces:  Max     0.028205427 RMS     0.007773104
 Search for a local minimum.
 Step number   1 out of a maximum of  197
 All quantities printed in internal units (Hartrees-Bohrs-Radians)
 Mixed Optimization -- RFO/linear search
 Second derivative matrix not updated -- first step.
     Eigenvalues ---    0.00636   0.00652   0.00655   0.01533   0.01537
     Eigenvalues ---    0.01542   0.02139   0.02143   0.02146   0.02171
     Eigenvalues ---    0.02172   0.02173   0.02181   0.02182   0.02184
     Eigenvalues ---    0.02200   0.02201   0.02202   0.02210   0.02211
     Eigenvalues ---    0.02213   0.02213   0.02214   0.02214   0.02215
     Eigenvalues ---    0.02217   0.02218   0.02220   0.02220   0.02223
     Eigenvalues ---    0.04577   0.06434   0.06582   0.15997   0.15998
     Eigenvalues ---    0.16000   0.16000   0.16000   0.16000   0.16000
     Eigenvalues ---    0.16000   0.16000   0.16000   0.16000   0.16000
     Eigenvalues ---    0.16000   0.16000   0.16000   0.18862   0.19301
     Eigenvalues ---    0.22000   0.22000   0.22000   0.22000   0.22000
     Eigenvalues ---    0.22000   0.23461   0.23478   0.23478   0.24954
     Eigenvalues ---    0.24999   0.25000   0.31271   0.31365   0.31489
     Eigenvalues ---    0.31510   0.33531   0.33616   0.33985   0.34038
     Eigenvalues ---    0.34080   0.34108   0.34238   0.34255   0.34259
     Eigenvalues ---    0.34260   0.34263   0.34278   0.34278   0.34282
     Eigenvalues ---    0.34286   0.42432   0.42469   0.42480   0.42555
     Eigenvalues ---    0.42573   0.42585   0.46360   0.46401   0.46436
     Eigenvalues ---    0.46737   0.46743   0.46771   0.47189   0.47198
     Eigenvalues ---    0.47230   0.47334   0.47346   0.473861000.00000
     Eigenvalues --- 1000.000001000.000001000.000001000.000001000.00000
     Eigenvalues --- 1000.000001000.000001000.000001000.000001000.00000
     Eigenvalues --- 1000.000001000.000001000.000001000.000001000.00000
     Eigenvalues --- 1000.000001000.000001000.000001000.000001000.00000
     Eigenvalues --- 1000.000001000.000001000.000001000.000001000.00000
     Eigenvalues --- 1000.000001000.000001000.000001000.000001000.00000
     Eigenvalues --- 1000.000001000.000001000.000001000.000001000.00000
     Eigenvalues --- 1000.000001000.000001000.000001000.000001000.00000
     Eigenvalues --- 1000.000001000.000001000.000001000.000001000.00000
     Eigenvalues --- 1000.000001000.000001000.000001000.000001000.00000
     Eigenvalues --- 1000.000001000.000001000.000001000.000001000.00000
     Eigenvalues --- 1000.000001000.000001000.000001000.000001000.00000
     Eigenvalues --- 1000.000001000.000001000.000001000.000001000.00000
     Eigenvalues --- 1000.000001000.000001000.000001000.000001000.00000
     Eigenvalues --- 1000.000001000.000001000.000001000.000001000.00000
     Eigenvalues --- 1000.000001000.000001000.000001000.000001000.00000
     Eigenvalues --- 1000.000001000.000001000.000001000.000001000.00000
     Eigenvalues --- 1000.000001000.00000
 RFO step:  Lambda=-4.16947755D-02 EMin= 6.35602090D-03
 Linear search not attempted -- first point.
 Maximum step size (   0.300) exceeded in Quadratic search.
    -- Step size scaled by   0.595
 Iteration  1 RMS(Cart)=  0.12581409 RMS(Int)=  0.00306016
 Iteration  2 RMS(Cart)=  0.00620243 RMS(Int)=  0.00028303
 Iteration  3 RMS(Cart)=  0.00001087 RMS(Int)=  0.00028297
 Iteration  4 RMS(Cart)=  0.00000000 RMS(Int)=  0.00028297
 Variable       Old X    -DE/DX   Delta X   Delta X   Delta X     New X
                                 (Linear)    (Quad)   (Total)
    R1        2.12197  -0.02447   0.00000  -0.04106  -0.04106   2.08091
    R2        2.85050   0.02365   0.00000   0.03941   0.03941   2.88991
    R3        2.85321   0.02295   0.00000   0.03841   0.03841   2.89162
    R4        2.85089   0.02327   0.00000   0.03881   0.03881   2.88970
    R5        2.64238  -0.00186   0.00000  -0.00212  -0.00212   2.64026
    R6        2.63692  -0.00207   0.00000  -0.00230  -0.00229   2.63462
    R7        2.62490  -0.00418   0.00000  -0.00486  -0.00486   2.62004
    R8        2.07266  -0.01940   0.00000  -0.03020  -0.03020   2.04246
    R9        2.62822  -0.00199   0.00000  -0.00226  -0.00226   2.62596
   R10        2.07356  -0.02135   0.00000  -0.03328  -0.03328   2.04028
   R11        2.62889  -0.00540   0.00000  -0.00639  -0.00640   2.62249
   R12        2.06895  -0.01666   0.00000  -0.02578  -0.02578   2.04316
   R13        2.62625  -0.00702   0.00000  -0.00818  -0.00819   2.61806
   R14        2.06893  -0.01665   0.00000  -0.02577  -0.02577   2.04316
   R15        2.06851  -0.01665   0.00000  -0.02574  -0.02574   2.04276
   R16        2.63869  -0.00425   0.00000  -0.00495  -0.00494   2.63375
   R17        2.63889  -0.00003   0.00000   0.00008   0.00010   2.63899
   R18        2.62800  -0.00225   0.00000  -0.00265  -0.00266   2.62534
   R19        2.07148  -0.01747   0.00000  -0.02714  -0.02714   2.04434
   R20        2.62544  -0.00464   0.00000  -0.00529  -0.00529   2.62015
   R21        2.07983  -0.02696   0.00000  -0.04243  -0.04243   2.03740
   R22        2.62771  -0.00906   0.00000  -0.01060  -0.01062   2.61710
   R23        2.06930  -0.01675   0.00000  -0.02593  -0.02593   2.04338
   R24        2.62876  -0.00532   0.00000  -0.00622  -0.00624   2.62252
   R25        2.06857  -0.01663   0.00000  -0.02572  -0.02572   2.04284
   R26        2.06864  -0.01682   0.00000  -0.02601  -0.02601   2.04263
   R27        2.63887  -0.00432   0.00000  -0.00504  -0.00502   2.63385
   R28        2.63968   0.00052   0.00000   0.00074   0.00076   2.64044
   R29        2.62824  -0.00242   0.00000  -0.00288  -0.00288   2.62537
   R30        2.07195  -0.01776   0.00000  -0.02761  -0.02761   2.04434
   R31        2.62560  -0.00467   0.00000  -0.00531  -0.00532   2.62028
   R32        2.08129  -0.02821   0.00000  -0.04449  -0.04449   2.03680
   R33        2.62727  -0.00916   0.00000  -0.01072  -0.01073   2.61654
   R34        2.06901  -0.01668   0.00000  -0.02581  -0.02581   2.04320
   R35        2.62870  -0.00538   0.00000  -0.00629  -0.00631   2.62239
   R36        2.06888  -0.01672   0.00000  -0.02588  -0.02588   2.04301
   R37        2.06863  -0.01682   0.00000  -0.02601  -0.02601   2.04262
    A1        1.82657   0.00430   0.00000   0.00235   0.00260   1.82917
    A2        1.88449  -0.00929   0.00000  -0.05077  -0.04992   1.83457
    A3        1.87968  -0.00985   0.00000  -0.05169  -0.05079   1.82889
    A4        1.95637  -0.00244   0.00000   0.01411   0.01199   1.96836
    A5        1.98682  -0.00026   0.00000   0.01922   0.01724   2.00406
    A6        1.92312   0.01561   0.00000   0.05516   0.05401   1.97713
    A7        2.08199   0.00197   0.00000   0.00386   0.00384   2.08584
    A8        2.12332   0.00595   0.00000   0.01198   0.01196   2.13527
    A9        2.07636  -0.00795   0.00000  -0.01621  -0.01620   2.06015
   A10        2.10323   0.00441   0.00000   0.00980   0.00981   2.11304
   A11        2.08582  -0.00095   0.00000  -0.00121  -0.00122   2.08460
   A12        2.09412  -0.00346   0.00000  -0.00859  -0.00860   2.08553
   A13        2.10197   0.00371   0.00000   0.00849   0.00850   2.11048
   A14        2.09090  -0.00030   0.00000   0.00035   0.00035   2.09124
   A15        2.09031  -0.00341   0.00000  -0.00884  -0.00884   2.08146
   A16        2.09717   0.00092   0.00000   0.00146   0.00145   2.09862
   A17        2.09128  -0.00047   0.00000  -0.00075  -0.00074   2.09054
   A18        2.09473  -0.00045   0.00000  -0.00071  -0.00071   2.09403
   A19        2.09877   0.00107   0.00000   0.00208   0.00207   2.10084
   A20        2.08939  -0.00049   0.00000  -0.00090  -0.00090   2.08849
   A21        2.09502  -0.00058   0.00000  -0.00117  -0.00117   2.09385
   A22        2.08885  -0.00216   0.00000  -0.00563  -0.00565   2.08320
   A23        2.09669   0.00111   0.00000   0.00291   0.00292   2.09961
   A24        2.09764   0.00105   0.00000   0.00272   0.00273   2.10037
   A25        2.08476  -0.00872   0.00000  -0.01774  -0.01779   2.06697
   A26        2.11748   0.01969   0.00000   0.04018   0.04012   2.15760
   A27        2.08095  -0.01096   0.00000  -0.02243  -0.02242   2.05853
   A28        2.09893   0.00756   0.00000   0.01675   0.01677   2.11570
   A29        2.09516  -0.00445   0.00000  -0.01036  -0.01038   2.08478
   A30        2.08910  -0.00311   0.00000  -0.00640  -0.00641   2.08269
   A31        2.10157   0.00421   0.00000   0.00953   0.00949   2.11106
   A32        2.07750   0.00395   0.00000   0.01323   0.01314   2.09064
   A33        2.10397  -0.00813   0.00000  -0.02240  -0.02248   2.08148
   A34        2.09770  -0.00029   0.00000  -0.00142  -0.00143   2.09627
   A35        2.09106   0.00037   0.00000   0.00136   0.00137   2.09243
   A36        2.09442  -0.00008   0.00000   0.00005   0.00006   2.09449
   A37        2.09591   0.00235   0.00000   0.00490   0.00489   2.10080
   A38        2.09203  -0.00111   0.00000  -0.00225  -0.00225   2.08978
   A39        2.09525  -0.00124   0.00000  -0.00264  -0.00265   2.09260
   A40        2.09129  -0.00286   0.00000  -0.00727  -0.00731   2.08398
   A41        2.09600   0.00140   0.00000   0.00356   0.00356   2.09956
   A42        2.09590   0.00146   0.00000   0.00373   0.00374   2.09964
   A43        2.08208  -0.01041   0.00000  -0.02117  -0.02120   2.06089
   A44        2.12135   0.02194   0.00000   0.04478   0.04474   2.16609
   A45        2.07973  -0.01152   0.00000  -0.02355  -0.02353   2.05620
   A46        2.09950   0.00799   0.00000   0.01766   0.01768   2.11718
   A47        2.09498  -0.00465   0.00000  -0.01076  -0.01077   2.08422
   A48        2.08870  -0.00334   0.00000  -0.00691  -0.00692   2.08178
   A49        2.10216   0.00439   0.00000   0.00996   0.00993   2.11209
   A50        2.07717   0.00431   0.00000   0.01429   0.01424   2.09141
   A51        2.10373  -0.00867   0.00000  -0.02399  -0.02405   2.07969
   A52        2.09805  -0.00031   0.00000  -0.00156  -0.00157   2.09648
   A53        2.09088   0.00035   0.00000   0.00134   0.00135   2.09223
   A54        2.09425  -0.00004   0.00000   0.00022   0.00022   2.09447
   A55        2.09605   0.00237   0.00000   0.00497   0.00495   2.10100
   A56        2.09165  -0.00110   0.00000  -0.00222  -0.00222   2.08943
   A57        2.09548  -0.00127   0.00000  -0.00273  -0.00273   2.09275
[...]
 422,-0.00050243,-0.00027475,-0.00035734,-0.00078600,-0.00044779,0.0000
 5267,0.00009074,-0.00005114,-0.00013875,-0.00014888,0.00007129,-0.0000
 9606,-0.00009483,0.00000391,0.00004079,0.00003529,-0.00013556,0.000000
 22,0.00004330,-0.00004943,-0.00003165,0.00004502,0.00007481,0.00009799
 ,0.00008810,-0.00000325,0.00000089,0.00001970,-0.00002026,0.00000754,-
 0.00000869,0.00001698,0.00000568,0.00000361,0.00021116,0.00117351,0.00
 033412,0.00026341,-0.00036787,-0.00005516,0.00000407,0.00030135,0.0001
 4423,-0.00008394,0.00014877,-0.00025792,-0.00000238,-0.00002298,0.0000
 4885,0.00025465,-0.00027463,0.00013233,-0.00012217,-0.00005337,0.00000
 078,-0.00016976,-0.00002845,0.00022158,-0.00000840,0.00002568,0.000023
 29,0.00000396,-0.00000088,-0.00001839,-0.00001334,0.00003181,-0.000003
 17,-0.00464785,-0.03934423,0.03558184,0.01139551,0.03512982,-0.0186935
 9,-0.05602881,-0.02232287,-0.14002710,-0.04210891,0.00137219,-0.047376
 74,0.00095475,0.00020997,0.00014305,0.26920924,-0.12841449,0.63395939,
 -0.00180475,0.00193118,0.00228990,0.00050227,0.00038562,0.00017323,-0.
 00029680,-0.00060942,-0.00028839,-0.00018426,0.00003245,0.00011539,-0.
 00009631,-0.00030303,-0.00007949,0.00002517,-0.00001797,-0.00005871,0.
 00000296,0.00001120,0.00000819,-0.00000873,0.00005380,0.00010051,-0.00
 001325,0.00032379,-0.00009522,0.00001481,0.00003093,0.00001544,-0.0000
 0343,0.00001495,0.00000506,-0.00000867,0.00000009,-0.00001022,0.000022
 58,0.00000938,-0.00000020,-0.00032717,-0.00080350,-0.00025513,0.000226
 40,-0.00039014,-0.00011316,-0.00000875,-0.00018048,-0.00006933,-0.0002
 5157,0.00029846,-0.00025473,0.00001595,0.00004931,0.00014252,0.0003221
 3,-0.00035595,0.00015406,-0.00033326,-0.00014313,0.00004308,-0.0002897
 2,0.00006517,0.00025019,-0.00001565,0.00005319,0.00002660,0.00001189,0
 .00000477,-0.00001253,-0.00001408,0.00005007,0.00001477,0.00346780,0.0
 1830954,-0.01673768,0.00141875,-0.00376733,-0.00632518,-0.06513867,0.0
 1885463,-0.03485489,-0.00103880,-0.00016632,0.00008130,-0.00013984,0.0
 0086077,-0.00082000,0.00734423,-0.01615941,0.01510373,0.05667363,0.001
 54325,-0.00109458,-0.00100611,0.00002555,-0.00010976,0.00005226,0.0000
 5904,0.00044477,0.00026624,0.00014469,-0.00003569,-0.00010021,0.000167
 47,0.00029037,0.00005588,-0.00000824,-0.00000543,0.00001439,-0.0000126
 8,-0.00001204,-0.00001725,-0.00004142,-0.00005506,-0.00006176,0.000034
 17,-0.00022313,0.00004781,0.00000698,-0.00000585,0.00000070,0.00001006
 ,-0.00000703,-0.00000298,0.00002400,-0.00000913,-0.00000501,-0.0000087
 8,-0.00000844,-0.00000357,-0.00159290,-0.00155467,-0.00155752,-0.00039
 758,-0.00008432,-0.00015122,-0.00064356,-0.00096991,-0.00022653,0.0000
 9331,-0.00002856,-0.00000590,0.00001974,0.00005440,0.00004686,-0.00016
 035,-0.00007575,0.00008620,0.00015505,0.00009965,-0.00001614,0.0001312
 6,-0.00002443,-0.00000268,-0.00001784,0.00000554,0.00001344,0.00001981
 ,0.00003455,-0.00002028,-0.00000183,0.00002906,-0.00000332,-0.00209986
 ,0.00795869,-0.00480408,-0.00343557,0.00223033,0.00008065,0.01897685,-
 0.21884510,0.15597929,-0.00030198,-0.00012276,-0.00105162,-0.00008484,
 0.00026942,-0.00031129,0.00580083,-0.01426437,0.02310403,-0.01467820,0
 .22907554,0.00215632,-0.00006676,-0.00123159,-0.00015244,-0.00017406,0
 .00008405,0.00017294,0.00024078,0.00023193,0.00007380,-0.00003262,-0.0
 0004565,0.00002904,0.00002192,0.00007940,0.00000234,-0.00001732,0.0000
 0642,-0.00000686,0.00000649,-0.00003624,-0.00002902,-0.00003792,0.0000
 1165,-0.00002643,0.00000719,-0.00004401,0.00001384,0.00001232,-0.00000
 161,0.00000483,-0.00000103,-0.00000311,0.00001053,-0.00000331,-0.00000
 975,-0.00000208,0.00000198,-0.00000854,-0.00018101,0.00021783,0.000365
 22,0.00076512,-0.00013850,-0.00014085,0.00024257,0.00024955,0.00069480
 ,0.00017288,-0.00009454,-0.00009037,-0.00010003,-0.00002071,-0.0000737
 2,0.00010362,-0.00019495,0.00010463,0.00000898,-0.00000447,-0.00004668
 ,-0.00022565,0.00004079,0.00005946,-0.00003318,0.00000422,-0.00000451,
 0.00002090,0.00004402,-0.00004532,-0.00001277,0.00003250,-0.00001588,-
 0.00152260,0.02102678,-0.01261435,-0.00669522,0.00037738,-0.00033175,-
 0.03447003,0.15396087,-0.21314258,-0.00002299,-0.00116478,-0.00013909,
 0.00000892,0.00091381,-0.00087964,-0.00189490,-0.00482847,0.00661024,0
 .04185646,-0.16975838,0.21786159,-0.00181690,0.00040712,-0.00024913,-0
 .00004822,-0.00000364,0.00064243,0.00021469,-0.00109594,0.00025162,0.0
 0003040,0.00001115,0.00023375,-0.00016442,-0.00013995,-0.00003441,-0.0
 0012125,0.00012622,0.00002701,0.00002514,-0.00000868,0.00000843,0.0002
 2724,0.00012486,0.00008074,-0.00001430,0.00017441,0.00005721,-0.000099
 43,-0.00012076,-0.00009987,-0.00003497,0.00001699,-0.00001534,-0.00001
 742,-0.00000240,0.00002841,0.00000012,0.00001042,0.00000752,0.00004294
 ,-0.00012150,-0.00032281,-0.00002510,0.00018213,0.00006904,0.00011562,
 -0.00016018,0.00006634,0.00006215,-0.00009969,0.00015916,-0.00006158,0
 .00002246,-0.00003281,-0.00011128,0.00011648,-0.00001171,-0.00001664,-
 0.00000978,0.00000602,0.00010841,-0.00004258,-0.00010804,0.00000660,-0
 .00003236,-0.00000262,-0.00000366,-0.00001531,0.00000457,-0.00000097,-
 0.00000838,0.00000077,-0.02342773,0.01900710,-0.03769065,-0.02661579,-
 0.05660867,-0.00446183,0.04056291,0.00778572,0.03478783,-0.20497675,-0
 .01787408,-0.14678953,0.00359019,-0.00557045,-0.00284758,-0.12459239,-
 0.03566616,-0.02480602,0.00241661,-0.00590949,-0.00357726,0.47796420,0
 .00071405,0.00057614,-0.00008556,-0.00006757,-0.00035071,-0.00026554,0
 .00032430,0.00000812,-0.00023910,-0.00028587,0.00012305,0.00010342,-0.
 00018013,0.00000437,-0.00012101,0.00005723,-0.00007948,-0.00008741,0.0
 0002555,0.00000388,0.00000135,-0.00015072,-0.00007479,-0.00002448,-0.0
 0004479,-0.00029054,-0.00012291,-0.00003604,0.00008843,0.00009018,-0.0
 0002920,-0.00000945,0.00001717,-0.00005643,0.00001520,0.00003615,-0.00
 001878,0.00000133,0.00000057,-0.00035524,0.00013015,0.00007258,0.00001
 639,-0.00024060,0.00007578,-0.00002488,0.00003038,-0.00020316,-0.00004
 823,0.00016046,-0.00012162,-0.00001257,0.00002048,0.00002376,0.0001205
 1,-0.00010106,-0.00003177,0.00000934,0.00001260,-0.00002227,-0.0000483
 3,-0.00003563,0.00019290,0.00001195,-0.00003243,-0.00001578,0.00000163
 ,-0.00002085,0.00002329,0.00000436,-0.00002173,0.00000499,0.01874408,-
 0.01421444,0.02997589,-0.01862514,0.02816196,-0.03814255,-0.03035833,-
 0.05270054,0.00903691,-0.06626689,-0.15134623,-0.03345603,-0.00587445,
 -0.00312202,0.00184059,0.01325322,-0.25329962,0.15324909,-0.00588611,-
 0.00196672,0.00085836,0.22536206,0.70883975,-0.00188327,-0.00069009,-0
 .00096191,-0.00017853,-0.00001843,0.00105927,0.00009554,-0.00104572,0.
 00064349,0.00044370,-0.00007910,0.00025330,-0.00023885,-0.00029257,0.0
 0017968,-0.00025046,0.00027421,0.00017005,0.00000424,-0.00000381,0.000
 00520,0.00048332,0.00015474,0.00005818,-0.00009844,0.00027772,0.000050
 47,-0.00016485,-0.00026695,-0.00024021,-0.00001716,0.00003097,-0.00003
 502,-0.00000897,-0.00001172,0.00004315,0.00000176,0.00000770,0.0000020
 9,0.00023422,-0.00031890,-0.00048801,0.00005188,0.00046291,0.00000183,
 0.00019648,-0.00030648,0.00033224,0.00015499,-0.00029372,0.00031881,-0
 .00004579,-0.00003213,-0.00008260,-0.00027273,0.00025975,0.00001224,-0
 .00001244,-0.00002019,0.00001138,0.00018896,-0.00003209,-0.00032397,-0
 .00000794,0.00000635,0.00001437,-0.00000543,-0.00000249,-0.00001112,-0
 .00000332,0.00001046,-0.00000958,-0.03619929,0.03122167,-0.08165640,-0
 .03371208,-0.08990848,0.03470981,0.06472825,0.06016613,0.04830248,-0.1
 0751344,0.03108045,-0.25187952,-0.00245027,0.00244289,0.00390171,-0.06
 433901,0.08916381,-0.23937511,-0.00380963,0.00047543,0.00377632,0.2207
 0408,-0.13008544,0.57203112,0.00022450,-0.00047726,0.00068042,0.000068
 53,0.00007007,-0.00000626,0.00004800,-0.00008009,-0.00001629,-0.000037
 35,-0.00000152,0.00001626,-0.00003679,0.00001368,-0.00000532,-0.000001
 35,0.00000611,-0.00001259,0.00000623,-0.00000011,0.00001068,-0.0000146
 5,0.00001173,-0.00001129,0.00001141,-0.00002616,0.00001646,-0.00002502
 ,0.00001287,0.00000572,-0.00000359,-0.00000164,0.00000398,-0.00000887,
 -0.00000148,0.00001612,-0.00000133,-0.00000444,0.00000535,-0.00027871,
 -0.00016334,0.00002374,0.00003650,-0.00004800,-0.00001886,0.00002070,-
 0.00000777,0.00000094,-0.00000547,0.00004407,-0.00001798,-0.00000056,0
 .00000082,-0.00000102,0.00004267,-0.00001955,0.00001197,-0.00001602,-0
 .00000802,-0.00000192,-0.00001621,-0.00001680,0.00004564,-0.00000052,-
 0.00000063,-0.00000317,0.00000193,-0.00000577,0.00000675,-0.00000114,-
 0.00000313,0.00000017,0.00255035,-0.00573421,-0.00385850,0.00743181,-0
 .01565662,0.01512082,-0.00105548,-0.00023410,0.00000352,-0.06345281,0.
 01381845,-0.03086892,-0.00203200,0.00240115,0.00223621,0.00152821,-0.0
 0368260,-0.00652568,-0.00058884,0.00040452,0.00055085,0.00365114,0.018
 24655,-0.01715297,0.05397195,0.00059916,-0.00057570,0.00107026,-0.0000
 0099,-0.00000931,-0.00006898,0.00016871,-0.00010965,-0.00007486,-0.000
 10468,0.00004371,0.00001603,-0.00004098,0.00004185,0.00002850,-0.00001
 523,-0.00000271,-0.00001840,0.00001621,-0.00000739,0.00000789,-0.00000
 504,-0.00001144,-0.00000931,0.00001919,-0.00002762,-0.00003163,-0.0000
 2830,0.00000604,-0.00000052,-0.00002021,-0.00001230,0.00000379,-0.0000
 0851,0.00000480,0.00001519,-0.00001513,-0.00000239,0.00000574,-0.00035
 644,-0.00010521,-0.00016790,0.00000717,-0.00004987,0.00007288,0.000078
 16,-0.00009372,0.00001445,-0.00000121,0.00001078,0.00002546,-0.0000146
 0,0.00001192,-0.00000375,0.00001177,0.00002992,-0.00000002,-0.00000399
 ,0.00000287,-0.00000637,0.00002252,-0.00003252,0.00000206,0.00001868,-
 0.00001776,-0.00000178,0.00000118,-0.00001301,0.00001557,0.00000493,-0
 .00001348,0.00000445,-0.00625292,-0.00173672,0.00053886,0.00584498,-0.
 01443674,0.02403689,-0.00036047,-0.00014937,-0.00110875,0.01373255,-0.
 21625084,0.15358465,0.00165877,0.00001985,-0.00200668,-0.00334460,0.00
 259657,0.00045352,0.00045358,-0.00026196,-0.00020816,-0.00313068,0.008
 30461,-0.00644848,-0.01116857,0.22268390,-0.00002160,-0.00025152,0.000
 04698,0.00001961,0.00001532,-0.00003242,-0.00000569,0.00014146,0.00001
 229,0.00001954,-0.00001152,-0.00005029,0.00003659,-0.00002428,-0.00001
 819,0.00001486,-0.00001464,0.00000037,-0.00000833,-0.00000263,-0.00000
 482,-0.00000983,0.00000548,0.00003464,-0.00003537,0.00003132,0.0000016
 0,0.00003343,0.00000376,0.00000752,0.00001040,0.00000243,0.00000076,0.
 00001001,-0.00000120,-0.00002412,0.00001129,0.00000488,-0.00000551,0.0
 0009382,0.00001336,-0.00005073,-0.00000450,0.00004238,0.00001212,-0.00
 000155,0.00001512,0.00003569,0.00002323,-0.00003423,0.00001494,-0.0000
 0097,-0.00001419,-0.00001517,-0.00001952,0.00001993,0.00000986,-0.0000
 0529,-0.00000608,-0.00000042,0.00001771,0.00000294,-0.00003071,-0.0000
 0551,0.00000132,0.00000315,-0.00000344,0.00000162,-0.00000978,-0.00000
 452,0.00000506,-0.00000506,-0.00357558,0.00077990,0.00377772,-0.002396
 10,-0.00457387,0.00621587,0.00004558,-0.00110566,0.00000342,-0.0307631
 4,0.15379182,-0.21429731,0.00276523,-0.00106432,-0.00062944,-0.0067535
 2,0.00006159,-0.00040045,0.00050696,-0.00021308,-0.00041182,0.00022872
 ,0.02198395,-0.01204039,0.03776976,-0.16862222,0.21924269,-0.00036983,
 0.00020534,-0.00061217,-0.00020481,-0.00023816,-0.00000392,0.00012799,
 -0.00015013,-0.00012630,-0.00010733,0.00004522,0.00005816,-0.00010429,
 -0.00005187,0.00003263,-0.00000401,-0.00000439,-0.00000282,0.00001346,
 0.00001902,0.00000691,0.00001380,-0.00001569,-0.00000578,0.00002811,-0
 .00000642,-0.00006816,-0.00002588,0.00000419,0.00000794,-0.00001502,-0
 .00000197,0.00000231,-0.00002798,0.00001489,0.00001321,-0.00001122,0.0
 0000348,0.00000016,-0.00009358,0.00022015,-0.00006597,0.00003411,0.,0.
 00000168,0.00006765,-0.00007499,0.00003673,-0.00000724,-0.00000826,0.0
 0002322,-0.00001338,0.00001196,0.00002247,-0.00001082,0.00002676,0.000
 00778,-0.00001864,0.00000163,-0.00001012,0.00003152,-0.00002310,0.0000
 0113,0.00000553,-0.00000563,-0.00000136,-0.00000709,-0.00002168,0.0000
 1563,0.00000261,-0.00001253,0.00000275,0.00355120,-0.00558577,-0.00224
 777,-0.00013863,0.00010070,0.00101028,-0.00672087,0.00058742,-0.016549
 45,0.00541189,-0.00203722,-0.00302400,-0.00069399,0.00040624,0.0004103
 6,-0.18521695,-0.03032128,-0.15529946,-0.00195963,0.00153285,0.0027693
 1,0.00319307,-0.00345402,-0.00041406,-0.00013858,-0.00005034,-0.000033
 39,0.18543693,-0.00050666,0.00035442,-0.00111571,-0.00019826,-0.000253
 36,-0.00010070,0.00004038,-0.00018498,-0.00005266,-0.00007649,0.000002
 05,0.00004376,-0.00002203,0.00001958,0.00003749,-0.00001837,0.00000624
 ,-0.00000779,0.00001141,0.00000444,0.00000724,0.00000124,0.00000162,-0
 .00000155,-0.00000307,0.00000266,-0.00001328,-0.00001751,-0.00000469,-
 0.00000084,-0.00001326,-0.00000110,-0.00000268,-0.00000447,0.00000631,
 0.00000388,-0.00000690,-0.00000002,0.00000281,-0.00004582,0.00020112,-
 0.00004410,0.00003630,-0.00004650,0.00002285,0.00003053,0.00000878,0.0
 0001780,0.00001056,0.00002284,-0.00000470,-0.00002211,0.00000248,-0.00
 000378,0.00002888,-0.00001223,0.00001865,-0.00001605,0.00000109,-0.000
 01336,0.00003023,-0.00003480,0.00004478,0.00000356,-0.00002108,-0.0000
 0907,-0.00000856,-0.00001857,0.00000596,-0.00000424,-0.00001542,-0.000
 00014,-0.00565403,-0.00328903,0.00218590,0.00008681,-0.00130232,0.0003
 4451,-0.02089990,0.00208007,-0.02476602,-0.00227546,-0.00182357,0.0056
 2491,0.00039336,-0.00015882,-0.00035929,-0.03030316,-0.07269290,-0.020
 94825,0.00231597,0.00017773,-0.00107439,0.01820150,0.00878478,0.021351
 01,0.00084534,0.00016309,0.00095441,0.03655196,0.06797628,0.00016987,0
 .00033068,-0.00013335,-0.00002327,-0.00001346,-0.00002677,0.00001514,-
 0.00011559,0.00001527,-0.00002427,0.00000760,0.00003738,-0.00001317,0.
 00003234,0.00003021,-0.00001520,0.00000842,-0.00000112,0.00000768,-0.0
 0000147,-0.00000315,0.00001058,-0.00002018,-0.00001662,0.00000579,-0.0
 0001296,-0.00002963,-0.00001454,-0.00000956,-0.00000505,-0.00001250,-0
 .00000287,-0.00000474,-0.00000299,0.00000784,0.00000315,-0.00001190,-0
 .00000070,0.00000152,-0.00009733,-0.00000529,-0.00000833,0.00000888,-0
 .00005674,0.00002491,0.00000704,-0.00000582,-0.00004405,-0.00000228,0.
 00003897,-0.00000663,-0.00001943,0.00001212,-0.00000477,0.00002821,-0.
 00001290,-0.00000459,0.00000570,0.00000767,-0.00001000,0.00000616,-0.0
 0001636,0.00004420,0.00000719,-0.00002313,-0.00001264,-0.00000135,-0.0
 0000790,0.00000714,0.00000018,-0.00001541,0.00000386,-0.00267603,0.001
 73593,0.00373099,0.00101000,0.00021093,0.00021416,0.00076529,0.0036181
 0,0.00364223,-0.00277232,0.00602651,0.00048634,0.00042044,-0.00035500,
 -0.00043376,-0.15514275,-0.02114109,-0.23582508,0.00219545,-0.00184226
 ,-0.00065685,-0.01780201,-0.00702309,-0.01214665,-0.00074427,-0.000268
 28,-0.00087035,0.17194448,0.01990754,0.24263608,-0.00060258,0.00025388
 ,0.00044833,0.00006727,0.00004714,0.00013740,-0.00000837,-0.00015672,-
 0.00005608,-0.00005114,0.00002682,0.00003785,-0.00004446,0.00000025,0.
 00001162,-0.00001138,0.00000572,-0.00000119,0.00000721,0.00000692,0.00
 000308,0.00001932,-0.00001299,-0.00002379,0.00002918,-0.00002222,-0.00
 002832,-0.00002043,-0.00000329,-0.00000376,-0.00001062,-0.00000237,0.0
 0000001,-0.00001380,0.00000530,0.00001694,-0.00001061,-0.00000187,0.00
 000292,-0.00005349,-0.00000577,0.00001066,-0.00001129,-0.00003434,-0.0
 0001288,0.00001692,-0.00001593,-0.00001888,-0.00001796,0.00001068,0.00
 000304,-0.00000092,0.00000914,0.00001427,0.00000595,0.00000345,-0.0000
 0477,-0.00000105,0.00000490,0.00000191,0.00000436,-0.00000952,0.000009
 86,0.00000613,0.00000062,-0.00000052,-0.00000202,-0.00000675,0.0000077
 4,0.00000367,-0.00000512,0.00000372,-0.00035166,0.00105476,-0.00008221
 ,0.00235118,-0.00209610,-0.00673296,0.00509761,-0.00154516,-0.00387669
 ,-0.00639693,-0.02099452,0.00178928,-0.00058076,-0.00088447,0.00002398
 ,0.00692093,0.00549322,-0.00213938,0.00005702,0.00024568,-0.00001079,-
 0.15006264,-0.14506751,-0.01850848,-0.00187865,0.00228530,0.00204108,-
 0.00202811,0.00150831,0.00276753,0.14757214,0.00043338,-0.00010498,-0.
 00027016,-0.00007544,-0.00002800,-0.00008827,0.00009178,0.00000273,0.0
 0000282,-0.00000990,0.00001288,0.00002078,-0.00001881,0.00003173,0.000
 04001,-0.00000792,0.00000821,0.00000721,0.00000728,0.00000234,-0.00000
 130,0.00001083,-0.00002488,-0.00002445,0.00002045,-0.00002692,-0.00002
 964,-0.00001608,-0.00000622,-0.00000455,-0.00001146,-0.00000642,-0.000
 00312,-0.00000478,0.00000788,0.00000764,-0.00001480,-0.00000093,0.0000
 0203,-0.00008441,0.00003415,-0.00002939,-0.00001776,-0.00001355,0.0000
 3330,0.00002158,-0.00006844,-0.00002604,-0.00001337,0.00001050,0.00001
 840,-0.00000992,0.00001764,0.00000476,-0.00001424,0.00002071,-0.000025
 39,0.00002004,0.00001409,-0.00000524,0.00001461,-0.00000634,-0.0000006
 5,0.00001231,-0.00001545,-0.00000747,0.00000087,-0.00000585,0.00001366
 ,0.00000627,-0.00001465,0.00000625,0.00094490,0.00029258,0.00020946,-0
 .00245464,0.00300544,0.00132837,-0.00112269,-0.00014972,0.00585876,0.0
 0044475,0.00137630,0.00356500,-0.00002832,-0.00019147,0.00003679,-0.01
 624936,-0.01452577,-0.00557201,-0.00064788,-0.00090534,-0.00019643,-0.
 14492793,-0.27735882,-0.00752943,0.00146646,-0.00000018,-0.00193863,0.
 00233164,0.00004381,-0.00099460,0.15990257,0.28857294,0.00048786,-0.00
 026719,-0.00025244,-0.00002701,0.00006231,-0.00003325,0.00006090,0.000
 06133,0.00005377,0.00003732,-0.00001147,-0.00000272,0.00000843,-0.0000
 2126,0.00000909,0.00000576,0.00000530,0.00000969,-0.00000024,0.0000040
 0,-0.00000482,0.00000471,0.00000396,0.00000740,-0.00002234,0.00002405,
 -0.00000318,0.00000231,-0.00000165,-0.00000564,0.00000046,-0.00000094,
 -0.00000264,0.00000467,0.00000012,-0.00000302,-0.00000083,0.00000118,0
 .00000035,-0.00002588,0.00003236,0.00001011,0.00005005,-0.00000403,0.0
 0000399,0.00002297,-0.00000235,0.00004947,0.00000833,0.00000147,-0.000
 00489,-0.00001224,0.00000189,-0.00000423,0.00001163,-0.00001969,0.0000
 1798,-0.00000968,-0.00000584,-0.00000744,-0.00000850,-0.00000486,0.000
 00547,-0.00000081,-0.00000379,0.00000009,0.00000184,0.00000052,-0.0000
 0186,-0.00000161,0.00000136,-0.00000021,-0.00014044,0.00014492,-0.0012
 8172,-0.00646872,0.00183087,-0.00143293,-0.00413782,0.00535625,-0.0007
 0559,-0.01568469,-0.02494728,0.00443079,-0.00069125,-0.00116083,-0.000
 09681,0.01534849,0.02283423,0.00713240,0.00070166,0.00093800,0.0000882
 0,-0.01851205,-0.00753922,-0.06662669,0.00271969,-0.00085010,-0.000522
 64,0.00209760,-0.00205519,-0.00063328,0.02416947,0.00559158,0.05980721
 ||0.00000223,0.00000016,-0.00000726,0.00000214,-0.00000029,0.00000552,
 -0.00000604,-0.00003361,-0.00001957,0.00004823,0.00001925,-0.00000271,
 -0.00004433,0.00002694,0.00002896,-0.00004074,0.00002719,0.00002779,-0
 .00000524,-0.00000117,0.00000215,0.00005611,0.00001516,0.00000297,-0.0
 0000006,-0.00000310,-0.00000375,-0.00001690,-0.00004957,-0.00002868,0.
 00000608,-0.00000219,-0.00000193,-0.00000434,-0.00000238,-0.00000258,0
 .00000409,0.00000624,0.00000123,0.00000233,-0.00000194,0.00000918,-0.0
 0000207,-0.00000295,-0.00000621,-0.00000209,-0.00000079,-0.00000113,-0
 .00000246,-0.00000480,-0.00000422,0.00000088,0.00000053,0.00000408,-0.
 00000438,-0.00000176,-0.00000025,0.00000460,-0.00000034,-0.00000157,0.
 00000589,0.00000336,0.00000332,-0.00000125,0.00000167,0.00000206,0.000
 00087,0.00000024,-0.00000250,-0.00000208,0.00000137,-0.00000086,-0.000
 01278,0.00001077,-0.00003021,-0.00001153,-0.00002520,0.00001311,0.0000
 2268,0.00002020,0.00002034,0.00002312,0.00001582,0.00000817,0.00000293
 ,0.00000158,0.00000013,-0.00000416,-0.00003050,0.00000859,-0.00000239,
 0.00000002,-0.00000327,-0.00001691,0.00001349,-0.00002110,-0.00000067,
 -0.00000323,0.00000097,-0.00000119,0.00000220,-0.00000269,-0.00000057,
 -0.00000236,0.00000196|||@


 DEPRESSION IS WAITING FOR YOUR SHIP TO COME IN,
 AND FINDING OUT IT'S THE TITANIC.
 Job cpu time:  0 days  0 hours  6 minutes 21.0 seconds.
 File lengths (MBytes):  RWF=    350 Int=      0 D2E=      0 Chk=      7 Scr=      1
 Normal termination of Gaussian 09 at Tue Sep 07 09:22:11 2021.
