 Entering Link 1 = b:\programy\g09w\l1.exe PID=     18964.
  
 Copyright (c) 1988,1990,1992,1993,1995,1998,2003,2009, Gaussian, Inc.
                  All Rights Reserved.
  
 This is part of the Gaussian(R) 09 program.  It is based on
 the Gaussian(R) 03 system (copyright 2003, Gaussian, Inc.),
 the Gaussian(R) 98 system (copyright 1998, Gaussian, Inc.),
 the Gaussian(R) 94 system (copyright 1995, Gaussian, Inc.),
 the Gaussian 92(TM) system (copyright 1992, Gaussian, Inc.),
 the Gaussian 90(TM) system (copyright 1990, Gaussian, Inc.),
 the Gaussian 88(TM) system (copyright 1988, Gaussian, Inc.),
 the Gaussian 86(TM) system (copyright 1986, Carnegie Mellon
 University), and the Gaussian 82(TM) system (copyright 1983,
 Carnegie Mellon University). Gaussian is a federally registered
 trademark of Gaussian, Inc.
  
 This software contains proprietary and confidential information,
 including trade secrets, belonging to Gaussian, Inc.
  
 This software is provided under written license and may be
 used, copied, transmitted, or stored only in accord with that
 written license.
  
 The following legend is applicable only to US Government
 contracts under FAR:
  
                    RESTRICTED RIGHTS LEGEND
  
 Use, reproduction and disclosure by the US Government is
 subject to restrictions as set forth in subparagraphs (a)
 and (c) of the Commercial Computer Software - Restricted
 Rights clause in FAR 52.227-19.
  
 Gaussian, Inc.
 340 Quinnipiac St., Bldg. 40, Wallingford CT 06492
  
  
 ---------------------------------------------------------------
 Warning -- This program may not be used in any manner that
 competes with the business of Gaussian, Inc. or will provide
 assistance to any competitor of Gaussian, Inc.  The licensee
 of this program is prohibited from giving any competitor of
 Gaussian, Inc. access to this program.  By using this program,
 the user acknowledges that Gaussian, Inc. is engaged in the
 business of creating and licensing software in the field of
 computational chemistry and represents and warrants to the
 licensee that it is not a competitor of Gaussian, Inc. and that
 it will not use this program in any manner prohibited above.
 ---------------------------------------------------------------
  

 Cite this work as:
 Gaussian 09, Revision A.02,
 M. J. Frisch, G. W. Trucks, H. B. Schlegel, G. E. Scuseria, 
 M. A. Robb, J. R. Cheeseman, G. Scalmani, V. Barone, B. Mennucci, 
 G. A. Petersson, H. Nakatsuji, M. Caricato, X. Li, H. P. Hratchian, 
 A. F. Izmaylov, J. Bloino, G. Zheng, J. L. Sonnenberg, M. Hada, 
 M. Ehara, K. Toyota, R. Fukuda, J. Hasegawa, M. Ishida, T. Nakajima, 
 Y. Honda, O. Kitao, H. Nakai, T. Vreven, J. A. Montgomery, Jr., 
 J. E. Peralta, F. Ogliaro, M. Bearpark, J. J. Heyd, E. Brothers, 
 K. N. Kudin, V. N. Staroverov, R. Kobayashi, J. Normand, 
 K. Raghavachari, A. Rendell, J. C. Burant, S. S. Iyengar, J. Tomasi, 
 M. Cossi, N. Rega, J. M. Millam, M. Klene, J. E. Knox, J. B. Cross, 
 V. Bakken, C. Adamo, J. Jaramillo, R. Gomperts, R. E. Stratmann, 
 O. Yazyev, A. J. Austin, R. Cammi, C. Pomelli, J. W. Ochterski, 
 R. L. Martin, K. Morokuma, V. G. Zakrzewski, G. A. Voth, 
 P. Salvador, J. J. Dannenberg, S. Dapprich, A. D. Daniels, 
 O. Farkas, J. B. Foresman, J. V. Ortiz, J. Cioslowski, 
 and D. J. Fox, Gaussian, Inc., Wallingford CT, 2009.
 
 ******************************************
 Gaussian 09:  IA32W-G09RevA.02 11-Jun-2009
                07-Sep-2021 
 ******************************************
 %nprocshared=12
 Will use up to   12 processors via shared memory.
 ----------------------------------------------
 # opt freq=noraman hf/6-311g geom=connectivity
 ----------------------------------------------
 1/18=20,19=15,38=1,57=2/1,3;
 2/9=110,12=2,17=6,18=5,40=1/2;
 3/5=4,6=6,11=9,16=1,25=1,30=1,71=1/1,2,3;
 4//1;
 5/5=2,38=5/2;
 6/7=2,8=2,9=2,10=2,28=1/1;
 7//1,2,3,16;
 1/18=20,19=15/3(2);
 2/9=110/2;
 99//99;
 2/9=110/2;
 3/5=4,6=6,11=9,16=1,25=1,30=1,71=1/1,2,3;
 4/5=5,16=3/1;
 5/5=2,38=5/2;
 7//1,2,3,16;
 1/18=20,19=15/3(-5);
 2/9=110/2;
 6/7=2,8=2,9=2,10=2,19=2,28=1/1;
 99/9=1/99;
 -----
 M0001
 -----
 Symbolic Z-matrix:
 Charge =  0 Multiplicity = 1
 C                    -0.19678  -0.70748   0.25154 
 H                    -0.51716  -1.73127   0.58381 
 C                    -1.4402    0.09231  -0.05478 
 C                    -1.36277   1.36258  -0.62947 
 C                    -2.69392  -0.44806   0.23836 
 C                    -2.51969   2.07789  -0.91315 
 H                    -0.37232   1.7954   -0.83759 
 C                    -3.85033   0.27089  -0.04407 
 H                    -2.77035  -1.44237   0.69381 
 C                    -3.76587   1.53252  -0.62213 
 H                    -2.44825   3.07247  -1.36508 
 H                    -4.82949  -0.15947   0.18986 
 H                    -4.67724   2.09601  -0.84598 
 C                     0.56765  -0.07986   1.3902 
 C                     1.09147   1.21185   1.29912 
 C                     0.74946  -0.80548   2.56963 
 C                     1.78558   1.76721   2.36689 
 H                     0.9337    1.78886   0.37428 
 C                     1.44433  -0.24764   3.63715 
 H                     0.3432   -1.82011   2.65737 
 C                     1.96417   1.03799   3.53791 
 H                     2.19042   2.78111   2.28501 
 H                     1.58109  -0.82377   4.55807 
 H                     2.51097   1.47584   4.37906 
 C                     0.62751  -0.94637  -0.98939 
 C                     2.01226  -0.78167  -1.0085 
 C                    -0.0164   -1.40663  -2.14299 
 C                     2.73955  -1.06675  -2.15975 
 H                     2.53293  -0.42435  -0.11093 
 C                     0.71119  -1.68935  -3.29135 
 H                    -1.10512  -1.53817  -2.13634 
 C                     2.09249  -1.52027  -3.30254 
 H                     3.82622  -0.93279  -2.16161 
 H                     0.19588  -2.04648  -4.18884 
 H                     2.66583  -1.74457  -4.20756 
 

 GradGradGradGradGradGradGradGradGradGradGradGradGradGradGradGradGradGrad
 Berny optimization.
 Initialization pass.
                           ----------------------------
                           !    Initial Parameters    !
                           ! (Angstroms and Degrees)  !
 --------------------------                            --------------------------
 ! Name  Definition              Value          Derivative Info.                !
 --------------------------------------------------------------------------------
 ! R1    R(1,2)                  1.123          estimate D2E/DX2                !
 ! R2    R(1,3)                  1.5098         estimate D2E/DX2                !
 ! R3    R(1,14)                 1.5082         estimate D2E/DX2                !
 ! R4    R(1,25)                 1.5088         estimate D2E/DX2                !
 ! R5    R(3,4)                  1.3964         estimate D2E/DX2                !
 ! R6    R(3,5)                  1.3963         estimate D2E/DX2                !
 ! R7    R(4,6)                  1.3895         estimate D2E/DX2                !
 ! R8    R(4,7)                  1.1007         estimate D2E/DX2                !
 ! R9    R(5,8)                  1.3907         estimate D2E/DX2                !
 ! R10   R(5,9)                  1.0963         estimate D2E/DX2                !
 ! R11   R(6,10)                 1.3911         estimate D2E/DX2                !
 ! R12   R(6,11)                 1.0948         estimate D2E/DX2                !
 ! R13   R(8,10)                 1.3903         estimate D2E/DX2                !
 ! R14   R(8,12)                 1.0948         estimate D2E/DX2                !
 ! R15   R(10,13)                1.0946         estimate D2E/DX2                !
 ! R16   R(14,15)                1.3969         estimate D2E/DX2                !
 ! R17   R(14,16)                1.3967         estimate D2E/DX2                !
 ! R18   R(15,17)                1.3894         estimate D2E/DX2                !
 ! R19   R(15,18)                1.1014         estimate D2E/DX2                !
 ! R20   R(16,19)                1.3905         estimate D2E/DX2                !
 ! R21   R(16,20)                1.0965         estimate D2E/DX2                !
 ! R22   R(17,21)                1.391          estimate D2E/DX2                !
 ! R23   R(17,22)                1.0948         estimate D2E/DX2                !
 ! R24   R(19,21)                1.3903         estimate D2E/DX2                !
 ! R25   R(19,23)                1.0949         estimate D2E/DX2                !
 ! R26   R(21,24)                1.0946         estimate D2E/DX2                !
 ! R27   R(25,26)                1.3946         estimate D2E/DX2                !
 ! R28   R(25,27)                1.399          estimate D2E/DX2                !
 ! R29   R(26,28)                1.3913         estimate D2E/DX2                !
 ! R30   R(26,29)                1.0975         estimate D2E/DX2                !
 ! R31   R(27,30)                1.3885         estimate D2E/DX2                !
 ! R32   R(27,31)                1.0967         estimate D2E/DX2                !
 ! R33   R(28,32)                1.3894         estimate D2E/DX2                !
 ! R34   R(28,33)                1.0949         estimate D2E/DX2                !
 ! R35   R(30,32)                1.3917         estimate D2E/DX2                !
 ! R36   R(30,34)                1.0948         estimate D2E/DX2                !
 ! R37   R(32,35)                1.0946         estimate D2E/DX2                !
 ! A1    A(2,1,3)              107.939          estimate D2E/DX2                !
 ! A2    A(2,1,14)             107.4922         estimate D2E/DX2                !
 ! A3    A(2,1,25)             104.7648         estimate D2E/DX2                !
 ! A4    A(3,1,14)             110.4957         estimate D2E/DX2                !
 ! A5    A(3,1,25)             111.527          estimate D2E/DX2                !
 ! A6    A(14,1,25)            114.1995         estimate D2E/DX2                !
 ! A7    A(1,3,4)              121.3134         estimate D2E/DX2                !
 ! A8    A(1,3,5)              119.4619         estimate D2E/DX2                !
 ! A9    A(4,3,5)              119.2245         estimate D2E/DX2                !
 ! A10   A(3,4,6)              120.4094         estimate D2E/DX2                !
 ! A11   A(3,4,7)              119.0391         estimate D2E/DX2                !
 ! A12   A(6,4,7)              120.5427         estimate D2E/DX2                !
 ! A13   A(3,5,8)              120.2596         estimate D2E/DX2                !
 ! A14   A(3,5,9)              120.0525         estimate D2E/DX2                !
 ! A15   A(8,5,9)              119.688          estimate D2E/DX2                !
 ! A16   A(4,6,10)             120.0905         estimate D2E/DX2                !
 ! A17   A(4,6,11)             119.8438         estimate D2E/DX2                !
 ! A18   A(10,6,11)            120.0657         estimate D2E/DX2                !
 ! A19   A(5,8,10)             120.2023         estimate D2E/DX2                !
 ! A20   A(5,8,12)             119.8068         estimate D2E/DX2                !
 ! A21   A(10,8,12)            119.9909         estimate D2E/DX2                !
 ! A22   A(6,10,8)             119.8127         estimate D2E/DX2                !
 ! A23   A(6,10,13)            120.0831         estimate D2E/DX2                !
 ! A24   A(8,10,13)            120.1041         estimate D2E/DX2                !
 ! A25   A(1,14,15)            121.7118         estimate D2E/DX2                !
 ! A26   A(1,14,16)            119.1647         estimate D2E/DX2                !
 ! A27   A(15,14,16)           119.1223         estimate D2E/DX2                !
 ! A28   A(14,15,17)           120.4558         estimate D2E/DX2                !
 ! A29   A(14,15,18)           119.0429         estimate D2E/DX2                !
 ! A30   A(17,15,18)           120.4954         estimate D2E/DX2                !
 ! A31   A(14,16,19)           120.3264         estimate D2E/DX2                !
 ! A32   A(14,16,20)           120.0069         estimate D2E/DX2                !
 ! A33   A(19,16,20)           119.6666         estimate D2E/DX2                !
 ! A34   A(15,17,21)           120.104          estimate D2E/DX2                !
 ! A35   A(15,17,22)           119.8314         estimate D2E/DX2                !
 ! A36   A(21,17,22)           120.0645         estimate D2E/DX2                !
 ! A37   A(16,19,21)           120.1995         estimate D2E/DX2                !
 ! A38   A(16,19,23)           119.8055         estimate D2E/DX2                !
 ! A39   A(21,19,23)           119.995          estimate D2E/DX2                !
 ! A40   A(17,21,19)           119.7918         estimate D2E/DX2                !
 ! A41   A(17,21,24)           120.0884         estimate D2E/DX2                !
 ! A42   A(19,21,24)           120.1197         estimate D2E/DX2                !
 ! A43   A(1,25,26)            122.3454         estimate D2E/DX2                !
 ! A44   A(1,25,27)            118.6089         estimate D2E/DX2                !
 ! A45   A(26,25,27)           118.983          estimate D2E/DX2                !
 ! A46   A(25,26,28)           120.4102         estimate D2E/DX2                !
 ! A47   A(25,26,29)           119.889          estimate D2E/DX2                !
 ! A48   A(28,26,29)           119.7008         estimate D2E/DX2                !
 ! A49   A(25,27,30)           120.5146         estimate D2E/DX2                !
 ! A50   A(25,27,31)           119.432          estimate D2E/DX2                !
 ! A51   A(30,27,31)           120.0525         estimate D2E/DX2                !
 ! A52   A(26,28,32)           120.2685         estimate D2E/DX2                !
 ! A53   A(26,28,33)           119.6802         estimate D2E/DX2                !
 ! A54   A(32,28,33)           120.0513         estimate D2E/DX2                !
 ! A55   A(27,30,32)           120.1332         estimate D2E/DX2                !
 ! A56   A(27,30,34)           119.8521         estimate D2E/DX2                !
 ! A57   A(32,30,34)           120.0147         estimate D2E/DX2                !
 ! A58   A(28,32,30)           119.6899         estimate D2E/DX2                !
 ! A59   A(28,32,35)           120.2004         estimate D2E/DX2                !
 ! A60   A(30,32,35)           120.1097         estimate D2E/DX2                !
 ! D1    D(2,1,3,4)           -173.0434         estimate D2E/DX2                !
 ! D2    D(2,1,3,5)              6.7932         estimate D2E/DX2                !
 ! D3    D(14,1,3,4)            69.6791         estimate D2E/DX2                !
 ! D4    D(14,1,3,5)          -110.4843         estimate D2E/DX2                !
 ! D5    D(25,1,3,4)           -58.4822         estimate D2E/DX2                !
 ! D6    D(25,1,3,5)           121.3543         estimate D2E/DX2                !
 ! D7    D(2,1,14,15)         -179.2103         estimate D2E/DX2                !
 ! D8    D(2,1,14,16)            0.377          estimate D2E/DX2                !
 ! D9    D(3,1,14,15)          -61.6577         estimate D2E/DX2                !
 ! D10   D(3,1,14,16)          117.9296         estimate D2E/DX2                !
 ! D11   D(25,1,14,15)          65.031          estimate D2E/DX2                !
 ! D12   D(25,1,14,16)        -115.3817         estimate D2E/DX2                !
 ! D13   D(2,1,25,26)         -108.4554         estimate D2E/DX2                !
 ! D14   D(2,1,25,27)           68.6345         estimate D2E/DX2                !
 ! D15   D(3,1,25,26)          135.0338         estimate D2E/DX2                !
 ! D16   D(3,1,25,27)          -47.8763         estimate D2E/DX2                !
 ! D17   D(14,1,25,26)           8.882          estimate D2E/DX2                !
 ! D18   D(14,1,25,27)        -174.0281         estimate D2E/DX2                !
 ! D19   D(1,3,4,6)            179.4926         estimate D2E/DX2                !
 ! D20   D(1,3,4,7)             -1.5806         estimate D2E/DX2                !
 ! D21   D(5,3,4,6)             -0.3443         estimate D2E/DX2                !
 ! D22   D(5,3,4,7)            178.5825         estimate D2E/DX2                !
 ! D23   D(1,3,5,8)           -179.6227         estimate D2E/DX2                !
 ! D24   D(1,3,5,9)              0.4336         estimate D2E/DX2                !
 ! D25   D(4,3,5,8)              0.2173         estimate D2E/DX2                !
 ! D26   D(4,3,5,9)           -179.7264         estimate D2E/DX2                !
 ! D27   D(3,4,6,10)             0.1701         estimate D2E/DX2                !
 ! D28   D(3,4,6,11)          -179.9116         estimate D2E/DX2                !
 ! D29   D(7,4,6,10)          -178.7405         estimate D2E/DX2                !
 ! D30   D(7,4,6,11)             1.1778         estimate D2E/DX2                !
 ! D31   D(3,5,8,10)             0.084          estimate D2E/DX2                !
 ! D32   D(3,5,8,12)          -179.9332         estimate D2E/DX2                !
 ! D33   D(9,5,8,10)          -179.9721         estimate D2E/DX2                !
 ! D34   D(9,5,8,12)             0.0108         estimate D2E/DX2                !
 ! D35   D(4,6,10,8)             0.1342         estimate D2E/DX2                !
 ! D36   D(4,6,10,13)         -179.9789         estimate D2E/DX2                !
 ! D37   D(11,6,10,8)         -179.784          estimate D2E/DX2                !
 ! D38   D(11,6,10,13)           0.103          estimate D2E/DX2                !
 ! D39   D(5,8,10,6)            -0.2608         estimate D2E/DX2                !
 ! D40   D(5,8,10,13)          179.8522         estimate D2E/DX2                !
 ! D41   D(12,8,10,6)          179.7563         estimate D2E/DX2                !
 ! D42   D(12,8,10,13)          -0.1306         estimate D2E/DX2                !
 ! D43   D(1,14,15,17)         179.663          estimate D2E/DX2                !
 ! D44   D(1,14,15,18)           0.5388         estimate D2E/DX2                !
 ! D45   D(16,14,15,17)          0.0755         estimate D2E/DX2                !
 ! D46   D(16,14,15,18)       -179.0487         estimate D2E/DX2                !
 ! D47   D(1,14,16,19)        -179.6646         estimate D2E/DX2                !
 ! D48   D(1,14,16,20)           0.3176         estimate D2E/DX2                !
 ! D49   D(15,14,16,19)         -0.0665         estimate D2E/DX2                !
 ! D50   D(15,14,16,20)        179.9157         estimate D2E/DX2                !
 ! D51   D(14,15,17,21)          0.0011         estimate D2E/DX2                !
 ! D52   D(14,15,17,22)       -179.901          estimate D2E/DX2                !
 ! D53   D(18,15,17,21)        179.1126         estimate D2E/DX2                !
 ! D54   D(18,15,17,22)         -0.7896         estimate D2E/DX2                !
 ! D55   D(14,16,19,21)         -0.0191         estimate D2E/DX2                !
 ! D56   D(14,16,19,23)        179.9472         estimate D2E/DX2                !
 ! D57   D(20,16,19,21)        179.9987         estimate D2E/DX2                !
 ! D58   D(20,16,19,23)         -0.0351         estimate D2E/DX2                !
 ! D59   D(15,17,21,19)         -0.0874         estimate D2E/DX2                !
 ! D60   D(15,17,21,24)       -179.9924         estimate D2E/DX2                !
 ! D61   D(22,17,21,19)        179.8145         estimate D2E/DX2                !
 ! D62   D(22,17,21,24)         -0.0904         estimate D2E/DX2                !
 ! D63   D(16,19,21,17)          0.0964         estimate D2E/DX2                !
 ! D64   D(16,19,21,24)       -179.9987         estimate D2E/DX2                !
 ! D65   D(23,19,21,17)       -179.8698         estimate D2E/DX2                !
 ! D66   D(23,19,21,24)          0.0351         estimate D2E/DX2                !
 ! D67   D(1,25,26,28)         177.3072         estimate D2E/DX2                !
 ! D68   D(1,25,26,29)          -2.7383         estimate D2E/DX2                !
 ! D69   D(27,25,26,28)          0.2278         estimate D2E/DX2                !
 ! D70   D(27,25,26,29)       -179.8177         estimate D2E/DX2                !
 ! D71   D(1,25,27,30)        -177.4797         estimate D2E/DX2                !
 ! D72   D(1,25,27,31)           2.8507         estimate D2E/DX2                !
 ! D73   D(26,25,27,30)         -0.2902         estimate D2E/DX2                !
 ! D74   D(26,25,27,31)       -179.9598         estimate D2E/DX2                !
 ! D75   D(25,26,28,32)         -0.07           estimate D2E/DX2                !
 ! D76   D(25,26,28,33)        179.9755         estimate D2E/DX2                !
 ! D77   D(29,26,28,32)        179.9755         estimate D2E/DX2                !
 ! D78   D(29,26,28,33)          0.021          estimate D2E/DX2                !
 ! D79   D(25,27,30,32)          0.1941         estimate D2E/DX2                !
 ! D80   D(25,27,30,34)       -179.8419         estimate D2E/DX2                !
 ! D81   D(31,27,30,32)        179.8617         estimate D2E/DX2                !
 ! D82   D(31,27,30,34)         -0.1743         estimate D2E/DX2                !
 ! D83   D(26,28,32,30)         -0.0299         estimate D2E/DX2                !
 ! D84   D(26,28,32,35)       -179.9775         estimate D2E/DX2                !
 ! D85   D(33,28,32,30)        179.9245         estimate D2E/DX2                !
 ! D86   D(33,28,32,35)         -0.0232         estimate D2E/DX2                !
 ! D87   D(27,30,32,28)         -0.0321         estimate D2E/DX2                !
 ! D88   D(27,30,32,35)        179.9157         estimate D2E/DX2                !
 ! D89   D(34,30,32,28)       -179.9961         estimate D2E/DX2                !
 ! D90   D(34,30,32,35)         -0.0483         estimate D2E/DX2                !
 --------------------------------------------------------------------------------
 Trust Radius=3.00D-01 FncErr=1.00D-07 GrdErr=1.00D-07
 Number of steps in this run= 197 maximum allowed number of steps= 210.
 GradGradGradGradGradGradGradGradGradGradGradGradGradGradGradGradGradGrad

                          Input orientation:                          
 ---------------------------------------------------------------------
 Center     Atomic      Atomic             Coordinates (Angstroms)
 Number     Number       Type             X           Y           Z
 ---------------------------------------------------------------------
      1          6           0       -0.196785   -0.707480    0.251538
      2          1           0       -0.517156   -1.731269    0.583805
      3          6           0       -1.440196    0.092310   -0.054775
      4          6           0       -1.362767    1.362581   -0.629474
      5          6           0       -2.693920   -0.448063    0.238359
      6          6           0       -2.519694    2.077894   -0.913150
      7          1           0       -0.372319    1.795402   -0.837593
      8          6           0       -3.850334    0.270892   -0.044074
      9          1           0       -2.770352   -1.442374    0.693810
     10          6           0       -3.765872    1.532521   -0.622131
     11          1           0       -2.448252    3.072465   -1.365084
     12          1           0       -4.829491   -0.159466    0.189863
     13          1           0       -4.677237    2.096010   -0.845981
     14          6           0        0.567650   -0.079860    1.390195
     15          6           0        1.091470    1.211849    1.299124
     16          6           0        0.749460   -0.805478    2.569634
     17          6           0        1.785580    1.767206    2.366886
     18          1           0        0.933701    1.788855    0.374279
     19          6           0        1.444327   -0.247641    3.637146
     20          1           0        0.343200   -1.820112    2.657366
     21          6           0        1.964167    1.037987    3.537910
     22          1           0        2.190420    2.781105    2.285012
     23          1           0        1.581091   -0.823766    4.558068
     24          1           0        2.510974    1.475837    4.379063
     25          6           0        0.627508   -0.946375   -0.989391
     26          6           0        2.012256   -0.781670   -1.008497
     27          6           0       -0.016401   -1.406625   -2.142989
     28          6           0        2.739552   -1.066752   -2.159755
     29          1           0        2.532933   -0.424347   -0.110928
     30          6           0        0.711189   -1.689349   -3.291346
     31          1           0       -1.105115   -1.538171   -2.136341
     32          6           0        2.092487   -1.520270   -3.302540
     33          1           0        3.826218   -0.932793   -2.161606
     34          1           0        0.195883   -2.046484   -4.188842
     35          1           0        2.665826   -1.744570   -4.207562
 ---------------------------------------------------------------------
                    Distance matrix (angstroms):
                    1          2          3          4          5
     1  C    0.000000
     2  H    1.123024   0.000000
     3  C    1.509823   2.141315   0.000000
     4  C    2.533940   3.429142   1.396375   0.000000
     5  C    2.510608   2.550343   1.396336   2.409053   0.000000
     6  C    3.809293   4.556397   2.417574   1.389469   2.781509
     7  H    2.735221   3.805096   2.157240   1.100743   3.403033
     8  C    3.793813   3.938648   2.416768   2.778933   1.390668
     9  H    2.712734   2.274303   2.164475   3.405900   1.096326
    10  C    4.303404   4.760332   2.793719   2.409117   2.410858
    11  H    4.687276   5.532012   3.407992   2.154786   3.876274
    12  H    4.665415   4.606733   3.407427   3.873773   2.155530
    13  H    5.398014   5.830834   3.888348   3.401544   3.403183
    14  C    1.508247   2.134062   2.479724   3.144235   3.478525
    15  C    2.537885   3.429475   3.081517   3.124979   4.267283
    16  C    2.505704   2.530794   3.533856   4.404120   4.173661
    17  C    3.811632   4.552065   4.367534   4.365087   5.431755
    18  H    2.743128   3.813156   2.949193   2.542242   4.264025
    19  C    3.790388   3.920645   4.697480   5.355057   5.358825
    20  H    2.705096   2.246723   3.767436   4.882948   4.118034
    21  C    4.303093   4.748945   5.038986   5.342372   5.898572
    22  H    4.690841   5.530515   5.087789   4.809530   6.202668
    23  H    4.660533   4.584863   5.589785   6.352717   6.089068
    24  H    5.397712   5.818855   6.097935   6.332783   6.923708
    25  C    1.508785   2.097918   2.495551   3.069530   3.575970
    26  C    2.544219   3.136094   3.686849   4.016498   4.879962
    27  C    2.501020   2.791336   2.938476   3.431025   3.709281
    28  C    3.816475   4.309855   4.821271   5.007239   5.971293
    29  H    2.768195   3.390242   4.006974   4.317231   5.238564
    30  C    3.786886   4.065388   4.275296   4.549850   5.059088
    31  H    2.686462   2.789655   2.665270   3.278933   3.058077
    32  C    4.304981   4.685983   5.062434   5.234013   6.049568
    33  H    4.696656   5.199975   5.764087   5.877222   6.964696
    34  H    4.654470   4.835902   4.933731   5.169160   5.523225
    35  H    5.399413   5.752282   6.122025   6.219861   7.083362
                    6          7          8          9         10
     6  C    0.000000
     7  H    2.167194   0.000000
     8  C    2.406482   3.879483   0.000000
     9  H    3.877814   4.310331   2.155484   0.000000
    10  C    1.391073   3.410532   1.390321   3.401876   0.000000
    11  H    1.094769   2.493719   3.399958   4.972582   2.158594
    12  H    3.399645   4.974290   1.094844   2.477876   2.157183
    13  H    2.158665   4.315409   2.158213   4.304339   1.094631
    14  C    4.415087   3.059933   4.658190   3.672010   5.042682
    15  C    4.322580   2.654953   5.206823   4.724932   5.233338
    16  C    5.579515   4.430819   5.398902   4.038988   6.003484
    17  C    5.421305   3.863420   6.309929   5.818686   6.309352
    18  H    3.696884   1.781675   5.036489   4.925744   4.810876
    19  C    6.467362   5.243807   6.469442   5.277701   6.961076
    20  H    6.011589   5.079236   5.408863   3.700331   6.235360
    21  C    6.402995   5.017755   6.872224   6.054483   7.098158
    22  H    5.736542   4.158113   6.943812   6.706636   6.744469
    23  H    7.427671   6.307853   7.202663   5.852369   7.808749
    24  H    7.326500   5.969003   7.841063   7.070321   8.025830
    25  C    4.365420   2.922333   4.735655   3.824217   5.057824
    26  C    5.359549   3.515210   6.033901   5.119348   6.236306
    27  C    4.463278   3.476164   4.681725   3.953854   5.001012
    28  C    6.253198   4.429873   7.049254   6.216347   7.172241
    29  H    5.695069   3.727709   6.421364   5.459745   6.615558
    30  C    5.503321   4.397542   5.932521   5.297509   6.127742
    31  H    4.071015   3.651910   3.896988   3.285110   4.336082
    32  C    6.318875   4.810915   7.010205   6.294767   7.129130
    33  H    7.133966   5.179167   8.053710   7.206096   8.129427
    34  H    5.925792   5.129698   6.238686   5.744893   6.420764
    35  H    7.235606   5.754860   7.991061   7.325763   8.059862
                   11         12         13         14         15
    11  H    0.000000
    12  H    4.305060   0.000000
    13  H    2.488234   2.486629   0.000000
    14  C    5.159882   5.529582   6.102765   0.000000
    15  C    4.805157   6.178086   6.217814   1.396851   0.000000
    16  C    6.383244   6.099618   7.038046   1.396657   2.408479
    17  C    5.792809   7.225695   7.224862   2.418456   1.389362
    18  H    4.013806   6.086407   5.750305   2.158280   1.101439
    19  C    7.155248   7.159073   7.941327   2.417746   2.778662
    20  H    6.921677   5.966830   7.267341   2.164388   3.405512
    21  C    6.902745   7.667927   8.027836   2.795088   2.409147
    22  H    5.909769   7.894034   7.578733   3.408695   2.154584
    23  H    8.154750   7.785761   8.769009   3.408207   3.873522
    24  H    7.754893   8.608486   8.908203   3.889733   3.401573
    25  C    5.074694   5.638147   6.116943   2.533153   3.179700
    26  C    5.905730   6.973715   7.284008   2.886719   3.185448
    27  C    5.155705   5.492125   5.972778   3.819007   4.464519
    28  C    6.684155   7.977110   8.169322   4.277062   4.457807
    29  H    6.213920   7.373325   7.673269   2.496874   2.596767
    30  C    6.030541   6.720007   7.024521   4.952564   5.443710
    31  H    4.863828   4.602503   5.256649   4.166687   4.918335
    32  C    6.742793   7.871623   8.058618   5.140202   5.444430
    33  H    7.486356   9.002708   9.122131   4.895003   4.904588
    34  H    6.416284   6.927357   7.216805   5.927182   6.444888
    35  H    7.578741   8.833441   8.942643   6.205521   6.445355
                   16         17         18         19         20
    16  C    0.000000
    17  C    2.780891   0.000000
    18  H    3.403541   2.167176   0.000000
    19  C    1.390541   2.406163   3.879994   0.000000
    20  H    1.096460   3.877330   4.311127   2.155252   0.000000
    21  C    2.410692   1.391025   3.410898   1.390295   3.401708
    22  H    3.875688   1.094802   2.492951   3.399739   4.972129
    23  H    2.155416   3.399446   4.974837   1.094862   2.477447
    24  H    3.403140   2.158691   4.315561   2.158368   4.304272
    25  C    3.563900   4.468697   3.071617   4.749765   3.760729
    26  C    3.794501   4.235725   3.111744   4.710597   4.159647
    27  C    4.812145   5.801666   4.177371   6.073461   4.831532
    28  C    5.137689   5.425114   4.223377   5.996049   5.432744
    29  H    3.242136   3.391313   2.773307   3.906961   3.795595
    30  C    5.927375   6.716970   5.058084   7.114774   5.961517
    31  H    5.111016   6.289730   4.639945   6.441915   5.015649
    32  C    6.066059   6.560799   5.080560   7.085121   6.218552
    33  H    5.645111   5.653445   4.712190   6.306216   6.011758
    34  H    6.893732   7.749125   6.006352   8.126533   6.851534
    35  H    7.105261   7.505383   6.039753   8.079127   7.247588
                   21         22         23         24         25
    21  C    0.000000
    22  H    2.158566   0.000000
    23  H    2.157219   4.305017   0.000000
    24  H    1.094645   2.488279   2.486946   0.000000
    25  C    5.120625   5.201780   5.630156   6.183433   0.000000
    26  C    4.897273   4.855133   5.583397   5.862667   1.394640
    27  C    6.493951   6.481847   6.913456   7.565274   1.399014
    28  C    6.123278   5.904532   6.821306   7.019483   2.417638
    29  H    3.971893   4.016562   4.781743   4.875572   2.162141
    30  C    7.459695   7.298551   7.944763   8.490748   2.420333
    31  H    6.946525   7.004646   7.248530   8.038086   2.160486
    32  C    7.304307   7.052103   7.907958   8.255835   2.797531
    33  H    6.311552   6.020073   7.085655   7.093075   3.406761
    34  H    8.505497   8.318328   8.939926   9.548580   3.410722
    35  H    8.259981   7.928510   8.880361   9.171975   3.892105
                   26         27         28         29         30
    26  C    0.000000
    27  C    2.406884   0.000000
    28  C    1.391268   2.776881   0.000000
    29  H    1.097458   3.404886   2.157097   0.000000
    30  C    2.779938   1.388540   2.404658   3.877375   0.000000
    31  H    3.400342   1.096652   3.873531   4.310255   2.157742
    32  C    2.411348   2.409332   1.389363   3.403150   1.391652
    33  H    2.154752   3.871768   1.094894   2.477172   3.398838
    34  H    3.874733   2.154065   3.398134   4.972174   1.094799
    35  H    3.404166   3.401619   2.158330   4.306165   2.159423
                   31         32         33         34         35
    31  H    0.000000
    32  C    3.403674   0.000000
    33  H    4.968417   2.157009   0.000000
    34  H    2.482688   2.158596   4.304571   0.000000
    35  H    4.307267   1.094574   2.488258   2.488397   0.000000
 Stoichiometry    C19H16
 Framework group  C1[X(C19H16)]
 Deg. of freedom    99
 Full point group                 C1      NOp   1
 Largest Abelian subgroup         C1      NOp   1
 Largest concise Abelian subgroup C1      NOp   1
                         Standard orientation:                         
 ---------------------------------------------------------------------
 Center     Atomic      Atomic             Coordinates (Angstroms)
 Number     Number       Type             X           Y           Z
 ---------------------------------------------------------------------
      1          6           0        0.010411    0.012880   -0.761663
      2          1           0       -0.017713    0.017437   -1.884325
      3          6           0       -0.761184   -1.193013   -0.282048
      4          6           0       -1.026037   -1.392699    1.074359
      5          6           0       -1.223179   -2.126977   -1.211578
      6          6           0       -1.747034   -2.503851    1.494034
      7          1           0       -0.640233   -0.666997    1.806579
      8          6           0       -1.942329   -3.239671   -0.788856
      9          1           0       -1.019082   -1.985954   -2.279468
     10          6           0       -2.207750   -3.428781    0.562728
     11          1           0       -1.950618   -2.650528    2.559660
     12          1           0       -2.300108   -3.967886   -1.523961
     13          1           0       -2.776041   -4.303929    0.893452
     14          6           0        1.456566   -0.085457   -0.344801
     15          6           0        1.831645   -0.130312    1.000002
     16          6           0        2.446206   -0.141698   -1.328722
     17          6           0        3.171452   -0.227982    1.354547
     18          1           0        1.049123   -0.101824    1.774608
     19          6           0        3.786545   -0.239626   -0.971641
     20          1           0        2.167989   -0.108971   -2.388792
     21          6           0        4.151781   -0.281921    0.369155
     22          1           0        3.453831   -0.264024    2.411691
     23          1           0        4.555257   -0.284007   -1.749995
     24          1           0        5.207300   -0.358998    0.648779
     25          6           0       -0.664375    1.299595   -0.354894
     26          6           0        0.042181    2.375094    0.182787
     27          6           0       -2.038031    1.436502   -0.581971
     28          6           0       -0.611980    3.563328    0.492301
     29          1           0        1.120785    2.284977    0.364191
     30          6           0       -2.689231    2.622832   -0.271163
     31          1           0       -2.600962    0.595232   -1.003895
     32          6           0       -1.977047    3.690475    0.267009
     33          1           0       -0.045648    4.399966    0.914318
     34          1           0       -3.765035    2.717238   -0.450936
     35          1           0       -2.490513    4.625950    0.510589
 ---------------------------------------------------------------------
 Rotational constants (GHZ):      0.4038631      0.3823061      0.2325935
 Standard basis: 6-311G (5D, 7F)
 There are   295 symmetry adapted basis functions of A   symmetry.
 Integral buffers will be    262144 words long.
 Raffenetti 1 integral format.
 Two-electron integral symmetry is turned on.
   295 basis functions,   574 primitive gaussians,   295 cartesian basis functions
    65 alpha electrons       65 beta electrons
       nuclear repulsion energy      1290.7524159025 Hartrees.
 NAtoms=   35 NActive=   35 NUniq=   35 SFac= 7.50D-01 NAtFMM=   80 NAOKFM=F Big=F
 One-electron integrals computed using PRISM.
 PrsmSu:  requested number of processors reduced to:  10 ShMem   1 Linda.
 NBasis=   295 RedAO= T  NBF=   295
 NBsUse=   295 1.00D-06 NBFU=   295
 Harris functional with IExCor=  205 diagonalized for initial guess.
 ExpMin= 1.03D-01 ExpMax= 4.56D+03 ExpMxC= 6.82D+02 IAcc=1 IRadAn=         1 AccDes= 0.00D+00
 HarFok:  IExCor=  205 AccDes= 0.00D+00 IRadAn=         1 IDoV= 1
 ScaDFX=  1.000000  1.000000  1.000000  1.000000
 FoFCou: FMM=F IPFlag=           0 FMFlag=      100000 FMFlg1=           0
         NFxFlg=           0 DoJE=T BraDBF=F KetDBF=T FulRan=T
         Omega=  0.000000  0.000000  1.000000  0.000000  0.000000 ICntrl=     500 IOpCl=  0
         NMat0=    1 NMatS0=    1 NMatT0=    0 NMatD0=    1 NMtDS0=    0 NMtDT0=    0
         I1Cent=           4 NGrid=           0.
 Petite list used in FoFCou.
 Initial guess orbital symmetries:
       Occupied  (A) (A) (A) (A) (A) (A) (A) (A) (A) (A) (A) (A)
                 (A) (A) (A) (A) (A) (A) (A) (A) (A) (A) (A) (A)
                 (A) (A) (A) (A) (A) (A) (A) (A) (A) (A) (A) (A)
                 (A) (A) (A) (A) (A) (A) (A) (A) (A) (A) (A) (A)
                 (A) (A) (A) (A) (A) (A) (A) (A) (A) (A) (A) (A)
                 (A) (A) (A) (A) (A)
       Virtual   (A) (A) (A) (A) (A) (A) (A) (A) (A) (A) (A) (A)
                 (A) (A) (A) (A) (A) (A) (A) (A) (A) (A) (A) (A)
                 (A) (A) (A) (A) (A) (A) (A) (A) (A) (A) (A) (A)
                 (A) (A) (A) (A) (A) (A) (A) (A) (A) (A) (A) (A)
                 (A) (A) (A) (A) (A) (A) (A) (A) (A) (A) (A) (A)
                 (A) (A) (A) (A) (A) (A) (A) (A) (A) (A) (A) (A)
                 (A) (A) (A) (A) (A) (A) (A) (A) (A) (A) (A) (A)
                 (A) (A) (A) (A) (A) (A) (A) (A) (A) (A) (A) (A)
                 (A) (A) (A) (A) (A) (A) (A) (A) (A) (A) (A) (A)
                 (A) (A) (A) (A) (A) (A) (A) (A) (A) (A) (A) (A)
                 (A) (A) (A) (A) (A) (A) (A) (A) (A) (A) (A) (A)
                 (A) (A) (A) (A) (A) (A) (A) (A) (A) (A) (A) (A)
                 (A) (A) (A) (A) (A) (A) (A) (A) (A) (A) (A) (A)
                 (A) (A) (A) (A) (A) (A) (A) (A) (A) (A) (A) (A)
                 (A) (A) (A) (A) (A) (A) (A) (A) (A) (A) (A) (A)
                 (A) (A) (A) (A) (A) (A) (A) (A) (A) (A) (A) (A)
                 (A) (A) (A) (A) (A) (A) (A) (A) (A) (A) (A) (A)
                 (A) (A) (A) (A) (A) (A) (A) (A) (A) (A) (A) (A)
                 (A) (A) (A) (A) (A) (A) (A) (A) (A) (A) (A) (A)
                 (A) (A)
 The electronic state of the initial guess is 1-A.
 Requested convergence on RMS density matrix=1.00D-08 within 128 cycles.
 Requested convergence on MAX density matrix=1.00D-06.
 Requested convergence on             energy=1.00D-06.
 No special actions if energy rises.
 Integral accuracy reduced to 1.0D-05 until final iterations.
 Initial convergence to 1.0D-05 achieved.  Increase integral accuracy.
 SCF Done:  E(RHF) =  -728.672436633     A.U. after   14 cycles
             Convg  =    0.8773D-08             -V/T =  2.0001

 **********************************************************************

            Population analysis using the SCF density.

 **********************************************************************

 Orbital symmetries:
       Occupied  (A) (A) (A) (A) (A) (A) (A) (A) (A) (A) (A) (A)
                 (A) (A) (A) (A) (A) (A) (A) (A) (A) (A) (A) (A)
                 (A) (A) (A) (A) (A) (A) (A) (A) (A) (A) (A) (A)
                 (A) (A) (A) (A) (A) (A) (A) (A) (A) (A) (A) (A)
                 (A) (A) (A) (A) (A) (A) (A) (A) (A) (A) (A) (A)
                 (A) (A) (A) (A) (A)
       Virtual   (A) (A) (A) (A) (A) (A) (A) (A) (A) (A) (A) (A)
                 (A) (A) (A) (A) (A) (A) (A) (A) (A) (A) (A) (A)
                 (A) (A) (A) (A) (A) (A) (A) (A) (A) (A) (A) (A)
                 (A) (A) (A) (A) (A) (A) (A) (A) (A) (A) (A) (A)
                 (A) (A) (A) (A) (A) (A) (A) (A) (A) (A) (A) (A)
                 (A) (A) (A) (A) (A) (A) (A) (A) (A) (A) (A) (A)
                 (A) (A) (A) (A) (A) (A) (A) (A) (A) (A) (A) (A)
                 (A) (A) (A) (A) (A) (A) (A) (A) (A) (A) (A) (A)
                 (A) (A) (A) (A) (A) (A) (A) (A) (A) (A) (A) (A)
                 (A) (A) (A) (A) (A) (A) (A) (A) (A) (A) (A) (A)
                 (A) (A) (A) (A) (A) (A) (A) (A) (A) (A) (A) (A)
                 (A) (A) (A) (A) (A) (A) (A) (A) (A) (A) (A) (A)
                 (A) (A) (A) (A) (A) (A) (A) (A) (A) (A) (A) (A)
                 (A) (A) (A) (A) (A) (A) (A) (A) (A) (A) (A) (A)
                 (A) (A) (A) (A) (A) (A) (A) (A) (A) (A) (A) (A)
                 (A) (A) (A) (A) (A) (A) (A) (A) (A) (A) (A) (A)
                 (A) (A) (A) (A) (A) (A) (A) (A) (A) (A) (A) (A)
                 (A) (A) (A) (A) (A) (A) (A) (A) (A) (A) (A) (A)
                 (A) (A) (A) (A) (A) (A) (A) (A) (A) (A) (A) (A)
                 (A) (A)
 The electronic state is 1-A.
 Alpha  occ. eigenvalues --  -11.25759 -11.25227 -11.25184 -11.24916 -11.24519
 Alpha  occ. eigenvalues --  -11.24433 -11.24423 -11.24374 -11.24219 -11.24165
 Alpha  occ. eigenvalues --  -11.24138 -11.24124 -11.24077 -11.24037 -11.24030
 Alpha  occ. eigenvalues --  -11.23969 -11.23732 -11.23628 -11.23504  -1.18617
 Alpha  occ. eigenvalues --   -1.15874  -1.15569  -1.09028  -1.02376  -1.02241
 Alpha  occ. eigenvalues --   -1.01877  -1.01485  -1.01084  -0.92919  -0.84279
 Alpha  occ. eigenvalues --   -0.83365  -0.82325  -0.81923  -0.81127  -0.77584
 Alpha  occ. eigenvalues --   -0.70871  -0.70366  -0.68984  -0.65678  -0.63902
 Alpha  occ. eigenvalues --   -0.63615  -0.62516  -0.61700  -0.61575  -0.59724
 Alpha  occ. eigenvalues --   -0.58846  -0.58494  -0.58315  -0.56752  -0.55099
 Alpha  occ. eigenvalues --   -0.51723  -0.50911  -0.50219  -0.49865  -0.49378
 Alpha  occ. eigenvalues --   -0.48418  -0.47959  -0.47502  -0.46314  -0.35026
 Alpha  occ. eigenvalues --   -0.34320  -0.33968  -0.33324  -0.32519  -0.31471
 Alpha virt. eigenvalues --    0.11545   0.12295   0.12729   0.13494   0.14998
 Alpha virt. eigenvalues --    0.15134   0.15656   0.16238   0.16486   0.16915
 Alpha virt. eigenvalues --    0.18905   0.19187   0.19234   0.21233   0.21293
 Alpha virt. eigenvalues --    0.21594   0.23560   0.24015   0.24930   0.25400
 Alpha virt. eigenvalues --    0.26779   0.31531   0.33139   0.34234   0.35774
 Alpha virt. eigenvalues --    0.37592   0.39775   0.40567   0.41492   0.43089
 Alpha virt. eigenvalues --    0.44093   0.44428   0.44943   0.45439   0.45606
 Alpha virt. eigenvalues --    0.45870   0.46751   0.47241   0.47933   0.50605
 Alpha virt. eigenvalues --    0.51050   0.51416   0.52227   0.54970   0.56092
 Alpha virt. eigenvalues --    0.57309   0.57833   0.58514   0.58867   0.59347
 Alpha virt. eigenvalues --    0.60244   0.60458   0.60631   0.61135   0.61473
 Alpha virt. eigenvalues --    0.62040   0.62199   0.62958   0.63357   0.63665
 Alpha virt. eigenvalues --    0.64252   0.64582   0.65221   0.65937   0.66392
 Alpha virt. eigenvalues --    0.67239   0.67825   0.68584   0.69838   0.72357
 Alpha virt. eigenvalues --    0.73110   0.73901   0.74510   0.75327   0.75743
 Alpha virt. eigenvalues --    0.76801   0.78852   0.79412   0.79954   0.81250
 Alpha virt. eigenvalues --    0.81505   0.82223   0.82495   0.82899   0.83321
 Alpha virt. eigenvalues --    0.83836   0.84371   0.84854   0.84990   0.85475
 Alpha virt. eigenvalues --    0.85921   0.86198   0.86502   0.87772   0.88138
 Alpha virt. eigenvalues --    0.90200   0.90870   0.92134   0.93505   0.95062
 Alpha virt. eigenvalues --    0.95917   0.96339   0.97018   0.98240   0.99739
 Alpha virt. eigenvalues --    1.00084   1.02345   1.03053   1.04852   1.06223
 Alpha virt. eigenvalues --    1.07132   1.08110   1.09372   1.10103   1.10930
 Alpha virt. eigenvalues --    1.11538   1.11721   1.12401   1.12792   1.13800
 Alpha virt. eigenvalues --    1.15007   1.16491   1.19806   1.20546   1.21232
 Alpha virt. eigenvalues --    1.23713   1.25628   1.27374   1.28010   1.29106
 Alpha virt. eigenvalues --    1.29458   1.31940   1.32791   1.46905   1.47778
 Alpha virt. eigenvalues --    1.51958   1.54225   1.56884   2.53517   2.55708
 Alpha virt. eigenvalues --    2.56036   2.57752   2.62081   2.62354   2.63881
 Alpha virt. eigenvalues --    2.66455   2.67070   2.68454   2.72115   2.74287
 Alpha virt. eigenvalues --    2.78338   2.83396   2.86701   2.91774   2.94352
 Alpha virt. eigenvalues --    2.94617   2.94750   2.96019   2.98134   2.98581
 Alpha virt. eigenvalues --    2.99940   3.02271   3.03932   3.04396   3.06532
 Alpha virt. eigenvalues --    3.08481   3.09287   3.09832   3.10044   3.13203
 Alpha virt. eigenvalues --    3.15115   3.16138   3.17750   3.18402   3.19427
 Alpha virt. eigenvalues --    3.21627   3.24082   3.25014   3.27691   3.28778
 Alpha virt. eigenvalues --    3.31443   3.33879   3.34367   3.35722   3.40840
 Alpha virt. eigenvalues --    3.41266   3.44159   3.45039   3.49948   3.52587
 Alpha virt. eigenvalues --    3.53520   3.55982   3.57645   3.58352   3.59523
 Alpha virt. eigenvalues --    3.62401   3.64032   3.65093   3.66253   3.66824
 Alpha virt. eigenvalues --    3.67688   3.69214   3.71260   3.72235   3.74355
 Alpha virt. eigenvalues --    3.76436   3.77540   3.78466   3.85620   3.88087
 Alpha virt. eigenvalues --    3.91053  24.26090  24.30021  24.31730  24.50537
 Alpha virt. eigenvalues --   24.50775  24.51040  24.53025  24.54615  24.56483
 Alpha virt. eigenvalues --   24.76165  24.77061  24.79106  24.80213  24.80747
 Alpha virt. eigenvalues --   24.82837  24.87494  25.04651  25.05782  25.07115
          Condensed to atoms (all electrons):
              1          2          3          4          5          6
     1  C    6.112791   0.472493   0.147971  -0.056406  -0.024626   0.003322
     2  H    0.472493   0.502290  -0.070335   0.005429   0.001768  -0.000261
     3  C    0.147971  -0.070335   5.392509   0.448177   0.492209  -0.058194
     4  C   -0.056406   0.005429   0.448177   5.068613  -0.072201   0.478805
     5  C   -0.024626   0.001768   0.492209  -0.072201   5.091343  -0.030646
     6  C    0.003322  -0.000261  -0.058194   0.478805  -0.030646   5.040848
     7  H    0.000094   0.000104  -0.044485   0.388655   0.004103  -0.028527
     8  C    0.006847   0.001547  -0.073877  -0.026434   0.454593  -0.078708
     9  H   -0.000124   0.002387  -0.050650   0.004342   0.400388  -0.000281
    10  C    0.001275   0.000000  -0.018756  -0.091332  -0.086467   0.491104
    11  H   -0.000350   0.000011   0.006019  -0.038892  -0.000475   0.397229
    12  H   -0.000340  -0.000039   0.006922  -0.000686  -0.039663   0.006244
    13  H   -0.000012  -0.000001  -0.001550   0.007894   0.007489  -0.042924
    14  C    0.117188  -0.075156  -0.141983  -0.003301  -0.002198   0.001897
    15  C   -0.072401   0.004442  -0.003148  -0.011743   0.000523  -0.000389
    16  C   -0.024106   0.006390  -0.004530   0.000748   0.000626   0.000029
    17  C    0.002721  -0.000224   0.001969  -0.000100   0.000042  -0.000101
    18  H    0.000631  -0.000021  -0.003744   0.001883  -0.000212   0.001137
    19  C    0.008200   0.001456  -0.000586   0.000056  -0.000012  -0.000001
    20  H   -0.002041   0.002836   0.000154  -0.000025   0.000214   0.000001
    21  C    0.001685   0.000006  -0.000062  -0.000005  -0.000013   0.000002
    22  H   -0.000372   0.000011   0.000028   0.000038   0.000002   0.000000
    23  H   -0.000408  -0.000034   0.000021  -0.000001   0.000001   0.000000
    24  H   -0.000026  -0.000002  -0.000002   0.000001   0.000000   0.000000
    25  C    0.032851  -0.062293  -0.093190  -0.006842  -0.001349  -0.000544
    26  C   -0.031574   0.000691   0.001634   0.001641  -0.000444   0.000018
    27  C   -0.085613  -0.004709  -0.007309  -0.009282   0.000582  -0.000355
    28  C    0.012285  -0.000112  -0.000822   0.000051   0.000007   0.000004
    29  H   -0.011402  -0.000271   0.000433   0.000054  -0.000016   0.000000
    30  C    0.008516   0.000596  -0.001662  -0.000314  -0.000049  -0.000010
    31  H   -0.003361  -0.000136   0.004141  -0.000618   0.001544  -0.000265
    32  C    0.000366   0.000036   0.000130   0.000033  -0.000003   0.000002
    33  H   -0.000362   0.000014   0.000012   0.000000   0.000000   0.000000
    34  H   -0.000356   0.000005   0.000016   0.000014  -0.000004   0.000002
    35  H   -0.000014  -0.000002   0.000002   0.000000   0.000000   0.000000
              7          8          9         10         11         12
     1  C    0.000094   0.006847  -0.000124   0.001275  -0.000350  -0.000340
     2  H    0.000104   0.001547   0.002387   0.000000   0.000011  -0.000039
     3  C   -0.044485  -0.073877  -0.050650  -0.018756   0.006019   0.006922
     4  C    0.388655  -0.026434   0.004342  -0.091332  -0.038892  -0.000686
     5  C    0.004103   0.454593   0.400388  -0.086467  -0.000475  -0.039663
     6  C   -0.028527  -0.078708  -0.000281   0.491104   0.397229   0.006244
     7  H    0.497160   0.000025  -0.000272   0.004550  -0.003320   0.000014
     8  C    0.000025   5.059006  -0.034787   0.497909   0.005966   0.396940
     9  H   -0.000272  -0.034787   0.509557   0.005235   0.000025  -0.004202
    10  C    0.004550   0.497909   0.005235   5.034097  -0.039835  -0.040697
    11  H   -0.003320   0.005966   0.000025  -0.039835   0.514770  -0.000205
    12  H    0.000014   0.396940  -0.004202  -0.040697  -0.000205   0.518096
    13  H   -0.000173  -0.042551  -0.000184   0.399661  -0.004466  -0.004587
    14  C   -0.002872  -0.000517   0.000344  -0.000088   0.000028   0.000025
    15  C   -0.000913   0.000126  -0.000008  -0.000025   0.000056   0.000000
    16  C   -0.000198  -0.000017   0.000275  -0.000009   0.000000   0.000001
    17  C    0.000884   0.000001  -0.000001   0.000001   0.000002   0.000000
    18  H    0.001532  -0.000057   0.000001   0.000003  -0.000058   0.000001
    19  C    0.000000   0.000002   0.000006   0.000000   0.000000   0.000000
    20  H   -0.000002  -0.000002   0.000067  -0.000001   0.000000   0.000000
    21  C   -0.000015   0.000000  -0.000002   0.000000   0.000000   0.000000
    22  H   -0.000033   0.000000   0.000000   0.000000   0.000001   0.000000
    23  H    0.000000   0.000000   0.000000   0.000000   0.000000   0.000000
    24  H    0.000000   0.000000   0.000000   0.000000   0.000000   0.000000
    25  C    0.001171  -0.000429   0.000154   0.000038   0.000025   0.000011
    26  C   -0.000181   0.000019  -0.000033  -0.000002   0.000000   0.000000
    27  C    0.000356  -0.000092   0.000286   0.000116   0.000016  -0.000002
    28  C   -0.000112   0.000000   0.000000   0.000000   0.000000   0.000000
    29  H    0.000025   0.000000   0.000001   0.000000   0.000000   0.000000
    30  C    0.000073   0.000013  -0.000008   0.000002   0.000001   0.000000
    31  H   -0.000053   0.000116   0.000199  -0.000084   0.000005   0.000007
    32  C   -0.000039   0.000000   0.000001   0.000000   0.000000   0.000000
    33  H    0.000000   0.000000   0.000000   0.000000   0.000000   0.000000
    34  H    0.000005  -0.000001   0.000000   0.000000   0.000000   0.000000
    35  H    0.000001   0.000000   0.000000   0.000000   0.000000   0.000000
             13         14         15         16         17         18
     1  C   -0.000012   0.117188  -0.072401  -0.024106   0.002721   0.000631
     2  H   -0.000001  -0.075156   0.004442   0.006390  -0.000224  -0.000021
     3  C   -0.001550  -0.141983  -0.003148  -0.004530   0.001969  -0.003744
     4  C    0.007894  -0.003301  -0.011743   0.000748  -0.000100   0.001883
     5  C    0.007489  -0.002198   0.000523   0.000626   0.000042  -0.000212
     6  C   -0.042924   0.001897  -0.000389   0.000029  -0.000101   0.001137
     7  H   -0.000173  -0.002872  -0.000913  -0.000198   0.000884   0.001532
     8  C   -0.042551  -0.000517   0.000126  -0.000017   0.000001  -0.000057
     9  H   -0.000184   0.000344  -0.000008   0.000275  -0.000001   0.000001
    10  C    0.399661  -0.000088  -0.000025  -0.000009   0.000001   0.000003
    11  H   -0.004466   0.000028   0.000056   0.000000   0.000002  -0.000058
    12  H   -0.004587   0.000025   0.000000   0.000001   0.000000   0.000001
    13  H    0.517371  -0.000003   0.000000   0.000000   0.000000   0.000000
    14  C   -0.000003   5.395739   0.451241   0.498203  -0.063584  -0.047361
    15  C    0.000000   0.451241   5.096041  -0.063586   0.480286   0.386267
    16  C    0.000000   0.498203  -0.063586   5.049721  -0.033873   0.004606
    17  C    0.000000  -0.063584   0.480286  -0.033873   5.046289  -0.027199
    18  H    0.000000  -0.047361   0.386267   0.004606  -0.027199   0.497324
    19  C    0.000000  -0.076725  -0.029490   0.467840  -0.077385  -0.000122
    20  H    0.000000  -0.045815   0.004761   0.394687  -0.000287  -0.000271
    21  C    0.000000  -0.016194  -0.093558  -0.088964   0.490275   0.004632
    22  H    0.000000   0.005978  -0.038544  -0.000380   0.397004  -0.003390
    23  H    0.000000   0.007009  -0.000633  -0.039446   0.006268   0.000016
    24  H    0.000000  -0.001681   0.007991   0.007571  -0.042985  -0.000170
    25  C    0.000001  -0.065123   0.006744  -0.000432   0.000718   0.001484
    26  C    0.000000  -0.012705  -0.018478   0.000871  -0.001436   0.001689
    27  C    0.000000   0.011464   0.000873  -0.000286   0.000015   0.000006
    28  C    0.000000  -0.001647  -0.000974  -0.000113  -0.000040   0.000123
    29  H    0.000000   0.001120  -0.000969  -0.001035   0.000240   0.000055
    30  C    0.000000  -0.000882  -0.000023   0.000009   0.000000  -0.000057
    31  H    0.000001   0.000805  -0.000040  -0.000006   0.000000   0.000022
    32  C    0.000000   0.000124  -0.000015  -0.000004   0.000000   0.000000
    33  H    0.000000   0.000058   0.000025   0.000004  -0.000001   0.000001
    34  H    0.000000   0.000012   0.000000   0.000000   0.000000  -0.000001
    35  H    0.000000   0.000001   0.000001   0.000000   0.000000   0.000000
             19         20         21         22         23         24
     1  C    0.008200  -0.002041   0.001685  -0.000372  -0.000408  -0.000026
     2  H    0.001456   0.002836   0.000006   0.000011  -0.000034  -0.000002
     3  C   -0.000586   0.000154  -0.000062   0.000028   0.000021  -0.000002
     4  C    0.000056  -0.000025  -0.000005   0.000038  -0.000001   0.000001
     5  C   -0.000012   0.000214  -0.000013   0.000002   0.000001   0.000000
     6  C   -0.000001   0.000001   0.000002   0.000000   0.000000   0.000000
     7  H    0.000000  -0.000002  -0.000015  -0.000033   0.000000   0.000000
     8  C    0.000002  -0.000002   0.000000   0.000000   0.000000   0.000000
     9  H    0.000006   0.000067  -0.000002   0.000000   0.000000   0.000000
    10  C    0.000000  -0.000001   0.000000   0.000000   0.000000   0.000000
    11  H    0.000000   0.000000   0.000000   0.000001   0.000000   0.000000
    12  H    0.000000   0.000000   0.000000   0.000000   0.000000   0.000000
    13  H    0.000000   0.000000   0.000000   0.000000   0.000000   0.000000
    14  C   -0.076725  -0.045815  -0.016194   0.005978   0.007009  -0.001681
    15  C   -0.029490   0.004761  -0.093558  -0.038544  -0.000633   0.007991
    16  C    0.467840   0.394687  -0.088964  -0.000380  -0.039446   0.007571
    17  C   -0.077385  -0.000287   0.490275   0.397004   0.006268  -0.042985
    18  H   -0.000122  -0.000271   0.004632  -0.003390   0.000016  -0.000170
    19  C    5.047614  -0.033771   0.499823   0.005897   0.396367  -0.042551
    20  H   -0.033771   0.506605   0.005066   0.000025  -0.004076  -0.000178
    21  C    0.499823   0.005066   5.033605  -0.039789  -0.041019   0.399457
    22  H    0.005897   0.000025  -0.039789   0.514361  -0.000206  -0.004370
    23  H    0.396367  -0.004076  -0.041019  -0.000206   0.517954  -0.004555
    24  H   -0.042551  -0.000178   0.399457  -0.004370  -0.004555   0.516948
    25  C   -0.000760   0.000494  -0.000066   0.000020   0.000023   0.000002
    26  C    0.000341   0.000134   0.000145   0.000003  -0.000008  -0.000003
    27  C    0.000005   0.000012   0.000000   0.000000   0.000000   0.000000
    28  C    0.000004   0.000004   0.000004  -0.000002   0.000000   0.000000
    29  H   -0.000126   0.000094   0.000110   0.000037   0.000011   0.000010
    30  C    0.000000   0.000000   0.000000   0.000000   0.000000   0.000000
    31  H    0.000000  -0.000001   0.000000   0.000000   0.000000   0.000000
    32  C    0.000000   0.000000   0.000000   0.000000   0.000000   0.000000
    33  H    0.000000   0.000000  -0.000001   0.000000   0.000000   0.000000
    34  H    0.000000   0.000000   0.000000   0.000000   0.000000   0.000000
    35  H    0.000000   0.000000   0.000000   0.000000   0.000000   0.000000
             25         26         27         28         29         30
     1  C    0.032851  -0.031574  -0.085613   0.012285  -0.011402   0.008516
     2  H   -0.062293   0.000691  -0.004709  -0.000112  -0.000271   0.000596
     3  C   -0.093190   0.001634  -0.007309  -0.000822   0.000433  -0.001662
     4  C   -0.006842   0.001641  -0.009282   0.000051   0.000054  -0.000314
     5  C   -0.001349  -0.000444   0.000582   0.000007  -0.000016  -0.000049
     6  C   -0.000544   0.000018  -0.000355   0.000004   0.000000  -0.000010
     7  H    0.001171  -0.000181   0.000356  -0.000112   0.000025   0.000073
     8  C   -0.000429   0.000019  -0.000092   0.000000   0.000000   0.000013
     9  H    0.000154  -0.000033   0.000286   0.000000   0.000001  -0.000008
    10  C    0.000038  -0.000002   0.000116   0.000000   0.000000   0.000002
    11  H    0.000025   0.000000   0.000016   0.000000   0.000000   0.000001
    12  H    0.000011   0.000000  -0.000002   0.000000   0.000000   0.000000
    13  H    0.000001   0.000000   0.000000   0.000000   0.000000   0.000000
    14  C   -0.065123  -0.012705   0.011464  -0.001647   0.001120  -0.000882
    15  C    0.006744  -0.018478   0.000873  -0.000974  -0.000969  -0.000023
    16  C   -0.000432   0.000871  -0.000286  -0.000113  -0.001035   0.000009
    17  C    0.000718  -0.001436   0.000015  -0.000040   0.000240   0.000000
    18  H    0.001484   0.001689   0.000006   0.000123   0.000055  -0.000057
    19  C   -0.000760   0.000341   0.000005   0.000004  -0.000126   0.000000
    20  H    0.000494   0.000134   0.000012   0.000004   0.000094   0.000000
    21  C   -0.000066   0.000145   0.000000   0.000004   0.000110   0.000000
    22  H    0.000020   0.000003   0.000000  -0.000002   0.000037   0.000000
    23  H    0.000023  -0.000008   0.000000   0.000000   0.000011   0.000000
    24  H    0.000002  -0.000003   0.000000   0.000000   0.000010   0.000000
    25  C    5.351639   0.499855   0.471888  -0.068640  -0.034893  -0.056889
    26  C    0.499855   5.097826  -0.083968   0.454268   0.394111  -0.030255
    27  C    0.471888  -0.083968   5.125373  -0.033347   0.004974   0.463067
    28  C   -0.068640   0.454268  -0.033347   5.078771  -0.036440  -0.073770
    29  H   -0.034893   0.394111   0.004974  -0.036440   0.477584  -0.000442
    30  C   -0.056889  -0.030255   0.463067  -0.073770  -0.000442   5.062778
    31  H   -0.044768   0.004498   0.397464  -0.000472  -0.000195  -0.035169
    32  C   -0.020702  -0.089815  -0.085112   0.495162   0.005052   0.480755
    33  H    0.006475  -0.036829  -0.000405   0.395619  -0.003531   0.006003
    34  H    0.006145  -0.000433  -0.038283   0.005995   0.000017   0.397062
    35  H   -0.001453   0.007657   0.007450  -0.042163  -0.000170  -0.043193
             31         32         33         34         35
     1  C   -0.003361   0.000366  -0.000362  -0.000356  -0.000014
     2  H   -0.000136   0.000036   0.000014   0.000005  -0.000002
     3  C    0.004141   0.000130   0.000012   0.000016   0.000002
     4  C   -0.000618   0.000033   0.000000   0.000014   0.000000
     5  C    0.001544  -0.000003   0.000000  -0.000004   0.000000
     6  C   -0.000265   0.000002   0.000000   0.000002   0.000000
     7  H   -0.000053  -0.000039   0.000000   0.000005   0.000001
     8  C    0.000116   0.000000   0.000000  -0.000001   0.000000
     9  H    0.000199   0.000001   0.000000   0.000000   0.000000
    10  C   -0.000084   0.000000   0.000000   0.000000   0.000000
    11  H    0.000005   0.000000   0.000000   0.000000   0.000000
    12  H    0.000007   0.000000   0.000000   0.000000   0.000000
    13  H    0.000001   0.000000   0.000000   0.000000   0.000000
    14  C    0.000805   0.000124   0.000058   0.000012   0.000001
    15  C   -0.000040  -0.000015   0.000025   0.000000   0.000001
    16  C   -0.000006  -0.000004   0.000004   0.000000   0.000000
    17  C    0.000000   0.000000  -0.000001   0.000000   0.000000
    18  H    0.000022   0.000000   0.000001  -0.000001   0.000000
    19  C    0.000000   0.000000   0.000000   0.000000   0.000000
    20  H   -0.000001   0.000000   0.000000   0.000000   0.000000
    21  C    0.000000   0.000000  -0.000001   0.000000   0.000000
    22  H    0.000000   0.000000   0.000000   0.000000   0.000000
    23  H    0.000000   0.000000   0.000000   0.000000   0.000000
    24  H    0.000000   0.000000   0.000000   0.000000   0.000000
    25  C   -0.044768  -0.020702   0.006475   0.006145  -0.001453
    26  C    0.004498  -0.089815  -0.036829  -0.000433   0.007657
    27  C    0.397464  -0.085112  -0.000405  -0.038283   0.007450
    28  C   -0.000472   0.495162   0.395619   0.005995  -0.042163
    29  H   -0.000195   0.005052  -0.003531   0.000017  -0.000170
    30  C   -0.035169   0.480755   0.006003   0.397062  -0.043193
    31  H    0.489309   0.005223   0.000017  -0.003856  -0.000173
    32  C    0.005223   5.042853  -0.041242  -0.040845   0.399480
    33  H    0.000017  -0.041242   0.517772  -0.000213  -0.004460
    34  H   -0.003856  -0.040845  -0.000213   0.517567  -0.004405
    35  H   -0.000173   0.399480  -0.004460  -0.004405   0.519387
 Mulliken atomic charges:
              1
     1  C   -0.615343
     2  H    0.211085
     3  C    0.072540
     4  C   -0.088253
     5  C   -0.197055
     6  C   -0.179436
     7  H    0.182442
     8  C   -0.165639
     9  H    0.167286
    10  C   -0.156695
    11  H    0.163449
    12  H    0.162160
    13  H    0.164036
    14  C    0.066600
    15  C   -0.104439
    16  C   -0.174597
    17  C   -0.179498
    18  H    0.181250
    19  C   -0.166082
    20  H    0.171316
    21  C   -0.155121
    22  H    0.163684
    23  H    0.162716
    24  H    0.164546
    25  C    0.078634
    26  C   -0.159236
    27  C   -0.135183
    28  C   -0.183641
    29  H    0.205565
    30  C   -0.176151
    31  H    0.185846
    32  C   -0.151440
    33  H    0.161045
    34  H    0.161556
    35  H    0.162055
 Sum of Mulliken atomic charges =   0.00000
 Mulliken charges with hydrogens summed into heavy atoms:
              1
     1  C   -0.404258
     3  C    0.072540
     4  C    0.094189
     5  C   -0.029769
     6  C   -0.015987
     8  C   -0.003479
    10  C    0.007341
    14  C    0.066600
    15  C    0.076811
    16  C   -0.003282
    17  C   -0.015815
    19  C   -0.003366
    21  C    0.009425
    25  C    0.078634
    26  C    0.046329
    27  C    0.050663
    28  C   -0.022595
    30  C   -0.014595
    32  C    0.010615
 Sum of Mulliken charges with hydrogens summed into heavy atoms =   0.00000
 Electronic spatial extent (au):  <R**2>=           4931.2178
 Charge=              0.0000 electrons
 Dipole moment (field-independent basis, Debye):
    X=              0.0932    Y=             -0.1686    Z=             -0.0178  Tot=              0.1935
 Quadrupole moment (field-independent basis, Debye-Ang):
   XX=           -107.6042   YY=           -113.2561   ZZ=           -106.9124
   XY=              2.7665   XZ=              0.8620   YZ=              2.6332
 Traceless Quadrupole moment (field-independent basis, Debye-Ang):
   XX=              1.6534   YY=             -3.9986   ZZ=              2.3452
   XY=              2.7665   XZ=              0.8620   YZ=              2.6332
 Octapole moment (field-independent basis, Debye-Ang**2):
  XXX=             27.6657  YYY=             10.6193  ZZZ=              0.8128  XYY=            -36.5370
  XXY=              0.4586  XXZ=             -2.5852  XZZ=              9.9619  YZZ=            -18.8731
  YYZ=             11.6606  XYZ=              1.5160
 Hexadecapole moment (field-independent basis, Debye-Ang**3):
 XXXX=          -3053.6427 YYYY=          -2917.9003 ZZZZ=           -663.4728 XXXY=            -63.7016
 XXXZ=             14.0104 YYYX=             67.3333 YYYZ=             73.7508 ZZZX=             -6.6062
 ZZZY=             -2.2937 XXYY=          -1016.5091 XXZZ=           -627.3053 YYZZ=           -637.4855
 XXYZ=             -8.0232 YYXZ=            -10.1469 ZZXY=             32.9301
 N-N= 1.290752415903D+03 E-N=-4.277581918197D+03  KE= 7.286018718061D+02
 PrsmSu:  requested number of processors reduced to:  10 ShMem   1 Linda.
 Calling FoFJK, ICntrl=      2127 FMM=F ISym2X=0 I1Cent= 0 IOpClX= 0 NMat=1 NMatS=1 NMatT=0.
 ***** Axes restored to original set *****
 -------------------------------------------------------------------
 Center     Atomic                   Forces (Hartrees/Bohr)
 Number     Number              X              Y              Z
 -------------------------------------------------------------------
      1        6          -0.006695230   -0.020675628    0.008132243
      2        1           0.004488191    0.024525485   -0.004096043
      3        6          -0.014235468   -0.001994285    0.000458107
      4        6           0.009046472    0.006061561   -0.003301099
      5        6          -0.000061827   -0.005212480    0.002771847
      6        6           0.003580002    0.010927712   -0.004641534
      7        1          -0.026482957   -0.008414457   -0.002870995
      8        6          -0.013180714   -0.003163267    0.002120704
      9        1           0.001888295    0.015819012   -0.007366588
     10        6          -0.012477545    0.005366452   -0.001937329
     11        1          -0.001196146   -0.015173845    0.006910522
     12        1           0.014770409    0.006658389   -0.003695471
     13        1           0.013958979   -0.008696030    0.003402218
     14        6           0.003665727   -0.004129971    0.012592423
     15        6          -0.001824080    0.008805495   -0.008450836
     16        6          -0.002162371   -0.005673479   -0.000337390
     17        6           0.003661115    0.011520143   -0.003291638
     18        1           0.010301960   -0.011370357    0.025249028
     19        6           0.002955034   -0.005070195    0.012455101
     20        1           0.006488882    0.016463551   -0.002028039
     21        6           0.006464414    0.003462479    0.011583210
     22        1          -0.006153173   -0.015483400    0.001342147
     23        1          -0.002015085    0.008923132   -0.013952746
     24        1          -0.008431614   -0.006748469   -0.012869044
     25        6           0.009887848   -0.002803042   -0.010987382
     26        6           0.005919240    0.003245708    0.009997628
     27        6          -0.008144690   -0.002033705   -0.002460468
     28        6           0.012351914    0.000590675   -0.003072096
     29        1          -0.008911009   -0.008105824   -0.018403841
     30        6          -0.007504615   -0.004396630   -0.009159496
     31        1           0.018651960    0.002068376   -0.001188325
     32        6           0.008813182   -0.002104428   -0.010255547
     33        1          -0.016565051   -0.002096190   -0.000041783
     34        1           0.007837352    0.005359924    0.013658569
     35        1          -0.008689401    0.003547587    0.013733942
 -------------------------------------------------------------------
 Cartesian Forces:  Max     0.026482957 RMS     0.009549159

 GradGradGradGradGradGradGradGradGradGradGradGradGradGradGradGradGradGrad
 Berny optimization.
 Internal  Forces:  Max     0.028633059 RMS     0.007787977
 Search for a local minimum.
 Step number   1 out of a maximum of  197
 All quantities printed in internal units (Hartrees-Bohrs-Radians)
 Mixed Optimization -- RFO/linear search
 Second derivative matrix not updated -- first step.
     Eigenvalues ---    0.00636   0.00650   0.00657   0.01533   0.01538
     Eigenvalues ---    0.01539   0.02137   0.02142   0.02147   0.02171
     Eigenvalues ---    0.02172   0.02173   0.02182   0.02182   0.02184
     Eigenvalues ---    0.02201   0.02201   0.02202   0.02211   0.02211
     Eigenvalues ---    0.02212   0.02214   0.02215   0.02215   0.02216
     Eigenvalues ---    0.02217   0.02218   0.02219   0.02220   0.02225
     Eigenvalues ---    0.04561   0.06401   0.06625   0.15997   0.15998
     Eigenvalues ---    0.16000   0.16000   0.16000   0.16000   0.16000
     Eigenvalues ---    0.16000   0.16000   0.16000   0.16000   0.16000
     Eigenvalues ---    0.16000   0.16000   0.16000   0.18862   0.19335
     Eigenvalues ---    0.22000   0.22000   0.22000   0.22000   0.22000
     Eigenvalues ---    0.22000   0.23465   0.23477   0.23478   0.24967
     Eigenvalues ---    0.24999   0.25000   0.31259   0.31368   0.31473
     Eigenvalues ---    0.31527   0.33524   0.33600   0.33965   0.34055
     Eigenvalues ---    0.34077   0.34092   0.34253   0.34257   0.34259
     Eigenvalues ---    0.34264   0.34264   0.34267   0.34281   0.34283
     Eigenvalues ---    0.34289   0.42398   0.42462   0.42489   0.42563
     Eigenvalues ---    0.42571   0.42602   0.46328   0.46394   0.46439
     Eigenvalues ---    0.46731   0.46754   0.46783   0.47203   0.47211
     Eigenvalues ---    0.47214   0.47332   0.47350   0.474351000.00000
     Eigenvalues --- 1000.000001000.000001000.000001000.000001000.00000
     Eigenvalues --- 1000.000001000.000001000.000001000.000001000.00000
     Eigenvalues --- 1000.000001000.000001000.000001000.000001000.00000
     Eigenvalues --- 1000.000001000.000001000.000001000.000001000.00000
     Eigenvalues --- 1000.000001000.000001000.000001000.000001000.00000
     Eigenvalues --- 1000.000001000.000001000.000001000.000001000.00000
     Eigenvalues --- 1000.000001000.000001000.000001000.000001000.00000
     Eigenvalues --- 1000.000001000.000001000.000001000.000001000.00000
     Eigenvalues --- 1000.000001000.000001000.000001000.000001000.00000
     Eigenvalues --- 1000.000001000.000001000.000001000.000001000.00000
     Eigenvalues --- 1000.000001000.000001000.000001000.000001000.00000
     Eigenvalues --- 1000.000001000.000001000.000001000.000001000.00000
     Eigenvalues --- 1000.000001000.000001000.000001000.000001000.00000
     Eigenvalues --- 1000.000001000.000001000.000001000.000001000.00000
     Eigenvalues --- 1000.000001000.000001000.000001000.000001000.00000
     Eigenvalues --- 1000.000001000.000001000.000001000.000001000.00000
     Eigenvalues --- 1000.000001000.000001000.000001000.000001000.00000
     Eigenvalues --- 1000.000001000.00000
 RFO step:  Lambda=-4.18649458D-02 EMin= 6.36013140D-03
 Linear search not attempted -- first point.
 Maximum step size (   0.300) exceeded in Quadratic search.
    -- Step size scaled by   0.592
 Iteration  1 RMS(Cart)=  0.12559013 RMS(Int)=  0.00303725
 Iteration  2 RMS(Cart)=  0.00614575 RMS(Int)=  0.00028186
 Iteration  3 RMS(Cart)=  0.00001074 RMS(Int)=  0.00028180
 Iteration  4 RMS(Cart)=  0.00000000 RMS(Int)=  0.00028180
 Variable       Old X    -DE/DX   Delta X   Delta X   Delta X     New X
                                 (Linear)    (Quad)   (Total)
    R1        2.12221  -0.02485   0.00000  -0.04150  -0.04150   2.08070
    R2        2.85315   0.02289   0.00000   0.03812   0.03812   2.89127
    R3        2.85017   0.02368   0.00000   0.03926   0.03926   2.88943
    R4        2.85119   0.02347   0.00000   0.03897   0.03897   2.89016
    R5        2.63877  -0.00006   0.00000   0.00003   0.00005   2.63882
    R6        2.63869  -0.00424   0.00000  -0.00492  -0.00491   2.63378
    R7        2.62572  -0.00477   0.00000  -0.00542  -0.00542   2.62030
    R8        2.08010  -0.02660   0.00000  -0.04167  -0.04167   2.03844
    R9        2.62798  -0.00232   0.00000  -0.00272  -0.00273   2.62526
   R10        2.07176  -0.01754   0.00000  -0.02712  -0.02712   2.04463
   R11        2.62875  -0.00532   0.00000  -0.00620  -0.00621   2.62254
   R12        2.06881  -0.01672   0.00000  -0.02573  -0.02573   2.04308
   R13        2.62733  -0.00873   0.00000  -0.01015  -0.01017   2.61716
   R14        2.06896  -0.01662   0.00000  -0.02559  -0.02559   2.04337
   R15        2.06855  -0.01679   0.00000  -0.02584  -0.02584   2.04271
   R16        2.63967   0.00072   0.00000   0.00099   0.00101   2.64067
   R17        2.63930  -0.00425   0.00000  -0.00493  -0.00491   2.63439
   R18        2.62551  -0.00441   0.00000  -0.00498  -0.00499   2.62053
   R19        2.08142  -0.02863   0.00000  -0.04495  -0.04495   2.03647
   R20        2.62774  -0.00235   0.00000  -0.00278  -0.00278   2.62496
   R21        2.07201  -0.01780   0.00000  -0.02754  -0.02754   2.04447
   R22        2.62866  -0.00559   0.00000  -0.00650  -0.00652   2.62213
   R23        2.06888  -0.01671   0.00000  -0.02573  -0.02573   2.04314
   R24        2.62728  -0.00919   0.00000  -0.01071  -0.01072   2.61655
   R25        2.06899  -0.01668   0.00000  -0.02569  -0.02569   2.04330
   R26        2.06858  -0.01680   0.00000  -0.02585  -0.02585   2.04273
   R27        2.63549  -0.00241   0.00000  -0.00268  -0.00267   2.63281
   R28        2.64375  -0.00199   0.00000  -0.00230  -0.00229   2.64146
   R29        2.62911  -0.00139   0.00000  -0.00153  -0.00153   2.62758
   R30        2.07390  -0.02192   0.00000  -0.03401  -0.03401   2.03988
   R31        2.62396  -0.00479   0.00000  -0.00555  -0.00555   2.61841
   R32        2.07237  -0.01877   0.00000  -0.02906  -0.02906   2.04331
   R33        2.62552  -0.00744   0.00000  -0.00859  -0.00860   2.61692
   R34        2.06905  -0.01670   0.00000  -0.02571  -0.02571   2.04334
   R35        2.62984  -0.00510   0.00000  -0.00603  -0.00604   2.62380
   R36        2.06887  -0.01663   0.00000  -0.02561  -0.02561   2.04326
   R37        2.06845  -0.01663   0.00000  -0.02559  -0.02559   2.04285
    A1        1.88389  -0.00869   0.00000  -0.04850  -0.04769   1.83620
    A2        1.87609  -0.00998   0.00000  -0.05145  -0.05054   1.82555
    A3        1.82849   0.00380   0.00000   0.00016   0.00042   1.82891
    A4        1.92851   0.01531   0.00000   0.05431   0.05315   1.98166
    A5        1.94651  -0.00318   0.00000   0.01225   0.01008   1.95659
    A6        1.99316   0.00083   0.00000   0.02165   0.01974   2.01290
    A7        2.11732   0.01872   0.00000   0.03800   0.03794   2.15526
    A8        2.08500  -0.00801   0.00000  -0.01622  -0.01627   2.06873
    A9        2.08086  -0.01071   0.00000  -0.02182  -0.02182   2.05904
   A10        2.10154   0.00418   0.00000   0.00940   0.00934   2.11088
   A11        2.07762   0.00378   0.00000   0.01266   0.01256   2.09019
   A12        2.10387  -0.00792   0.00000  -0.02166  -0.02176   2.08210
   A13        2.09893   0.00737   0.00000   0.01628   0.01629   2.11521
   A14        2.09531  -0.00438   0.00000  -0.01018  -0.01019   2.08512
   A15        2.08895  -0.00299   0.00000  -0.00611  -0.00612   2.08283
   A16        2.09597   0.00226   0.00000   0.00467   0.00466   2.10063
   A17        2.09167  -0.00102   0.00000  -0.00201  -0.00202   2.08965
   A18        2.09554  -0.00124   0.00000  -0.00265  -0.00265   2.09289
   A19        2.09793  -0.00033   0.00000  -0.00145  -0.00147   2.09645
   A20        2.09102   0.00037   0.00000   0.00132   0.00133   2.09235
   A21        2.09424  -0.00004   0.00000   0.00013   0.00014   2.09438
   A22        2.09113  -0.00277   0.00000  -0.00700  -0.00704   2.08409
   A23        2.09584   0.00143   0.00000   0.00362   0.00363   2.09948
   A24        2.09621   0.00135   0.00000   0.00339   0.00339   2.09961
   A25        2.12427   0.02282   0.00000   0.04633   0.04631   2.17058
   A26        2.07982  -0.01100   0.00000  -0.02227  -0.02230   2.05752
   A27        2.07908  -0.01182   0.00000  -0.02402  -0.02399   2.05509
   A28        2.10235   0.00450   0.00000   0.01017   0.01015   2.11251
   A29        2.07769   0.00441   0.00000   0.01450   0.01446   2.09215
   A30        2.10304  -0.00888   0.00000  -0.02447  -0.02451   2.07853
   A31        2.10009   0.00813   0.00000   0.01788   0.01791   2.11800
   A32        2.09452  -0.00469   0.00000  -0.01076  -0.01078   2.08374
   A33        2.08858  -0.00345   0.00000  -0.00712  -0.00714   2.08144
   A34        2.09621   0.00241   0.00000   0.00503   0.00500   2.10121
   A35        2.09145  -0.00111   0.00000  -0.00222  -0.00221   2.08924
   A36        2.09552  -0.00130   0.00000  -0.00280  -0.00279   2.09273
   A37        2.09788  -0.00023   0.00000  -0.00142  -0.00143   2.09645
   A38        2.09100   0.00030   0.00000   0.00125   0.00125   2.09225
   A39        2.09431  -0.00007   0.00000   0.00017   0.00018   2.09449
   A40        2.09076  -0.00299   0.00000  -0.00762  -0.00766   2.08310
   A41        2.09594   0.00155   0.00000   0.00397   0.00398   2.09992
   A42        2.09648   0.00144   0.00000   0.00366   0.00368   2.10016
   A43        2.13533   0.00724   0.00000   0.01459   0.01458   2.14991
   A44        2.07012   0.00069   0.00000   0.00130   0.00129   2.07140
   A45        2.07665  -0.00796   0.00000  -0.01616  -0.01615   2.06050
   A46        2.10155   0.00351   0.00000   0.00804   0.00804   2.10960
   A47        2.09246  -0.00012   0.00000   0.00078   0.00078   2.09324
   A48        2.08917  -0.00339   0.00000  -0.00882  -0.00883   2.08035
   A49        2.10338   0.00471   0.00000   0.01031   0.01032   2.11370
   A50        2.08448  -0.00123   0.00000  -0.00188  -0.00188   2.08260
   A51        2.09531  -0.00347   0.00000  -0.00844  -0.00844   2.08687
   A52        2.09908   0.00115   0.00000   0.00234   0.00233   2.10141
   A53        2.08881  -0.00049   0.00000  -0.00092  -0.00091   2.08790
   A54        2.09529  -0.00066   0.00000  -0.00142  -0.00142   2.09387
   A55        2.09672   0.00082   0.00000   0.00115   0.00115   2.09787
   A56        2.09181  -0.00041   0.00000  -0.00058  -0.00058   2.09124
   A57        2.09465  -0.00041   0.00000  -0.00058  -0.00057   2.09408
[...]
 41005,-0.00003245,0.00036357,0.00030959,0.00061138,0.00004376,0.000088
 43,0.00047647,-0.00010645,-0.00003619,-0.00021777,-0.00017940,-0.00034
 364,-0.00016687,0.00023745,-0.00027904,-0.00000844,-0.00001978,0.00001
 028,-0.00022132,-0.00016911,0.00026978,0.00001172,0.00001371,-0.000002
 23,-0.00003158,-0.00002996,-0.00001285,-0.00001868,0.00000251,-0.00001
 148,0.00040357,-0.00045924,0.00014010,0.00012899,0.00014566,0.00005951
 ,0.00014372,-0.00008994,-0.00023142,-0.00008282,0.00004646,-0.00006950
 ,-0.00002971,0.00000938,0.00002372,0.00010763,0.00013469,0.00014367,-0
 .00003280,0.00000620,-0.00004844,0.00002121,-0.00013831,0.00004028,-0.
 00000724,-0.00000807,-0.00000400,-0.00000662,0.00000737,0.00000105,-0.
 00000147,0.00000010,-0.00000803,-0.02650524,-0.05771814,-0.04534179,0.
 04644321,0.00972387,-0.03510040,0.14589263,-0.04542118,-0.27212105,-0.
 03084067,0.01520149,0.05767276,0.00050083,0.00104259,-0.00025472,-0.11
 628639,0.25680783,0.63058271,-0.00078341,0.00168457,0.00044868,0.00101
 021,0.00063428,-0.00074065,0.00016070,0.00014399,-0.00000478,-0.000096
 33,-0.00004450,0.00012678,0.00001019,-0.00005320,-0.00001446,0.0000476
 2,0.00000988,-0.00003301,0.00000392,0.00000155,-0.00004863,0.00000967,
 0.00003222,-0.00000221,0.00000152,-0.00000870,-0.00002157,-0.00000391,
 0.00000009,0.00000830,-0.00001052,0.00000269,-0.00000695,0.00000349,-0
 .00000124,-0.00000083,0.00000307,-0.00000147,-0.00000439,0.00017130,0.
 00029601,-0.00025248,0.00012693,0.00005302,0.00005544,0.00001015,-0.00
 015634,-0.00004700,-0.00002362,0.00006705,0.00002293,-0.00001315,0.000
 00479,0.00000390,0.00000441,0.00001893,0.00002318,-0.00002920,0.000025
 16,-0.00001632,-0.00000041,-0.00001064,-0.00001383,-0.00000566,0.00000
 166,0.00001271,-0.00000977,0.00000025,-0.00000519,-0.00000209,0.000004
 00,0.00000145,-0.00549277,-0.00337657,0.00504477,0.00256794,-0.0034603
 9,0.00012338,-0.29356023,-0.12898256,0.03884160,0.00053972,0.00079815,
 -0.00022074,-0.00046208,-0.00009699,0.00016992,-0.01175656,-0.01190985
 ,-0.00139554,0.30732783,0.00134436,-0.00168305,0.00226919,-0.00005691,
 0.00001433,-0.00061369,0.00035245,0.00001344,-0.00041150,-0.00007218,0
 .00003444,0.00024915,0.00040356,-0.00005361,0.00002290,0.00017061,-0.0
 0006922,0.00007745,-0.00015344,-0.00000690,-0.00007872,0.00006567,0.00
 007981,-0.00011264,-0.00001945,-0.00002841,-0.00002444,-0.00006446,-0.
 00004389,0.00004563,-0.00000817,0.00000234,-0.00002370,-0.00001503,-0.
 00001274,0.00000806,-0.00001907,0.00000819,-0.00000894,-0.00015297,0.0
 0037142,0.00002689,0.00010983,0.00004044,0.00012786,0.00007657,0.00010
 126,0.00002783,0.00003243,0.00003478,0.00001743,-0.00003065,-0.0000261
 9,0.00001087,0.00002102,-0.00003862,-0.00000020,-0.00003511,-0.0000250
 2,0.00000926,0.00000540,0.00001504,0.00001901,0.00000564,0.00000632,0.
 00001449,0.00000598,-0.00000162,0.00002012,-0.00000155,-0.00000108,0.0
 0000757,-0.02331936,-0.00545502,0.00559687,-0.00303133,0.00130637,-0.0
 0662512,-0.12816862,-0.12467276,0.00856770,0.00089053,-0.00059219,-0.0
 0026095,-0.00107556,-0.00054287,0.00029405,0.00867603,0.00861656,-0.00
 345365,0.14304544,0.12036349,-0.00237133,0.00086468,0.00030883,0.00040
 146,0.00051738,-0.00064299,0.00006993,-0.00014336,0.00034388,-0.000110
 47,-0.00007649,-0.00002281,-0.00016370,0.00001323,-0.00004503,-0.00009
 706,0.00002331,-0.00005924,0.00008545,0.00007070,-0.00000044,0.0000570
 8,-0.00004569,0.00004260,0.00003517,0.00000291,-0.00004506,-0.00001028
 ,0.00004857,-0.00007589,-0.00000576,0.00003152,-0.00000752,-0.00001267
 ,0.00001207,0.00000544,-0.00000179,0.00001857,0.00000121,0.00005251,0.
 00018344,-0.00012001,0.00009668,0.00003039,0.00006144,0.00001342,-0.00
 007354,0.00002105,-0.00001459,0.00002480,0.00002397,-0.00000596,0.0000
 1346,-0.00000599,-0.00000250,0.00003121,-0.00000613,-0.00003236,0.0000
 2343,-0.00001772,0.00001349,0.00000448,0.00001958,0.00000185,0.0000135
 6,0.00001410,0.00000343,-0.00000500,0.00000542,0.00000423,0.00000673,0
 .00000789,-0.02132638,-0.01252534,0.00722110,0.00031821,-0.00639865,-0
 .00090281,0.03888833,0.00920245,-0.07093601,-0.00015269,-0.00019140,-0
 .00110256,-0.00106295,-0.00048352,0.00025491,0.02767447,0.01485175,0.0
 0194454,-0.04587616,-0.00441948,0.06663880,-0.00237964,0.00026188,-0.0
 0028071,0.00023621,0.00094036,-0.00005346,0.00033560,0.00046489,0.0013
 7064,-0.00022919,0.00013206,0.00021401,0.00027226,0.00023185,0.0000020
 8,0.00039274,-0.00005841,-0.00014796,-0.00001348,0.00005614,-0.0002564
 9,-0.00014915,0.00012637,-0.00023037,0.00002738,0.00000087,0.00001034,
 -0.00021245,-0.00009080,0.00020457,-0.00000524,0.00004847,0.00000110,-
 0.00004546,-0.00001281,-0.00002723,0.00000322,0.00000610,-0.00001302,-
 0.00007383,-0.00045708,0.00026147,0.00021531,0.00012189,0.00025559,0.0
 0003295,0.00003522,-0.00032785,-0.00017777,0.00004276,-0.00020876,-0.0
 0001583,0.00001647,0.00001368,0.00018681,0.00021821,0.00017885,-0.0000
 8977,-0.00002996,-0.00001132,0.00007976,-0.00024694,0.00007895,-0.0000
 0512,0.00000451,0.00001549,0.00000314,0.00000324,0.00002927,-0.0000028
 6,-0.00000118,0.00000503,-0.05282185,-0.04941844,-0.02592347,0.0743955
 0,0.02336537,-0.02574016,-0.03610859,0.02693197,0.08003687,-0.16598779
 ,-0.04531110,0.00957591,-0.00028344,-0.00157559,0.00559566,-0.29806918
 ,-0.13019447,0.01191671,0.00149944,-0.00150095,0.00468996,0.64923978,-
 0.00142786,-0.00025691,0.00080902,0.00014512,0.00078382,-0.00008319,0.
 00015040,0.00055878,0.00055065,-0.00008057,0.00025067,0.00019939,0.000
 44916,-0.00000609,0.00010804,0.00037443,-0.00011786,-0.00008217,-0.000
 05482,0.00004381,-0.00023236,-0.00011942,0.00019493,-0.00024296,-0.000
 00611,0.00000424,0.00000025,-0.00018651,-0.00012396,0.00022009,0.00001
 181,0.00002525,0.00000969,-0.00001032,-0.00002878,-0.00002171,0.000002
 98,-0.00000217,-0.00000313,0.00008669,-0.00038347,0.00030727,0.0002344
 1,0.00025569,0.00021971,0.00005731,-0.00008290,-0.00038240,-0.00019691
 ,0.00007679,-0.00022705,-0.00000314,0.00001372,0.00001526,0.00019830,0
 .00021504,0.00024332,-0.00004430,-0.00005247,0.00004297,0.00003326,-0.
 00031201,0.00004214,-0.00000847,-0.00001225,-0.00000417,-0.00000371,0.
 00001661,-0.00002200,-0.00000578,-0.00000927,-0.00001413,-0.04782778,-
 0.05400786,-0.02084127,0.05948643,0.00744703,-0.05684790,-0.00853729,0
 .04820485,0.06223174,-0.09265985,-0.21804771,-0.10301951,-0.00183630,0
 .00547293,-0.00328172,-0.08310846,-0.16509956,-0.03747299,-0.00104052,
 0.00478944,-0.00501694,0.17213343,0.45498230,-0.00062738,0.00041799,0.
 00043323,0.00016796,0.00015800,-0.00035956,-0.00022051,0.00030554,-0.0
 0002779,0.00021025,0.00003272,-0.00000147,0.00019615,-0.00017572,0.000
 14073,0.00013440,-0.00002821,-0.00006438,0.00010198,0.00007076,-0.0002
 8518,-0.00001447,0.00008162,-0.00007664,-0.00002295,0.00000770,0.00000
 258,0.00000700,-0.00008113,0.00008538,0.00003825,-0.00005263,0.0000209
 6,0.00002082,-0.00002507,-0.00000524,0.00001724,-0.00000656,0.00000244
 ,0.00029167,-0.00016341,0.00014233,0.00008129,0.00016568,0.00000727,-0
 .00003663,-0.00007855,-0.00021403,-0.00008674,0.00005725,-0.00009920,-
 0.00000171,0.00002473,0.00000946,0.00007120,0.00010086,0.00013968,0.00
 000304,-0.00002107,0.00001862,-0.00002159,-0.00018210,-0.00001892,-0.0
 0000839,-0.00002188,-0.00001826,-0.00000385,0.00001456,-0.00003120,-0.
 00000457,-0.00000436,-0.00002016,-0.02537990,-0.01983007,-0.01246934,0
 .02491211,-0.02374901,-0.04567582,0.02925175,0.02845022,0.02416049,-0.
 05475936,-0.14403394,-0.23310476,0.00546205,-0.00362182,-0.00096008,0.
 07594020,0.00416094,-0.14515710,0.00514661,-0.00457825,-0.00192231,-0.
 18387712,0.23133940,0.65459978,-0.00050760,-0.00054239,-0.00029480,-0.
 00020960,0.00007829,0.00022302,0.00007020,-0.00013380,0.00020475,-0.00
 008257,0.00007914,0.00002576,-0.00007831,0.00009954,-0.00005765,0.0000
 1072,-0.00001441,0.00002363,-0.00000047,-0.00007855,0.00001779,-0.0000
 1045,0.00000042,0.00000044,0.00001740,-0.00000186,-0.00001666,-0.00002
 607,0.00001566,-0.00000285,-0.00002010,0.00002068,-0.00001976,-0.00001
 773,0.00000724,0.00000153,-0.00001359,0.00000569,-0.00000409,-0.000130
 56,-0.00003829,-0.00021475,0.00006655,0.00000142,0.00007470,0.00003720
 ,-0.00000016,0.00002358,0.00000401,0.00000376,-0.00002025,-0.00001960,
 -0.00000742,-0.00000441,0.00000037,0.00001972,-0.00000884,-0.00001154,
 0.00002349,-0.00001828,0.00003608,0.00000843,0.00002958,-0.00000177,0.
 00002100,0.00002191,0.00000462,-0.00000711,0.00001520,0.00000286,0.000
 00449,0.00001757,0.00157099,-0.00095999,0.00491461,-0.01168618,-0.0119
 3685,-0.00128576,0.00058577,0.00087292,-0.00017403,-0.29679241,-0.1303
 7547,0.03905995,-0.00005059,0.00242068,-0.00101910,0.00287253,-0.00366
 921,0.00030111,-0.00036625,0.00034721,-0.00029596,-0.00397875,-0.00217
 294,0.00542654,0.30931364,0.00038838,0.00004390,-0.00019365,0.00006230
 ,-0.00004575,-0.00008765,-0.00001125,0.00007439,0.00003124,0.00003097,
 -0.00000101,-0.00004536,0.00002380,0.00000304,0.00000960,-0.00000064,-
 0.00001291,0.00001473,-0.00000519,-0.00000008,0.00000994,-0.00000978,0
 .00000366,-0.00000958,-0.00000114,-0.00000532,0.00000891,-0.00000573,-
 0.00000497,0.00001022,0.00000624,-0.00000461,-0.00000087,-0.00000670,-
 0.00000266,0.00000187,-0.00000580,0.00000348,0.00000132,-0.00004756,0.
 00004603,0.00009465,-0.00003740,-0.00004670,-0.00001719,-0.00000120,0.
 00002607,0.00004640,0.00002173,-0.00001582,0.00002267,0.00001107,-0.00
 000949,-0.00000519,-0.00000394,-0.00001614,-0.00003597,-0.00001461,-0.
 00000779,-0.00000680,0.00000530,0.00003739,0.00000074,0.00000218,-0.00
 000027,-0.00000182,-0.00000026,-0.00000970,0.00001864,0.00000026,0.000
 00339,0.00000832,-0.00141195,0.00455400,-0.00436951,0.00882709,0.00866
 926,-0.00344052,0.00086461,-0.00054086,-0.00019892,-0.13023300,-0.1256
 0233,0.00884624,0.00173959,-0.00204980,0.00254138,-0.00337395,0.001808
 70,-0.00683566,0.00035849,-0.00064616,0.00053471,-0.02302291,-0.004934
 14,0.00571701,0.14437929,0.12122931,0.00080152,0.00087516,0.00031529,0
 .00021797,0.00000886,-0.00022959,-0.00000788,0.00003411,-0.00018630,0.
 00000038,-0.00003776,0.00002913,0.00005083,-0.00006394,0.00000739,-0.0
 0000020,0.00000265,0.00000100,0.00000795,0.00000846,0.00000169,0.00002
 027,0.00000111,0.00000784,-0.00001266,-0.00000194,0.00000268,0.0000164
 1,-0.00000469,-0.00000459,0.00000118,-0.00000336,0.00000619,0.00001336
 ,-0.00000170,-0.00000047,0.00000547,-0.00000515,0.00000038,0.00004976,
 0.00003811,0.00018370,-0.00002918,-0.00000075,0.00001256,-0.00003872,-
 0.00001543,-0.00005076,-0.00003513,-0.00000689,-0.00001582,0.00001796,
 0.00000757,0.00000155,-0.00000879,0.00001252,0.00002475,0.00002290,-0.
 00000230,0.00000365,-0.00004195,-0.00003773,-0.00003254,0.00000640,-0.
 00000945,-0.00001649,0.00000094,0.00000840,-0.00002311,0.00000474,-0.0
 0000292,-0.00001520,0.00486097,-0.00479783,-0.00212928,0.02706038,0.01
 479524,0.00201918,-0.00020802,-0.00032767,-0.00127167,0.03895870,0.008
 66602,-0.07132987,-0.00196450,0.00212388,-0.00034008,0.00064036,-0.006
 55472,-0.00061003,-0.00028338,0.00053388,-0.00027404,-0.02306319,-0.01
 244750,0.00874148,-0.04507684,-0.00496762,0.06549792,0.00043474,0.0006
 2115,0.00052082,0.00006202,-0.00004997,-0.00006377,0.00004029,-0.00002
 757,0.00003357,-0.00002499,-0.00000205,-0.00000674,-0.00003090,0.00000
 976,0.00000162,-0.00001526,0.00000614,-0.00001369,0.00000361,0.0000154
 0,0.00001327,-0.00000119,-0.00001275,0.00000071,0.00000628,0.00000690,
 0.00000094,-0.00000851,0.00001062,-0.00001499,-0.00000230,0.00000859,0
 .00000073,0.00000096,0.00000414,0.00000083,0.00000306,0.00000254,0.000
 00242,-0.00023273,0.00009592,0.00013467,0.00002523,0.00000600,0.000006
 12,0.00002570,-0.00001823,0.00003478,0.00003605,0.00000293,0.00001126,
 -0.00001705,0.00000476,0.00000845,0.00000033,-0.00001359,-0.00002840,-
 0.00000380,-0.00000518,0.00000412,0.00000318,0.00003399,0.00001302,0.0
 0000161,0.00000351,0.00000511,-0.00000229,-0.00000113,0.00000085,-0.00
 000288,-0.00000033,0.00000160,-0.00018964,-0.00192427,0.00534951,-0.00
 095955,0.00036292,0.00054671,0.01135665,0.01546919,0.01593578,-0.00335
 382,-0.00511595,0.00367181,-0.00019054,0.00043270,-0.00034150,-0.09754
 154,-0.07294905,-0.05609213,-0.00009196,0.00179207,-0.00204711,-0.0031
 0663,-0.02265569,-0.02331041,-0.00044687,-0.00100048,-0.00106497,0.094
 25515,-0.00024755,-0.00021772,0.00002521,-0.00001320,-0.00001744,0.000
 01044,-0.00001987,0.00001990,-0.00017347,0.00003995,-0.00003137,0.0000
 3596,0.00001854,-0.00006337,0.00002095,0.00000982,0.00003568,-0.000005
 02,-0.00003506,0.00000849,-0.00004331,0.00001637,0.00000193,0.00001608
 ,-0.00001392,-0.00000420,0.00000158,0.00004147,-0.00000995,0.00000413,
 0.00000188,-0.00003204,0.00000410,0.00001177,-0.00000580,-0.00000298,0
 .00000917,-0.00001193,-0.00000488,0.00019235,-0.00012056,-0.00006064,-
 0.00000263,0.00003268,-0.00002872,-0.00001006,0.00001091,-0.00006263,-
 0.00002925,0.00001452,-0.00002529,0.00000113,0.00000074,0.00000313,0.0
 0002652,0.00001285,0.00004842,-0.00000474,-0.00001140,0.00001555,0.000
 00342,-0.00004982,-0.00000691,-0.00000811,-0.00001108,-0.00000404,-0.0
 0000463,0.00000597,-0.00000385,-0.00000554,-0.00000400,-0.00000695,-0.
 00158941,0.00549948,-0.00347617,0.00041494,0.00002852,0.00095386,-0.00
 551331,0.00005770,-0.00276695,-0.00539450,0.00391183,-0.00168848,0.000
 38525,-0.00071244,0.00039884,-0.07282222,-0.20144889,-0.14361006,0.002
 43780,-0.00202610,0.00212690,-0.00183004,-0.00530031,-0.01302118,-0.00
 014273,-0.00055289,-0.00053752,0.08245438,0.20286265,-0.00087936,-0.00
 080135,-0.00052160,0.00002954,0.00006305,-0.00001778,-0.00012395,0.000
 11621,-0.00010956,0.00002197,-0.00003440,0.00004322,0.00008789,-0.0000
 4140,0.00005035,0.00000696,0.00000285,-0.00001185,-0.00000229,0.000033
 65,-0.00002672,0.00001940,0.00001095,-0.00000445,-0.00001619,-0.000001
 73,-0.00000805,0.00002236,-0.00000751,0.00000700,0.00000214,-0.0000134
 6,0.00000615,0.00001708,-0.00001108,-0.00001029,0.00001155,-0.00000970
 ,-0.00000036,0.00037147,0.00003777,-0.00008134,-0.00007350,0.00000238,
 -0.00009522,-0.00002868,-0.00007220,-0.00003789,-0.00000808,0.00000570
 ,0.00003187,0.00000510,0.00000497,0.00000274,-0.00001081,-0.00002503,0
 .00000710,0.00001486,0.00000037,0.00001139,-0.00002076,0.00000894,-0.0
 0003279,-0.00000531,-0.00001422,-0.00001138,-0.00001586,0.00000597,-0.
 00001881,-0.00000528,-0.00000334,-0.00001279,0.00589168,-0.00344469,-0
 .00072120,0.00066128,0.00091119,-0.00027044,-0.01248204,-0.02120366,-0
 .01220712,0.00324116,-0.00192652,0.00316961,-0.00038494,0.00041337,-0.
 00035970,-0.05594998,-0.14344935,-0.19500126,-0.00107512,0.00272376,-0
 .00052157,0.00494250,0.00529575,0.00832569,0.00013125,0.00025991,0.000
 15404,0.05760060,0.15929291,0.19877143,-0.00023064,0.00041486,-0.00018
 696,0.00008958,0.00008199,-0.00006927,-0.00000050,-0.00002561,0.000127
 65,-0.00003144,0.00002891,0.00000210,-0.00001939,0.00004309,-0.0000264
 2,0.00001109,-0.00002516,0.00001460,0.00000816,-0.00003266,0.00001678,
 -0.00000712,0.00000484,-0.00000831,0.00000720,-0.00000212,-0.00000753,
 -0.00001985,0.00000165,0.00000298,-0.00000516,0.00001755,-0.00000718,-
 0.00001003,0.00000285,0.00000215,-0.00000912,0.00000664,0.00000039,-0.
 00005376,0.00003263,-0.00001265,0.00002202,-0.00000806,0.00002020,0.00
 000135,-0.00000775,0.00003501,0.00000869,-0.00000209,0.00000345,-0.000
 00361,-0.00000001,-0.00000325,-0.00001234,0.00000574,-0.00001200,-0.00
 000057,0.00001225,-0.00001113,0.00000505,0.00001079,0.00001013,0.00000
 114,0.00000765,0.00000573,0.00000523,-0.00000264,0.00000185,0.00000400
 ,0.00000277,0.00000482,-0.00046060,-0.00046446,-0.00102956,0.00177491,
 -0.00456840,0.00004865,-0.00260742,-0.00611620,0.00165899,0.01111741,-
 0.00480683,-0.01179314,0.00028294,-0.00013207,-0.00050391,-0.01069391,
 0.00978499,0.02719154,-0.00079020,0.00038002,0.00118403,-0.16316407,0.
 02862304,0.14089507,-0.00014192,0.00247219,-0.00092302,-0.00003241,0.0
 0162199,-0.00199662,0.16495531,0.00044155,-0.00052998,0.00039653,-0.00
 006223,-0.00005559,-0.00004183,0.00007691,0.00003659,-0.00011242,0.000
 02280,-0.00000595,0.00002442,0.00004295,-0.00003317,0.00002614,0.00000
 347,0.00001646,-0.00001196,-0.00002604,0.00001744,-0.00003548,0.000012
 60,0.00000448,-0.00000212,-0.00000506,-0.00000400,-0.00000093,0.000008
 80,-0.00000707,0.00000083,0.00000555,-0.00001191,0.00000381,0.00000410
 ,-0.00000389,-0.00000002,0.00000377,-0.00000248,-0.00000147,0.00000621
 ,0.00000437,-0.00002936,0.00003251,0.00004577,-0.00001270,0.00005107,-
 0.00001431,-0.00000610,0.00001596,0.00001783,0.00002060,-0.00001269,-0
 .00000219,0.00000820,0.00001153,-0.00001187,0.00000488,-0.00001294,-0.
 00000489,0.00000299,-0.00000951,0.00000548,-0.00000025,0.00000031,-0.0
 0000643,-0.00000278,-0.00000352,0.00000251,0.00000196,-0.00000370,-0.0
 0000117,-0.00000447,-0.00051889,-0.00104859,0.00033787,-0.00489483,0.0
 0156032,-0.00591760,-0.00579221,0.00294391,-0.00267934,0.01615073,0.00
 079286,-0.02024857,0.00072066,-0.00022555,-0.00082720,-0.01114374,0.00
 878669,0.01488755,-0.00047705,0.00012779,0.00072915,0.02860863,-0.0745
 5820,-0.06143005,0.00167211,-0.00199322,0.00271090,0.00243260,-0.00187
 253,0.00186994,-0.02736239,0.06603047,-0.00035716,0.00046128,-0.000199
 30,0.00011272,0.00006218,-0.00002800,-0.00009447,0.00002537,0.00001205
 ,-0.00000120,-0.00003944,0.00003379,-0.00000337,-0.00001694,0.00001161
 ,-0.00000038,0.00002188,-0.00002572,-0.00000486,0.00002951,-0.00002654
 ,0.00000311,-0.00000900,0.00000916,-0.00000571,0.00000428,0.00000151,0
 .00001537,-0.00000122,-0.00000539,0.00000074,-0.00000629,0.00000813,0.
 00001134,-0.00000121,-0.00000575,0.00001251,-0.00000668,0.00000040,0.0
 0008560,0.00000203,0.00004017,-0.00001038,0.00002105,-0.00006988,0.000
 00070,-0.00003769,-0.00000792,0.00002045,0.00001900,0.00001809,-0.0000
 1650,0.00001345,0.00001141,0.00000403,-0.00001962,0.00001185,0.0000080
 9,-0.00000534,0.00001795,-0.00001214,0.00000506,-0.00000697,-0.0000054
 2,-0.00001213,-0.00000442,-0.00000775,0.00000955,-0.00001697,-0.000007
 02,-0.00000480,-0.00001403,-0.00094440,0.00024039,0.00016827,-0.000495
 60,-0.00622789,0.00090403,0.00214462,-0.00234767,0.00359056,0.01677951
 ,-0.00208715,-0.01238549,0.00065936,-0.00011132,-0.00081766,-0.0011381
 7,-0.00347798,0.00132080,0.00003359,-0.00005868,-0.00020660,0.14076245
 ,-0.06139158,-0.25631866,-0.00199892,0.00203778,-0.00048058,-0.0009155
 8,0.00257096,-0.00049841,-0.15463517,0.07033886,0.26495853||-0.0000156
 9,0.00000444,-0.00001714,0.00000392,-0.00000104,0.00000028,0.00000367,
 0.00000205,0.00000513,0.00000244,-0.00000349,0.00000062,-0.00000495,0.
 00000015,0.00000347,-0.00000516,0.00000201,-0.00000024,0.00000294,0.00
 000044,0.00000187,0.00000322,-0.00000815,0.00000189,0.00000091,-0.0000
 0030,0.00000110,0.00000544,0.00000371,-0.00000412,-0.00000055,0.000000
 76,-0.00000152,-0.00000080,0.00000066,0.00000080,-0.00000031,0.0000008
 9,-0.00000028,0.00003437,-0.00004992,0.00001575,0.00000518,0.00003668,
 0.00002903,-0.00004221,0.00001148,-0.00003213,-0.00002415,0.00000983,-
 0.00003974,-0.00000718,-0.00000035,-0.00000513,0.00002172,0.00003270,0
 .00002315,0.00000183,-0.00000271,0.00000251,0.00000902,-0.00004398,0.0
 0000850,0.00000280,0.00000024,0.00000239,-0.00000095,-0.00000266,-0.00
 000068,-0.00000032,0.00000260,0.00000126,-0.00004066,-0.00004212,-0.00
 000956,0.00006412,0.00001190,-0.00005060,-0.00000972,0.00004388,0.0000
 6449,-0.00001675,0.00004123,0.00006446,-0.00000285,-0.00000169,0.00000
 284,0.00006413,0.00001227,-0.00004348,-0.00000340,-0.00000575,-0.00000
 412,-0.00005107,-0.00005575,-0.00002109,0.00000258,-0.00000321,-0.0000
 0477,-0.00000756,-0.00000168,0.00000377,0.00000602,0.00000489,0.000001
 29|||@


 TO BEHOLD HARMS OF OUR OWN HANDS DOING,
 WHERE NONE BESIDE US WROUGHT,
 CAUSES SHARP RUING...

                                         SOPHOCLES
 Job cpu time:  0 days  0 hours  6 minutes 25.0 seconds.
 File lengths (MBytes):  RWF=    350 Int=      0 D2E=      0 Chk=      7 Scr=      1
 Normal termination of Gaussian 09 at Tue Sep 07 01:44:15 2021.
