 Entering Link 1 = b:\programy\g09w\l1.exe PID=      9272.
  
 Copyright (c) 1988,1990,1992,1993,1995,1998,2003,2009, Gaussian, Inc.
                  All Rights Reserved.
  
 This is part of the Gaussian(R) 09 program.  It is based on
 the Gaussian(R) 03 system (copyright 2003, Gaussian, Inc.),
 the Gaussian(R) 98 system (copyright 1998, Gaussian, Inc.),
 the Gaussian(R) 94 system (copyright 1995, Gaussian, Inc.),
 the Gaussian 92(TM) system (copyright 1992, Gaussian, Inc.),
 the Gaussian 90(TM) system (copyright 1990, Gaussian, Inc.),
 the Gaussian 88(TM) system (copyright 1988, Gaussian, Inc.),
 the Gaussian 86(TM) system (copyright 1986, Carnegie Mellon
 University), and the Gaussian 82(TM) system (copyright 1983,
 Carnegie Mellon University). Gaussian is a federally registered
 trademark of Gaussian, Inc.
  
 This software contains proprietary and confidential information,
 including trade secrets, belonging to Gaussian, Inc.
  
 This software is provided under written license and may be
 used, copied, transmitted, or stored only in accord with that
 written license.
  
 The following legend is applicable only to US Government
 contracts under FAR:
  
                    RESTRICTED RIGHTS LEGEND
  
 Use, reproduction and disclosure by the US Government is
 subject to restrictions as set forth in subparagraphs (a)
 and (c) of the Commercial Computer Software - Restricted
 Rights clause in FAR 52.227-19.
  
 Gaussian, Inc.
 340 Quinnipiac St., Bldg. 40, Wallingford CT 06492
  
  
 ---------------------------------------------------------------
 Warning -- This program may not be used in any manner that
 competes with the business of Gaussian, Inc. or will provide
 assistance to any competitor of Gaussian, Inc.  The licensee
 of this program is prohibited from giving any competitor of
 Gaussian, Inc. access to this program.  By using this program,
 the user acknowledges that Gaussian, Inc. is engaged in the
 business of creating and licensing software in the field of
 computational chemistry and represents and warrants to the
 licensee that it is not a competitor of Gaussian, Inc. and that
 it will not use this program in any manner prohibited above.
 ---------------------------------------------------------------
  

 Cite this work as:
 Gaussian 09, Revision A.02,
 M. J. Frisch, G. W. Trucks, H. B. Schlegel, G. E. Scuseria, 
 M. A. Robb, J. R. Cheeseman, G. Scalmani, V. Barone, B. Mennucci, 
 G. A. Petersson, H. Nakatsuji, M. Caricato, X. Li, H. P. Hratchian, 
 A. F. Izmaylov, J. Bloino, G. Zheng, J. L. Sonnenberg, M. Hada, 
 M. Ehara, K. Toyota, R. Fukuda, J. Hasegawa, M. Ishida, T. Nakajima, 
 Y. Honda, O. Kitao, H. Nakai, T. Vreven, J. A. Montgomery, Jr., 
 J. E. Peralta, F. Ogliaro, M. Bearpark, J. J. Heyd, E. Brothers, 
 K. N. Kudin, V. N. Staroverov, R. Kobayashi, J. Normand, 
 K. Raghavachari, A. Rendell, J. C. Burant, S. S. Iyengar, J. Tomasi, 
 M. Cossi, N. Rega, J. M. Millam, M. Klene, J. E. Knox, J. B. Cross, 
 V. Bakken, C. Adamo, J. Jaramillo, R. Gomperts, R. E. Stratmann, 
 O. Yazyev, A. J. Austin, R. Cammi, C. Pomelli, J. W. Ochterski, 
 R. L. Martin, K. Morokuma, V. G. Zakrzewski, G. A. Voth, 
 P. Salvador, J. J. Dannenberg, S. Dapprich, A. D. Daniels, 
 O. Farkas, J. B. Foresman, J. V. Ortiz, J. Cioslowski, 
 and D. J. Fox, Gaussian, Inc., Wallingford CT, 2009.
 
 ******************************************
 Gaussian 09:  IA32W-G09RevA.02 11-Jun-2009
                07-Sep-2021 
 ******************************************
 %nprocshared=12
 Will use up to   12 processors via shared memory.
 ----------------------------------------------
 # opt freq=noraman hf/6-311g geom=connectivity
 ----------------------------------------------
 1/18=20,19=15,38=1,57=2/1,3;
 2/9=110,12=2,17=6,18=5,40=1/2;
 3/5=4,6=6,11=9,16=1,25=1,30=1,71=1/1,2,3;
 4//1;
 5/5=2,38=5/2;
 6/7=2,8=2,9=2,10=2,28=1/1;
 7//1,2,3,16;
 1/18=20,19=15/3(2);
 2/9=110/2;
 99//99;
 2/9=110/2;
 3/5=4,6=6,11=9,16=1,25=1,30=1,71=1/1,2,3;
 4/5=5,16=3/1;
 5/5=2,38=5/2;
 7//1,2,3,16;
 1/18=20,19=15/3(-5);
 2/9=110/2;
 6/7=2,8=2,9=2,10=2,19=2,28=1/1;
 99/9=1/99;
 -----
 M0001
 -----
 Symbolic Z-matrix:
 Charge =  0 Multiplicity = 1
 C                    -0.10817   0.00419   0.77038 
 H                    -0.22626  -0.00853   1.88706 
 C                     1.35458   0.21166   0.45916 
 C                     2.24616   0.48208   1.49923 
 C                     1.8357    0.13746  -0.8497 
 C                     3.59788   0.67033   1.2322 
 H                     1.88217   0.54796   2.53125 
 C                     3.18709   0.32334  -1.11357 
 H                     1.12643  -0.05281  -1.66984 
 C                     4.07088   0.58887  -0.07267 
 H                     4.29028   0.88307   2.05317 
 H                     3.55485   0.26179  -2.1429 
 H                     5.1356    0.73516  -0.28064 
 C                    -0.58815  -1.35283   0.31868 
 C                    -1.82021  -1.53237  -0.30988 
 C                     0.20041  -2.47408   0.59697 
 C                    -2.25318  -2.80726  -0.65968 
 H                    -2.45236  -0.66326  -0.5317 
 C                    -0.23299  -3.7457    0.24555 
 H                     1.16996  -2.34206   1.09228 
 C                    -1.46185  -3.91565  -0.38444 
 H                    -3.22237  -2.93458  -1.15289 
 H                     0.39446  -4.6153    0.46609 
 H                    -1.80331  -4.91804  -0.66123 
 C                    -0.92556   1.15495   0.23874 
 C                    -1.62511   1.9657    1.13524 
 C                    -0.993     1.43613  -1.1279 
 C                    -2.37973   3.03738   0.67057 
 H                    -1.58082   1.75928   2.21114 
 C                    -1.74786   2.50715  -1.5899 
 H                    -0.42724   0.8056   -1.83189 
 C                    -2.44355   3.30943  -0.69133 
 H                    -2.92424   3.66801   1.38086 
 H                    -1.79251   2.71948  -2.66295 
 H                    -3.03799   4.15344  -1.05544 
 

 GradGradGradGradGradGradGradGradGradGradGradGradGradGradGradGradGradGrad
 Berny optimization.
 Initialization pass.
                           ----------------------------
                           !    Initial Parameters    !
                           ! (Angstroms and Degrees)  !
 --------------------------                            --------------------------
 ! Name  Definition              Value          Derivative Info.                !
 --------------------------------------------------------------------------------
 ! R1    R(1,2)                  1.123          estimate D2E/DX2                !
 ! R2    R(1,3)                  1.5098         estimate D2E/DX2                !
 ! R3    R(1,14)                 1.5086         estimate D2E/DX2                !
 ! R4    R(1,25)                 1.5083         estimate D2E/DX2                !
 ! R5    R(3,4)                  1.3963         estimate D2E/DX2                !
 ! R6    R(3,5)                  1.3965         estimate D2E/DX2                !
 ! R7    R(4,6)                  1.3906         estimate D2E/DX2                !
 ! R8    R(4,7)                  1.0963         estimate D2E/DX2                !
 ! R9    R(5,8)                  1.3894         estimate D2E/DX2                !
 ! R10   R(5,9)                  1.1009         estimate D2E/DX2                !
 ! R11   R(6,10)                 1.3903         estimate D2E/DX2                !
 ! R12   R(6,11)                 1.0948         estimate D2E/DX2                !
 ! R13   R(8,10)                 1.3911         estimate D2E/DX2                !
 ! R14   R(8,12)                 1.0948         estimate D2E/DX2                !
 ! R15   R(10,13)                1.0947         estimate D2E/DX2                !
 ! R16   R(14,15)                1.3947         estimate D2E/DX2                !
 ! R17   R(14,16)                1.3987         estimate D2E/DX2                !
 ! R18   R(15,17)                1.3911         estimate D2E/DX2                !
 ! R19   R(15,18)                1.0973         estimate D2E/DX2                !
 ! R20   R(16,19)                1.3887         estimate D2E/DX2                !
 ! R21   R(16,20)                1.0967         estimate D2E/DX2                !
 ! R22   R(17,21)                1.3894         estimate D2E/DX2                !
 ! R23   R(17,22)                1.0949         estimate D2E/DX2                !
 ! R24   R(19,21)                1.3914         estimate D2E/DX2                !
 ! R25   R(19,23)                1.0948         estimate D2E/DX2                !
 ! R26   R(21,24)                1.0945         estimate D2E/DX2                !
 ! R27   R(25,26)                1.3966         estimate D2E/DX2                !
 ! R28   R(25,27)                1.3969         estimate D2E/DX2                !
 ! R29   R(26,28)                1.3906         estimate D2E/DX2                !
 ! R30   R(26,29)                1.0964         estimate D2E/DX2                !
 ! R31   R(27,30)                1.3894         estimate D2E/DX2                !
 ! R32   R(27,31)                1.1015         estimate D2E/DX2                !
 ! R33   R(28,32)                1.3903         estimate D2E/DX2                !
 ! R34   R(28,33)                1.0948         estimate D2E/DX2                !
 ! R35   R(30,32)                1.3911         estimate D2E/DX2                !
 ! R36   R(30,34)                1.0948         estimate D2E/DX2                !
 ! R37   R(32,35)                1.0947         estimate D2E/DX2                !
 ! A1    A(2,1,3)              107.9637         estimate D2E/DX2                !
 ! A2    A(2,1,14)             104.7191         estimate D2E/DX2                !
 ! A3    A(2,1,25)             107.5868         estimate D2E/DX2                !
 ! A4    A(3,1,14)             111.7238         estimate D2E/DX2                !
 ! A5    A(3,1,25)             110.3366         estimate D2E/DX2                !
 ! A6    A(14,1,25)            114.0997         estimate D2E/DX2                !
 ! A7    A(1,3,4)              119.451          estimate D2E/DX2                !
 ! A8    A(1,3,5)              121.3114         estimate D2E/DX2                !
 ! A9    A(4,3,5)              119.2375         estimate D2E/DX2                !
 ! A10   A(3,4,6)              120.2535         estimate D2E/DX2                !
 ! A11   A(3,4,7)              120.0538         estimate D2E/DX2                !
 ! A12   A(6,4,7)              119.6927         estimate D2E/DX2                !
 ! A13   A(3,5,8)              120.3979         estimate D2E/DX2                !
 ! A14   A(3,5,9)              119.0432         estimate D2E/DX2                !
 ! A15   A(8,5,9)              120.5504         estimate D2E/DX2                !
 ! A16   A(4,6,10)             120.1965         estimate D2E/DX2                !
 ! A17   A(4,6,11)             119.8044         estimate D2E/DX2                !
 ! A18   A(10,6,11)            119.9991         estimate D2E/DX2                !
 ! A19   A(5,8,10)             120.0911         estimate D2E/DX2                !
 ! A20   A(5,8,12)             119.8529         estimate D2E/DX2                !
 ! A21   A(10,8,12)            120.0559         estimate D2E/DX2                !
 ! A22   A(6,10,8)             119.8224         estimate D2E/DX2                !
 ! A23   A(6,10,13)            120.0909         estimate D2E/DX2                !
 ! A24   A(8,10,13)            120.0866         estimate D2E/DX2                !
 ! A25   A(1,14,15)            122.1259         estimate D2E/DX2                !
 ! A26   A(1,14,16)            118.8246         estimate D2E/DX2                !
 ! A27   A(15,14,16)           118.9781         estimate D2E/DX2                !
 ! A28   A(14,15,17)           120.4137         estimate D2E/DX2                !
 ! A29   A(14,15,18)           119.8686         estimate D2E/DX2                !
 ! A30   A(17,15,18)           119.7176         estimate D2E/DX2                !
 ! A31   A(14,16,19)           120.5151         estimate D2E/DX2                !
 ! A32   A(14,16,20)           119.4555         estimate D2E/DX2                !
 ! A33   A(19,16,20)           120.0287         estimate D2E/DX2                !
 ! A34   A(15,17,21)           120.2659         estimate D2E/DX2                !
 ! A35   A(15,17,22)           119.6932         estimate D2E/DX2                !
 ! A36   A(21,17,22)           120.0409         estimate D2E/DX2                !
 ! A37   A(16,19,21)           120.1381         estimate D2E/DX2                !
 ! A38   A(16,19,23)           119.8364         estimate D2E/DX2                !
 ! A39   A(21,19,23)           120.0255         estimate D2E/DX2                !
 ! A40   A(17,21,19)           119.6881         estimate D2E/DX2                !
 ! A41   A(17,21,24)           120.1858         estimate D2E/DX2                !
 ! A42   A(19,21,24)           120.1261         estimate D2E/DX2                !
 ! A43   A(1,25,26)            119.2158         estimate D2E/DX2                !
 ! A44   A(1,25,27)            121.6393         estimate D2E/DX2                !
 ! A45   A(26,25,27)           119.1433         estimate D2E/DX2                !
 ! A46   A(25,26,28)           120.311          estimate D2E/DX2                !
 ! A47   A(25,26,29)           120.0263         estimate D2E/DX2                !
 ! A48   A(28,26,29)           119.6627         estimate D2E/DX2                !
 ! A49   A(25,27,30)           120.4453         estimate D2E/DX2                !
 ! A50   A(25,27,31)           119.0299         estimate D2E/DX2                !
 ! A51   A(30,27,31)           120.5187         estimate D2E/DX2                !
 ! A52   A(26,28,32)           120.2007         estimate D2E/DX2                !
 ! A53   A(26,28,33)           119.8002         estimate D2E/DX2                !
 ! A54   A(32,28,33)           119.999          estimate D2E/DX2                !
 ! A55   A(27,30,32)           120.1004         estimate D2E/DX2                !
 ! A56   A(27,30,34)           119.8407         estimate D2E/DX2                !
 ! A57   A(32,30,34)           120.0587         estimate D2E/DX2                !
 ! A58   A(28,32,30)           119.7992         estimate D2E/DX2                !
 ! A59   A(28,32,35)           120.1077         estimate D2E/DX2                !
 ! A60   A(30,32,35)           120.0931         estimate D2E/DX2                !
 ! D1    D(2,1,3,4)             -6.5181         estimate D2E/DX2                !
 ! D2    D(2,1,3,5)            173.4248         estimate D2E/DX2                !
 ! D3    D(14,1,3,4)          -121.1445         estimate D2E/DX2                !
 ! D4    D(14,1,3,5)            58.7984         estimate D2E/DX2                !
 ! D5    D(25,1,3,4)           110.7992         estimate D2E/DX2                !
 ! D6    D(25,1,3,5)           -69.2579         estimate D2E/DX2                !
 ! D7    D(2,1,14,15)          105.484          estimate D2E/DX2                !
 ! D8    D(2,1,14,16)          -71.4095         estimate D2E/DX2                !
 ! D9    D(3,1,14,15)         -137.9053         estimate D2E/DX2                !
 ! D10   D(3,1,14,16)           45.2012         estimate D2E/DX2                !
 ! D11   D(25,1,14,15)         -11.8866         estimate D2E/DX2                !
 ! D12   D(25,1,14,16)         171.22           estimate D2E/DX2                !
 ! D13   D(2,1,25,26)            0.8114         estimate D2E/DX2                !
 ! D14   D(2,1,25,27)         -179.6472         estimate D2E/DX2                !
 ! D15   D(3,1,25,26)         -116.7387         estimate D2E/DX2                !
 ! D16   D(3,1,25,27)           62.8028         estimate D2E/DX2                !
 ! D17   D(14,1,25,26)         116.5186         estimate D2E/DX2                !
 ! D18   D(14,1,25,27)         -63.9399         estimate D2E/DX2                !
 ! D19   D(1,3,4,6)            179.7252         estimate D2E/DX2                !
 ! D20   D(1,3,4,7)             -0.3407         estimate D2E/DX2                !
 ! D21   D(5,3,4,6)             -0.2189         estimate D2E/DX2                !
 ! D22   D(5,3,4,7)            179.7151         estimate D2E/DX2                !
 ! D23   D(1,3,5,8)           -179.5979         estimate D2E/DX2                !
 ! D24   D(1,3,5,9)              1.4568         estimate D2E/DX2                !
 ! D25   D(4,3,5,8)              0.3452         estimate D2E/DX2                !
 ! D26   D(4,3,5,9)           -178.6001         estimate D2E/DX2                !
 ! D27   D(3,4,6,10)            -0.0776         estimate D2E/DX2                !
 ! D28   D(3,4,6,11)           179.9327         estimate D2E/DX2                !
 ! D29   D(7,4,6,10)           179.988          estimate D2E/DX2                !
 ! D30   D(7,4,6,11)            -0.0016         estimate D2E/DX2                !
 ! D31   D(3,5,8,10)            -0.1748         estimate D2E/DX2                !
 ! D32   D(3,5,8,12)           179.911          estimate D2E/DX2                !
 ! D33   D(9,5,8,10)           178.7544         estimate D2E/DX2                !
 ! D34   D(9,5,8,12)            -1.1598         estimate D2E/DX2                !
 ! D35   D(4,6,10,8)             0.2507         estimate D2E/DX2                !
 ! D36   D(4,6,10,13)         -179.8649         estimate D2E/DX2                !
 ! D37   D(11,6,10,8)         -179.7598         estimate D2E/DX2                !
 ! D38   D(11,6,10,13)           0.1247         estimate D2E/DX2                !
 ! D39   D(5,8,10,6)            -0.1247         estimate D2E/DX2                !
 ! D40   D(5,8,10,13)          179.9908         estimate D2E/DX2                !
 ! D41   D(12,8,10,6)          179.7893         estimate D2E/DX2                !
 ! D42   D(12,8,10,13)          -0.0951         estimate D2E/DX2                !
 ! D43   D(1,14,15,17)        -177.2016         estimate D2E/DX2                !
 ! D44   D(1,14,15,18)           2.8825         estimate D2E/DX2                !
 ! D45   D(16,14,15,17)         -0.3127         estimate D2E/DX2                !
 ! D46   D(16,14,15,18)        179.7714         estimate D2E/DX2                !
 ! D47   D(1,14,16,19)         177.3804         estimate D2E/DX2                !
 ! D48   D(1,14,16,20)          -2.9216         estimate D2E/DX2                !
 ! D49   D(15,14,16,19)          0.3877         estimate D2E/DX2                !
 ! D50   D(15,14,16,20)       -179.9143         estimate D2E/DX2                !
 ! D51   D(14,15,17,21)          0.0722         estimate D2E/DX2                !
 ! D52   D(14,15,17,22)       -179.9874         estimate D2E/DX2                !
 ! D53   D(18,15,17,21)        179.9882         estimate D2E/DX2                !
 ! D54   D(18,15,17,22)         -0.0714         estimate D2E/DX2                !
 ! D55   D(14,16,19,21)         -0.2216         estimate D2E/DX2                !
 ! D56   D(14,16,19,23)        179.8246         estimate D2E/DX2                !
 ! D57   D(20,16,19,21)       -179.9179         estimate D2E/DX2                !
 ! D58   D(20,16,19,23)          0.1283         estimate D2E/DX2                !
 ! D59   D(15,17,21,19)          0.0988         estimate D2E/DX2                !
 ! D60   D(15,17,21,24)       -179.9329         estimate D2E/DX2                !
 ! D61   D(22,17,21,19)       -179.8414         estimate D2E/DX2                !
 ! D62   D(22,17,21,24)          0.1269         estimate D2E/DX2                !
 ! D63   D(16,19,21,17)         -0.0243         estimate D2E/DX2                !
 ! D64   D(16,19,21,24)       -179.9926         estimate D2E/DX2                !
 ! D65   D(23,19,21,17)        179.9295         estimate D2E/DX2                !
 ! D66   D(23,19,21,24)         -0.0389         estimate D2E/DX2                !
 ! D67   D(1,25,26,28)         179.6367         estimate D2E/DX2                !
 ! D68   D(1,25,26,29)          -0.3324         estimate D2E/DX2                !
 ! D69   D(27,25,26,28)          0.0837         estimate D2E/DX2                !
 ! D70   D(27,25,26,29)       -179.8854         estimate D2E/DX2                !
 ! D71   D(1,25,27,30)        -179.6436         estimate D2E/DX2                !
 ! D72   D(1,25,27,31)          -0.5389         estimate D2E/DX2                !
 ! D73   D(26,25,27,30)         -0.1018         estimate D2E/DX2                !
 ! D74   D(26,25,27,31)        179.0029         estimate D2E/DX2                !
 ! D75   D(25,26,28,32)          0.019          estimate D2E/DX2                !
 ! D76   D(25,26,28,33)       -179.9537         estimate D2E/DX2                !
 ! D77   D(29,26,28,32)        179.9883         estimate D2E/DX2                !
 ! D78   D(29,26,28,33)          0.0155         estimate D2E/DX2                !
 ! D79   D(25,27,30,32)          0.0172         estimate D2E/DX2                !
 ! D80   D(25,27,30,34)        179.9055         estimate D2E/DX2                !
 ! D81   D(31,27,30,32)       -179.0742         estimate D2E/DX2                !
 ! D82   D(31,27,30,34)          0.8142         estimate D2E/DX2                !
 ! D83   D(26,28,32,30)         -0.1045         estimate D2E/DX2                !
 ! D84   D(26,28,32,35)       -179.9973         estimate D2E/DX2                !
 ! D85   D(33,28,32,30)        179.8681         estimate D2E/DX2                !
 ! D86   D(33,28,32,35)         -0.0247         estimate D2E/DX2                !
 ! D87   D(27,30,32,28)          0.0865         estimate D2E/DX2                !
 ! D88   D(27,30,32,35)        179.9793         estimate D2E/DX2                !
 ! D89   D(34,30,32,28)       -179.8017         estimate D2E/DX2                !
 ! D90   D(34,30,32,35)          0.0912         estimate D2E/DX2                !
 --------------------------------------------------------------------------------
 Trust Radius=3.00D-01 FncErr=1.00D-07 GrdErr=1.00D-07
 Number of steps in this run= 197 maximum allowed number of steps= 210.
 GradGradGradGradGradGradGradGradGradGradGradGradGradGradGradGradGradGrad

                          Input orientation:                          
 ---------------------------------------------------------------------
 Center     Atomic      Atomic             Coordinates (Angstroms)
 Number     Number       Type             X           Y           Z
 ---------------------------------------------------------------------
      1          6           0       -0.108170    0.004191    0.770377
      2          1           0       -0.226263   -0.008535    1.887057
      3          6           0        1.354584    0.211664    0.459156
      4          6           0        2.246163    0.482082    1.499226
      5          6           0        1.835705    0.137460   -0.849700
      6          6           0        3.597876    0.670334    1.232196
      7          1           0        1.882168    0.547957    2.531252
      8          6           0        3.187086    0.323345   -1.113574
      9          1           0        1.126432   -0.052814   -1.669837
     10          6           0        4.070879    0.588873   -0.072672
     11          1           0        4.290284    0.883074    2.053171
     12          1           0        3.554850    0.261785   -2.142902
     13          1           0        5.135598    0.735164   -0.280636
     14          6           0       -0.588151   -1.352828    0.318681
     15          6           0       -1.820210   -1.532375   -0.309884
     16          6           0        0.200405   -2.474081    0.596967
     17          6           0       -2.253181   -2.807259   -0.659681
     18          1           0       -2.452355   -0.663256   -0.531699
     19          6           0       -0.232990   -3.745705    0.245553
     20          1           0        1.169961   -2.342058    1.092280
     21          6           0       -1.461845   -3.915655   -0.384443
     22          1           0       -3.222365   -2.934584   -1.152888
     23          1           0        0.394460   -4.615300    0.466089
     24          1           0       -1.803307   -4.918042   -0.661230
     25          6           0       -0.925564    1.154952    0.238739
     26          6           0       -1.625113    1.965697    1.135242
     27          6           0       -0.992995    1.436134   -1.127902
     28          6           0       -2.379734    3.037385    0.670566
     29          1           0       -1.580823    1.759285    2.211141
     30          6           0       -1.747862    2.507148   -1.589895
     31          1           0       -0.427240    0.805601   -1.831888
     32          6           0       -2.443547    3.309432   -0.691334
     33          1           0       -2.924238    3.668006    1.380858
     34          1           0       -1.792507    2.719478   -2.662950
     35          1           0       -3.037988    4.153445   -1.055437
 ---------------------------------------------------------------------
                    Distance matrix (angstroms):
                    1          2          3          4          5
     1  C    0.000000
     2  H    1.122979   0.000000
     3  C    1.509819   2.141604   0.000000
     4  C    2.510475   2.550296   1.396347   0.000000
     5  C    2.533981   3.429703   1.396455   2.409293   0.000000
     6  C    3.793653   3.938749   2.416678   1.390637   2.779118
     7  H    2.712529   2.273797   2.164491   1.096316   3.406098
     8  C    3.809179   4.556850   2.417440   2.781593   1.389393
     9  H    2.735349   3.805685   2.157454   3.403361   1.100862
    10  C    4.303143   4.760553   2.793455   2.410779   2.409056
    11  H    4.665233   4.606708   3.407347   2.155477   3.873960
    12  H    4.687352   5.532672   3.407989   3.876376   2.154829
    13  H    5.397783   5.831084   3.888112   3.403057   3.401526
    14  C    1.508612   2.097114   2.498317   3.576859   3.075899
    15  C    2.541472   3.112765   3.703027   4.885315   4.055301
    16  C    2.503422   2.815190   2.926491   3.706494   3.403997
    17  C    3.814498   4.292684   4.835459   5.977018   5.042467
    18  H    2.763348   3.351795   4.029896   5.245239   4.373755
    19  C    3.788500   4.081791   4.269284   5.058861   4.534098
    20  H    2.691120   2.833098   2.637505   3.049522   3.219086
    21  C    4.304792   4.685292   5.067415   6.052902   5.245764
    22  H    4.693991   5.174906   5.783254   6.972239   5.925660
    23  H    4.656708   4.860734   4.921532   5.520823   5.137822
    24  H    5.399201   5.751878   6.127106   7.087110   6.231856
    25  C    1.508318   2.135339   2.477387   3.478711   3.137610
    26  C    2.506341   2.533692   3.523111   4.161775   4.388588
    27  C    2.537093   3.430003   3.086941   4.278336   3.124980
    28  C    3.790809   3.923635   4.687699   5.349315   5.337668
    29  H    2.706448   2.250566   3.752492   4.096815   4.865360
    30  C    3.811072   4.553364   4.369557   5.440202   4.359503
    31  H    2.741504   3.812317   2.962522   4.283465   2.555783
    32  C    4.302929   4.751142   5.034440   5.897952   5.329023
    33  H    4.661166   4.588274   5.577109   6.074304   6.332235
    34  H    4.690150   5.531522   5.093216   6.216148   4.808182
    35  H    5.397567   5.821180   6.093136   6.922966   6.318492
                    6          7          8          9         10
     6  C    0.000000
     7  H    2.155499   0.000000
     8  C    2.406613   3.877888   0.000000
     9  H    3.879791   4.310593   2.167307   0.000000
    10  C    1.390341   3.401845   1.391069   3.410640   0.000000
    11  H    1.094846   2.477880   3.399797   4.974599   2.157291
    12  H    3.400008   4.972673   1.094786   2.493989   2.158501
    13  H    2.158113   4.304250   2.158722   4.315577   1.094658
    14  C    4.738198   3.822425   4.371879   2.929852   5.062601
    15  C    6.048603   5.109544   5.400244   3.566689   6.265852
    16  C    4.672652   3.962639   4.435291   3.443611   4.981031
    17  C    7.064541   6.208112   6.293108   4.475396   7.202224
    18  H    6.441668   5.443970   5.754586   3.804696   6.658162
    19  C    5.928777   5.304135   5.486466   4.376549   6.116626
    20  H    3.871545   3.306066   4.004867   3.587732   4.285183
    21  C    7.017521   6.293452   6.333507   4.824205   7.141359
    22  H    8.074636   7.194251   7.190043   5.242506   8.171476
    23  H    6.227899   5.756510   5.889339   5.090603   6.394508
    24  H    7.999237   7.324741   7.251260   5.768111   8.073325
    25  C    4.656536   3.675244   4.408425   3.051565   5.038042
    26  C    5.382098   4.032350   5.559834   4.417449   5.983229
    27  C    5.218488   4.737598   4.325689   2.646249   5.241583
    28  C    6.453695   5.274772   6.445049   5.226855   6.939599
    29  H    5.381735   3.682675   5.987371   5.067043   6.207045
    30  C    6.317833   5.830901   5.417527   3.849853   6.311854
    31  H    5.060482   4.943353   3.716437   1.782424   4.834759
    32  C    6.867576   6.059919   6.387412   5.000691   7.086743
    33  H    7.179562   5.844626   7.399813   6.289608   7.779812
    34  H    6.958979   6.722981   5.739196   4.146334   6.754873
    35  H    7.835816   7.076144   7.309213   5.950840   8.012989
                   11         12         13         14         15
    11  H    0.000000
    12  H    4.305101   0.000000
    13  H    2.486582   2.488149   0.000000
    14  C    5.639756   5.082404   6.122108   0.000000
    15  C    6.982590   5.955690   7.316137   1.394740   0.000000
    16  C    5.487999   5.122904   5.951939   1.398740   2.406673
    17  C    7.987182   6.734405   8.202835   2.417621   1.391098
    18  H    7.384842   6.287940   7.719822   2.161923   1.097350
    19  C    6.719605   6.009361   7.012617   2.420195   2.779678
    20  H    4.589249   4.788956   5.203891   2.160553   3.400408
    21  C    7.877611   6.760948   8.072617   2.797464   2.411225
    22  H    9.016276   7.558277   9.169702   3.406839   2.154735
    23  H    6.923034   6.370311   7.187730   3.410423   3.874446
    24  H    8.840406   7.598409   8.958348   3.891990   3.403891
    25  C    5.529119   5.152094   6.097841   2.531639   2.884979
    26  C    6.083304   6.362512   7.016134   3.571368   3.789849
    27  C    6.191781   4.805436   6.226466   3.167777   3.188336
    28  C    7.144355   7.130136   7.917400   4.754741   4.707128
    29  H    5.938232   6.897488   7.236580   3.775188   4.153058
    30  C    7.236627   5.785000   7.227456   4.459486   4.238091
    31  H    6.111852   4.031068   5.775510   3.051173   3.118171
    32  C    7.665769   6.883020   8.014921   5.118524   4.896646
    33  H    7.762550   8.123904   8.736308   5.638643   5.578659
    34  H    7.912934   5.908039   7.590228   5.188860   4.859624
    35  H    8.605948   7.732600   8.893395   6.181338   5.862369
                   16         17         18         19         20
    16  C    0.000000
    17  C    2.776735   0.000000
    18  H    3.404425   2.157035   0.000000
    19  C    1.388650   2.404434   3.877008   0.000000
    20  H    1.096724   3.873459   4.310088   2.157647   0.000000
    21  C    2.409227   1.389427   3.403071   1.391353   3.403428
    22  H    3.871616   1.094889   2.477442   3.398517   4.968339
    23  H    2.153975   3.397996   4.971780   1.094773   2.482166
    24  H    3.401598   2.158192   4.305955   2.159288   4.307065
    25  C    3.816545   4.274207   2.496106   4.949357   4.165193
    26  C    4.830516   5.137833   3.220934   5.945558   5.135274
    27  C    4.437247   4.451257   2.625382   5.414373   4.886955
    28  C    6.085950   5.995452   3.891717   7.127373   6.458838
    29  H    4.868235   5.435716   3.761841   5.998758   5.063563
    30  C    5.778474   5.418817   3.415780   6.690432   6.262792
    31  H    4.129115   4.214367   2.819419   5.006783   4.583620
    32  C    6.488391   6.119735   3.975904   7.452467   6.941041
    33  H    6.935641   6.822256   4.758191   7.968365   7.277816
    34  H    6.447621   5.896621   4.052224   7.258792   6.963987
    35  H    7.559215   7.015978   4.880356   8.482756   8.031879
                   21         22         23         24         25
    21  C    0.000000
    22  H    2.156951   0.000000
    23  H    2.158421   4.304338   0.000000
    24  H    1.094526   2.487883   2.488510   0.000000
    25  C    5.136828   4.892466   5.923678   6.201745   0.000000
    26  C    6.076709   5.639105   6.916355   7.116525   1.396565
    27  C    5.423486   4.906515   6.409813   6.422612   1.396896
    28  C    7.092272   6.300747   8.142577   8.086703   2.417569
    29  H    6.241486   6.003645   6.897991   7.272325   2.164475
    30  C    6.541202   5.654872   7.716599   7.483245   2.418370
    31  H    5.045370   4.718341   5.944919   6.002007   2.158210
    32  C    7.297931   6.309304   8.496781   8.252402   2.794833
    33  H    7.922549   7.078343   8.970157   8.896451   3.408016
    34  H    7.023241   6.024384   8.268778   7.895487   3.408685
    35  H    8.248929   7.091096   9.538744   9.163608   3.889497
                   26         27         28         29         30
    26  C    0.000000
    27  C    2.408699   0.000000
    28  C    1.390645   2.778765   0.000000
    29  H    1.096415   3.405756   2.155266   0.000000
    30  C    2.781117   1.389364   2.406262   3.877510   0.000000
    31  H    3.403614   1.101476   3.880125   4.311190   2.167456
    32  C    2.410776   2.409135   1.390271   3.401707   1.391060
    33  H    2.155437   3.873606   1.094843   2.477368   3.399533
    34  H    3.875883   2.154661   3.399739   4.972278   1.094771
    35  H    3.403165   3.401621   2.158234   4.304168   2.158787
                   31         32         33         34         35
    31  H    0.000000
    32  C    3.411089   0.000000
    33  H    4.974947   2.157225   0.000000
    34  H    2.493500   2.158510   4.304986   0.000000
    35  H    4.315894   1.094664   2.486790   2.488289   0.000000
 Stoichiometry    C19H16
 Framework group  C1[X(C19H16)]
 Deg. of freedom    99
 Full point group                 C1      NOp   1
 Largest Abelian subgroup         C1      NOp   1
 Largest concise Abelian subgroup C1      NOp   1
                         Standard orientation:                         
 ---------------------------------------------------------------------
 Center     Atomic      Atomic             Coordinates (Angstroms)
 Number     Number       Type             X           Y           Z
 ---------------------------------------------------------------------
      1          6           0       -0.008226    0.013793   -0.763312
      2          1           0        0.017945    0.019472   -1.885972
      3          6           0        0.776077   -1.184512   -0.285309
      4          6           0        1.250881   -2.110275   -1.216604
      5          6           0        1.038135   -1.386173    1.071432
      6          6           0        1.979980   -3.216969   -0.795279
      7          1           0        1.048896   -1.967571   -2.284662
      8          6           0        1.769049   -2.491302    1.489607
      9          1           0        0.642485   -0.666831    1.804851
     10          6           0        2.242433   -3.408100    0.556622
     11          1           0        2.347801   -3.938815   -1.531713
     12          1           0        1.970529   -2.639893    2.555384
     13          1           0        2.818418   -4.278689    0.886157
     14          6           0        0.649555    1.309540   -0.358005
     15          6           0       -0.082949    2.394169    0.123988
     16          6           0        2.030551    1.447967   -0.531677
     17          6           0        0.553192    3.592127    0.432817
     18          1           0       -1.167722    2.302881    0.262229
     19          6           0        2.663841    2.644200   -0.221322
     20          1           0        2.613963    0.600544   -0.911555
     21          6           0        1.926167    3.720182    0.262376
     22          1           0       -0.033303    4.435977    0.810602
     23          1           0        3.745763    2.739393   -0.358837
     24          1           0        2.425506    4.662996    0.506818
     25          6           0       -1.451749   -0.102357   -0.341682
     26          6           0       -2.442682   -0.195337   -1.321376
     27          6           0       -1.821937   -0.128766    1.005011
     28          6           0       -3.780076   -0.310871   -0.958166
     29          1           0       -2.168214   -0.177967   -2.382739
     30          6           0       -3.158763   -0.243887    1.365534
     31          1           0       -1.037515   -0.072010    1.776185
     32          6           0       -4.140655   -0.334271    0.384327
     33          1           0       -4.550001   -0.383965   -1.733121
     34          1           0       -3.437641   -0.265162    2.423975
     35          1           0       -5.193859   -0.425310    0.668516
 ---------------------------------------------------------------------
 Rotational constants (GHZ):      0.4031940      0.3838030      0.2324347
 Standard basis: 6-311G (5D, 7F)
 There are   295 symmetry adapted basis functions of A   symmetry.
 Integral buffers will be    262144 words long.
 Raffenetti 1 integral format.
 Two-electron integral symmetry is turned on.
   295 basis functions,   574 primitive gaussians,   295 cartesian basis functions
    65 alpha electrons       65 beta electrons
       nuclear repulsion energy      1290.9610337343 Hartrees.
 NAtoms=   35 NActive=   35 NUniq=   35 SFac= 7.50D-01 NAtFMM=   80 NAOKFM=F Big=F
 One-electron integrals computed using PRISM.
 PrsmSu:  requested number of processors reduced to:  10 ShMem   1 Linda.
 NBasis=   295 RedAO= T  NBF=   295
 NBsUse=   295 1.00D-06 NBFU=   295
 Harris functional with IExCor=  205 diagonalized for initial guess.
 ExpMin= 1.03D-01 ExpMax= 4.56D+03 ExpMxC= 6.82D+02 IAcc=1 IRadAn=         1 AccDes= 0.00D+00
 HarFok:  IExCor=  205 AccDes= 0.00D+00 IRadAn=         1 IDoV= 1
 ScaDFX=  1.000000  1.000000  1.000000  1.000000
 FoFCou: FMM=F IPFlag=           0 FMFlag=      100000 FMFlg1=           0
         NFxFlg=           0 DoJE=T BraDBF=F KetDBF=T FulRan=T
         Omega=  0.000000  0.000000  1.000000  0.000000  0.000000 ICntrl=     500 IOpCl=  0
         NMat0=    1 NMatS0=    1 NMatT0=    0 NMatD0=    1 NMtDS0=    0 NMtDT0=    0
         I1Cent=           4 NGrid=           0.
 Petite list used in FoFCou.
 Initial guess orbital symmetries:
       Occupied  (A) (A) (A) (A) (A) (A) (A) (A) (A) (A) (A) (A)
                 (A) (A) (A) (A) (A) (A) (A) (A) (A) (A) (A) (A)
                 (A) (A) (A) (A) (A) (A) (A) (A) (A) (A) (A) (A)
                 (A) (A) (A) (A) (A) (A) (A) (A) (A) (A) (A) (A)
                 (A) (A) (A) (A) (A) (A) (A) (A) (A) (A) (A) (A)
                 (A) (A) (A) (A) (A)
       Virtual   (A) (A) (A) (A) (A) (A) (A) (A) (A) (A) (A) (A)
                 (A) (A) (A) (A) (A) (A) (A) (A) (A) (A) (A) (A)
                 (A) (A) (A) (A) (A) (A) (A) (A) (A) (A) (A) (A)
                 (A) (A) (A) (A) (A) (A) (A) (A) (A) (A) (A) (A)
                 (A) (A) (A) (A) (A) (A) (A) (A) (A) (A) (A) (A)
                 (A) (A) (A) (A) (A) (A) (A) (A) (A) (A) (A) (A)
                 (A) (A) (A) (A) (A) (A) (A) (A) (A) (A) (A) (A)
                 (A) (A) (A) (A) (A) (A) (A) (A) (A) (A) (A) (A)
                 (A) (A) (A) (A) (A) (A) (A) (A) (A) (A) (A) (A)
                 (A) (A) (A) (A) (A) (A) (A) (A) (A) (A) (A) (A)
                 (A) (A) (A) (A) (A) (A) (A) (A) (A) (A) (A) (A)
                 (A) (A) (A) (A) (A) (A) (A) (A) (A) (A) (A) (A)
                 (A) (A) (A) (A) (A) (A) (A) (A) (A) (A) (A) (A)
                 (A) (A) (A) (A) (A) (A) (A) (A) (A) (A) (A) (A)
                 (A) (A) (A) (A) (A) (A) (A) (A) (A) (A) (A) (A)
                 (A) (A) (A) (A) (A) (A) (A) (A) (A) (A) (A) (A)
                 (A) (A) (A) (A) (A) (A) (A) (A) (A) (A) (A) (A)
                 (A) (A) (A) (A) (A) (A) (A) (A) (A) (A) (A) (A)
                 (A) (A) (A) (A) (A) (A) (A) (A) (A) (A) (A) (A)
                 (A) (A)
 The electronic state of the initial guess is 1-A.
 Requested convergence on RMS density matrix=1.00D-08 within 128 cycles.
 Requested convergence on MAX density matrix=1.00D-06.
 Requested convergence on             energy=1.00D-06.
 No special actions if energy rises.
 Integral accuracy reduced to 1.0D-05 until final iterations.
 Initial convergence to 1.0D-05 achieved.  Increase integral accuracy.
 SCF Done:  E(RHF) =  -728.672502177     A.U. after   14 cycles
             Convg  =    0.8905D-08             -V/T =  2.0001

 **********************************************************************

            Population analysis using the SCF density.

 **********************************************************************

 Orbital symmetries:
       Occupied  (A) (A) (A) (A) (A) (A) (A) (A) (A) (A) (A) (A)
                 (A) (A) (A) (A) (A) (A) (A) (A) (A) (A) (A) (A)
                 (A) (A) (A) (A) (A) (A) (A) (A) (A) (A) (A) (A)
                 (A) (A) (A) (A) (A) (A) (A) (A) (A) (A) (A) (A)
                 (A) (A) (A) (A) (A) (A) (A) (A) (A) (A) (A) (A)
                 (A) (A) (A) (A) (A)
       Virtual   (A) (A) (A) (A) (A) (A) (A) (A) (A) (A) (A) (A)
                 (A) (A) (A) (A) (A) (A) (A) (A) (A) (A) (A) (A)
                 (A) (A) (A) (A) (A) (A) (A) (A) (A) (A) (A) (A)
                 (A) (A) (A) (A) (A) (A) (A) (A) (A) (A) (A) (A)
                 (A) (A) (A) (A) (A) (A) (A) (A) (A) (A) (A) (A)
                 (A) (A) (A) (A) (A) (A) (A) (A) (A) (A) (A) (A)
                 (A) (A) (A) (A) (A) (A) (A) (A) (A) (A) (A) (A)
                 (A) (A) (A) (A) (A) (A) (A) (A) (A) (A) (A) (A)
                 (A) (A) (A) (A) (A) (A) (A) (A) (A) (A) (A) (A)
                 (A) (A) (A) (A) (A) (A) (A) (A) (A) (A) (A) (A)
                 (A) (A) (A) (A) (A) (A) (A) (A) (A) (A) (A) (A)
                 (A) (A) (A) (A) (A) (A) (A) (A) (A) (A) (A) (A)
                 (A) (A) (A) (A) (A) (A) (A) (A) (A) (A) (A) (A)
                 (A) (A) (A) (A) (A) (A) (A) (A) (A) (A) (A) (A)
                 (A) (A) (A) (A) (A) (A) (A) (A) (A) (A) (A) (A)
                 (A) (A) (A) (A) (A) (A) (A) (A) (A) (A) (A) (A)
                 (A) (A) (A) (A) (A) (A) (A) (A) (A) (A) (A) (A)
                 (A) (A) (A) (A) (A) (A) (A) (A) (A) (A) (A) (A)
                 (A) (A) (A) (A) (A) (A) (A) (A) (A) (A) (A) (A)
                 (A) (A)
 The electronic state is 1-A.
 Alpha  occ. eigenvalues --  -11.25752 -11.25221 -11.25181 -11.24904 -11.24514
 Alpha  occ. eigenvalues --  -11.24430 -11.24425 -11.24377 -11.24215 -11.24161
 Alpha  occ. eigenvalues --  -11.24136 -11.24127 -11.24078 -11.24043 -11.24016
 Alpha  occ. eigenvalues --  -11.23962 -11.23727 -11.23611 -11.23504  -1.18620
 Alpha  occ. eigenvalues --   -1.15871  -1.15569  -1.09028  -1.02371  -1.02243
 Alpha  occ. eigenvalues --   -1.01878  -1.01488  -1.01070  -0.92917  -0.84262
 Alpha  occ. eigenvalues --   -0.83384  -0.82303  -0.81948  -0.81105  -0.77576
 Alpha  occ. eigenvalues --   -0.70877  -0.70360  -0.68981  -0.65659  -0.63913
 Alpha  occ. eigenvalues --   -0.63621  -0.62521  -0.61692  -0.61556  -0.59732
 Alpha  occ. eigenvalues --   -0.58847  -0.58499  -0.58311  -0.56680  -0.55176
 Alpha  occ. eigenvalues --   -0.51722  -0.50903  -0.50193  -0.49876  -0.49373
 Alpha  occ. eigenvalues --   -0.48396  -0.47992  -0.47486  -0.46304  -0.35044
 Alpha  occ. eigenvalues --   -0.34319  -0.33999  -0.33315  -0.32438  -0.31511
 Alpha virt. eigenvalues --    0.11571   0.12305   0.12677   0.13437   0.15038
 Alpha virt. eigenvalues --    0.15175   0.15708   0.16239   0.16489   0.16902
 Alpha virt. eigenvalues --    0.18904   0.19183   0.19245   0.21218   0.21287
 Alpha virt. eigenvalues --    0.21608   0.23539   0.24048   0.24870   0.25392
 Alpha virt. eigenvalues --    0.26648   0.31695   0.33056   0.34210   0.35782
 Alpha virt. eigenvalues --    0.37679   0.39675   0.40636   0.41471   0.43059
 Alpha virt. eigenvalues --    0.44101   0.44432   0.44993   0.45417   0.45566
 Alpha virt. eigenvalues --    0.45904   0.46759   0.47264   0.47838   0.50604
 Alpha virt. eigenvalues --    0.51046   0.51391   0.52344   0.55005   0.56154
 Alpha virt. eigenvalues --    0.57245   0.57821   0.58537   0.58789   0.59358
 Alpha virt. eigenvalues --    0.60308   0.60490   0.60664   0.61118   0.61507
 Alpha virt. eigenvalues --    0.62016   0.62151   0.62939   0.63185   0.63613
 Alpha virt. eigenvalues --    0.64236   0.64653   0.65222   0.65963   0.66369
 Alpha virt. eigenvalues --    0.67296   0.67844   0.68608   0.69793   0.72325
 Alpha virt. eigenvalues --    0.73075   0.73871   0.74710   0.75380   0.75744
 Alpha virt. eigenvalues --    0.76884   0.78806   0.79524   0.80047   0.81145
 Alpha virt. eigenvalues --    0.81493   0.82261   0.82483   0.82852   0.83394
 Alpha virt. eigenvalues --    0.83849   0.84393   0.84934   0.85105   0.85481
 Alpha virt. eigenvalues --    0.85848   0.86156   0.86585   0.87848   0.88106
 Alpha virt. eigenvalues --    0.90066   0.90870   0.92175   0.93576   0.95113
 Alpha virt. eigenvalues --    0.95870   0.96310   0.96952   0.98367   0.99791
 Alpha virt. eigenvalues --    1.00240   1.02418   1.03167   1.05054   1.06241
 Alpha virt. eigenvalues --    1.07155   1.08017   1.09484   1.09991   1.11066
 Alpha virt. eigenvalues --    1.11598   1.11805   1.12333   1.12907   1.13780
 Alpha virt. eigenvalues --    1.15020   1.16470   1.19965   1.20472   1.21649
 Alpha virt. eigenvalues --    1.23443   1.25183   1.27512   1.27869   1.29138
 Alpha virt. eigenvalues --    1.29472   1.31840   1.32658   1.47157   1.47868
 Alpha virt. eigenvalues --    1.51766   1.54386   1.56624   2.53490   2.55725
 Alpha virt. eigenvalues --    2.55958   2.57748   2.62093   2.62437   2.63844
 Alpha virt. eigenvalues --    2.66519   2.67042   2.68403   2.72293   2.74247
 Alpha virt. eigenvalues --    2.78362   2.83337   2.86853   2.91944   2.94340
 Alpha virt. eigenvalues --    2.94642   2.94746   2.96025   2.98240   2.98598
 Alpha virt. eigenvalues --    2.99868   3.02322   3.03933   3.04341   3.06676
 Alpha virt. eigenvalues --    3.08444   3.09353   3.09893   3.10029   3.13223
 Alpha virt. eigenvalues --    3.15049   3.16035   3.17805   3.18343   3.19519
 Alpha virt. eigenvalues --    3.21636   3.24045   3.24860   3.27742   3.28788
 Alpha virt. eigenvalues --    3.31577   3.33879   3.34449   3.35780   3.40648
 Alpha virt. eigenvalues --    3.41128   3.44163   3.44940   3.50024   3.52678
 Alpha virt. eigenvalues --    3.53559   3.56043   3.57800   3.58530   3.59432
 Alpha virt. eigenvalues --    3.62498   3.63924   3.65165   3.66246   3.67027
 Alpha virt. eigenvalues --    3.67729   3.69231   3.71275   3.71982   3.74581
 Alpha virt. eigenvalues --    3.76769   3.77547   3.78366   3.85735   3.88296
 Alpha virt. eigenvalues --    3.90912  24.26170  24.30003  24.31659  24.50556
 Alpha virt. eigenvalues --   24.50770  24.51064  24.52939  24.54635  24.56455
 Alpha virt. eigenvalues --   24.76080  24.77046  24.79108  24.80226  24.80821
 Alpha virt. eigenvalues --   24.82947  24.87660  25.04644  25.05795  25.07116
          Condensed to atoms (all electrons):
              1          2          3          4          5          6
     1  C    6.125761   0.471383   0.145292  -0.024576  -0.058035   0.006866
     2  H    0.471383   0.501093  -0.070102   0.002116   0.005274   0.001528
     3  C    0.145292  -0.070102   5.396482   0.491667   0.449863  -0.074325
     4  C   -0.024576   0.002116   0.491667   5.090248  -0.072120   0.455233
     5  C   -0.058035   0.005274   0.449863  -0.072120   5.066873  -0.026343
     6  C    0.006866   0.001528  -0.074325   0.455233  -0.026343   5.058264
     7  H   -0.000222   0.002438  -0.050509   0.400211   0.004356  -0.034662
     8  C    0.003485  -0.000256  -0.057967  -0.030721   0.478577  -0.078792
     9  H   -0.000088   0.000092  -0.044319   0.004137   0.388275   0.000033
    10  C    0.001285   0.000001  -0.018709  -0.086725  -0.091550   0.498330
    11  H   -0.000341  -0.000039   0.006914  -0.039635  -0.000687   0.396890
    12  H   -0.000353   0.000011   0.006019  -0.000470  -0.038843   0.005957
    13  H   -0.000013  -0.000002  -0.001558   0.007501   0.007905  -0.042569
    14  C    0.029269  -0.061939  -0.089112  -0.001122  -0.005673  -0.000440
    15  C   -0.035003   0.000281   0.002966  -0.000446   0.001612   0.000018
    16  C   -0.084619  -0.004457  -0.008284   0.000552  -0.010347  -0.000075
    17  C    0.012424  -0.000092  -0.000842   0.000007   0.000048   0.000000
    18  H   -0.011543  -0.000263   0.000462  -0.000016   0.000037   0.000000
    19  C    0.008965   0.000506  -0.001769  -0.000051  -0.000405   0.000013
    20  H   -0.004334  -0.000129   0.004261   0.001330  -0.000661   0.000112
    21  C    0.000313   0.000039   0.000133  -0.000003   0.000030   0.000000
    22  H   -0.000364   0.000014   0.000012   0.000000   0.000000   0.000000
    23  H   -0.000357   0.000006   0.000019  -0.000004   0.000014   0.000000
    24  H   -0.000014  -0.000002   0.000002   0.000000   0.000000   0.000000
    25  C    0.116406  -0.074113  -0.144977  -0.002471  -0.002999  -0.000521
    26  C   -0.023558   0.006195  -0.004703   0.000642   0.000766  -0.000018
    27  C   -0.073666   0.004446  -0.003089   0.000525  -0.011485   0.000121
    28  C    0.008106   0.001442  -0.000573  -0.000014   0.000061   0.000002
    29  H   -0.001961   0.002842   0.000145   0.000242  -0.000025  -0.000002
    30  C    0.003035  -0.000224   0.001959   0.000039  -0.000106   0.000001
    31  H    0.000340  -0.000004  -0.003818  -0.000209   0.001612  -0.000050
    32  C    0.001640   0.000007  -0.000070  -0.000013  -0.000008   0.000000
    33  H   -0.000401  -0.000035   0.000022   0.000001   0.000000   0.000000
    34  H   -0.000372   0.000011   0.000030   0.000001   0.000041   0.000000
    35  H   -0.000026  -0.000002  -0.000002   0.000000   0.000000   0.000000
              7          8          9         10         11         12
     1  C   -0.000222   0.003485  -0.000088   0.001285  -0.000341  -0.000353
     2  H    0.002438  -0.000256   0.000092   0.000001  -0.000039   0.000011
     3  C   -0.050509  -0.057967  -0.044319  -0.018709   0.006914   0.006019
     4  C    0.400211  -0.030721   0.004137  -0.086725  -0.039635  -0.000470
     5  C    0.004356   0.478577   0.388275  -0.091550  -0.000687  -0.038843
     6  C   -0.034662  -0.078792   0.000033   0.498330   0.396890   0.005957
     7  H    0.509276  -0.000281  -0.000273   0.005221  -0.004193   0.000025
     8  C   -0.000281   5.041642  -0.028668   0.491043   0.006243   0.397244
     9  H   -0.000273  -0.028668   0.497627   0.004557   0.000014  -0.003317
    10  C    0.005221   0.491043   0.004557   5.034065  -0.040685  -0.039849
    11  H   -0.004193   0.006243   0.000014  -0.040685   0.518066  -0.000205
    12  H    0.000025   0.397244  -0.003317  -0.039849  -0.000205   0.514708
    13  H   -0.000184  -0.042936  -0.000173   0.399646  -0.004586  -0.004463
    14  C    0.000176  -0.000498   0.001254   0.000027   0.000011   0.000026
    15  C   -0.000030   0.000015  -0.000278  -0.000001   0.000000   0.000000
    16  C    0.000274  -0.000391   0.000550   0.000131  -0.000003   0.000014
    17  C    0.000000   0.000003  -0.000134   0.000000   0.000000   0.000000
    18  H    0.000001   0.000000   0.000030   0.000000   0.000000   0.000000
    19  C   -0.000008  -0.000014   0.000110   0.000002   0.000000   0.000001
    20  H    0.000194  -0.000297  -0.000029  -0.000072   0.000008   0.000006
    21  C    0.000001   0.000002  -0.000035   0.000000   0.000000   0.000000
    22  H    0.000000   0.000000  -0.000001   0.000000   0.000000   0.000000
    23  H    0.000000   0.000002   0.000005   0.000000   0.000000   0.000000
    24  H    0.000000   0.000000   0.000001   0.000000   0.000000   0.000000
    25  C    0.000322   0.001894  -0.002972  -0.000089   0.000026   0.000029
    26  C    0.000285   0.000028  -0.000200  -0.000010   0.000001   0.000001
    27  C   -0.000009  -0.000322  -0.000672  -0.000026   0.000000   0.000055
    28  C    0.000005   0.000000  -0.000004   0.000000   0.000000   0.000000
    29  H    0.000076   0.000001  -0.000001  -0.000001   0.000000   0.000000
    30  C   -0.000001  -0.000101   0.000909   0.000001   0.000000   0.000002
    31  H    0.000001   0.001115   0.001330  -0.000001   0.000001  -0.000053
    32  C   -0.000002   0.000002  -0.000015   0.000000   0.000000   0.000000
    33  H    0.000000   0.000000   0.000000   0.000000   0.000000   0.000000
    34  H    0.000000   0.000000  -0.000031   0.000000   0.000000   0.000001
    35  H    0.000000   0.000000   0.000000   0.000000   0.000000   0.000000
             13         14         15         16         17         18
     1  C   -0.000013   0.029269  -0.035003  -0.084619   0.012424  -0.011543
     2  H   -0.000002  -0.061939   0.000281  -0.004457  -0.000092  -0.000263
     3  C   -0.001558  -0.089112   0.002966  -0.008284  -0.000842   0.000462
     4  C    0.007501  -0.001122  -0.000446   0.000552   0.000007  -0.000016
     5  C    0.007905  -0.005673   0.001612  -0.010347   0.000048   0.000037
     6  C   -0.042569  -0.000440   0.000018  -0.000075   0.000000   0.000000
     7  H   -0.000184   0.000176  -0.000030   0.000274   0.000000   0.000001
     8  C   -0.042936  -0.000498   0.000015  -0.000391   0.000003   0.000000
     9  H   -0.000173   0.001254  -0.000278   0.000550  -0.000134   0.000030
    10  C    0.399646   0.000027  -0.000001   0.000131   0.000000   0.000000
    11  H   -0.004586   0.000011   0.000000  -0.000003   0.000000   0.000000
    12  H   -0.004463   0.000026   0.000000   0.000014   0.000000   0.000000
    13  H    0.517401   0.000001   0.000000   0.000000   0.000000   0.000000
    14  C    0.000001   5.349553   0.497758   0.473087  -0.067691  -0.035153
    15  C    0.000000   0.497758   5.101845  -0.084985   0.454051   0.394517
    16  C    0.000000   0.473087  -0.084985   5.127618  -0.033322   0.004998
    17  C    0.000000  -0.067691   0.454051  -0.033322   5.078989  -0.036566
    18  H    0.000000  -0.035153   0.394517   0.004998  -0.036566   0.478141
    19  C    0.000000  -0.057071  -0.030580   0.462072  -0.073546  -0.000460
    20  H    0.000002  -0.043868   0.004565   0.397316  -0.000483  -0.000192
    21  C    0.000000  -0.020876  -0.089313  -0.085253   0.494032   0.005083
    22  H    0.000000   0.006460  -0.036888  -0.000402   0.395706  -0.003563
    23  H    0.000000   0.006141  -0.000424  -0.038112   0.005985   0.000017
    24  H    0.000000  -0.001450   0.007639   0.007461  -0.042216  -0.000170
    25  C   -0.000003  -0.064211  -0.012844   0.011431  -0.001771   0.001485
    26  C    0.000000  -0.000206   0.000920  -0.000311  -0.000107  -0.000899
    27  C    0.000000   0.006580  -0.018859   0.000972  -0.001024  -0.000801
    28  C    0.000000  -0.000744   0.000312   0.000006   0.000005  -0.000127
    29  H    0.000000   0.000480   0.000128   0.000011   0.000003   0.000106
    30  C    0.000000   0.000595  -0.001410   0.000014  -0.000040   0.000081
    31  H    0.000000   0.001662   0.001854  -0.000022   0.000154   0.000106
    32  C    0.000000  -0.000062   0.000162   0.000000   0.000004   0.000124
    33  H    0.000000   0.000022  -0.000008   0.000000   0.000000   0.000011
    34  H    0.000000   0.000021   0.000000   0.000000  -0.000003   0.000032
    35  H    0.000000   0.000002  -0.000003   0.000000   0.000000   0.000010
             19         20         21         22         23         24
     1  C    0.008965  -0.004334   0.000313  -0.000364  -0.000357  -0.000014
     2  H    0.000506  -0.000129   0.000039   0.000014   0.000006  -0.000002
     3  C   -0.001769   0.004261   0.000133   0.000012   0.000019   0.000002
     4  C   -0.000051   0.001330  -0.000003   0.000000  -0.000004   0.000000
     5  C   -0.000405  -0.000661   0.000030   0.000000   0.000014   0.000000
     6  C    0.000013   0.000112   0.000000   0.000000   0.000000   0.000000
     7  H   -0.000008   0.000194   0.000001   0.000000   0.000000   0.000000
     8  C   -0.000014  -0.000297   0.000002   0.000000   0.000002   0.000000
     9  H    0.000110  -0.000029  -0.000035  -0.000001   0.000005   0.000001
    10  C    0.000002  -0.000072   0.000000   0.000000   0.000000   0.000000
    11  H    0.000000   0.000008   0.000000   0.000000   0.000000   0.000000
    12  H    0.000001   0.000006   0.000000   0.000000   0.000000   0.000000
    13  H    0.000000   0.000002   0.000000   0.000000   0.000000   0.000000
    14  C   -0.057071  -0.043868  -0.020876   0.006460   0.006141  -0.001450
    15  C   -0.030580   0.004565  -0.089313  -0.036888  -0.000424   0.007639
    16  C    0.462072   0.397316  -0.085253  -0.000402  -0.038112   0.007461
    17  C   -0.073546  -0.000483   0.494032   0.395706   0.005985  -0.042216
    18  H   -0.000460  -0.000192   0.005083  -0.003563   0.000017  -0.000170
    19  C    5.064583  -0.035246   0.481157   0.006003   0.396964  -0.043136
    20  H   -0.035246   0.487994   0.005226   0.000017  -0.003826  -0.000173
    21  C    0.481157   0.005226   5.043086  -0.041254  -0.040868   0.399487
    22  H    0.006003   0.000017  -0.041254   0.517787  -0.000213  -0.004458
    23  H    0.396964  -0.003826  -0.040868  -0.000213   0.517505  -0.004406
    24  H   -0.043136  -0.000173   0.399487  -0.004458  -0.004406   0.519412
    25  C   -0.000885   0.000777   0.000128   0.000058   0.000012   0.000001
    26  C    0.000009  -0.000006  -0.000004   0.000003   0.000000   0.000000
    27  C   -0.000023  -0.000040  -0.000011   0.000022   0.000000   0.000001
    28  C    0.000000   0.000000   0.000000   0.000000   0.000000   0.000000
    29  H    0.000000  -0.000001   0.000000   0.000000   0.000000   0.000000
    30  C    0.000000   0.000000   0.000000  -0.000001   0.000000   0.000000
    31  H   -0.000073   0.000023  -0.000001   0.000002  -0.000001   0.000000
    32  C    0.000000   0.000000   0.000000  -0.000001   0.000000   0.000000
    33  H    0.000000   0.000000   0.000000   0.000000   0.000000   0.000000
    34  H    0.000000   0.000000   0.000000   0.000000   0.000000   0.000000
    35  H    0.000000   0.000000   0.000000   0.000000   0.000000   0.000000
             25         26         27         28         29         30
     1  C    0.116406  -0.023558  -0.073666   0.008106  -0.001961   0.003035
     2  H   -0.074113   0.006195   0.004446   0.001442   0.002842  -0.000224
     3  C   -0.144977  -0.004703  -0.003089  -0.000573   0.000145   0.001959
     4  C   -0.002471   0.000642   0.000525  -0.000014   0.000242   0.000039
     5  C   -0.002999   0.000766  -0.011485   0.000061  -0.000025  -0.000106
     6  C   -0.000521  -0.000018   0.000121   0.000002  -0.000002   0.000001
     7  H    0.000322   0.000285  -0.000009   0.000005   0.000076  -0.000001
     8  C    0.001894   0.000028  -0.000322   0.000000   0.000001  -0.000101
     9  H   -0.002972  -0.000200  -0.000672  -0.000004  -0.000001   0.000909
    10  C   -0.000089  -0.000010  -0.000026   0.000000  -0.000001   0.000001
    11  H    0.000026   0.000001   0.000000   0.000000   0.000000   0.000000
    12  H    0.000029   0.000001   0.000055   0.000000   0.000000   0.000002
    13  H   -0.000003   0.000000   0.000000   0.000000   0.000000   0.000000
    14  C   -0.064211  -0.000206   0.006580  -0.000744   0.000480   0.000595
    15  C   -0.012844   0.000920  -0.018859   0.000312   0.000128  -0.001410
    16  C    0.011431  -0.000311   0.000972   0.000006   0.000011   0.000014
    17  C   -0.001771  -0.000107  -0.001024   0.000005   0.000003  -0.000040
    18  H    0.001485  -0.000899  -0.000801  -0.000127   0.000106   0.000081
    19  C   -0.000885   0.000009  -0.000023   0.000000   0.000000   0.000000
    20  H    0.000777  -0.000006  -0.000040   0.000000  -0.000001   0.000000
    21  C    0.000128  -0.000004  -0.000011   0.000000   0.000000   0.000000
    22  H    0.000058   0.000003   0.000022   0.000000   0.000000  -0.000001
    23  H    0.000012   0.000000   0.000000   0.000000   0.000000   0.000000
    24  H    0.000001   0.000000   0.000001   0.000000   0.000000   0.000000
    25  C    5.399181   0.496605   0.451392  -0.076455  -0.046214  -0.062642
    26  C    0.496605   5.053096  -0.064258   0.466899   0.395105  -0.033614
    27  C    0.451392  -0.064258   5.093546  -0.029371   0.004752   0.480099
    28  C   -0.076455   0.466899  -0.029371   5.048469  -0.033789  -0.077476
    29  H   -0.046214   0.395105   0.004752  -0.033789   0.506766  -0.000287
    30  C   -0.062642  -0.033614   0.480099  -0.077476  -0.000287   5.046012
    31  H   -0.046755   0.004588   0.386362  -0.000108  -0.000271  -0.027452
    32  C   -0.016370  -0.088971  -0.093433   0.499950   0.005072   0.490314
    33  H    0.006982  -0.039412  -0.000634   0.396353  -0.004076   0.006258
    34  H    0.005982  -0.000386  -0.038569   0.005901   0.000025   0.397032
    35  H   -0.001687   0.007581   0.007996  -0.042561  -0.000178  -0.043017
             31         32         33         34         35
     1  C    0.000340   0.001640  -0.000401  -0.000372  -0.000026
     2  H   -0.000004   0.000007  -0.000035   0.000011  -0.000002
     3  C   -0.003818  -0.000070   0.000022   0.000030  -0.000002
     4  C   -0.000209  -0.000013   0.000001   0.000001   0.000000
     5  C    0.001612  -0.000008   0.000000   0.000041   0.000000
     6  C   -0.000050   0.000000   0.000000   0.000000   0.000000
     7  H    0.000001  -0.000002   0.000000   0.000000   0.000000
     8  C    0.001115   0.000002   0.000000   0.000000   0.000000
     9  H    0.001330  -0.000015   0.000000  -0.000031   0.000000
    10  C   -0.000001   0.000000   0.000000   0.000000   0.000000
    11  H    0.000001   0.000000   0.000000   0.000000   0.000000
    12  H   -0.000053   0.000000   0.000000   0.000001   0.000000
    13  H    0.000000   0.000000   0.000000   0.000000   0.000000
    14  C    0.001662  -0.000062   0.000022   0.000021   0.000002
    15  C    0.001854   0.000162  -0.000008   0.000000  -0.000003
    16  C   -0.000022   0.000000   0.000000   0.000000   0.000000
    17  C    0.000154   0.000004   0.000000  -0.000003   0.000000
    18  H    0.000106   0.000124   0.000011   0.000032   0.000010
    19  C   -0.000073   0.000000   0.000000   0.000000   0.000000
    20  H    0.000023   0.000000   0.000000   0.000000   0.000000
    21  C   -0.000001   0.000000   0.000000   0.000000   0.000000
    22  H    0.000002  -0.000001   0.000000   0.000000   0.000000
    23  H   -0.000001   0.000000   0.000000   0.000000   0.000000
    24  H    0.000000   0.000000   0.000000   0.000000   0.000000
    25  C   -0.046755  -0.016370   0.006982   0.005982  -0.001687
    26  C    0.004588  -0.088971  -0.039412  -0.000386   0.007581
    27  C    0.386362  -0.093433  -0.000634  -0.038569   0.007996
    28  C   -0.000108   0.499950   0.396353   0.005901  -0.042561
    29  H   -0.000271   0.005072  -0.004076   0.000025  -0.000178
    30  C   -0.027452   0.490314   0.006258   0.397032  -0.043017
    31  H    0.497216   0.004617   0.000016  -0.003381  -0.000169
    32  C    0.004617   5.033420  -0.040959  -0.039787   0.399478
    33  H    0.000016  -0.040959   0.517943  -0.000206  -0.004556
    34  H   -0.003381  -0.039787  -0.000206   0.514320  -0.004379
    35  H   -0.000169   0.399478  -0.004556  -0.004379   0.516999
 Mulliken atomic charges:
              1
     1  C   -0.614723
     2  H    0.211929
     3  C    0.068482
     4  C   -0.195858
     5  C   -0.086058
     6  C   -0.165571
     7  H    0.167511
     8  C   -0.180052
     9  H    0.182285
    10  C   -0.156591
    11  H    0.162201
    12  H    0.163456
    13  H    0.164030
    14  C    0.076990
    15  C   -0.157571
    16  C   -0.135922
    17  C   -0.183573
    18  H    0.204511
    19  C   -0.177118
    20  H    0.187526
    21  C   -0.151100
    22  H    0.161062
    23  H    0.161539
    24  H    0.162022
    25  C    0.065266
    26  C   -0.176060
    27  C   -0.100578
    28  C   -0.166289
    29  H    0.171054
    30  C   -0.179982
    31  H    0.181368
    32  C   -0.155097
    33  H    0.162679
    34  H    0.163718
    35  H    0.164513
 Sum of Mulliken atomic charges =   0.00000
 Mulliken charges with hydrogens summed into heavy atoms:
              1
     1  C   -0.402794
     3  C    0.068482
     4  C   -0.028347
     5  C    0.096227
     6  C   -0.003370
     8  C   -0.016596
    10  C    0.007438
    14  C    0.076990
    15  C    0.046940
    16  C    0.051604
    17  C   -0.022511
    19  C   -0.015579
    21  C    0.010922
    25  C    0.065266
    26  C   -0.005006
    27  C    0.080791
    28  C   -0.003609
    30  C   -0.016264
    32  C    0.009416
 Sum of Mulliken charges with hydrogens summed into heavy atoms =   0.00000
 Electronic spatial extent (au):  <R**2>=           4929.6935
 Charge=              0.0000 electrons
 Dipole moment (field-independent basis, Debye):
    X=             -0.0927    Y=             -0.1722    Z=             -0.0168  Tot=              0.1963
 Quadrupole moment (field-independent basis, Debye-Ang):
   XX=           -107.4650   YY=           -113.2045   ZZ=           -107.1183
   XY=             -2.7911   XZ=             -0.6455   YZ=              2.6377
 Traceless Quadrupole moment (field-independent basis, Debye-Ang):
   XX=              1.7976   YY=             -3.9419   ZZ=              2.1443
   XY=             -2.7911   XZ=             -0.6455   YZ=              2.6377
 Octapole moment (field-independent basis, Debye-Ang**2):
  XXX=            -27.0808  YYY=             12.7153  ZZZ=              0.9440  XYY=             35.6762
  XXY=             -1.0399  XXZ=             -1.7159  XZZ=            -10.0062  YZZ=            -19.6558
  YYZ=             11.0074  XYZ=             -1.4207
 Hexadecapole moment (field-independent basis, Debye-Ang**3):
 XXXX=          -3048.5003 YYYY=          -2927.1230 ZZZZ=           -656.2131 XXXY=             66.2243
 XXXZ=            -11.3935 YYYX=            -70.5728 YYYZ=             70.9466 ZZZX=              6.2453
 ZZZY=             -1.5562 XXYY=          -1014.6739 XXZZ=           -625.7214 YYZZ=           -641.4012
 XXYZ=             -4.6016 YYXZ=             10.9918 ZZXY=            -32.4779
 N-N= 1.290961033734D+03 E-N=-4.278004378007D+03  KE= 7.286036045503D+02
 PrsmSu:  requested number of processors reduced to:  10 ShMem   1 Linda.
 Calling FoFJK, ICntrl=      2127 FMM=F ISym2X=0 I1Cent= 0 IOpClX= 0 NMat=1 NMatS=1 NMatT=0.
 ***** Axes restored to original set *****
 -------------------------------------------------------------------
 Center     Atomic                   Forces (Hartrees/Bohr)
 Number     Number              X              Y              Z
 -------------------------------------------------------------------
      1        6          -0.002518372    0.001025030    0.022983533
      2        1           0.004640345    0.004568266   -0.024300638
      3        6           0.012129788    0.002010385    0.007456625
      4        6          -0.002398637    0.000607065    0.005322192
      5        6          -0.005553821   -0.002218124   -0.009732282
      6        6           0.010465669    0.002889371    0.008404476
      7        1           0.005218173   -0.001292103   -0.016712876
      8        6           0.001457715   -0.000853541   -0.012323162
      9        1           0.022444249   -0.001243592    0.016872851
     10        6           0.013617785    0.002185753   -0.000371022
     11        1          -0.010336197   -0.003294908   -0.012593410
     12        1          -0.005538492    0.000975247    0.015752528
     13        1          -0.016336595   -0.002291601    0.003218195
     14        6          -0.006457984   -0.012671809   -0.004457909
     15        6          -0.007504407    0.009094077   -0.001935062
     16        6           0.007959416   -0.001585867    0.004090404
     17        6          -0.010597857   -0.004319350   -0.005638036
     18        1           0.011079657   -0.018194887    0.004500745
     19        6           0.008157571   -0.008960318    0.003684416
     20        1          -0.016538097   -0.003380420   -0.008796132
     21        6          -0.005803468   -0.011679342   -0.004315360
     22        1           0.014794311    0.001882694    0.007497271
     23        1          -0.009550532    0.013189379   -0.003314802
     24        1           0.005198013    0.015218142    0.004108242
     25        6          -0.008140503    0.009546105    0.005751602
     26        6           0.000377652   -0.001878362    0.005678613
     27        6           0.006422094   -0.004502705   -0.009378898
     28        6          -0.007525848    0.009286176    0.006771933
     29        1          -0.000460680    0.002758844   -0.017556802
     30        6           0.001093604    0.000312946   -0.012471216
     31        1          -0.019796374    0.017470833    0.013028623
     32        6          -0.008006938    0.010943714   -0.002269405
     33        1           0.008242280   -0.009480549   -0.010955784
     34        1           0.000632621   -0.003172050    0.016380081
     35        1           0.009133860   -0.012944497    0.005620466
 -------------------------------------------------------------------
 Cartesian Forces:  Max     0.024300638 RMS     0.009546492

 GradGradGradGradGradGradGradGradGradGradGradGradGradGradGradGradGradGrad
 Berny optimization.
 Internal  Forces:  Max     0.028496158 RMS     0.007780042
 Search for a local minimum.
 Step number   1 out of a maximum of  197
 All quantities printed in internal units (Hartrees-Bohrs-Radians)
 Mixed Optimization -- RFO/linear search
 Second derivative matrix not updated -- first step.
     Eigenvalues ---    0.00636   0.00652   0.00656   0.01533   0.01538
     Eigenvalues ---    0.01541   0.02139   0.02142   0.02146   0.02171
     Eigenvalues ---    0.02173   0.02173   0.02182   0.02183   0.02184
     Eigenvalues ---    0.02201   0.02201   0.02203   0.02211   0.02211
     Eigenvalues ---    0.02212   0.02214   0.02215   0.02215   0.02215
     Eigenvalues ---    0.02218   0.02219   0.02220   0.02220   0.02225
     Eigenvalues ---    0.04570   0.06411   0.06610   0.15997   0.15998
     Eigenvalues ---    0.16000   0.16000   0.16000   0.16000   0.16000
     Eigenvalues ---    0.16000   0.16000   0.16000   0.16000   0.16000
     Eigenvalues ---    0.16000   0.16000   0.16000   0.18856   0.19322
     Eigenvalues ---    0.22000   0.22000   0.22000   0.22000   0.22000
     Eigenvalues ---    0.22000   0.23464   0.23478   0.23479   0.24962
     Eigenvalues ---    0.24999   0.25000   0.31264   0.31369   0.31490
     Eigenvalues ---    0.31520   0.33519   0.33587   0.33977   0.34047
     Eigenvalues ---    0.34082   0.34093   0.34254   0.34259   0.34259
     Eigenvalues ---    0.34265   0.34267   0.34267   0.34279   0.34280
     Eigenvalues ---    0.34295   0.42417   0.42463   0.42484   0.42560
     Eigenvalues ---    0.42574   0.42610   0.46350   0.46394   0.46435
     Eigenvalues ---    0.46731   0.46750   0.46801   0.47204   0.47209
     Eigenvalues ---    0.47225   0.47342   0.47345   0.474281000.00000
     Eigenvalues --- 1000.000001000.000001000.000001000.000001000.00000
     Eigenvalues --- 1000.000001000.000001000.000001000.000001000.00000
     Eigenvalues --- 1000.000001000.000001000.000001000.000001000.00000
     Eigenvalues --- 1000.000001000.000001000.000001000.000001000.00000
     Eigenvalues --- 1000.000001000.000001000.000001000.000001000.00000
     Eigenvalues --- 1000.000001000.000001000.000001000.000001000.00000
     Eigenvalues --- 1000.000001000.000001000.000001000.000001000.00000
     Eigenvalues --- 1000.000001000.000001000.000001000.000001000.00000
     Eigenvalues --- 1000.000001000.000001000.000001000.000001000.00000
     Eigenvalues --- 1000.000001000.000001000.000001000.000001000.00000
     Eigenvalues --- 1000.000001000.000001000.000001000.000001000.00000
     Eigenvalues --- 1000.000001000.000001000.000001000.000001000.00000
     Eigenvalues --- 1000.000001000.000001000.000001000.000001000.00000
     Eigenvalues --- 1000.000001000.000001000.000001000.000001000.00000
     Eigenvalues --- 1000.000001000.000001000.000001000.000001000.00000
     Eigenvalues --- 1000.000001000.000001000.000001000.000001000.00000
     Eigenvalues --- 1000.000001000.000001000.000001000.000001000.00000
     Eigenvalues --- 1000.000001000.00000
 RFO step:  Lambda=-4.17559388D-02 EMin= 6.36063072D-03
 Linear search not attempted -- first point.
 Maximum step size (   0.300) exceeded in Quadratic search.
    -- Step size scaled by   0.594
 Iteration  1 RMS(Cart)=  0.12561165 RMS(Int)=  0.00303976
 Iteration  2 RMS(Cart)=  0.00615612 RMS(Int)=  0.00028274
 Iteration  3 RMS(Cart)=  0.00001074 RMS(Int)=  0.00028268
 Iteration  4 RMS(Cart)=  0.00000000 RMS(Int)=  0.00028268
 Variable       Old X    -DE/DX   Delta X   Delta X   Delta X     New X
                                 (Linear)    (Quad)   (Total)
    R1        2.12212  -0.02470   0.00000  -0.04139  -0.04139   2.08074
    R2        2.85314   0.02295   0.00000   0.03833   0.03833   2.89147
    R3        2.85086   0.02357   0.00000   0.03924   0.03924   2.89011
    R4        2.85031   0.02355   0.00000   0.03917   0.03917   2.88948
    R5        2.63871  -0.00427   0.00000  -0.00497  -0.00496   2.63376
    R6        2.63892  -0.00012   0.00000  -0.00004  -0.00002   2.63890
    R7        2.62792  -0.00224   0.00000  -0.00263  -0.00264   2.62528
    R8        2.07174  -0.01754   0.00000  -0.02722  -0.02722   2.04452
    R9        2.62557  -0.00470   0.00000  -0.00536  -0.00536   2.62021
   R10        2.08033  -0.02682   0.00000  -0.04216  -0.04216   2.03817
   R11        2.62736  -0.00881   0.00000  -0.01027  -0.01029   2.61708
   R12        2.06896  -0.01662   0.00000  -0.02567  -0.02567   2.04328
   R13        2.62874  -0.00531   0.00000  -0.00620  -0.00622   2.62252
   R14        2.06885  -0.01673   0.00000  -0.02583  -0.02583   2.04301
   R15        2.06860  -0.01681   0.00000  -0.02595  -0.02595   2.04266
   R16        2.63568  -0.00216   0.00000  -0.00239  -0.00239   2.63329
   R17        2.64323  -0.00187   0.00000  -0.00216  -0.00215   2.64108
   R18        2.62879  -0.00154   0.00000  -0.00172  -0.00172   2.62707
   R19        2.07369  -0.02170   0.00000  -0.03377  -0.03377   2.03992
   R20        2.62417  -0.00454   0.00000  -0.00527  -0.00527   2.61890
   R21        2.07251  -0.01900   0.00000  -0.02951  -0.02951   2.04300
   R22        2.62564  -0.00725   0.00000  -0.00841  -0.00842   2.61722
   R23        2.06904  -0.01669   0.00000  -0.02579  -0.02579   2.04325
   R24        2.62928  -0.00505   0.00000  -0.00599  -0.00599   2.62328
   R25        2.06882  -0.01662   0.00000  -0.02567  -0.02567   2.04316
   R26        2.06836  -0.01660   0.00000  -0.02562  -0.02562   2.04274
   R27        2.63913  -0.00430   0.00000  -0.00501  -0.00499   2.63413
   R28        2.63975   0.00063   0.00000   0.00087   0.00089   2.64064
   R29        2.62794  -0.00235   0.00000  -0.00279  -0.00279   2.62515
   R30        2.07192  -0.01777   0.00000  -0.02757  -0.02757   2.04435
   R31        2.62552  -0.00452   0.00000  -0.00512  -0.00512   2.62039
   R32        2.08149  -0.02850   0.00000  -0.04488  -0.04488   2.03660
   R33        2.62723  -0.00917   0.00000  -0.01071  -0.01073   2.61650
   R34        2.06895  -0.01667   0.00000  -0.02575  -0.02575   2.04321
   R35        2.62872  -0.00552   0.00000  -0.00644  -0.00646   2.62226
   R36        2.06882  -0.01670   0.00000  -0.02579  -0.02579   2.04303
   R37        2.06861  -0.01681   0.00000  -0.02595  -0.02595   2.04266
    A1        1.88432  -0.00891   0.00000  -0.04942  -0.04859   1.83573
    A2        1.82769   0.00399   0.00000   0.00103   0.00129   1.82898
    A3        1.87774  -0.00994   0.00000  -0.05166  -0.05075   1.82699
    A4        1.94995  -0.00290   0.00000   0.01299   0.01084   1.96079
    A5        1.92574   0.01539   0.00000   0.05464   0.05347   1.97921
    A6        1.99142   0.00045   0.00000   0.02084   0.01890   2.01032
    A7        2.08481  -0.00818   0.00000  -0.01660  -0.01665   2.06816
    A8        2.11728   0.01901   0.00000   0.03872   0.03866   2.15595
    A9        2.08109  -0.01083   0.00000  -0.02214  -0.02213   2.05896
   A10        2.09882   0.00745   0.00000   0.01650   0.01651   2.11533
   A11        2.09533  -0.00442   0.00000  -0.01030  -0.01031   2.08502
   A12        2.08903  -0.00303   0.00000  -0.00621  -0.00622   2.08281
   A13        2.10134   0.00425   0.00000   0.00956   0.00951   2.11085
   A14        2.07770   0.00379   0.00000   0.01276   0.01267   2.09036
   A15        2.10400  -0.00800   0.00000  -0.02195  -0.02204   2.08196
   A16        2.09782  -0.00032   0.00000  -0.00143  -0.00145   2.09637
   A17        2.09098   0.00038   0.00000   0.00137   0.00138   2.09236
   A18        2.09438  -0.00006   0.00000   0.00006   0.00007   2.09445
   A19        2.09599   0.00228   0.00000   0.00474   0.00473   2.10071
   A20        2.09183  -0.00105   0.00000  -0.00210  -0.00210   2.08973
   A21        2.09537  -0.00123   0.00000  -0.00263  -0.00264   2.09274
   A22        2.09130  -0.00283   0.00000  -0.00716  -0.00720   2.08410
   A23        2.09598   0.00140   0.00000   0.00353   0.00353   2.09952
   A24        2.09591   0.00144   0.00000   0.00365   0.00365   2.09956
   A25        2.13150   0.00678   0.00000   0.01369   0.01367   2.14517
   A26        2.07388   0.00116   0.00000   0.00223   0.00222   2.07610
   A27        2.07656  -0.00797   0.00000  -0.01623  -0.01622   2.06034
   A28        2.10162   0.00360   0.00000   0.00826   0.00826   2.10988
   A29        2.09210  -0.00020   0.00000   0.00057   0.00056   2.09267
   A30        2.08947  -0.00339   0.00000  -0.00882  -0.00883   2.08064
   A31        2.10338   0.00459   0.00000   0.01013   0.01014   2.11353
   A32        2.08489  -0.00113   0.00000  -0.00164  -0.00164   2.08325
   A33        2.09490  -0.00346   0.00000  -0.00850  -0.00850   2.08639
   A34        2.09904   0.00111   0.00000   0.00223   0.00222   2.10125
   A35        2.08904  -0.00049   0.00000  -0.00093  -0.00092   2.08812
   A36        2.09511  -0.00062   0.00000  -0.00130  -0.00130   2.09381
   A37        2.09681   0.00087   0.00000   0.00129   0.00129   2.09809
   A38        2.09154  -0.00042   0.00000  -0.00061  -0.00061   2.09093
   A39        2.09484  -0.00045   0.00000  -0.00068  -0.00068   2.09416
   A40        2.08895  -0.00221   0.00000  -0.00569  -0.00571   2.08324
   A41        2.09764   0.00108   0.00000   0.00277   0.00278   2.10042
   A42        2.09660   0.00113   0.00000   0.00292   0.00293   2.09952
   A43        2.08071  -0.01074   0.00000  -0.02181  -0.02184   2.05887
   A44        2.12301   0.02248   0.00000   0.04579   0.04576   2.16877
   A45        2.07944  -0.01173   0.00000  -0.02393  -0.02390   2.05555
   A46        2.09982   0.00808   0.00000   0.01783   0.01785   2.11768
   A47        2.09485  -0.00470   0.00000  -0.01084  -0.01086   2.08400
   A48        2.08851  -0.00338   0.00000  -0.00699  -0.00700   2.08151
   A49        2.10217   0.00449   0.00000   0.01017   0.01015   2.11232
   A50        2.07746   0.00435   0.00000   0.01439   0.01435   2.09181
   A51        2.10345  -0.00882   0.00000  -0.02435  -0.02439   2.07906
   A52        2.09790  -0.00025   0.00000  -0.00145  -0.00146   2.09644
   A53        2.09091   0.00032   0.00000   0.00130   0.00131   2.09222
   A54        2.09438  -0.00007   0.00000   0.00014   0.00015   2.09453
   A55        2.09615   0.00239   0.00000   0.00500   0.00498   2.10112
   A56        2.09162  -0.00111   0.00000  -0.00225  -0.00224   2.08938
   A57        2.09542  -0.00128   0.00000  -0.00275  -0.00274   2.09268
[...]
 224,0.00042532,-0.00029068,-0.00016289,-0.00007284,0.00015748,-0.00007
 423,0.00022791,0.00011130,0.00000574,-0.00016041,-0.00002932,0.0000242
 1,0.00000970,-0.00025648,-0.00009858,0.00009702,-0.00001894,0.00013077
 ,-0.00000686,-0.00001876,0.00013663,0.00012211,0.00002209,0.00000388,0
 .00002995,0.00000193,-0.00000693,-0.00002004,0.00003833,0.00000156,0.0
 0000022,-0.00042294,0.00044699,-0.00079836,-0.00018529,0.00015531,-0.0
 0019015,0.00013414,0.00036299,0.00012756,0.00005710,0.00001446,0.00008
 189,0.00006947,0.00006496,0.00007813,-0.00003708,-0.00002174,-0.000069
 38,0.00003103,-0.00001562,0.00004755,0.00002157,-0.00005751,0.00004817
 ,0.00000907,0.00001978,-0.00000246,0.00000733,0.00000529,0.00001467,0.
 00000097,-0.00002358,0.00000887,-0.03013736,0.02638830,0.01032032,0.01
 666422,-0.01295167,-0.00831582,-0.03030078,0.08562600,-0.14696483,0.02
 707988,0.01881174,-0.03689105,-0.00030932,-0.00088088,0.00030236,-0.19
 581859,-0.24012447,0.62301737,-0.00181105,-0.00128682,-0.00162054,-0.0
 0014890,0.00015592,-0.00005485,-0.00054750,0.00151908,-0.00170909,0.00
 023845,0.00050121,-0.00010556,-0.00060538,0.00083777,-0.00047796,-0.00
 015264,-0.00009308,0.00007383,0.00002655,-0.00003717,0.00001965,0.0001
 3899,0.00023419,0.00001539,0.00005822,-0.00027619,0.00001598,-0.000107
 43,-0.00022778,-0.00008098,-0.00000949,0.00001073,0.00000276,0.0000208
 0,-0.00001942,-0.00000360,0.00000634,-0.00000689,-0.00000370,0.0004539
 9,-0.00024834,0.00040354,0.00027617,-0.00027265,0.00013649,-0.00007350
 ,-0.00017406,-0.00011738,-0.00003597,0.00003946,-0.00010161,-0.0003157
 5,0.00006030,0.00002815,0.00000300,0.00001735,0.00002956,-0.00000923,0
 .00001444,-0.00001659,-0.00001519,0.00000447,-0.00000657,-0.00001483,-
 0.00002019,-0.00000027,-0.00001278,-0.00000652,-0.00000518,-0.00000562
 ,0.00001714,-0.00000475,-0.00059840,0.00326125,0.00202647,0.00351784,0
 .00183591,0.00241228,-0.26125737,0.04725295,0.14783492,0.00023480,-0.0
 0016730,-0.00095821,-0.00013474,0.00008712,0.00005763,-0.01078376,0.00
 062619,0.01477450,0.27194131,-0.00159294,-0.00118510,-0.00215891,-0.00
 015468,0.00056109,-0.00025658,0.00082839,-0.00100205,0.00097619,0.0003
 4394,-0.00007787,0.00019875,0.00035533,-0.00032858,0.00029596,-0.00037
 291,-0.00011147,0.00019410,-0.00002845,0.00003232,-0.00016701,0.000419
 14,0.00012090,-0.00011326,0.00002366,-0.00029511,-0.00000717,-0.000078
 62,-0.00021256,-0.00022400,-0.00004938,-0.00000381,-0.00003714,-0.0000
 0682,0.00001848,0.00001031,-0.00005124,0.00000180,-0.00002283,0.000328
 71,-0.00038471,0.00031462,0.00017003,-0.00009667,0.00010449,-0.0000526
 6,-0.00013587,-0.00008031,-0.00003088,-0.00001296,-0.00008098,-0.00023
 889,0.00007796,0.00002927,0.00001461,0.00002082,0.00005316,-0.00000518
 ,0.00000106,-0.00000758,-0.00001818,0.00002008,-0.00002013,-0.00000011
 ,-0.00000183,0.00001050,-0.00001120,0.00000234,-0.00000627,-0.00000011
 ,0.00002007,-0.00000180,-0.01798794,0.00947896,0.01257529,0.00224302,0
 .00075280,0.00631056,0.04719209,-0.07183264,-0.02040193,-0.00029020,-0
 .00101865,0.00028210,-0.00091705,0.00016360,0.00063723,0.02359299,0.00
 077106,-0.01729893,-0.05727239,0.06691302,-0.00064792,-0.00226134,-0.0
 0113393,-0.00013781,0.00017119,0.00006428,0.00004017,0.00048259,0.0000
 3424,-0.00034943,-0.00063070,-0.00015932,-0.00006722,-0.00007504,0.000
 64920,-0.00011284,-0.00015070,-0.00010726,0.00002914,0.00008599,-0.000
 06199,-0.00025872,-0.00000981,0.00009095,0.00000612,-0.00002216,-0.000
 04373,0.00009211,0.00020124,0.00006621,0.00001882,0.00003235,-0.000001
 27,0.00004628,-0.00004286,-0.00003811,0.00004380,-0.00000012,-0.000009
 06,0.00017521,-0.00021009,0.00031033,0.00002315,-0.00005649,0.00009402
 ,-0.00005251,-0.00007795,-0.00005626,-0.00003114,0.00004790,-0.0000031
 1,-0.00000009,0.00001941,-0.00004305,-0.00001943,0.00000386,0.00000224
 ,0.00001293,0.00000292,-0.00003716,0.00000746,-0.00001873,0.00000254,-
 0.00000718,-0.00001305,-0.00001089,-0.00000274,-0.00000591,-0.00000312
 ,0.00000300,0.00000094,-0.00000883,0.02429275,-0.00660737,-0.01006780,
 0.00276850,0.00652008,-0.00095381,0.14578939,-0.02016795,-0.16403276,-
 0.00102118,0.00043594,-0.00051669,0.00108024,-0.00037663,-0.00077892,-
 0.00913158,0.00397305,0.00970239,-0.16123225,0.01722887,0.16475247,0.0
 0001172,-0.00156461,0.00030684,-0.00021199,0.00005389,-0.00064797,0.00
 027491,0.00032839,0.00024871,-0.00034157,0.00009238,-0.00000985,0.0001
 8011,0.00002060,-0.00023984,0.00026875,-0.00000438,-0.00017270,0.00000
 539,-0.00001335,0.00004732,-0.00021169,-0.00013214,-0.00004632,0.00001
 556,-0.00002262,-0.00002019,-0.00002121,0.00013296,0.00024926,-0.00002
 112,-0.00000530,-0.00001903,-0.00001805,0.00000328,0.00001948,-0.00002
 064,0.00000161,0.00000271,0.00045552,-0.00039966,-0.00029240,0.0001290
 7,0.00004115,-0.00011657,0.00022271,0.00028931,-0.00000836,-0.00002954
 ,0.00030048,-0.00009331,-0.00031793,0.00011474,-0.00020289,-0.00016620
 ,-0.00008851,-0.00013281,0.00000194,-0.00001720,0.,0.00012139,-0.00005
 009,0.00017641,0.00002709,0.00004133,0.00001907,-0.00001696,0.00002174
 ,0.00002154,0.00000292,0.00001778,-0.00000357,-0.03908590,-0.01630858,
 0.04842277,0.06076648,-0.01644128,-0.02948316,-0.04054696,0.06468994,-
 0.02223432,-0.14541809,0.03143734,0.02594793,0.00009921,0.00663328,0.0
 0137095,-0.27211777,0.03266937,0.14594907,0.00142538,0.00561155,0.0009
 8135,0.61110571,-0.00101654,-0.00105919,0.00012325,0.00014516,-0.00011
 845,-0.00039561,-0.00001933,-0.00007119,0.00024363,-0.00004632,-0.0000
 1641,-0.00009417,0.00012563,0.00004893,0.00004483,0.00003750,0.0000138
 2,-0.00008001,-0.00004866,-0.00004408,0.00001326,-0.00006718,-0.000022
 28,0.00001431,-0.00000056,-0.00001202,0.00000316,0.00006391,0.00005347
 ,0.00001698,0.00004044,-0.00000094,0.00001488,0.00002024,-0.00000952,-
 0.00000847,0.00001517,-0.00000414,-0.00000053,0.00097911,-0.00000711,0
 .00004313,0.00002680,-0.00019528,0.00011292,-0.00004884,-0.00010326,-0
 .00022619,-0.00002972,0.00013289,-0.00008320,-0.00005237,-0.00000159,-
 0.00002131,-0.00008895,-0.00004730,0.00000948,0.00001690,0.00002661,-0
 .00000829,0.00002453,-0.00009683,0.00005838,-0.00000806,-0.00003295,-0
 .00003130,-0.00002261,-0.00003443,0.00000629,-0.00000956,-0.00000324,-
 0.00000833,-0.01675205,-0.00735872,0.01718828,0.02305968,-0.03445726,0
 .02637799,0.02487223,0.01451934,-0.02901271,-0.01931498,-0.19895420,0.
 14333328,0.00629863,0.00025237,0.00353545,0.08400789,-0.14147419,-0.01
 922232,0.00565295,-0.00051275,0.00450295,-0.24097575,0.58745300,0.0001
 7611,0.00180149,-0.00115449,-0.00016703,0.00031044,0.00099079,-0.00026
 101,-0.00012784,-0.00051933,0.00038077,-0.00017148,0.00009387,-0.00039
 029,-0.00006643,0.00024942,-0.00034071,-0.00003135,0.00025909,0.000001
 81,0.00004774,-0.00008493,0.00030661,0.00017098,0.00003388,-0.00001478
 ,0.00001704,0.00000385,-0.00005054,-0.00019335,-0.00028373,-0.00000105
 ,0.00000663,0.00001062,-0.00000388,0.00000629,-0.00000805,0.00000778,-
 0.00000022,-0.00000748,-0.00116282,0.00022585,0.00041808,-0.00021654,0
 .00036272,0.00008532,-0.00021229,-0.00032456,0.00028704,-0.00001106,-0
 .00047633,0.00010728,0.00024684,0.00003521,0.00006597,0.00029899,0.000
 17071,0.00018296,-0.00000722,-0.00000782,0.00000568,-0.00015301,0.0002
 1560,-0.00027584,-0.00000997,0.00002636,0.00004673,0.00004003,0.000010
 61,-0.00002801,0.00000791,-0.00000078,0.00000394,0.04920069,0.01544591
 ,-0.07285457,-0.07416255,0.06408316,0.00994656,0.02165315,-0.06714517,
 0.06219359,0.08093998,0.09383861,-0.26385256,0.00185849,0.00302243,0.0
 0401775,0.09140633,0.03029881,-0.20365355,0.00068326,0.00483629,0.0033
 1409,-0.16133851,-0.21248726,0.56027314,-0.00060687,-0.00028694,0.0007
 4638,-0.00001433,0.00002675,-0.00006420,0.00005537,0.00025003,-0.00017
 850,-0.00004585,0.00002227,0.00006458,-0.00010459,-0.00003774,-0.00000
 346,-0.00000146,0.00000506,0.00002693,0.00001652,0.00000887,0.00000051
 ,0.00002979,-0.00001052,0.00000037,0.00000589,-0.00000412,-0.00000413,
 -0.00003046,-0.00001558,-0.00001046,-0.00002121,-0.00001289,-0.0000030
 0,-0.00001248,0.00000360,0.00001203,-0.00001418,-0.00000125,0.00000298
 ,-0.00012797,-0.00011585,-0.00007532,0.00004186,0.00002313,0.00003544,
 0.00006555,0.00007485,0.00001973,-0.00001308,0.00000221,-0.00001276,-0
 .00002215,-0.00001588,-0.00003724,0.00000476,0.00001457,-0.00001460,-0
 .00001131,-0.00001146,0.00000448,0.00000892,0.00002206,-0.00000440,0.0
 0000500,0.00000630,0.00001322,-0.00000517,0.00002206,-0.00000083,0.000
 00252,0.00001568,0.00000338,0.00169674,0.00595448,0.00076595,-0.011280
 28,0.00074297,0.01563372,0.00024890,-0.00011295,-0.00101328,-0.2551806
 0,0.05144168,0.14494540,-0.00069859,-0.00178318,-0.00243274,0.00378087
 ,0.00171565,0.00289476,-0.00043569,-0.00043872,-0.00032658,0.00020392,
 0.00426696,0.00051048,0.26336566,0.00081887,0.00009828,-0.00085762,-0.
 00004289,0.00008022,0.00000814,0.00005814,-0.00041230,0.00007373,0.000
 07243,0.00001643,0.00000706,0.00004723,0.00002981,0.00000248,-0.000049
 84,0.00000772,0.00000315,-0.00000688,-0.00000274,-0.00000026,0.0000267
 6,0.00003925,-0.00001064,0.00000044,-0.00001648,0.00000551,0.00002795,
 -0.00002258,-0.00004142,0.00000667,0.00000393,0.00000451,0.00001142,-0
 .00000158,-0.00001029,0.00000754,-0.00000158,-0.00000073,0.00013902,0.
 00005891,0.00005379,-0.00004075,-0.00004066,-0.00000705,-0.00002872,-0
 .00006372,-0.00002336,-0.00001371,-0.00000979,0.00001634,0.00004108,0.
 00000794,-0.00000105,-0.00001092,-0.00000319,0.00001638,0.00000728,0.0
 0000902,-0.00001303,-0.00002296,-0.00003028,-0.00000480,-0.00000047,-0
 .00001365,-0.00002125,0.00000263,-0.00001196,-0.00000323,0.00000411,-0
 .00000886,-0.00000591,0.00540908,-0.00042018,0.00482262,0.02330585,0.0
 0099653,-0.01769952,-0.00024347,-0.00107002,0.00040234,0.05135342,-0.0
 7363693,-0.02286028,-0.00255153,-0.00112191,-0.00189646,0.00206528,0.0
 0095399,0.00633970,-0.00038316,-0.00041382,-0.00052791,-0.01816411,0.0
 0926718,0.01352167,-0.05943508,0.06663125,-0.00041851,0.00004701,0.000
 20426,0.00001584,-0.00003145,-0.00003909,-0.00000651,-0.00001894,-0.00
 007756,0.00002562,-0.00000533,0.00002816,-0.00001101,-0.00000802,0.000
 03746,-0.00003710,-0.00001083,0.00001395,-0.00000781,0.00000514,-0.000
 01759,0.00002522,0.00000829,0.00001343,-0.00000328,0.00000801,-0.00000
 298,-0.00000557,-0.00002117,-0.00002636,-0.00000137,0.00000293,0.00000
 214,0.00000100,0.00000252,-0.00000681,0.00000408,0.00000232,-0.0000039
 1,0.00010145,-0.00005857,0.00001971,-0.00002126,-0.00002228,-0.0000143
 7,0.00000329,-0.00000289,-0.00004576,0.00000260,0.00001291,0.00003141,
 0.00003299,0.00002188,-0.00000036,-0.00001678,-0.00000749,-0.00000526,
 -0.00000167,0.00000565,-0.00000370,-0.00000411,-0.00002612,0.00000992,
 0.00000017,-0.00000948,-0.00001953,-0.00000205,-0.00000613,0.00000198,
 0.00000195,-0.00000967,-0.00000290,0.00096782,0.00456028,0.00331415,-0
 .00871998,0.00433498,0.00949443,-0.00100928,0.00037957,-0.00038041,0.1
 4512264,-0.02300953,-0.16517862,-0.00161312,-0.00257241,-0.00082073,0.
 00255295,0.00662383,-0.00100989,-0.00032361,-0.00049239,-0.00041312,0.
 02471832,-0.00834968,-0.00955574,-0.16013820,0.02069843,0.16589710,0.0
 0045186,0.00021734,-0.00081412,-0.00010455,0.00015343,-0.00012305,0.00
 011892,-0.00003759,0.00000122,-0.00004269,-0.00000926,0.00001221,0.000
 02610,-0.00001481,0.00001771,0.00001494,-0.00001828,-0.00000649,0.0000
 0274,0.00001310,-0.00001082,-0.00002702,-0.00001822,0.00001402,0.00000
 374,0.00000913,-0.00000856,-0.00003262,-0.00000664,0.00003170,-0.00001
 313,0.00000305,-0.00000865,-0.00000740,0.00000824,-0.00000217,-0.00000
 625,0.00000687,-0.00000323,-0.00010187,0.00003392,-0.00003243,0.000020
 68,-0.00001873,0.00002639,-0.00000395,0.00003965,0.00001348,0.00000971
 ,0.00000197,0.00000404,0.00000791,0.00001115,0.00001277,0.00001075,0.0
 0001075,-0.00000595,-0.00000375,-0.00000431,0.00000516,-0.00000169,0.0
 0000714,-0.00000350,-0.00000108,-0.00000467,-0.00000051,0.00000220,0.0
 0000552,-0.00000282,-0.00000086,0.00000180,0.00000210,-0.00004851,0.00
 642443,0.00154205,-0.00120164,0.00039600,-0.00023615,0.00933215,0.0145
 4467,-0.01927339,-0.00173775,0.00443331,0.00551528,-0.00030741,-0.0004
 7156,-0.00040186,-0.07731051,-0.02530626,0.05432642,-0.00051533,-0.002
 50872,-0.00159754,0.00079972,-0.01857015,0.02445922,-0.00024440,-0.000
 85320,0.00110729,0.07153433,-0.00053668,-0.00032155,0.00086210,0.00020
 077,-0.00032176,0.00009484,-0.00029175,-0.00000176,0.00003249,0.000020
 85,0.00003720,-0.00000656,0.00009272,0.00004449,-0.00003629,0.00000699
 ,-0.00000718,-0.00001993,-0.00001235,-0.00001529,-0.00002135,-0.000021
 35,0.00000080,-0.00001680,-0.00000982,-0.00002026,0.00001335,0.0000415
 9,0.00002641,-0.00000623,0.00000984,0.00000291,0.00000382,0.00002330,-
 0.00001763,-0.00001077,0.00001461,-0.00000335,0.00000033,0.00019361,0.
 00008607,0.00015907,0.00001825,-0.00011692,-0.00002432,-0.00006787,-0.
 00011003,-0.00006373,0.00001478,0.00000865,0.00000558,0.00000180,0.000
 02972,0.00006384,0.00000001,-0.00000764,0.00000570,-0.00001241,0.00001
 932,-0.00001306,-0.00001083,-0.00002659,-0.00000676,-0.00002072,-0.000
 02323,-0.00001423,-0.00000306,-0.00001676,-0.00000063,-0.00000654,-0.0
 0000998,-0.00000075,0.00640507,0.00023201,0.00285413,0.00037599,-0.000
 39940,-0.00095754,-0.00798496,-0.00927606,0.02350689,0.00417785,0.0037
 7225,0.00153326,-0.00048561,-0.00048520,-0.00035740,-0.02532493,-0.160
 93592,0.14461755,-0.00168236,-0.00110315,-0.00256331,0.00413605,0.0089
 5528,-0.00753976,0.00008192,0.00015555,-0.00034682,0.02317804,0.161013
 23,0.00040820,-0.00020967,-0.00027908,-0.00003863,0.00008063,-0.000058
 85,0.00007492,0.00008938,-0.00001794,-0.00006930,0.00000548,0.00001800
 ,-0.00000713,-0.00001664,-0.00003820,0.00004044,-0.00001200,0.00000121
 ,0.00002003,0.00001828,-0.00000309,-0.00002211,-0.00002673,-0.00000138
 ,0.00000868,-0.00000533,-0.00001103,-0.00003346,-0.00000025,0.00004707
 ,-0.00002546,-0.00000130,-0.00001797,-0.00001178,0.00000750,0.00000650
 ,-0.00001787,0.00000617,0.00000067,-0.00015328,0.00001707,-0.00002578,
 0.00003164,0.00001597,0.00004166,0.00001579,0.00004277,0.00004610,-0.0
 0002021,-0.00000663,-0.00001954,-0.00000875,-0.00000635,-0.00003643,0.
 00001452,0.00001450,-0.00000200,-0.00000255,-0.00001001,-0.00000082,-0
 .00000299,0.00002022,-0.00000733,0.00000999,0.00000267,0.00000578,0.00
 000249,0.00001503,-0.00000630,0.00000335,0.00001320,0.00000112,0.00124
 479,0.00340362,0.00381041,-0.00036116,-0.00091517,0.00037434,0.0049212
 6,0.00173131,-0.00105455,0.00584876,0.00120946,0.00203944,-0.00039931,
 -0.00036635,-0.00049395,0.05409417,0.14452343,-0.25548493,-0.00224220,
 -0.00190467,-0.00082063,0.00027905,0.01428051,-0.00992406,0.00005830,0
 .00056297,-0.00075703,-0.06212184,-0.16000699,0.26349816,-0.00023486,-
 0.00049128,-0.00034247,-0.00000269,0.00008522,-0.00013140,0.00005030,0
 .00004467,-0.00003007,-0.00000049,0.00002369,0.00003268,-0.00005553,0.
 00000332,-0.00003511,0.00000607,0.00000783,0.00001745,0.00001484,0.000
 00305,0.00000267,0.00002890,0.00000727,-0.00002195,0.00000627,-0.00002
 375,-0.00000106,-0.00000572,-0.00001276,-0.00000398,-0.00001533,-0.000
 00595,-0.00000867,-0.00000526,0.00000104,0.00001006,-0.00001394,-0.000
 00067,0.00000285,0.00001276,-0.00008687,0.00002308,0.00002782,-0.00000
 102,0.00003761,0.00000386,-0.00000147,0.00000933,-0.00001750,0.0000006
 4,-0.00001984,-0.00002222,-0.00000851,-0.00002157,0.00000553,0.0000036
 8,0.00000625,-0.00000168,-0.00000447,-0.00000126,-0.00000117,0.0000099
 1,-0.00000358,0.00000539,-0.00000048,0.00000338,-0.00000218,0.00000849
 ,-0.00000382,0.00000262,0.00001031,0.00000028,-0.00043269,-0.00090474,
 0.00044848,0.00312568,0.00140959,0.00388501,-0.00081952,0.00274475,0.0
 0649623,0.00894161,-0.00751691,0.00432871,0.00016154,-0.00031037,0.000
 09930,-0.01078850,0.02354153,-0.00984234,-0.00075130,0.00098383,-0.000
 41425,-0.17757186,0.14741789,-0.03367520,-0.00066161,-0.00155752,-0.00
 234200,-0.00062333,-0.00252279,-0.00153834,0.17963419,-0.00032116,-0.0
 0044301,-0.00038117,0.00000114,0.00004012,-0.00011431,-0.00002303,-0.0
 0006882,0.00000331,0.00002713,-0.00003033,0.00001030,0.00003437,0.0000
 1202,0.00003508,-0.00001759,-0.00001788,-0.00000968,-0.00001131,0.,-0.
 00001733,-0.00001269,0.00000499,0.00001162,-0.00000689,0.00000819,-0.0
 0000299,0.00001387,0.00000494,-0.00000716,0.00000580,0.00000829,0.0000
 0271,0.00000882,-0.00000535,-0.00000983,0.00001118,0.00000196,-0.00000
 400,0.00014078,-0.00002717,0.00008296,-0.00002260,-0.00004510,-0.00002
 072,-0.00003926,-0.00004822,-0.00004379,0.00002073,0.00001736,0.000032
 28,0.00003539,0.00002877,0.00003803,-0.00001104,-0.00001093,-0.0000004
 5,-0.00000325,0.00001023,-0.00000468,-0.00000356,-0.00002410,0.0000064
 1,-0.00000871,-0.00001408,-0.00001876,-0.00000041,-0.00001392,0.000002
 05,-0.00000181,-0.00001459,-0.00000212,-0.00100675,0.00025791,-0.00029
 604,0.00103870,0.00231956,0.00587402,0.00317667,0.00430597,0.00195563,
 0.01498747,-0.00928226,0.00090733,0.00058811,-0.00069494,0.00011718,0.
 00073677,0.00029234,0.00455264,0.00004591,-0.00022675,0.00010884,0.147
 55042,-0.23608555,0.06011779,-0.00241893,-0.00105380,-0.00170454,-0.00
 165710,-0.00116424,-0.00257207,-0.16285717,0.24195838,-0.00036978,-0.0
 0044576,-0.00028213,0.00007240,0.00001258,-0.00003137,0.00004745,0.000
 03057,0.00000950,-0.00002294,-0.00004004,0.00000986,-0.00002864,-0.000
 01709,0.00004139,0.00000239,-0.00000593,-0.00000056,0.00000966,0.00001
 129,-0.00000234,-0.00001952,-0.00000301,0.00001069,0.00000018,0.000005
 91,-0.00000885,-0.00000518,0.00000784,0.00000437,-0.00000629,0.0000001
 5,-0.00000220,-0.00000152,-0.00000140,0.00000088,-0.00000143,0.0000008
 3,0.00000079,0.00001876,-0.00008143,0.00006246,-0.00001776,0.00000375,
 0.00001364,-0.00001734,-0.00002804,0.00000341,-0.00000358,-0.00000668,
 0.00000198,0.00002332,0.00000982,-0.00000748,0.00000382,-0.00000441,0.
 00001190,0.00000472,-0.00000322,-0.00000383,-0.00000124,0.00000169,-0.
 00000700,0.00000086,-0.00000344,-0.00000025,-0.00000093,0.00000230,-0.
 00000357,0.00000192,0.00000357,0.00000078,0.00041531,-0.00020518,-0.00
 116611,0.00432256,0.00552491,-0.00152075,0.00605088,0.00229339,0.00075
 517,-0.01993610,0.02287804,-0.00024908,-0.00092072,0.00102881,-0.00033
 565,0.01435061,-0.01735822,0.01002372,0.00055048,-0.00077580,0.0002178
 7,-0.03369899,0.06010643,-0.08038732,-0.00141892,-0.00255400,-0.000686
 41,-0.00243798,-0.00173973,-0.00082961,0.03303354,-0.06864851,0.074356
 09||0.00000531,0.00000200,-0.00000273,0.00000460,-0.00000096,-0.000005
 54,0.00000951,-0.00001723,0.00001612,-0.00000241,0.00000852,-0.0000038
 1,-0.00000803,0.00000854,-0.00000342,-0.00000192,0.00000707,-0.0000022
 5,0.00000054,-0.00000173,-0.00000036,-0.00000102,0.00000476,-0.0000045
 6,0.00000144,0.00000078,0.00000007,0.00000493,-0.00001207,0.00000742,0
 .00000042,-0.00000187,-0.00000014,-0.00000050,0.00000016,0.00000124,-0
 .00000138,0.00000210,-0.00000100,0.00002782,-0.00001983,0.00004328,-0.
 00003034,-0.00004352,-0.00004168,-0.00000015,0.00005985,-0.00000645,0.
 00001062,0.00006251,-0.00001505,-0.00000073,0.00000164,0.00000604,-0.0
 0002411,-0.00004219,-0.00004579,-0.00000290,-0.00000502,0.00000083,0.0
 0001709,-0.00002373,0.00006004,-0.00000070,-0.00000598,0.00000155,0.00
 000191,0.00000509,0.00000383,-0.00000181,0.00000353,-0.00000705,-0.000
 02024,0.00000243,0.00003493,0.00002630,-0.00002129,-0.00001224,-0.0000
 1128,0.00002289,-0.00002841,-0.00001488,0.00002016,-0.00002435,-0.0000
 0013,0.00000414,0.00000124,0.00002302,-0.00002274,-0.00001103,0.000000
 09,-0.00000114,0.00000327,-0.00001000,0.00000357,0.00003631,0.00000192
 ,-0.00000025,0.00000123,-0.00000268,0.00000162,0.00000171,-0.00000031,
 -0.00000182,-0.00000323|||@


 NOTHING RESEMBLES A NEW PHENOMENON AS MUCH AS A MISTAKE.

                               -- ENRICO FERMI (?)
 Job cpu time:  0 days  0 hours  6 minutes 25.0 seconds.
 File lengths (MBytes):  RWF=    350 Int=      0 D2E=      0 Chk=      7 Scr=      1
 Normal termination of Gaussian 09 at Tue Sep 07 06:35:56 2021.
