 Entering Link 1 = b:\programy\g09w\l1.exe PID=      2084.
  
 Copyright (c) 1988,1990,1992,1993,1995,1998,2003,2009, Gaussian, Inc.
                  All Rights Reserved.
  
 This is part of the Gaussian(R) 09 program.  It is based on
 the Gaussian(R) 03 system (copyright 2003, Gaussian, Inc.),
 the Gaussian(R) 98 system (copyright 1998, Gaussian, Inc.),
 the Gaussian(R) 94 system (copyright 1995, Gaussian, Inc.),
 the Gaussian 92(TM) system (copyright 1992, Gaussian, Inc.),
 the Gaussian 90(TM) system (copyright 1990, Gaussian, Inc.),
 the Gaussian 88(TM) system (copyright 1988, Gaussian, Inc.),
 the Gaussian 86(TM) system (copyright 1986, Carnegie Mellon
 University), and the Gaussian 82(TM) system (copyright 1983,
 Carnegie Mellon University). Gaussian is a federally registered
 trademark of Gaussian, Inc.
  
 This software contains proprietary and confidential information,
 including trade secrets, belonging to Gaussian, Inc.
  
 This software is provided under written license and may be
 used, copied, transmitted, or stored only in accord with that
 written license.
  
 The following legend is applicable only to US Government
 contracts under FAR:
  
                    RESTRICTED RIGHTS LEGEND
  
 Use, reproduction and disclosure by the US Government is
 subject to restrictions as set forth in subparagraphs (a)
 and (c) of the Commercial Computer Software - Restricted
 Rights clause in FAR 52.227-19.
  
 Gaussian, Inc.
 340 Quinnipiac St., Bldg. 40, Wallingford CT 06492
  
  
 ---------------------------------------------------------------
 Warning -- This program may not be used in any manner that
 competes with the business of Gaussian, Inc. or will provide
 assistance to any competitor of Gaussian, Inc.  The licensee
 of this program is prohibited from giving any competitor of
 Gaussian, Inc. access to this program.  By using this program,
 the user acknowledges that Gaussian, Inc. is engaged in the
 business of creating and licensing software in the field of
 computational chemistry and represents and warrants to the
 licensee that it is not a competitor of Gaussian, Inc. and that
 it will not use this program in any manner prohibited above.
 ---------------------------------------------------------------
  

 Cite this work as:
 Gaussian 09, Revision A.02,
 M. J. Frisch, G. W. Trucks, H. B. Schlegel, G. E. Scuseria, 
 M. A. Robb, J. R. Cheeseman, G. Scalmani, V. Barone, B. Mennucci, 
 G. A. Petersson, H. Nakatsuji, M. Caricato, X. Li, H. P. Hratchian, 
 A. F. Izmaylov, J. Bloino, G. Zheng, J. L. Sonnenberg, M. Hada, 
 M. Ehara, K. Toyota, R. Fukuda, J. Hasegawa, M. Ishida, T. Nakajima, 
 Y. Honda, O. Kitao, H. Nakai, T. Vreven, J. A. Montgomery, Jr., 
 J. E. Peralta, F. Ogliaro, M. Bearpark, J. J. Heyd, E. Brothers, 
 K. N. Kudin, V. N. Staroverov, R. Kobayashi, J. Normand, 
 K. Raghavachari, A. Rendell, J. C. Burant, S. S. Iyengar, J. Tomasi, 
 M. Cossi, N. Rega, J. M. Millam, M. Klene, J. E. Knox, J. B. Cross, 
 V. Bakken, C. Adamo, J. Jaramillo, R. Gomperts, R. E. Stratmann, 
 O. Yazyev, A. J. Austin, R. Cammi, C. Pomelli, J. W. Ochterski, 
 R. L. Martin, K. Morokuma, V. G. Zakrzewski, G. A. Voth, 
 P. Salvador, J. J. Dannenberg, S. Dapprich, A. D. Daniels, 
 O. Farkas, J. B. Foresman, J. V. Ortiz, J. Cioslowski, 
 and D. J. Fox, Gaussian, Inc., Wallingford CT, 2009.
 
 ******************************************
 Gaussian 09:  IA32W-G09RevA.02 11-Jun-2009
                06-Sep-2021 
 ******************************************
 %nprocshared=12
 Will use up to   12 processors via shared memory.
 ----------------------------------------------
 # opt freq=noraman hf/6-311g geom=connectivity
 ----------------------------------------------
 1/18=20,19=15,38=1,57=2/1,3;
 2/9=110,12=2,17=6,18=5,40=1/2;
 3/5=4,6=6,11=9,16=1,25=1,30=1,71=1/1,2,3;
 4//1;
 5/5=2,38=5/2;
 6/7=2,8=2,9=2,10=2,28=1/1;
 7//1,2,3,16;
 1/18=20,19=15/3(2);
 2/9=110/2;
 99//99;
 2/9=110/2;
 3/5=4,6=6,11=9,16=1,25=1,30=1,71=1/1,2,3;
 4/5=5,16=3/1;
 5/5=2,38=5/2;
 7//1,2,3,16;
 1/18=20,19=15/3(-5);
 2/9=110/2;
 6/7=2,8=2,9=2,10=2,19=2,28=1/1;
 99/9=1/99;
 -----
 M0001
 -----
 Symbolic Z-matrix:
 Charge =  0 Multiplicity = 1
 C                     0.        0.       -0.79582 
 H                     0.        0.       -1.91853 
 C                     0.95087  -1.0851   -0.35543 
 C                     0.8058   -1.74334   0.86655 
 C                     2.00898  -1.4374   -1.1977 
 C                     1.70281  -2.73812   1.23976 
 H                    -0.02869  -1.4775    1.52882 
 C                     2.90538  -2.43039  -0.82086 
 H                     2.13642  -0.92781  -2.15977 
 C                     2.75413  -3.08292   0.39803 
 H                     1.57794  -3.25066   2.19908 
 H                     3.732    -2.69917  -1.4865 
 H                     3.45994  -3.86596   0.69279 
 C                     0.46429   1.36603  -0.35543 
 C                     0.24033   2.45852  -1.1977 
 C                     1.10688   1.56952   0.86655 
 C                     0.65209   3.73133  -0.82086 
 H                    -0.2647    2.3141   -2.15977 
 C                     1.51988   2.84374   1.23976 
 H                     1.2939    0.71391   1.52882 
 C                     1.29282   3.9266    0.39803 
 H                     0.47155   4.58159  -1.4865 
 H                     2.02618   2.99187   2.19908 
 H                     1.61804   4.92938   0.69279 
 C                    -1.41517  -0.28093  -0.35543 
 C                    -1.91268   0.17382   0.86655 
 C                    -2.24931  -1.02113  -1.1977 
 C                    -3.22269  -0.10561   1.23976 
 H                    -1.26521   0.76359   1.52882 
 C                    -3.55747  -1.30094  -0.82086 
 H                    -1.87172  -1.38629  -2.15977 
 C                    -4.04695  -0.84368   0.39803 
 H                    -3.60413   0.25879   2.19908 
 H                    -4.20355  -1.88242  -1.4865 
 H                    -5.07799  -1.06342   0.69279 
 

 GradGradGradGradGradGradGradGradGradGradGradGradGradGradGradGradGradGrad
 Berny optimization.
 Initialization pass.
                           ----------------------------
                           !    Initial Parameters    !
                           ! (Angstroms and Degrees)  !
 --------------------------                            --------------------------
 ! Name  Definition              Value          Derivative Info.                !
 --------------------------------------------------------------------------------
 ! R1    R(1,2)                  1.1227         estimate D2E/DX2                !
 ! R2    R(1,3)                  1.5085         estimate D2E/DX2                !
 ! R3    R(1,14)                 1.5085         estimate D2E/DX2                !
 ! R4    R(1,25)                 1.5085         estimate D2E/DX2                !
 ! R5    R(3,4)                  1.3955         estimate D2E/DX2                !
 ! R6    R(3,5)                  1.3975         estimate D2E/DX2                !
 ! R7    R(4,6)                  1.3905         estimate D2E/DX2                !
 ! R8    R(4,7)                  1.098          estimate D2E/DX2                !
 ! R9    R(5,8)                  1.3898         estimate D2E/DX2                !
 ! R10   R(5,9)                  1.0961         estimate D2E/DX2                !
 ! R11   R(6,10)                 1.3902         estimate D2E/DX2                !
 ! R12   R(6,11)                 1.0948         estimate D2E/DX2                !
 ! R13   R(8,10)                 1.3908         estimate D2E/DX2                !
 ! R14   R(8,12)                 1.0948         estimate D2E/DX2                !
 ! R15   R(10,13)                1.0946         estimate D2E/DX2                !
 ! R16   R(14,15)                1.3975         estimate D2E/DX2                !
 ! R17   R(14,16)                1.3955         estimate D2E/DX2                !
 ! R18   R(15,17)                1.3898         estimate D2E/DX2                !
 ! R19   R(15,18)                1.0961         estimate D2E/DX2                !
 ! R20   R(16,19)                1.3905         estimate D2E/DX2                !
 ! R21   R(16,20)                1.098          estimate D2E/DX2                !
 ! R22   R(17,21)                1.3908         estimate D2E/DX2                !
 ! R23   R(17,22)                1.0948         estimate D2E/DX2                !
 ! R24   R(19,21)                1.3902         estimate D2E/DX2                !
 ! R25   R(19,23)                1.0948         estimate D2E/DX2                !
 ! R26   R(21,24)                1.0946         estimate D2E/DX2                !
 ! R27   R(25,26)                1.3955         estimate D2E/DX2                !
 ! R28   R(25,27)                1.3975         estimate D2E/DX2                !
 ! R29   R(26,28)                1.3905         estimate D2E/DX2                !
 ! R30   R(26,29)                1.098          estimate D2E/DX2                !
 ! R31   R(27,30)                1.3898         estimate D2E/DX2                !
 ! R32   R(27,31)                1.0961         estimate D2E/DX2                !
 ! R33   R(28,32)                1.3902         estimate D2E/DX2                !
 ! R34   R(28,33)                1.0948         estimate D2E/DX2                !
 ! R35   R(30,32)                1.3908         estimate D2E/DX2                !
 ! R36   R(30,34)                1.0948         estimate D2E/DX2                !
 ! R37   R(32,35)                1.0946         estimate D2E/DX2                !
 ! A1    A(2,1,3)              106.9742         estimate D2E/DX2                !
 ! A2    A(2,1,14)             106.9742         estimate D2E/DX2                !
 ! A3    A(2,1,25)             106.9742         estimate D2E/DX2                !
 ! A4    A(3,1,14)             111.8487         estimate D2E/DX2                !
 ! A5    A(3,1,25)             111.8487         estimate D2E/DX2                !
 ! A6    A(14,1,25)            111.8487         estimate D2E/DX2                !
 ! A7    A(1,3,4)              121.9643         estimate D2E/DX2                !
 ! A8    A(1,3,5)              118.8572         estimate D2E/DX2                !
 ! A9    A(4,3,5)              119.1783         estimate D2E/DX2                !
 ! A10   A(3,4,6)              120.3577         estimate D2E/DX2                !
 ! A11   A(3,4,7)              119.5339         estimate D2E/DX2                !
 ! A12   A(6,4,7)              120.1056         estimate D2E/DX2                !
 ! A13   A(3,5,8)              120.3328         estimate D2E/DX2                !
 ! A14   A(3,5,9)              119.9874         estimate D2E/DX2                !
 ! A15   A(8,5,9)              119.6796         estimate D2E/DX2                !
 ! A16   A(4,6,10)             120.1833         estimate D2E/DX2                !
 ! A17   A(4,6,11)             119.7711         estimate D2E/DX2                !
 ! A18   A(10,6,11)            120.0455         estimate D2E/DX2                !
 ! A19   A(5,8,10)             120.1783         estimate D2E/DX2                !
 ! A20   A(5,8,12)             119.8374         estimate D2E/DX2                !
 ! A21   A(10,8,12)            119.9843         estimate D2E/DX2                !
 ! A22   A(6,10,8)             119.7693         estimate D2E/DX2                !
 ! A23   A(6,10,13)            120.1321         estimate D2E/DX2                !
 ! A24   A(8,10,13)            120.0986         estimate D2E/DX2                !
 ! A25   A(1,14,15)            118.8572         estimate D2E/DX2                !
 ! A26   A(1,14,16)            121.9643         estimate D2E/DX2                !
 ! A27   A(15,14,16)           119.1783         estimate D2E/DX2                !
 ! A28   A(14,15,17)           120.3328         estimate D2E/DX2                !
 ! A29   A(14,15,18)           119.9874         estimate D2E/DX2                !
 ! A30   A(17,15,18)           119.6796         estimate D2E/DX2                !
 ! A31   A(14,16,19)           120.3577         estimate D2E/DX2                !
 ! A32   A(14,16,20)           119.5339         estimate D2E/DX2                !
 ! A33   A(19,16,20)           120.1056         estimate D2E/DX2                !
 ! A34   A(15,17,21)           120.1783         estimate D2E/DX2                !
 ! A35   A(15,17,22)           119.8374         estimate D2E/DX2                !
 ! A36   A(21,17,22)           119.9843         estimate D2E/DX2                !
 ! A37   A(16,19,21)           120.1833         estimate D2E/DX2                !
 ! A38   A(16,19,23)           119.7711         estimate D2E/DX2                !
 ! A39   A(21,19,23)           120.0455         estimate D2E/DX2                !
 ! A40   A(17,21,19)           119.7693         estimate D2E/DX2                !
 ! A41   A(17,21,24)           120.0986         estimate D2E/DX2                !
 ! A42   A(19,21,24)           120.1321         estimate D2E/DX2                !
 ! A43   A(1,25,26)            121.9643         estimate D2E/DX2                !
 ! A44   A(1,25,27)            118.8572         estimate D2E/DX2                !
 ! A45   A(26,25,27)           119.1783         estimate D2E/DX2                !
 ! A46   A(25,26,28)           120.3577         estimate D2E/DX2                !
 ! A47   A(25,26,29)           119.5339         estimate D2E/DX2                !
 ! A48   A(28,26,29)           120.1056         estimate D2E/DX2                !
 ! A49   A(25,27,30)           120.3328         estimate D2E/DX2                !
 ! A50   A(25,27,31)           119.9874         estimate D2E/DX2                !
 ! A51   A(30,27,31)           119.6796         estimate D2E/DX2                !
 ! A52   A(26,28,32)           120.1833         estimate D2E/DX2                !
 ! A53   A(26,28,33)           119.7711         estimate D2E/DX2                !
 ! A54   A(32,28,33)           120.0455         estimate D2E/DX2                !
 ! A55   A(27,30,32)           120.1783         estimate D2E/DX2                !
 ! A56   A(27,30,34)           119.8374         estimate D2E/DX2                !
 ! A57   A(32,30,34)           119.9843         estimate D2E/DX2                !
 ! A58   A(28,32,30)           119.7693         estimate D2E/DX2                !
 ! A59   A(28,32,35)           120.1321         estimate D2E/DX2                !
 ! A60   A(30,32,35)           120.0986         estimate D2E/DX2                !
 ! D1    D(2,1,3,4)           -152.7052         estimate D2E/DX2                !
 ! D2    D(2,1,3,5)             27.4172         estimate D2E/DX2                !
 ! D3    D(14,1,3,4)            90.4711         estimate D2E/DX2                !
 ! D4    D(14,1,3,5)           -89.4065         estimate D2E/DX2                !
 ! D5    D(25,1,3,4)           -35.8815         estimate D2E/DX2                !
 ! D6    D(25,1,3,5)           144.2409         estimate D2E/DX2                !
 ! D7    D(2,1,14,15)           27.4172         estimate D2E/DX2                !
 ! D8    D(2,1,14,16)         -152.7052         estimate D2E/DX2                !
 ! D9    D(3,1,14,15)          144.2409         estimate D2E/DX2                !
 ! D10   D(3,1,14,16)          -35.8815         estimate D2E/DX2                !
 ! D11   D(25,1,14,15)         -89.4065         estimate D2E/DX2                !
 ! D12   D(25,1,14,16)          90.4711         estimate D2E/DX2                !
 ! D13   D(2,1,25,26)         -152.7052         estimate D2E/DX2                !
 ! D14   D(2,1,25,27)           27.4172         estimate D2E/DX2                !
 ! D15   D(3,1,25,26)           90.4711         estimate D2E/DX2                !
 ! D16   D(3,1,25,27)          -89.4065         estimate D2E/DX2                !
 ! D17   D(14,1,25,26)         -35.8815         estimate D2E/DX2                !
 ! D18   D(14,1,25,27)         144.2409         estimate D2E/DX2                !
 ! D19   D(1,3,4,6)           -179.9389         estimate D2E/DX2                !
 ! D20   D(1,3,4,7)              0.6705         estimate D2E/DX2                !
 ! D21   D(5,3,4,6)             -0.0617         estimate D2E/DX2                !
 ! D22   D(5,3,4,7)           -179.4523         estimate D2E/DX2                !
 ! D23   D(1,3,5,8)            179.8244         estimate D2E/DX2                !
 ! D24   D(1,3,5,9)             -0.016          estimate D2E/DX2                !
 ! D25   D(4,3,5,8)             -0.0566         estimate D2E/DX2                !
 ! D26   D(4,3,5,9)           -179.897          estimate D2E/DX2                !
 ! D27   D(3,4,6,10)             0.1322         estimate D2E/DX2                !
 ! D28   D(3,4,6,11)          -179.7911         estimate D2E/DX2                !
 ! D29   D(7,4,6,10)           179.5193         estimate D2E/DX2                !
 ! D30   D(7,4,6,11)            -0.404          estimate D2E/DX2                !
 ! D31   D(3,5,8,10)             0.1051         estimate D2E/DX2                !
 ! D32   D(3,5,8,12)          -179.9346         estimate D2E/DX2                !
 ! D33   D(9,5,8,10)           179.946          estimate D2E/DX2                !
 ! D34   D(9,5,8,12)            -0.0937         estimate D2E/DX2                !
 ! D35   D(4,6,10,8)            -0.0836         estimate D2E/DX2                !
 ! D36   D(4,6,10,13)          179.9824         estimate D2E/DX2                !
 ! D37   D(11,6,10,8)          179.8395         estimate D2E/DX2                !
 ! D38   D(11,6,10,13)          -0.0945         estimate D2E/DX2                !
 ! D39   D(5,8,10,6)            -0.0347         estimate D2E/DX2                !
 ! D40   D(5,8,10,13)          179.8993         estimate D2E/DX2                !
 ! D41   D(12,8,10,6)         -179.9949         estimate D2E/DX2                !
 ! D42   D(12,8,10,13)          -0.0609         estimate D2E/DX2                !
 ! D43   D(1,14,15,17)         179.8244         estimate D2E/DX2                !
 ! D44   D(1,14,15,18)          -0.016          estimate D2E/DX2                !
 ! D45   D(16,14,15,17)         -0.0566         estimate D2E/DX2                !
 ! D46   D(16,14,15,18)       -179.897          estimate D2E/DX2                !
 ! D47   D(1,14,16,19)        -179.9389         estimate D2E/DX2                !
 ! D48   D(1,14,16,20)           0.6705         estimate D2E/DX2                !
 ! D49   D(15,14,16,19)         -0.0617         estimate D2E/DX2                !
 ! D50   D(15,14,16,20)       -179.4523         estimate D2E/DX2                !
 ! D51   D(14,15,17,21)          0.1051         estimate D2E/DX2                !
 ! D52   D(14,15,17,22)       -179.9346         estimate D2E/DX2                !
 ! D53   D(18,15,17,21)        179.946          estimate D2E/DX2                !
 ! D54   D(18,15,17,22)         -0.0937         estimate D2E/DX2                !
 ! D55   D(14,16,19,21)          0.1322         estimate D2E/DX2                !
 ! D56   D(14,16,19,23)       -179.7911         estimate D2E/DX2                !
 ! D57   D(20,16,19,21)        179.5193         estimate D2E/DX2                !
 ! D58   D(20,16,19,23)         -0.404          estimate D2E/DX2                !
 ! D59   D(15,17,21,19)         -0.0347         estimate D2E/DX2                !
 ! D60   D(15,17,21,24)        179.8993         estimate D2E/DX2                !
 ! D61   D(22,17,21,19)       -179.9949         estimate D2E/DX2                !
 ! D62   D(22,17,21,24)         -0.0609         estimate D2E/DX2                !
 ! D63   D(16,19,21,17)         -0.0836         estimate D2E/DX2                !
 ! D64   D(16,19,21,24)        179.9824         estimate D2E/DX2                !
 ! D65   D(23,19,21,17)        179.8395         estimate D2E/DX2                !
 ! D66   D(23,19,21,24)         -0.0945         estimate D2E/DX2                !
 ! D67   D(1,25,26,28)        -179.9389         estimate D2E/DX2                !
 ! D68   D(1,25,26,29)           0.6705         estimate D2E/DX2                !
 ! D69   D(27,25,26,28)         -0.0617         estimate D2E/DX2                !
 ! D70   D(27,25,26,29)       -179.4523         estimate D2E/DX2                !
 ! D71   D(1,25,27,30)         179.8244         estimate D2E/DX2                !
 ! D72   D(1,25,27,31)          -0.016          estimate D2E/DX2                !
 ! D73   D(26,25,27,30)         -0.0566         estimate D2E/DX2                !
 ! D74   D(26,25,27,31)       -179.897          estimate D2E/DX2                !
 ! D75   D(25,26,28,32)          0.1322         estimate D2E/DX2                !
 ! D76   D(25,26,28,33)       -179.7911         estimate D2E/DX2                !
 ! D77   D(29,26,28,32)        179.5193         estimate D2E/DX2                !
 ! D78   D(29,26,28,33)         -0.404          estimate D2E/DX2                !
 ! D79   D(25,27,30,32)          0.1051         estimate D2E/DX2                !
 ! D80   D(25,27,30,34)       -179.9346         estimate D2E/DX2                !
 ! D81   D(31,27,30,32)        179.946          estimate D2E/DX2                !
 ! D82   D(31,27,30,34)         -0.0937         estimate D2E/DX2                !
 ! D83   D(26,28,32,30)         -0.0836         estimate D2E/DX2                !
 ! D84   D(26,28,32,35)        179.9824         estimate D2E/DX2                !
 ! D85   D(33,28,32,30)        179.8395         estimate D2E/DX2                !
 ! D86   D(33,28,32,35)         -0.0945         estimate D2E/DX2                !
 ! D87   D(27,30,32,28)         -0.0347         estimate D2E/DX2                !
 ! D88   D(27,30,32,35)        179.8993         estimate D2E/DX2                !
 ! D89   D(34,30,32,28)       -179.9949         estimate D2E/DX2                !
 ! D90   D(34,30,32,35)         -0.061          estimate D2E/DX2                !
 --------------------------------------------------------------------------------
 Trust Radius=3.00D-01 FncErr=1.00D-07 GrdErr=1.00D-07
 Number of steps in this run= 197 maximum allowed number of steps= 210.
 GradGradGradGradGradGradGradGradGradGradGradGradGradGradGradGradGradGrad

                          Input orientation:                          
 ---------------------------------------------------------------------
 Center     Atomic      Atomic             Coordinates (Angstroms)
 Number     Number       Type             X           Y           Z
 ---------------------------------------------------------------------
      1          6           0        0.000000    0.000000   -0.795817
      2          1           0        0.000000    0.000000   -1.918525
      3          6           0        0.950875   -1.085105   -0.355427
      4          6           0        0.805805   -1.743344    0.866552
      5          6           0        2.008976   -1.437397   -1.197698
      6          6           0        1.702809   -2.738124    1.239760
      7          1           0       -0.028686   -1.477503    1.528819
      8          6           0        2.905382   -2.430386   -0.820862
      9          1           0        2.136419   -0.927811   -2.159765
     10          6           0        2.754126   -3.082917    0.398030
     11          1           0        1.577944   -3.250663    2.199077
     12          1           0        3.732001   -2.699172   -1.486500
     13          1           0        3.459945   -3.865956    0.692795
     14          6           0        0.464291    1.366034   -0.355427
     15          6           0        0.240335    2.458523   -1.197698
     16          6           0        1.106878    1.569519    0.866552
     17          6           0        0.652085    3.731328   -0.820862
     18          1           0       -0.264701    2.314099   -2.159765
     19          6           0        1.519880    2.843738    1.239760
     20          1           0        1.293898    0.713909    1.528819
     21          6           0        1.292822    3.926601    0.398030
     22          1           0        0.471551    4.581594   -1.486500
     23          1           0        2.026185    2.991871    2.199077
     24          1           0        1.618043    4.929378    0.692795
     25          6           0       -1.415166   -0.280929   -0.355427
     26          6           0       -1.912682    0.173824    0.866552
     27          6           0       -2.249311   -1.021126   -1.197698
     28          6           0       -3.222689   -0.105614    1.239760
     29          1           0       -1.265212    0.763594    1.528819
     30          6           0       -3.557467   -1.300941   -0.820862
     31          1           0       -1.871718   -1.386287   -2.159765
     32          6           0       -4.046947   -0.843684    0.398030
     33          1           0       -3.604129    0.258792    2.199077
     34          1           0       -4.203552   -1.882422   -1.486500
     35          1           0       -5.077988   -1.063422    0.692795
 ---------------------------------------------------------------------
                    Distance matrix (angstroms):
                    1          2          3          4          5
     1  C    0.000000
     2  H    1.122708   0.000000
     3  C    1.508496   2.127179   0.000000
     4  C    2.540086   3.383079   1.395548   0.000000
     5  C    2.502719   2.573264   1.397537   2.408807   0.000000
     6  C    3.813195   4.513496   2.417126   1.390499   2.779718
     7  H    2.754591   3.750735   2.159605   1.098018   3.404052
     8  C    3.787961   3.943715   2.417956   2.779859   1.389812
     9  H    2.699162   2.341648   2.164693   3.405029   1.096126
    10  C    4.302889   4.738778   2.794756   2.410378   2.410256
    11  H    4.693198   5.478263   3.407103   2.154956   3.874507
    12  H    4.657296   4.626014   3.408695   3.874672   2.155063
    13  H    5.397480   5.808255   3.889387   3.402959   3.402524
    14  C    1.508496   2.127179   2.498969   3.358287   3.309789
    15  C    2.502719   2.573264   3.711009   4.715567   4.278585
    16  C    2.540086   3.383079   2.926533   3.326516   3.757188
    17  C    3.787961   3.943715   4.848085   5.730883   5.357133
    18  H    2.699162   2.341648   4.035821   5.173724   4.490980
    19  C    3.813195   4.513496   4.278340   4.657307   4.950610
    20  H    2.754590   3.750735   2.627641   2.591317   3.545892
    21  C    4.302889   4.738778   5.079549   5.710077   5.641960
    22  H    4.657296   4.626014   5.798323   6.756731   6.218950
    23  H    4.693198   5.478263   4.929859   5.068255   5.581828
    24  H    5.397480   5.808255   6.141489   6.724220   6.653016
    25  C    1.508496   2.127179   2.498969   2.926533   3.711009
    26  C    2.540086   3.383079   3.358287   3.326516   4.715567
    27  C    2.502719   2.573264   3.309789   3.757188   4.278585
    28  C    3.813195   4.513496   4.574130   4.364654   5.923274
    29  H    2.754590   3.750735   3.446608   3.318501   4.795682
    30  C    3.787961   3.943715   4.537440   4.699067   5.580853
    31  H    2.699162   2.341648   3.363536   4.056502   3.998496
    32  C    4.302889   4.738778   5.060060   4.957631   6.290712
    33  H    4.693198   5.478263   5.392551   5.023115   6.776584
    34  H    4.657296   4.626014   5.336962   5.536231   6.235139
    35  H    5.397480   5.808255   6.119349   5.925496   7.344310
                    6          7          8          9         10
     6  C    0.000000
     7  H    2.161202   0.000000
     8  C    2.405628   3.877852   0.000000
     9  H    3.875825   4.312249   2.154460   0.000000
    10  C    1.390200   3.405888   1.390817   3.401229   0.000000
    11  H    1.094796   2.484875   3.399261   4.970618   2.157617
    12  H    3.398769   4.972664   1.094815   2.477274   2.157534
    13  H    2.158402   4.309778   2.158600   4.303663   1.094631
    14  C    4.574130   3.446608   4.537440   3.363536   5.060060
    15  C    5.923274   4.795682   5.580853   3.998496   6.290712
    16  C    4.364654   3.318501   4.699067   4.056502   4.957631
    17  C    6.870516   5.754682   6.560798   5.069860   7.234515
    18  H    6.399439   5.295054   5.861078   4.034273   6.692041
    19  C    5.584858   4.599428   5.829422   5.114829   6.112046
    20  H    3.488165   2.559592   4.243167   4.124408   4.222184
    21  C    6.730168   5.677095   6.670633   5.551513   7.160220
    22  H    7.907386   6.786386   7.452146   5.794706   8.216223
    23  H    5.818737   4.964579   6.268484   5.863068   6.377830
    24  H    7.687453   6.667741   7.623288   6.535478   8.097804
    25  C    4.278340   2.627641   4.848085   4.035821   5.079549
    26  C    4.657307   2.591317   5.730883   5.173724   5.710076
    27  C    4.950610   3.545892   5.357133   4.490980   5.641960
    28  C    5.584858   3.488165   6.870516   6.399439   6.730168
    29  H    4.599428   2.559592   5.754682   5.295054   5.677095
    30  C    5.829422   4.243167   6.560798   5.861077   6.670633
    31  H    5.114829   4.124408   5.069860   4.034273   5.551513
    32  C    6.112046   4.222184   7.234515   6.692041   7.160220
    33  H    6.169715   4.030851   7.663253   7.304891   7.405281
    34  H    6.561237   5.165812   7.161025   6.446689   7.307662
    35  H    7.005927   5.134769   8.239778   7.759069   8.093655
                   11         12         13         14         15
    11  H    0.000000
    12  H    4.304368   0.000000
    13  H    2.487850   2.486911   0.000000
    14  C    5.392551   5.336962   6.119349   0.000000
    15  C    6.776584   6.235139   7.344310   1.397537   0.000000
    16  C    5.023115   5.536231   5.925496   1.395548   2.408807
    17  C    7.663253   7.161025   8.239778   2.417956   1.389812
    18  H    7.304891   6.446689   7.759069   2.164693   1.096126
    19  C    6.169715   6.561237   7.005927   2.417126   2.779718
    20  H    4.030851   5.165812   5.134769   2.159605   3.404052
    21  C    7.405281   7.307662   8.093655   2.794756   2.410256
    22  H    8.726502   7.977474   9.221763   3.408695   2.155063
    23  H    6.258606   6.991514   7.166194   3.407103   3.874507
    24  H    8.317666   8.210537   8.986128   3.889387   3.402524
    25  C    4.929859   5.798323   6.141489   2.498969   3.309789
    26  C    5.068255   6.756731   6.724220   2.926533   3.757188
    27  C    5.581828   6.218950   6.653016   3.711009   4.278585
    28  C    5.818737   7.907386   7.687453   4.278340   4.950610
    29  H    4.964579   6.786386   6.667741   2.627641   3.545892
    30  C    6.268484   7.452146   7.623288   4.848085   5.357133
    31  H    5.863068   5.794706   6.535478   4.035821   4.490980
    32  C    6.377830   8.216223   8.097804   5.079549   5.641960
    33  H    6.258606   8.726502   8.317666   4.929860   5.581828
    34  H    6.991514   7.977474   8.210537   5.798323   6.218950
    35  H    7.166194   9.221763   8.986128   6.141489   6.653016
                   16         17         18         19         20
    16  C    0.000000
    17  C    2.779859   0.000000
    18  H    3.405029   2.154460   0.000000
    19  C    1.390500   2.405628   3.875825   0.000000
    20  H    1.098018   3.877852   4.312249   2.161202   0.000000
    21  C    2.410378   1.390817   3.401229   1.390200   3.405888
    22  H    3.874672   1.094815   2.477274   3.398769   4.972664
    23  H    2.154956   3.399261   4.970618   1.094796   2.484875
    24  H    3.402959   2.158600   4.303663   2.158402   4.309778
    25  C    3.358287   4.537440   3.363537   4.574129   3.446608
    26  C    3.326516   4.699067   4.056502   4.364654   3.318501
    27  C    4.715567   5.580853   3.998496   5.923274   4.795682
    28  C    4.657307   5.829422   5.114829   5.584858   4.599428
    29  H    2.591317   4.243167   4.124408   3.488165   2.559592
    30  C    5.730883   6.560798   5.069861   6.870516   5.754682
    31  H    5.173724   5.861077   4.034273   6.399439   5.295054
    32  C    5.710076   6.670633   5.551513   6.730168   5.677095
    33  H    5.068255   6.268484   5.863068   5.818737   4.964579
    34  H    6.756731   7.452146   5.794706   7.907386   6.786386
    35  H    6.724220   7.623288   6.535478   7.687453   6.667741
                   21         22         23         24         25
    21  C    0.000000
    22  H    2.157535   0.000000
    23  H    2.157617   4.304368   0.000000
    24  H    1.094631   2.486911   2.487850   0.000000
    25  C    5.060060   5.336962   5.392551   6.119349   0.000000
    26  C    4.957631   5.536231   5.023115   5.925496   1.395548
    27  C    6.290712   6.235139   6.776584   7.344310   1.397537
    28  C    6.112046   6.561237   6.169715   7.005927   2.417126
    29  H    4.222184   5.165812   4.030851   5.134769   2.159605
    30  C    7.234515   7.161025   7.663253   8.239778   2.417956
    31  H    6.692041   6.446689   7.304891   7.759069   2.164693
    32  C    7.160220   7.307662   7.405281   8.093655   2.794756
    33  H    6.377830   6.991514   6.258606   7.166194   3.407103
    34  H    8.216223   7.977474   8.726502   9.221763   3.408695
    35  H    8.097804   8.210537   8.317666   8.986128   3.889387
                   26         27         28         29         30
    26  C    0.000000
    27  C    2.408807   0.000000
    28  C    1.390499   2.779718   0.000000
    29  H    1.098018   3.404052   2.161202   0.000000
    30  C    2.779859   1.389812   2.405628   3.877852   0.000000
    31  H    3.405029   1.096126   3.875825   4.312249   2.154460
    32  C    2.410378   2.410256   1.390200   3.405888   1.390817
    33  H    2.154956   3.874507   1.094796   2.484875   3.399261
    34  H    3.874672   2.155063   3.398769   4.972664   1.094815
    35  H    3.402959   3.402524   2.158402   4.309778   2.158600
                   31         32         33         34         35
    31  H    0.000000
    32  C    3.401229   0.000000
    33  H    4.970618   2.157617   0.000000
    34  H    2.477274   2.157534   4.304368   0.000000
    35  H    4.303663   1.094631   2.487850   2.486911   0.000000
 Stoichiometry    C19H16
 Framework group  C3[C3(CH),X(C18H15)]
 Deg. of freedom    33
 Full point group                 C3      NOp   3
 Largest Abelian subgroup         C1      NOp   1
 Largest concise Abelian subgroup C1      NOp   1
                         Standard orientation:                         
 ---------------------------------------------------------------------
 Center     Atomic      Atomic             Coordinates (Angstroms)
 Number     Number       Type             X           Y           Z
 ---------------------------------------------------------------------
      1          6           0        0.000000    0.000000    0.780250
      2          1           0        0.000000    0.000000    1.902958
      3          6           0        0.000000    1.442780    0.339859
      4          6           0       -0.542923    1.842228   -0.882119
      5          6           0        0.563609    2.405086    1.182131
      6          6           0       -0.523909    3.181572   -1.255327
      7          1           0       -0.995333    1.092314   -1.544386
      8          6           0        0.583353    3.742689    0.805294
      9          1           0        0.995305    2.105822    2.144198
     10          6           0        0.039539    4.133766   -0.413598
     11          1           0       -0.955613    3.484756   -2.214645
     12          1           0        1.027902    4.489630    1.470933
     13          1           0        0.054314    5.187859   -0.708362
     14          6           0        1.249485   -0.721390    0.339859
     15          6           0        1.801061   -1.690643    1.182131
     16          6           0        1.866878   -0.450929   -0.882119
     17          6           0        2.949587   -2.376543    0.805294
     18          1           0        1.326043   -1.914870    2.144198
     19          6           0        3.017277   -1.137067   -1.255327
     20          1           0        1.443638    0.315827   -1.544386
     21          6           0        3.560177   -2.101125   -0.413598
     22          1           0        3.374183   -3.135005    1.470933
     23          1           0        3.495693   -0.914793   -2.214645
     24          1           0        4.465661   -2.640966   -0.708362
     25          6           0       -1.249485   -0.721390    0.339859
     26          6           0       -1.323954   -1.391299   -0.882119
     27          6           0       -2.364671   -0.714443    1.182131
     28          6           0       -2.493367   -2.044505   -1.255327
     29          1           0       -0.448305   -1.408141   -1.544386
     30          6           0       -3.532940   -1.366146    0.805294
     31          1           0       -2.321348   -0.190952    2.144198
     32          6           0       -3.599716   -2.032641   -0.413598
     33          1           0       -2.540081   -2.569963   -2.214645
     34          1           0       -4.402085   -1.354625    1.470933
     35          1           0       -4.519974   -2.546892   -0.708362
 ---------------------------------------------------------------------
 Rotational constants (GHZ):      0.3904380      0.3904380      0.2359989
 Standard basis: 6-311G (5D, 7F)
 There are   295 symmetry adapted basis functions of A   symmetry.
 Integral buffers will be    262144 words long.
 Raffenetti 1 integral format.
 Two-electron integral symmetry is turned on.
   295 basis functions,   574 primitive gaussians,   295 cartesian basis functions
    65 alpha electrons       65 beta electrons
       nuclear repulsion energy      1290.5445946676 Hartrees.
 NAtoms=   35 NActive=   35 NUniq=   13 SFac= 3.00D+00 NAtFMM=   80 NAOKFM=F Big=F
 One-electron integrals computed using PRISM.
 PrsmSu:  requested number of processors reduced to:  10 ShMem   1 Linda.
 NBasis=   295 RedAO= T  NBF=   295
 NBsUse=   295 1.00D-06 NBFU=   295
 Harris functional with IExCor=  205 diagonalized for initial guess.
 ExpMin= 1.03D-01 ExpMax= 4.56D+03 ExpMxC= 6.82D+02 IAcc=1 IRadAn=         1 AccDes= 0.00D+00
 HarFok:  IExCor=  205 AccDes= 0.00D+00 IRadAn=         1 IDoV= 1
 ScaDFX=  1.000000  1.000000  1.000000  1.000000
 FoFCou: FMM=F IPFlag=           0 FMFlag=      100000 FMFlg1=           0
         NFxFlg=           0 DoJE=T BraDBF=F KetDBF=T FulRan=T
         Omega=  0.000000  0.000000  1.000000  0.000000  0.000000 ICntrl=     500 IOpCl=  0
         NMat0=    1 NMatS0=    1 NMatT0=    0 NMatD0=    1 NMtDS0=    0 NMtDT0=    0
         I1Cent=           4 NGrid=           0.
 Petite list used in FoFCou.
 Initial guess orbital symmetries:
       Occupied  (E) (E) (A) (A) (E) (E) (A) (E) (E) (E) (E) (A)
                 (E) (E) (A) (E) (E) (A) (A) (A) (E) (E) (A) (A)
                 (E) (E) (E) (E) (A) (A) (E) (E) (E) (E) (A) (E)
                 (E) (A) (A) (E) (E) (E) (E) (A) (E) (E) (A) (E)
                 (E) (A) (E) (E) (A) (A) (E) (E) (E) (E) (A) (E)
                 (E) (A) (E) (E) (A)
       Virtual   (E) (E) (A) (E) (E) (A) (A) (A) (E) (E) (E) (E)
                 (A) (A) (E) (E) (E) (E) (A) (A) (E) (E) (E) (E)
                 (A) (A) (E) (E) (A) (E) (E) (A) (E) (E) (E) (E)
                 (A) (E) (E) (A) (E) (E) (A) (E) (E) (A) (A) (E)
                 (E) (E) (E) (A) (A) (E) (E) (A) (E) (E) (E) (E)
                 (A) (E) (E) (A) (E) (E) (A) (A) (E) (E) (E) (E)
                 (A) (A) (E) (E) (A) (A) (E) (E) (A) (E) (E) (A)
                 (E) (E) (A) (A) (E) (E) (E) (E) (A) (E) (E) (A)
                 (E) (E) (A) (E) (E) (A) (E) (E) (E) (E) (A) (E)
                 (E) (A) (E) (E) (E) (E) (A) (A) (E) (E) (A) (E)
                 (E) (A) (A) (E) (E) (E) (E) (A) (E) (E) (A) (A)
                 (E) (E) (A) (E) (E) (A) (E) (E) (A) (A) (E) (E)
                 (E) (E) (A) (A) (E) (E) (A) (E) (E) (A) (E) (E)
                 (A) (E) (E) (E) (E) (A) (A) (A) (E) (E) (A) (E)
                 (E) (A) (E) (E) (A) (E) (E) (A) (E) (E) (E) (E)
                 (A) (A) (E) (E) (E) (E) (A) (E) (E) (E) (E) (A)
                 (E) (E) (A) (A) (E) (E) (E) (E) (E) (E) (A) (A)
                 (E) (E) (A) (A) (E) (E) (A) (A) (E) (E) (E) (E)
                 (A) (A) (E) (E) (A) (E) (E) (A) (E) (E) (A) (A)
                 (E) (E)
 The electronic state of the initial guess is 1-A.
 Requested convergence on RMS density matrix=1.00D-08 within 128 cycles.
 Requested convergence on MAX density matrix=1.00D-06.
 Requested convergence on             energy=1.00D-06.
 No special actions if energy rises.
 Integral accuracy reduced to 1.0D-05 until final iterations.
 Initial convergence to 1.0D-05 achieved.  Increase integral accuracy.
 DSYEVD returned Info=       44103 IAlg= 4 N=   295 NDim=   295 NE2=      112833 trying DSYEV.
 SCF Done:  E(RHF) =  -728.678021578     A.U. after   14 cycles
             Convg  =    0.6822D-08             -V/T =  2.0001

 **********************************************************************

            Population analysis using the SCF density.

 **********************************************************************

 Orbital symmetries:
       Occupied  (A) (E) (E) (A) (E) (E) (A) (A) (E) (E) (E) (E)
                 (A) (E) (E) (A) (E) (E) (A) (A) (E) (E) (A) (A)
                 (E) (E) (E) (E) (A) (A) (E) (E) (E) (E) (A) (E)
                 (E) (A) (A) (E) (E) (E) (E) (A) (A) (E) (E) (E)
                 (E) (A) (A) (E) (E) (A) (E) (E) (A) (E) (E) (E)
                 (E) (A) (E) (E) (A)
       Virtual   (E) (E) (A) (A) (E) (E) (A) (E) (E) (A) (A) (E)
                 (E) (E) (E) (A) (E) (E) (A) (E) (E) (A) (E) (E)
                 (A) (E) (E) (A) (A) (A) (E) (E) (E) (E) (E) (E)
                 (A) (A) (E) (E) (A) (E) (E) (E) (E) (A) (E) (E)
                 (A) (A) (E) (E) (A) (E) (E) (A) (E) (E) (A) (E)
                 (E) (E) (E) (A) (A) (E) (E) (A) (E) (E) (A) (E)
                 (E) (A) (E) (E) (A) (E) (E) (A) (A) (E) (E) (E)
                 (E) (A) (E) (E) (A) (E) (E) (A) (A) (E) (E) (A)
                 (E) (E) (A) (E) (E) (E) (E) (A) (E) (E) (A) (E)
                 (E) (A) (E) (E) (E) (E) (A) (A) (A) (E) (E) (A)
                 (E) (E) (A) (E) (E) (A) (E) (E) (A) (E) (E) (A)
                 (E) (E) (A) (E) (E) (A) (E) (E) (A) (E) (E) (A)
                 (E) (E) (A) (E) (E) (A) (A) (E) (E) (A) (A) (E)
                 (E) (E) (E) (A) (E) (E) (A) (A) (E) (E) (E) (E)
                 (A) (E) (E) (A) (A) (E) (E) (A) (E) (E) (E) (E)
                 (A) (A) (E) (E) (E) (E) (A) (E) (E) (A) (E) (E)
                 (A) (E) (E) (A) (E) (E) (E) (E) (E) (E) (A) (A)
                 (A) (E) (E) (A) (E) (E) (A) (A) (E) (E) (E) (E)
                 (A) (A) (E) (E) (A) (E) (E) (A) (E) (E) (A) (A)
                 (E) (E)
 The electronic state is 1-A.
 Alpha  occ. eigenvalues --  -11.25718 -11.25091 -11.25091 -11.25085 -11.24306
 Alpha  occ. eigenvalues --  -11.24306 -11.24306 -11.24283 -11.24283 -11.24283
 Alpha  occ. eigenvalues --  -11.24019 -11.24019 -11.24019 -11.23960 -11.23960
 Alpha  occ. eigenvalues --  -11.23960 -11.23816 -11.23816 -11.23816  -1.18585
 Alpha  occ. eigenvalues --   -1.15715  -1.15715  -1.09026  -1.02189  -1.02043
 Alpha  occ. eigenvalues --   -1.02043  -1.01369  -1.01369  -0.92884  -0.84087
 Alpha  occ. eigenvalues --   -0.82992  -0.82992  -0.81454  -0.81454  -0.77512
 Alpha  occ. eigenvalues --   -0.70625  -0.70625  -0.68789  -0.65642  -0.63790
 Alpha  occ. eigenvalues --   -0.63790  -0.61931  -0.61931  -0.61743  -0.59101
 Alpha  occ. eigenvalues --   -0.58735  -0.58735  -0.58061  -0.58061  -0.54339
 Alpha  occ. eigenvalues --   -0.51186  -0.50836  -0.50836  -0.49662  -0.49106
 Alpha  occ. eigenvalues --   -0.49106  -0.47445  -0.47177  -0.47177  -0.34453
 Alpha  occ. eigenvalues --   -0.34453  -0.34001  -0.33232  -0.33232  -0.31220
 Alpha virt. eigenvalues --    0.12201   0.12201   0.12408   0.14450   0.14461
 Alpha virt. eigenvalues --    0.14461   0.15131   0.16317   0.16317   0.17110
 Alpha virt. eigenvalues --    0.19070   0.19127   0.19127   0.21253   0.21253
 Alpha virt. eigenvalues --    0.21553   0.23846   0.23846   0.24472   0.26753
 Alpha virt. eigenvalues --    0.26753   0.28541   0.34019   0.34019   0.35103
 Alpha virt. eigenvalues --    0.39174   0.39174   0.39342   0.41082   0.43774
 Alpha virt. eigenvalues --    0.43880   0.43880   0.44973   0.44973   0.45563
 Alpha virt. eigenvalues --    0.45563   0.45808   0.48354   0.49768   0.49768
 Alpha virt. eigenvalues --    0.50698   0.50883   0.50883   0.55386   0.55386
 Alpha virt. eigenvalues --    0.57224   0.58705   0.58705   0.58768   0.59460
 Alpha virt. eigenvalues --    0.60070   0.60070   0.61461   0.61556   0.61556
 Alpha virt. eigenvalues --    0.61703   0.62245   0.62245   0.63520   0.63795
 Alpha virt. eigenvalues --    0.63795   0.65426   0.65426   0.66727   0.67125
 Alpha virt. eigenvalues --    0.67868   0.67868   0.69145   0.70656   0.70656
 Alpha virt. eigenvalues --    0.73049   0.74595   0.74595   0.74990   0.75574
 Alpha virt. eigenvalues --    0.75574   0.78157   0.80258   0.80258   0.80276
 Alpha virt. eigenvalues --    0.81938   0.82009   0.82009   0.82965   0.82965
 Alpha virt. eigenvalues --    0.83743   0.84373   0.84373   0.85147   0.86020
 Alpha virt. eigenvalues --    0.86020   0.86227   0.87297   0.87742   0.87742
 Alpha virt. eigenvalues --    0.88561   0.90869   0.90869   0.92790   0.94597
 Alpha virt. eigenvalues --    0.94597   0.97233   0.97233   0.97799   1.00025
 Alpha virt. eigenvalues --    1.00025   1.00730   1.04036   1.04036   1.06250
 Alpha virt. eigenvalues --    1.07019   1.07019   1.08772   1.08772   1.09868
 Alpha virt. eigenvalues --    1.11121   1.12263   1.12937   1.12937   1.14211
 Alpha virt. eigenvalues --    1.14664   1.14664   1.17908   1.20751   1.20751
 Alpha virt. eigenvalues --    1.26746   1.27489   1.27489   1.28642   1.30058
 Alpha virt. eigenvalues --    1.30058   1.39622   1.40632   1.40632   1.49094
 Alpha virt. eigenvalues --    1.52303   1.52303   1.54955   2.55828   2.55828
 Alpha virt. eigenvalues --    2.56443   2.61673   2.61673   2.61690   2.66500
 Alpha virt. eigenvalues --    2.66500   2.67965   2.70429   2.70429   2.70915
 Alpha virt. eigenvalues --    2.78503   2.84846   2.84846   2.88596   2.94549
 Alpha virt. eigenvalues --    2.94641   2.94641   2.97629   2.97629   2.97665
 Alpha virt. eigenvalues --    3.01456   3.01456   3.04372   3.06193   3.07551
 Alpha virt. eigenvalues --    3.07551   3.08636   3.08636   3.09335   3.15406
 Alpha virt. eigenvalues --    3.15406   3.15666   3.17442   3.18984   3.18984
 Alpha virt. eigenvalues --    3.23300   3.25376   3.25376   3.28857   3.28857
 Alpha virt. eigenvalues --    3.29678   3.33105   3.34955   3.34955   3.42285
 Alpha virt. eigenvalues --    3.42285   3.43278   3.48633   3.48633   3.53959
 Alpha virt. eigenvalues --    3.54100   3.54100   3.59986   3.60376   3.60376
 Alpha virt. eigenvalues --    3.63128   3.63609   3.63609   3.65843   3.65843
 Alpha virt. eigenvalues --    3.69795   3.69795   3.70520   3.70716   3.75216
 Alpha virt. eigenvalues --    3.75899   3.75899   3.84508   3.87412   3.87412
 Alpha virt. eigenvalues --    3.91523  24.25948  24.31582  24.31582  24.50739
 Alpha virt. eigenvalues --   24.50739  24.51250  24.54561  24.55843  24.55843
 Alpha virt. eigenvalues --   24.77635  24.79327  24.79327  24.79932  24.80815
 Alpha virt. eigenvalues --   24.80815  24.83378  25.05351  25.06162  25.06162
          Condensed to atoms (all electrons):
              1          2          3          4          5          6
     1  C    5.860355   0.483560   0.145225  -0.041016  -0.054770   0.004232
     2  H    0.483560   0.515218  -0.072046   0.005307  -0.001095  -0.000241
     3  C    0.145225  -0.072046   5.358272   0.479695   0.484083  -0.067599
     4  C   -0.041016   0.005307   0.479695   5.114342  -0.068567   0.469069
     5  C   -0.054770  -0.001095   0.484083  -0.068567   5.058562  -0.031802
     6  C    0.004232  -0.000241  -0.067599   0.469069  -0.031802   5.051841
     7  H   -0.000825  -0.000120  -0.042558   0.392273   0.004179  -0.029812
     8  C    0.007237   0.001484  -0.065741  -0.029461   0.463614  -0.075868
     9  H    0.000496   0.001470  -0.048788   0.004437   0.399252  -0.000423
    10  C    0.001168  -0.000011  -0.016422  -0.093806  -0.087609   0.496675
    11  H   -0.000337   0.000014   0.006126  -0.037815  -0.000379   0.396185
    12  H   -0.000372  -0.000026   0.006681  -0.000533  -0.039639   0.006121
    13  H   -0.000017  -0.000001  -0.001542   0.007822   0.007436  -0.042466
    14  C    0.145225  -0.072046  -0.097318  -0.008190  -0.001118   0.000683
    15  C   -0.054770  -0.001095   0.005712  -0.000166   0.000842   0.000022
    16  C   -0.041016   0.005307  -0.018606  -0.005108   0.000249  -0.001071
    17  C    0.007237   0.001484  -0.000777   0.000027  -0.000034   0.000000
    18  H    0.000496   0.001470   0.000485  -0.000031   0.000044   0.000000
    19  C    0.004232  -0.000241   0.000101  -0.000018  -0.000167  -0.000022
    20  H   -0.000825  -0.000120  -0.001966   0.001443  -0.000873   0.000921
    21  C    0.001168  -0.000011   0.000097  -0.000018  -0.000009   0.000000
    22  H   -0.000372  -0.000026   0.000011   0.000000   0.000001   0.000000
    23  H   -0.000337   0.000014   0.000029   0.000018   0.000007   0.000000
    24  H   -0.000017  -0.000001  -0.000001   0.000000   0.000000   0.000000
    25  C    0.145225  -0.072046  -0.097318  -0.018606   0.005712   0.000101
    26  C   -0.041016   0.005307  -0.008190  -0.005108  -0.000166  -0.000018
    27  C   -0.054770  -0.001095  -0.001118   0.000249   0.000842  -0.000167
    28  C    0.004232  -0.000241   0.000683  -0.001071   0.000022  -0.000022
    29  H   -0.000825  -0.000120  -0.000796   0.000739  -0.000017   0.000043
    30  C    0.007237   0.001484  -0.000633   0.000382   0.000003  -0.000009
    31  H    0.000496   0.001470   0.000948   0.000222   0.000233   0.000007
    32  C    0.001168  -0.000011   0.000038   0.000068  -0.000001   0.000005
    33  H   -0.000337   0.000014  -0.000003   0.000016   0.000000   0.000001
    34  H   -0.000372  -0.000026   0.000024   0.000003   0.000000   0.000000
    35  H   -0.000017  -0.000001   0.000000  -0.000001   0.000000   0.000000
              7          8          9         10         11         12
     1  C   -0.000825   0.007237   0.000496   0.001168  -0.000337  -0.000372
     2  H   -0.000120   0.001484   0.001470  -0.000011   0.000014  -0.000026
     3  C   -0.042558  -0.065741  -0.048788  -0.016422   0.006126   0.006681
     4  C    0.392273  -0.029461   0.004437  -0.093806  -0.037815  -0.000533
     5  C    0.004179   0.463614   0.399252  -0.087609  -0.000379  -0.039639
     6  C   -0.029812  -0.075868  -0.000423   0.496675   0.396185   0.006121
     7  H    0.474217  -0.000227  -0.000239   0.004624  -0.003311   0.000018
     8  C   -0.000227   5.055085  -0.036081   0.490325   0.005936   0.397079
     9  H   -0.000239  -0.036081   0.507692   0.005359   0.000022  -0.004230
    10  C    0.004624   0.490325   0.005359   5.033042  -0.040240  -0.040647
    11  H   -0.003311   0.005936   0.000022  -0.040240   0.515698  -0.000211
    12  H    0.000018   0.397079  -0.004230  -0.040647  -0.000211   0.517984
    13  H   -0.000174  -0.042936  -0.000179   0.399537  -0.004404  -0.004497
    14  C   -0.000796  -0.000633   0.000948   0.000038  -0.000003   0.000024
    15  C   -0.000017   0.000003   0.000233  -0.000001   0.000000   0.000000
    16  C    0.000739   0.000382   0.000222   0.000068   0.000016   0.000003
    17  C    0.000003   0.000002  -0.000005   0.000000   0.000000   0.000000
    18  H    0.000000   0.000001  -0.000001   0.000000   0.000000   0.000000
    19  C    0.000043  -0.000009   0.000007   0.000005   0.000001   0.000000
    20  H    0.000217  -0.000190  -0.000038   0.000001   0.000007   0.000003
    21  C    0.000000   0.000000  -0.000009   0.000000   0.000000   0.000000
    22  H    0.000000   0.000000   0.000000   0.000000   0.000000   0.000000
    23  H   -0.000007   0.000001   0.000000  -0.000001   0.000000   0.000000
    24  H    0.000000   0.000000   0.000000   0.000000   0.000000   0.000000
    25  C   -0.001966  -0.000777   0.000485   0.000097   0.000029   0.000011
    26  C    0.001443   0.000027  -0.000031  -0.000018   0.000018   0.000000
    27  C   -0.000873  -0.000034   0.000044  -0.000009   0.000007   0.000001
    28  C    0.000921   0.000000   0.000000   0.000000   0.000000   0.000000
    29  H    0.000217   0.000003   0.000000   0.000000  -0.000007   0.000000
    30  C   -0.000190   0.000002   0.000001   0.000000   0.000001   0.000000
    31  H   -0.000038  -0.000005  -0.000001  -0.000009   0.000000   0.000000
    32  C    0.000001   0.000000   0.000000   0.000000  -0.000001   0.000000
    33  H    0.000007   0.000000   0.000000   0.000000   0.000000   0.000000
    34  H    0.000003   0.000000   0.000000   0.000000   0.000000   0.000000
    35  H    0.000000   0.000000   0.000000   0.000000   0.000000   0.000000
             13         14         15         16         17         18
     1  C   -0.000017   0.145225  -0.054770  -0.041016   0.007237   0.000496
     2  H   -0.000001  -0.072046  -0.001095   0.005307   0.001484   0.001470
     3  C   -0.001542  -0.097318   0.005712  -0.018606  -0.000777   0.000485
     4  C    0.007822  -0.008190  -0.000166  -0.005108   0.000027  -0.000031
     5  C    0.007436  -0.001118   0.000842   0.000249  -0.000034   0.000044
     6  C   -0.042466   0.000683   0.000022  -0.001071   0.000000   0.000000
     7  H   -0.000174  -0.000796  -0.000017   0.000739   0.000003   0.000000
     8  C   -0.042936  -0.000633   0.000003   0.000382   0.000002   0.000001
     9  H   -0.000179   0.000948   0.000233   0.000222  -0.000005  -0.000001
    10  C    0.399537   0.000038  -0.000001   0.000068   0.000000   0.000000
    11  H   -0.004404  -0.000003   0.000000   0.000016   0.000000   0.000000
    12  H   -0.004497   0.000024   0.000000   0.000003   0.000000   0.000000
    13  H    0.517926   0.000000   0.000000  -0.000001   0.000000   0.000000
    14  C    0.000000   5.358272   0.484083   0.479695  -0.065741  -0.048788
    15  C    0.000000   0.484083   5.058562  -0.068567   0.463614   0.399252
    16  C   -0.000001   0.479695  -0.068567   5.114342  -0.029461   0.004437
    17  C    0.000000  -0.065741   0.463614  -0.029461   5.055085  -0.036081
    18  H    0.000000  -0.048788   0.399252   0.004437  -0.036081   0.507692
    19  C    0.000000  -0.067599  -0.031802   0.469069  -0.075868  -0.000423
    20  H    0.000000  -0.042558   0.004179   0.392273  -0.000227  -0.000239
    21  C    0.000000  -0.016422  -0.087609  -0.093806   0.490325   0.005359
    22  H    0.000000   0.006681  -0.039639  -0.000533   0.397079  -0.004230
    23  H    0.000000   0.006126  -0.000379  -0.037815   0.005936   0.000022
    24  H    0.000000  -0.001542   0.007436   0.007822  -0.042936  -0.000179
    25  C   -0.000001  -0.097318  -0.001118  -0.008190  -0.000633   0.000948
    26  C    0.000000  -0.018606   0.000249  -0.005108   0.000382   0.000222
    27  C    0.000000   0.005712   0.000842  -0.000166   0.000003   0.000233
    28  C    0.000000   0.000101  -0.000167  -0.000018  -0.000009   0.000007
    29  H    0.000000  -0.001966  -0.000873   0.001443  -0.000190  -0.000038
    30  C    0.000000  -0.000777  -0.000034   0.000027   0.000002  -0.000005
    31  H    0.000000   0.000485   0.000044  -0.000031   0.000001  -0.000001
    32  C    0.000000   0.000097  -0.000009  -0.000018   0.000000  -0.000009
    33  H    0.000000   0.000029   0.000007   0.000018   0.000001   0.000000
    34  H    0.000000   0.000011   0.000001   0.000000   0.000000   0.000000
    35  H    0.000000  -0.000001   0.000000   0.000000   0.000000   0.000000
             19         20         21         22         23         24
     1  C    0.004232  -0.000825   0.001168  -0.000372  -0.000337  -0.000017
     2  H   -0.000241  -0.000120  -0.000011  -0.000026   0.000014  -0.000001
     3  C    0.000101  -0.001966   0.000097   0.000011   0.000029  -0.000001
     4  C   -0.000018   0.001443  -0.000018   0.000000   0.000018   0.000000
     5  C   -0.000167  -0.000873  -0.000009   0.000001   0.000007   0.000000
     6  C   -0.000022   0.000921   0.000000   0.000000   0.000000   0.000000
     7  H    0.000043   0.000217   0.000000   0.000000  -0.000007   0.000000
     8  C   -0.000009  -0.000190   0.000000   0.000000   0.000001   0.000000
     9  H    0.000007  -0.000038  -0.000009   0.000000   0.000000   0.000000
    10  C    0.000005   0.000001   0.000000   0.000000  -0.000001   0.000000
    11  H    0.000001   0.000007   0.000000   0.000000   0.000000   0.000000
    12  H    0.000000   0.000003   0.000000   0.000000   0.000000   0.000000
    13  H    0.000000   0.000000   0.000000   0.000000   0.000000   0.000000
    14  C   -0.067599  -0.042558  -0.016422   0.006681   0.006126  -0.001542
    15  C   -0.031802   0.004179  -0.087609  -0.039639  -0.000379   0.007436
    16  C    0.469069   0.392273  -0.093806  -0.000533  -0.037815   0.007822
    17  C   -0.075868  -0.000227   0.490325   0.397079   0.005936  -0.042936
    18  H   -0.000423  -0.000239   0.005359  -0.004230   0.000022  -0.000179
    19  C    5.051841  -0.029812   0.496675   0.006121   0.396185  -0.042466
    20  H   -0.029812   0.474217   0.004624   0.000018  -0.003311  -0.000174
    21  C    0.496675   0.004624   5.033042  -0.040647  -0.040240   0.399537
    22  H    0.006121   0.000018  -0.040647   0.517984  -0.000211  -0.004497
    23  H    0.396185  -0.003311  -0.040240  -0.000211   0.515698  -0.004404
    24  H   -0.042466  -0.000174   0.399537  -0.004497  -0.004404   0.517926
    25  C    0.000683  -0.000796   0.000038   0.000024  -0.000003   0.000000
    26  C   -0.001071   0.000739   0.000068   0.000003   0.000016  -0.000001
    27  C    0.000022  -0.000017  -0.000001   0.000000   0.000000   0.000000
    28  C   -0.000022   0.000043   0.000005   0.000000   0.000001   0.000000
    29  H    0.000921   0.000217   0.000001   0.000003   0.000007   0.000000
    30  C    0.000000   0.000003   0.000000   0.000000   0.000000   0.000000
    31  H    0.000000   0.000000   0.000000   0.000000   0.000000   0.000000
    32  C    0.000000   0.000000   0.000000   0.000000   0.000000   0.000000
    33  H    0.000000  -0.000007  -0.000001   0.000000   0.000000   0.000000
    34  H    0.000000   0.000000   0.000000   0.000000   0.000000   0.000000
    35  H    0.000000   0.000000   0.000000   0.000000   0.000000   0.000000
             25         26         27         28         29         30
     1  C    0.145225  -0.041016  -0.054770   0.004232  -0.000825   0.007237
     2  H   -0.072046   0.005307  -0.001095  -0.000241  -0.000120   0.001484
     3  C   -0.097318  -0.008190  -0.001118   0.000683  -0.000796  -0.000633
     4  C   -0.018606  -0.005108   0.000249  -0.001071   0.000739   0.000382
     5  C    0.005712  -0.000166   0.000842   0.000022  -0.000017   0.000003
     6  C    0.000101  -0.000018  -0.000167  -0.000022   0.000043  -0.000009
     7  H   -0.001966   0.001443  -0.000873   0.000921   0.000217  -0.000190
     8  C   -0.000777   0.000027  -0.000034   0.000000   0.000003   0.000002
     9  H    0.000485  -0.000031   0.000044   0.000000   0.000000   0.000001
    10  C    0.000097  -0.000018  -0.000009   0.000000   0.000000   0.000000
    11  H    0.000029   0.000018   0.000007   0.000000  -0.000007   0.000001
    12  H    0.000011   0.000000   0.000001   0.000000   0.000000   0.000000
    13  H   -0.000001   0.000000   0.000000   0.000000   0.000000   0.000000
    14  C   -0.097318  -0.018606   0.005712   0.000101  -0.001966  -0.000777
    15  C   -0.001118   0.000249   0.000842  -0.000167  -0.000873  -0.000034
    16  C   -0.008190  -0.005108  -0.000166  -0.000018   0.001443   0.000027
    17  C   -0.000633   0.000382   0.000003  -0.000009  -0.000190   0.000002
    18  H    0.000948   0.000222   0.000233   0.000007  -0.000038  -0.000005
    19  C    0.000683  -0.001071   0.000022  -0.000022   0.000921   0.000000
    20  H   -0.000796   0.000739  -0.000017   0.000043   0.000217   0.000003
    21  C    0.000038   0.000068  -0.000001   0.000005   0.000001   0.000000
    22  H    0.000024   0.000003   0.000000   0.000000   0.000003   0.000000
    23  H   -0.000003   0.000016   0.000000   0.000001   0.000007   0.000000
    24  H    0.000000  -0.000001   0.000000   0.000000   0.000000   0.000000
    25  C    5.358272   0.479695   0.484083  -0.067599  -0.042558  -0.065741
    26  C    0.479695   5.114342  -0.068567   0.469069   0.392273  -0.029461
    27  C    0.484083  -0.068567   5.058562  -0.031802   0.004179   0.463614
    28  C   -0.067599   0.469069  -0.031802   5.051841  -0.029812  -0.075868
    29  H   -0.042558   0.392273   0.004179  -0.029812   0.474217  -0.000227
    30  C   -0.065741  -0.029461   0.463614  -0.075868  -0.000227   5.055085
    31  H   -0.048788   0.004437   0.399252  -0.000423  -0.000239  -0.036081
    32  C   -0.016422  -0.093806  -0.087609   0.496675   0.004624   0.490325
    33  H    0.006126  -0.037815  -0.000379   0.396185  -0.003311   0.005936
    34  H    0.006681  -0.000533  -0.039639   0.006121   0.000018   0.397079
    35  H   -0.001542   0.007822   0.007436  -0.042466  -0.000174  -0.042936
             31         32         33         34         35
     1  C    0.000496   0.001168  -0.000337  -0.000372  -0.000017
     2  H    0.001470  -0.000011   0.000014  -0.000026  -0.000001
     3  C    0.000948   0.000038  -0.000003   0.000024   0.000000
     4  C    0.000222   0.000068   0.000016   0.000003  -0.000001
     5  C    0.000233  -0.000001   0.000000   0.000000   0.000000
     6  C    0.000007   0.000005   0.000001   0.000000   0.000000
     7  H   -0.000038   0.000001   0.000007   0.000003   0.000000
     8  C   -0.000005   0.000000   0.000000   0.000000   0.000000
     9  H   -0.000001   0.000000   0.000000   0.000000   0.000000
    10  C   -0.000009   0.000000   0.000000   0.000000   0.000000
    11  H    0.000000  -0.000001   0.000000   0.000000   0.000000
    12  H    0.000000   0.000000   0.000000   0.000000   0.000000
    13  H    0.000000   0.000000   0.000000   0.000000   0.000000
    14  C    0.000485   0.000097   0.000029   0.000011  -0.000001
    15  C    0.000044  -0.000009   0.000007   0.000001   0.000000
    16  C   -0.000031  -0.000018   0.000018   0.000000   0.000000
    17  C    0.000001   0.000000   0.000001   0.000000   0.000000
    18  H   -0.000001  -0.000009   0.000000   0.000000   0.000000
    19  C    0.000000   0.000000   0.000000   0.000000   0.000000
    20  H    0.000000   0.000000  -0.000007   0.000000   0.000000
    21  C    0.000000   0.000000  -0.000001   0.000000   0.000000
    22  H    0.000000   0.000000   0.000000   0.000000   0.000000
    23  H    0.000000   0.000000   0.000000   0.000000   0.000000
    24  H    0.000000   0.000000   0.000000   0.000000   0.000000
    25  C   -0.048788  -0.016422   0.006126   0.006681  -0.001542
    26  C    0.004437  -0.093806  -0.037815  -0.000533   0.007822
    27  C    0.399252  -0.087609  -0.000379  -0.039639   0.007436
    28  C   -0.000423   0.496675   0.396185   0.006121  -0.042466
    29  H   -0.000239   0.004624  -0.003311   0.000018  -0.000174
    30  C   -0.036081   0.490325   0.005936   0.397079  -0.042936
    31  H    0.507692   0.005359   0.000022  -0.004230  -0.000179
    32  C    0.005359   5.033042  -0.040240  -0.040647   0.399537
    33  H    0.000022  -0.040240   0.515698  -0.000211  -0.004404
    34  H   -0.004230  -0.040647  -0.000211   0.517984  -0.004497
    35  H   -0.000179   0.399537  -0.004404  -0.004497   0.517926
 Mulliken atomic charges:
              1
     1  C   -0.526980
     2  H    0.197017
     3  C    0.053213
     4  C   -0.166598
     5  C   -0.138832
     6  C   -0.176385
     7  H    0.202246
     8  C   -0.169223
     9  H    0.169359
    10  C   -0.152168
    11  H    0.162648
    12  H    0.162232
    13  H    0.163497
    14  C    0.053213
    15  C   -0.138832
    16  C   -0.166598
    17  C   -0.169223
    18  H    0.169359
    19  C   -0.176385
    20  H    0.202246
    21  C   -0.152168
    22  H    0.162232
    23  H    0.162648
    24  H    0.163497
    25  C    0.053213
    26  C   -0.166598
    27  C   -0.138832
    28  C   -0.176385
    29  H    0.202246
    30  C   -0.169223
    31  H    0.169359
    32  C   -0.152168
    33  H    0.162648
    34  H    0.162232
    35  H    0.163497
 Sum of Mulliken atomic charges =   0.00000
 Mulliken charges with hydrogens summed into heavy atoms:
              1
     1  C   -0.329963
     3  C    0.053213
     4  C    0.035648
     5  C    0.030526
     6  C   -0.013738
     8  C   -0.006991
    10  C    0.011329
    14  C    0.053213
    15  C    0.030526
    16  C    0.035648
    17  C   -0.006991
    19  C   -0.013738
    21  C    0.011329
    25  C    0.053213
    26  C    0.035648
    27  C    0.030526
    28  C   -0.013738
    30  C   -0.006991
    32  C    0.011329
 Sum of Mulliken charges with hydrogens summed into heavy atoms =   0.00000
 Electronic spatial extent (au):  <R**2>=           4915.9771
 Charge=              0.0000 electrons
 Dipole moment (field-independent basis, Debye):
    X=              0.0000    Y=              0.0000    Z=              0.0248  Tot=              0.0248
 Quadrupole moment (field-independent basis, Debye-Ang):
   XX=           -111.4784   YY=           -111.4784   ZZ=           -104.6956
   XY=              0.0000   XZ=              0.0000   YZ=              0.0000
 Traceless Quadrupole moment (field-independent basis, Debye-Ang):
   XX=             -2.2609   YY=             -2.2609   ZZ=              4.5219
   XY=              0.0000   XZ=              0.0000   YZ=              0.0000
 Octapole moment (field-independent basis, Debye-Ang**2):
  XXX=            -13.7662  YYY=             39.5170  ZZZ=              0.7886  XYY=             13.7662
  XXY=            -39.5170  XXZ=             -3.6035  XZZ=              0.0000  YZZ=              0.0000
  YYZ=             -3.6035  XYZ=              0.0000
 Hexadecapole moment (field-independent basis, Debye-Ang**3):
 XXXX=          -2984.5573 YYYY=          -2984.5573 ZZZZ=           -746.4819 XXXY=              0.0000
 XXXZ=            -75.9934 YYYX=              0.0000 YYYZ=            -17.5072 ZZZX=              0.0000
 ZZZY=              0.0000 XXYY=           -994.8524 XXZZ=           -612.5392 YYZZ=           -612.5392
 XXYZ=             17.5072 YYXZ=             75.9934 ZZXY=              0.0000
 N-N= 1.290544594668D+03 E-N=-4.277193083988D+03  KE= 7.285995104138D+02
 PrsmSu:  requested number of processors reduced to:  10 ShMem   1 Linda.
 Calling FoFJK, ICntrl=      2127 FMM=F ISym2X=1 I1Cent= 0 IOpClX= 0 NMat=1 NMatS=1 NMatT=0.
 ***** Axes restored to original set *****
 -------------------------------------------------------------------
 Center     Atomic                   Forces (Hartrees/Bohr)
 Number     Number              X              Y              Z
 -------------------------------------------------------------------
      1        6           0.000000000    0.000000000   -0.022560219
      2        1           0.000000000    0.000000000    0.025916160
      3        6           0.007436229   -0.011254064   -0.003176420
      4        6          -0.008310836    0.000825513    0.006233991
      5        6           0.001982770    0.002179170   -0.005415295
      6        6          -0.000647795   -0.005227354    0.011191423
      7        1           0.016241888   -0.007701916   -0.012015243
      8        6           0.010134428   -0.002857467   -0.007801059
      9        1          -0.002651266   -0.007708489    0.015250244
     10        6           0.008824406   -0.009696776    0.003753848
     11        1           0.001955467    0.007722319   -0.014635297
     12        1          -0.012619083    0.003895341    0.010102247
     13        1          -0.010916720    0.011841393   -0.004607086
     14        6           0.006028191    0.012066995   -0.003176420
     15        6          -0.002878601    0.000627544   -0.005415295
     16        6           0.003440503   -0.007610152    0.006233991
     17        6          -0.002592575    0.010205406   -0.007801059
     18        1           0.008001380    0.001558181    0.015250244
     19        6           0.004850919    0.002052670    0.011191423
     20        1          -0.001450889    0.017916845   -0.012015243
     21        6           0.003985452    0.012490548    0.003753848
     22        1           0.002936077   -0.012876117    0.010102247
     23        1          -0.007665458   -0.002167675   -0.014635297
     24        1          -0.004796587   -0.015374853   -0.004607086
     25        6          -0.013464420   -0.000812931   -0.003176420
     26        6           0.004870333    0.006784639    0.006233991
     27        6           0.000895832   -0.002806714   -0.005415295
     28        6          -0.004203124    0.003174684    0.011191423
     29        1          -0.014790998   -0.010214930   -0.012015243
     30        6          -0.007541853   -0.007347939   -0.007801059
     31        1          -0.005350114    0.006150308    0.015250244
     32        6          -0.012809857   -0.002793772    0.003753848
     33        1           0.005709991   -0.005554644   -0.014635297
     34        1           0.009683006    0.008980776    0.010102247
     35        1           0.015713307    0.003533460   -0.004607086
 -------------------------------------------------------------------
 Cartesian Forces:  Max     0.025916160 RMS     0.009014514

 GradGradGradGradGradGradGradGradGradGradGradGradGradGradGradGradGradGrad
 Berny optimization.
 Internal  Forces:  Max     0.025916160 RMS     0.006579625
 Search for a local minimum.
 Step number   1 out of a maximum of  197
 All quantities printed in internal units (Hartrees-Bohrs-Radians)
 Mixed Optimization -- RFO/linear search
 Second derivative matrix not updated -- first step.
     Eigenvalues ---    0.00654   0.00654   0.00654   0.01539   0.01539
     Eigenvalues ---    0.01539   0.02143   0.02143   0.02143   0.02171
     Eigenvalues ---    0.02171   0.02171   0.02182   0.02182   0.02182
     Eigenvalues ---    0.02201   0.02201   0.02201   0.02214   0.02214
     Eigenvalues ---    0.02214   0.02216   0.02216   0.02216   0.02216
     Eigenvalues ---    0.02216   0.02216   0.02218   0.02218   0.02218
     Eigenvalues ---    0.04662   0.06498   0.06498   0.15999   0.15999
     Eigenvalues ---    0.15999   0.16000   0.16000   0.16000   0.16000
     Eigenvalues ---    0.16000   0.16000   0.16000   0.16000   0.16000
     Eigenvalues ---    0.16000   0.16000   0.16000   0.19004   0.19004
     Eigenvalues ---    0.22000   0.22000   0.22000   0.22000   0.22000
     Eigenvalues ---    0.22000   0.23478   0.23478   0.23478   0.25000
     Eigenvalues ---    0.25000   0.25000   0.31291   0.31502   0.31502
     Eigenvalues ---    0.31502   0.33902   0.33902   0.33902   0.34114
     Eigenvalues ---    0.34114   0.34114   0.34262   0.34262   0.34262
     Eigenvalues ---    0.34264   0.34264   0.34264   0.34283   0.34283
     Eigenvalues ---    0.34283   0.42463   0.42463   0.42463   0.42578
     Eigenvalues ---    0.42578   0.42578   0.46401   0.46401   0.46401
     Eigenvalues ---    0.46782   0.46782   0.46782   0.47234   0.47234
     Eigenvalues ---    0.47234   0.47305   0.47305   0.473051000.00000
     Eigenvalues --- 1000.000001000.000001000.000001000.000001000.00000
     Eigenvalues --- 1000.000001000.000001000.000001000.000001000.00000
     Eigenvalues --- 1000.000001000.000001000.000001000.000001000.00000
     Eigenvalues --- 1000.000001000.000001000.000001000.000001000.00000
     Eigenvalues --- 1000.000001000.000001000.000001000.000001000.00000
     Eigenvalues --- 1000.000001000.000001000.000001000.000001000.00000
     Eigenvalues --- 1000.000001000.000001000.000001000.000001000.00000
     Eigenvalues --- 1000.000001000.000001000.000001000.000001000.00000
     Eigenvalues --- 1000.000001000.000001000.000001000.000001000.00000
     Eigenvalues --- 1000.000001000.000001000.000001000.000001000.00000
     Eigenvalues --- 1000.000001000.000001000.000001000.000001000.00000
     Eigenvalues --- 1000.000001000.000001000.000001000.000001000.00000
     Eigenvalues --- 1000.000001000.000001000.000001000.000001000.00000
     Eigenvalues --- 1000.000001000.000001000.000001000.000001000.00000
     Eigenvalues --- 1000.000001000.000001000.000001000.000001000.00000
     Eigenvalues --- 1000.000001000.000001000.000001000.000001000.00000
     Eigenvalues --- 1000.000001000.000001000.000001000.000001000.00000
     Eigenvalues --- 1000.000001000.00000
 RFO step:  Lambda=-2.72489499D-02 EMin= 6.53564915D-03
 Linear search not attempted -- first point.
 Maximum step size (   0.300) exceeded in Quadratic search.
    -- Step size scaled by   0.781
 Iteration  1 RMS(Cart)=  0.10470070 RMS(Int)=  0.00169252
 Iteration  2 RMS(Cart)=  0.00454039 RMS(Int)=  0.00032247
 Iteration  3 RMS(Cart)=  0.00000484 RMS(Int)=  0.00032246
 Iteration  4 RMS(Cart)=  0.00000000 RMS(Int)=  0.00032246
 ClnCor:  largest displacement from symmetrization is 1.21D-10 for atom    23.
 Variable       Old X    -DE/DX   Delta X   Delta X   Delta X     New X
                                 (Linear)    (Quad)   (Total)
    R1        2.12161  -0.02592   0.00000  -0.05949  -0.05949   2.06212
    R2        2.85064   0.01981   0.00000   0.04520   0.04520   2.89584
    R3        2.85064   0.01981   0.00000   0.04520   0.04520   2.89584
    R4        2.85064   0.01981   0.00000   0.04520   0.04520   2.89584
    R5        2.63720  -0.00233   0.00000  -0.00365  -0.00364   2.63356
    R6        2.64096  -0.00439   0.00000  -0.00708  -0.00707   2.63390
    R7        2.62766  -0.00301   0.00000  -0.00460  -0.00460   2.62306
    R8        2.07495  -0.02146   0.00000  -0.04574  -0.04574   2.02922
    R9        2.62636  -0.00371   0.00000  -0.00588  -0.00587   2.62049
   R10        2.07138  -0.01728   0.00000  -0.03662  -0.03662   2.03476
   R11        2.62710  -0.00580   0.00000  -0.00901  -0.00902   2.61808
   R12        2.06886  -0.01666   0.00000  -0.03517  -0.03517   2.03369
   R13        2.62826  -0.00619   0.00000  -0.00974  -0.00974   2.61852
   R14        2.06890  -0.01663   0.00000  -0.03510  -0.03510   2.03380
   R15        2.06855  -0.01675   0.00000  -0.03534  -0.03534   2.03321
   R16        2.64096  -0.00439   0.00000  -0.00708  -0.00707   2.63390
   R17        2.63720  -0.00233   0.00000  -0.00365  -0.00364   2.63356
   R18        2.62636  -0.00371   0.00000  -0.00588  -0.00587   2.62049
   R19        2.07138  -0.01728   0.00000  -0.03662  -0.03662   2.03476
   R20        2.62766  -0.00301   0.00000  -0.00460  -0.00460   2.62306
   R21        2.07495  -0.02146   0.00000  -0.04574  -0.04574   2.02922
   R22        2.62826  -0.00619   0.00000  -0.00974  -0.00974   2.61852
   R23        2.06890  -0.01663   0.00000  -0.03510  -0.03510   2.03380
   R24        2.62710  -0.00580   0.00000  -0.00901  -0.00902   2.61808
   R25        2.06886  -0.01666   0.00000  -0.03517  -0.03517   2.03369
   R26        2.06855  -0.01675   0.00000  -0.03534  -0.03534   2.03321
   R27        2.63720  -0.00233   0.00000  -0.00365  -0.00364   2.63356
   R28        2.64096  -0.00439   0.00000  -0.00708  -0.00707   2.63390
   R29        2.62766  -0.00301   0.00000  -0.00460  -0.00460   2.62306
   R30        2.07495  -0.02146   0.00000  -0.04574  -0.04574   2.02922
   R31        2.62636  -0.00371   0.00000  -0.00588  -0.00587   2.62049
   R32        2.07138  -0.01728   0.00000  -0.03662  -0.03662   2.03476
   R33        2.62710  -0.00580   0.00000  -0.00901  -0.00902   2.61808
   R34        2.06886  -0.01666   0.00000  -0.03517  -0.03517   2.03369
   R35        2.62826  -0.00619   0.00000  -0.00974  -0.00974   2.61852
   R36        2.06890  -0.01663   0.00000  -0.03510  -0.03510   2.03380
   R37        2.06855  -0.01675   0.00000  -0.03534  -0.03534   2.03321
    A1        1.86705  -0.00351   0.00000  -0.03707  -0.03634   1.83071
    A2        1.86705  -0.00351   0.00000  -0.03707  -0.03634   1.83071
    A3        1.86705  -0.00351   0.00000  -0.03707  -0.03634   1.83071
    A4        1.95213   0.00316   0.00000   0.03345   0.03120   1.98333
    A5        1.95213   0.00316   0.00000   0.03345   0.03120   1.98333
    A6        1.95213   0.00316   0.00000   0.03345   0.03120   1.98333
    A7        2.12868   0.01005   0.00000   0.02848   0.02847   2.15715
    A8        2.07445  -0.00232   0.00000  -0.00635  -0.00636   2.06810
    A9        2.08005  -0.00773   0.00000  -0.02213  -0.02211   2.05794
   A10        2.10064   0.00331   0.00000   0.01034   0.01034   2.11097
   A11        2.08626   0.00073   0.00000   0.00478   0.00478   2.09104
   A12        2.09624  -0.00405   0.00000  -0.01515  -0.01515   2.08108
   A13        2.10020   0.00547   0.00000   0.01656   0.01657   2.11677
   A14        2.09417  -0.00348   0.00000  -0.01137  -0.01138   2.08279
   A15        2.08880  -0.00200   0.00000  -0.00519  -0.00520   2.08360
   A16        2.09759   0.00126   0.00000   0.00382   0.00379   2.10139
   A17        2.09040  -0.00053   0.00000  -0.00150  -0.00149   2.08891
   A18        2.09519  -0.00073   0.00000  -0.00232  -0.00232   2.09287
   A19        2.09751  -0.00006   0.00000  -0.00095  -0.00095   2.09656
   A20        2.09156   0.00013   0.00000   0.00092   0.00092   2.09248
   A21        2.09412  -0.00008   0.00000   0.00003   0.00003   2.09415
   A22        2.09037  -0.00226   0.00000  -0.00764  -0.00767   2.08270
   A23        2.09670   0.00114   0.00000   0.00385   0.00386   2.10056
   A24        2.09612   0.00112   0.00000   0.00379   0.00380   2.09991
   A25        2.07445  -0.00232   0.00000  -0.00635  -0.00636   2.06810
   A26        2.12868   0.01005   0.00000   0.02848   0.02847   2.15715
   A27        2.08005  -0.00773   0.00000  -0.02213  -0.02211   2.05794
   A28        2.10020   0.00547   0.00000   0.01656   0.01657   2.11677
   A29        2.09417  -0.00348   0.00000  -0.01137  -0.01138   2.08279
   A30        2.08880  -0.00200   0.00000  -0.00519  -0.00520   2.08360
   A31        2.10064   0.00331   0.00000   0.01034   0.01034   2.11097
   A32        2.08626   0.00073   0.00000   0.00478   0.00478   2.09104
   A33        2.09624  -0.00405   0.00000  -0.01515  -0.01515   2.08108
   A34        2.09751  -0.00006   0.00000  -0.00095  -0.00095   2.09656
   A35        2.09156   0.00013   0.00000   0.00092   0.00092   2.09248
   A36        2.09412  -0.00008   0.00000   0.00003   0.00003   2.09415
   A37        2.09759   0.00126   0.00000   0.00382   0.00379   2.10139
   A38        2.09040  -0.00053   0.00000  -0.00150  -0.00149   2.08891
   A39        2.09519  -0.00073   0.00000  -0.00232  -0.00232   2.09287
   A40        2.09037  -0.00226   0.00000  -0.00764  -0.00767   2.08270
   A41        2.09612   0.00112   0.00000   0.00379   0.00380   2.09991
   A42        2.09670   0.00114   0.00000   0.00385   0.00386   2.10056
   A43        2.12868   0.01005   0.00000   0.02848   0.02847   2.15715
   A44        2.07445  -0.00232   0.00000  -0.00635  -0.00636   2.06810
   A45        2.08005  -0.00773   0.00000  -0.02213  -0.02211   2.05794
   A46        2.10064   0.00331   0.00000   0.01034   0.01034   2.11097
   A47        2.08626   0.00073   0.00000   0.00478   0.00478   2.09104
   A48        2.09624  -0.00405   0.00000  -0.01515  -0.01515   2.08108
   A49        2.10020   0.00547   0.00000   0.01656   0.01657   2.11677
   A50        2.09417  -0.00348   0.00000  -0.01137  -0.01138   2.08279
   A51        2.08880  -0.00200   0.00000  -0.00519  -0.00520   2.08360
   A52        2.09759   0.00126   0.00000   0.00382   0.00379   2.10139
   A53        2.09040  -0.00053   0.00000  -0.00150  -0.00149   2.08891
   A54        2.09519  -0.00073   0.00000  -0.00232  -0.00232   2.09287
[...]
 33,0.00069516,0.16721118,0.46121330,-0.00167023,-0.00574494,-0.0003768
 8,0.00004657,0.00003812,0.00002539,0.00049687,-0.00042921,-0.00050647,
 -0.00022605,-0.00002634,-0.00008657,0.00024196,-0.00039810,-0.00002741
 ,0.00035785,-0.00019328,-0.00014622,0.00006248,0.00018757,-0.00010846,
 -0.00002843,0.00027721,-0.00019503,-0.00002551,-0.00001767,-0.00002463
 ,-0.00016721,-0.00008705,0.00024532,-0.00000490,-0.00001999,0.00000236
 ,0.00002632,0.00000329,0.00001371,0.00001811,-0.00000904,0.00000010,-0
 .00124975,-0.00022155,0.00107049,0.00010969,0.00012379,-0.00021853,-0.
 00007171,-0.00034401,-0.00014683,-0.00001972,-0.00018781,-0.00019503,-
 0.00001930,-0.00001443,0.00013128,0.00009996,0.00021495,-0.00006550,-0
 .00006080,-0.00000466,0.00000220,0.00007080,-0.00012345,0.00018608,-0.
 00000552,-0.00002085,-0.00000618,-0.00000169,-0.00000791,-0.00000190,-
 0.00000281,0.00000538,0.00001222,-0.01312036,0.03705821,0.06386480,0.0
 5017433,-0.00645894,-0.04309645,0.02870383,-0.04000572,-0.14875543,-0.
 05149089,-0.05511438,-0.03408956,0.00066765,0.00070964,-0.00057563,-0.
 07132877,0.28109260,0.58251322,0.00017540,0.00062761,-0.00155745,0.000
 09121,-0.00043469,-0.00017516,-0.00013981,0.00010008,-0.00011150,0.000
 04021,-0.00000880,-0.00002559,-0.00005066,0.00004964,0.00005055,0.0000
 0653,0.00001222,-0.00003080,0.00002872,-0.00002372,0.00002685,-0.00005
 894,0.00002155,0.00002215,-0.00002595,-0.00001110,0.00000595,0.0000074
 3,-0.00004605,0.00000189,0.00000237,-0.00001062,0.00001917,0.00001653,
 -0.00000582,-0.00000710,0.00001489,-0.00000991,0.00000953,0.00020273,-
 0.00003397,0.00000438,0.00005848,0.00005876,0.00008953,0.00002126,0.00
 006809,-0.00000017,-0.00002023,-0.00000906,-0.00000255,0.00000743,-0.0
 0000818,-0.00002006,-0.00001315,0.00002140,-0.00000281,0.00000226,-0.0
 0000676,-0.00001009,0.00001921,0.00002818,0.00001112,0.00000103,0.0000
 1972,-0.00000332,0.00000489,0.00000970,0.00000998,0.00000315,0.0000076
 2,0.00000024,0.01157784,-0.01019512,-0.01655333,-0.00105799,-0.0046263
 6,-0.00113766,-0.11912145,0.04830388,0.10060975,-0.00082966,-0.0004255
 6,-0.00061767,0.00043100,-0.00039925,-0.00083573,-0.00782891,0.0175859
 3,0.02953561,0.12133634,0.00262045,-0.00148407,0.00060421,-0.00079492,
 -0.00010246,0.00134192,0.00008745,0.00029981,-0.00003379,0.00007463,-0
 .00005095,-0.00014722,0.00005517,-0.00012955,-0.00006617,0.00000396,-0
 .00009212,0.00002311,-0.00003963,0.00002817,0.00008600,-0.00001236,0.0
 0005968,-0.00000950,-0.00004687,-0.00001491,0.00002263,-0.00001143,-0.
 00004713,0.00004727,0.00001351,-0.00001522,0.00001984,0.00000982,-0.00
 000254,0.00000489,0.00000359,-0.00000046,0.00001191,-0.00011880,-0.000
 10728,0.00040080,-0.00009695,0.00000717,-0.00013699,-0.00002245,0.0001
 4707,0.00008794,0.00002557,0.00000452,0.00003092,0.00002760,-0.0000482
 9,0.00002183,0.00006642,-0.00000067,0.00003251,0.00001234,-0.00001037,
 0.00000981,-0.00000587,0.00000942,-0.00000158,0.00000052,-0.00000344,-
 0.00000450,0.00001777,0.00001045,0.00000349,0.00000633,0.00000525,0.00
 000590,0.01087880,-0.00465850,-0.01903451,-0.00481859,0.00198634,-0.00
 537286,0.04830316,-0.11836659,-0.11566577,-0.00048277,-0.00062343,0.00
 070166,0.00062612,-0.00043294,-0.00081461,-0.00594719,0.00841004,0.006
 79423,-0.04876273,0.11302730,-0.00014549,0.00262286,-0.00084876,-0.000
 50420,-0.00033859,0.00039301,-0.00045025,-0.00011020,0.00035783,0.0002
 3031,0.00015371,-0.00007425,-0.00027045,0.00029148,0.00009201,-0.00010
 902,0.00018614,0.00000475,0.00003191,-0.00016681,-0.00006016,-0.000051
 98,-0.00005910,0.00013128,-0.00000888,-0.00002829,-0.00003109,0.000049
 20,0.00001452,-0.00008394,-0.00000951,-0.00002217,-0.00000283,0.000001
 45,-0.00000046,-0.00001780,0.00000412,-0.00001745,-0.00000195,0.000209
 64,-0.00011867,0.00032738,-0.00002118,0.00004112,0.00006681,0.00001899
 ,0.00016461,0.00006038,-0.00002291,0.00002460,-0.00002463,0.00001662,-
 0.00001647,-0.00003109,0.00002108,0.00002450,0.00004893,0.00001534,-0.
 00000890,-0.00003721,0.00000665,0.00000439,0.00000558,0.00000841,0.000
 01073,-0.00000358,0.00000851,0.00001169,-0.00000059,0.00000470,0.00000
 169,-0.00000368,0.01242793,-0.00731241,-0.01064629,-0.00162332,-0.0053
 4453,0.00204280,0.09958003,-0.11558510,-0.25165904,-0.00073762,0.00068
 289,0.00029802,0.00050725,-0.00033852,-0.00074807,-0.00026329,-0.00593
 682,-0.00177610,-0.11095821,0.13054207,0.25994395,0.00022077,0.0009056
 9,-0.00007191,-0.00021182,-0.00014309,-0.00003701,-0.00012957,-0.00065
 486,0.00019379,-0.00014617,0.00012112,0.00015499,-0.00014101,0.0002302
 0,-0.00019536,-0.00001697,0.00002272,-0.00003053,-0.00009056,-0.000064
 77,0.00007644,0.00000164,0.00000055,0.00007151,0.00002153,-0.00002684,
 -0.00000713,-0.00003824,0.00005796,-0.00003281,-0.00003430,0.00003807,
 -0.00003587,-0.00003078,0.00002860,-0.00000462,-0.00000548,0.00001344,
 -0.00000596,-0.00012326,0.00022808,0.00009362,-0.00010802,-0.00008143,
 -0.00007421,0.00002176,-0.00003306,0.00015268,0.00005453,0.00007762,0.
 00000821,-0.00000860,0.00005531,-0.00001202,0.00002035,-0.00005489,0.0
 0003506,0.00000348,0.00000732,0.00001176,-0.00004532,-0.00005387,-0.00
 010009,-0.00001860,-0.00004096,0.00002328,-0.00002086,-0.00001924,-0.0
 0001565,-0.00001432,-0.00001854,-0.00000116,-0.00078971,-0.00377436,-0
 .00765759,-0.03411602,-0.02898512,-0.01351566,-0.01552381,0.01802303,0
 .03689423,-0.21648522,-0.11638119,-0.07997198,-0.00450256,-0.00256531,
 0.00378147,-0.19003124,0.04370209,0.11409332,-0.00488826,-0.00374038,0
 .00278898,0.78137043,0.00150003,-0.00127019,-0.00035528,-0.00002860,-0
 .00009561,0.00078194,0.00072278,0.00062006,0.00022420,0.00011376,0.000
 09207,0.00005131,-0.00011190,0.00026316,0.00011191,-0.00031772,0.00011
 980,0.00012639,-0.00022672,-0.00022979,0.00020116,0.00000752,-0.000218
 39,0.00012304,0.00000721,0.00000710,0.00000356,0.00013481,0.00006361,-
 0.00019384,-0.00000987,0.00002818,-0.00000232,-0.00001550,-0.00002221,
 -0.00002192,-0.00001360,0.00000497,0.00000715,-0.00013285,0.00032772,-
 0.00034783,-0.00021970,-0.00026156,0.00006311,0.00006783,0.00022482,0.
 00019332,0.00011974,0.00024157,0.00018833,0.00002069,-0.00003110,-0.00
 004987,0.00001669,-0.00026020,0.00004108,0.00002982,0.00000114,0.00001
 611,-0.00013072,0.00007070,-0.00023561,0.00000464,-0.00000273,0.000010
 51,-0.00000204,-0.00000715,-0.00001357,-0.00000497,-0.00001076,-0.0000
 0202,-0.00426414,-0.04821084,-0.05145433,-0.06957159,0.00758633,0.0353
 9993,0.05827485,0.04527643,0.01261438,-0.06402735,-0.20354779,-0.12050
 506,-0.00251620,0.00543376,-0.00290403,-0.00805725,-0.15592115,-0.0899
 4601,-0.00408551,0.00519581,-0.00276661,0.15462355,0.42329239,0.001472
 43,-0.00098143,-0.00115342,0.00037614,0.00003631,0.00096817,0.00071878
 ,0.00094400,0.00037603,0.00042371,0.00002727,0.00007311,-0.00018420,0.
 00033181,0.00028443,-0.00041113,0.00022359,0.00010790,-0.00007131,-0.0
 0022867,0.00006636,0.00002131,-0.00033511,0.00018608,-0.00000419,0.000
 01042,0.00000558,0.00025409,0.00003112,-0.00027670,0.00002977,-0.00000
 326,0.00004701,-0.00000811,-0.00004116,-0.00002640,-0.00000377,-0.0000
 0701,0.00000410,-0.00000109,0.00026768,-0.00051962,-0.00031586,-0.0002
 5330,0.00010568,0.00011888,0.00037945,0.00023180,0.00012631,0.00031722
 ,0.00024532,0.00003999,-0.00002527,-0.00008394,0.00001468,-0.00034319,
 0.00003973,0.00002125,0.00000544,0.00000274,-0.00015147,0.00012534,-0.
 00027670,0.00000683,-0.00000099,0.00000988,0.00000764,0.00000097,-0.00
 000760,-0.00000346,-0.00000643,-0.00000719,-0.00955428,-0.05137190,-0.
 07029840,-0.06642624,0.01261440,0.06269507,0.08978548,0.03629136,0.006
 50348,-0.01235635,-0.09311361,-0.19712912,0.00421255,-0.00278696,0.003
 29742,0.04628640,-0.11774039,-0.26232581,0.00211805,-0.00297653,0.0040
 5979,-0.12480741,0.23992573,0.55410902,-0.00002292,0.00080238,0.001113
 87,-0.00041567,-0.00003879,0.00014754,-0.00003894,-0.00021726,0.000161
 75,-0.00008942,0.00003556,-0.00003193,-0.00007784,0.00010282,-0.000062
 95,0.00000224,-0.00001051,0.00000300,0.00002097,-0.00000663,0.00005032
 ,-0.00000799,0.00000935,0.00000769,0.00002095,-0.00000042,-0.00001438,
 -0.00001979,0.00001985,-0.00000466,-0.00000882,0.00002401,-0.00001274,
 -0.00001367,0.00001102,0.00000061,-0.00000607,0.00000904,-0.00000168,0
 .00015614,0.00027210,0.00001926,0.00001686,-0.00004977,-0.00001025,0.0
 0000850,-0.00008497,-0.00003934,0.00000103,-0.00000126,-0.00001486,-0.
 00001207,0.00001896,-0.00001444,0.00001040,0.00000226,-0.00002158,-0.0
 0001498,0.00001957,0.00001542,0.00000035,-0.00005807,-0.00001771,-0.00
 000519,-0.00001309,0.00000736,-0.00002815,-0.00001285,-0.00000773,-0.0
 0001228,-0.00001115,0.00000223,-0.00489422,-0.00392613,0.00210297,-0.0
 0761529,0.01734124,0.02940617,-0.00089732,-0.00054457,-0.00071395,-0.1
 1991284,0.04884168,0.10120509,0.00065669,0.00108795,-0.00162280,-0.000
 84753,-0.00477687,-0.00095238,-0.00007024,0.00036963,-0.00015450,0.013
 00133,-0.01084760,-0.01791489,0.12015192,0.00002669,0.00016816,0.00032
 870,0.00000884,-0.00000473,0.00006588,-0.00006233,0.00002952,-0.000042
 66,0.00007362,-0.00000838,-0.00001287,-0.00000171,-0.00003710,0.000018
 49,0.00000179,0.00001653,-0.00000694,-0.00001808,0.00001683,-0.0000409
 4,-0.00000099,0.00001098,0.00000249,-0.00000849,-0.00000561,0.00000153
 ,0.00000266,-0.00000822,0.00000613,0.00000851,-0.00001582,0.00000717,0
 .00000292,-0.00000080,0.00000262,0.00000111,-0.00000484,-0.00000143,0.
 00002011,-0.00004058,-0.00001559,-0.00001985,-0.00002072,-0.00000674,0
 .00002292,0.00006142,-0.00000210,0.00002451,0.00000559,0.00001424,-0.0
 0000517,-0.00000077,0.00001932,-0.00000136,-0.00003670,-0.00000415,0.0
 0000021,-0.00000149,0.00000142,-0.00001014,-0.00000647,-0.00002415,-0.
 00000655,-0.00000406,0.00000582,0.00000265,0.00000351,0.00000680,-0.00
 000333,0.00000332,0.00000274,-0.00393263,0.00504554,-0.00261798,-0.005
 63593,0.00822874,0.00653423,-0.00056333,-0.00069749,0.00067620,0.04882
 219,-0.11967448,-0.11749567,0.00192821,-0.00219793,0.00257585,-0.00503
 945,0.00258517,-0.00553469,0.00035540,-0.00070480,0.00051794,0.0123040
 4,-0.00390966,-0.01881201,-0.04987475,0.11399358,-0.00037625,-0.000294
 87,-0.00029391,0.00009570,-0.00000230,-0.00006467,0.00008584,0.0001320
 1,-0.00003217,0.00000082,-0.00003498,0.00004327,0.00003345,-0.00003342
 ,0.00004700,0.00000272,0.00002043,-0.00001995,-0.00000240,0.00000963,-
 0.00003664,0.00000655,-0.00001995,-0.00000190,-0.00000801,0.00000690,-
 0.00000059,0.00001958,-0.00000677,-0.00000760,-0.00000203,-0.00001009,
 0.00000611,0.00001238,-0.00000931,-0.00000640,0.00001039,-0.00000897,0
 .00000119,0.00004251,-0.00011160,-0.00001649,0.00003656,0.00006123,0.0
 0001639,-0.00001306,0.00001320,-0.00003752,-0.00002945,-0.00003083,0.0
 0000236,0.00000759,-0.00002652,-0.00000283,-0.00001411,0.00003255,-0.0
 0000134,-0.00000860,-0.00000592,-0.00001107,0.00001592,0.00003223,0.00
 004701,0.00001020,0.00002326,-0.00001894,0.00001257,0.00000745,0.00000
 611,0.00001386,0.00001332,0.00000003,0.00272816,-0.00259910,0.00384413
 ,-0.00041948,-0.00569868,-0.00161180,-0.00062020,0.00076782,0.00036807
 ,0.10122485,-0.11724492,-0.25411827,-0.00076338,0.00287111,-0.00089868
 ,-0.00138497,-0.00569314,0.00233446,-0.00016341,0.00051937,-0.00051142
 ,0.01194104,-0.00660965,-0.00926302,-0.11128467,0.13170562,0.26187647,
 -0.00027388,-0.00101181,-0.00107086,0.00006765,0.00000239,0.00003409,0
 .00001160,-0.00020869,0.00008656,-0.00001752,0.00007034,-0.00002368,-0
 .00005674,0.00008924,-0.00003145,-0.00000525,0.00001037,0.00002078,-0.
 00000788,-0.00004842,0.00001698,-0.00000263,0.00001564,0.00002081,0.00
 000644,-0.00001660,-0.00001349,-0.00002243,0.00003875,-0.00000256,-0.0
 0001285,0.00000867,-0.00002525,-0.00002062,0.00000512,-0.00000221,-0.0
 0001480,0.00000437,-0.00000667,-0.00043895,0.00019552,0.00014857,-0.00
 003490,-0.00007913,-0.00001983,-0.00000114,-0.00009890,0.00000669,0.00
 002382,0.00003757,-0.00001031,0.00000049,0.00001508,-0.00000112,0.0000
 3052,-0.00002798,-0.00000939,-0.00001019,0.00000794,0.00000673,-0.0000
 3003,-0.00002903,-0.00003159,0.00000151,-0.00001790,0.00000578,-0.0000
 1005,-0.00001311,-0.00001425,-0.00000669,-0.00001144,-0.00000169,-0.00
 441405,-0.00222441,0.00415503,-0.00063101,0.00073243,0.00080374,-0.011
 41101,-0.02375572,-0.02193450,0.00017453,-0.00016646,0.00434485,-0.000
 09966,0.00021030,-0.00033520,-0.15473588,-0.10750808,-0.08339919,0.000
 66398,0.00187809,-0.00066939,0.01288562,0.01162722,0.01118113,0.000378
 03,0.00053119,0.00044427,0.15743094,0.00011132,-0.00024850,-0.00027279
 ,-0.00006782,-0.00000051,0.00005410,0.00004411,-0.00008132,0.00004444,
 0.00000571,0.00001809,-0.00002931,-0.00001384,0.00005768,-0.00000911,-
 0.00000553,-0.00001710,0.00000522,0.00000960,-0.00000606,0.00003368,-0
 .00001050,0.00000515,0.00000565,0.00000261,-0.00000885,0.00000192,-0.0
 0000685,0.00000110,0.00000641,0.00000213,0.00000360,-0.00000280,-0.000
 01439,0.00000353,0.00000243,-0.00000733,0.00000822,-0.00000047,0.00000
 224,0.00008752,0.00012265,-0.00002960,0.00000300,-0.00005973,-0.000014
 30,-0.00007314,0.00000467,-0.00001810,-0.00001728,-0.00002444,-0.00000
 056,0.00001350,-0.00000102,0.00000999,0.00003772,0.00000374,0.00001258
 ,-0.00000010,0.00000091,0.00001506,-0.00002297,0.00002761,0.00000162,-
 0.00001860,0.00000108,-0.00000501,-0.00000442,-0.00000607,-0.00000258,
 -0.00000925,-0.00000217,-0.00277463,0.00570522,-0.00285483,0.00060185,
 -0.00012936,0.00070694,-0.00074287,0.00086703,-0.00579521,0.00018845,0
 .00448866,-0.00556387,0.00026675,-0.00073839,0.00053151,-0.10760025,-0
 .18239614,-0.11682328,0.00109631,-0.00239980,0.00304089,-0.01125001,-0
 .00409644,-0.00645264,-0.00042219,-0.00049855,-0.00030342,0.11881094,0
 .18168856,0.00023648,0.00038112,0.00021795,-0.00003569,-0.00000090,-0.
 00004029,-0.00009876,-0.00005818,0.00002033,-0.00001047,0.00002701,-0.
 00001370,-0.00000355,-0.00000554,-0.00004488,0.00001117,-0.00000727,0.
 00003089,0.00000463,-0.00003829,-0.00000064,0.00000105,0.00001783,-0.0
 0000618,0.00000556,-0.00000062,-0.00000358,-0.00002074,0.00001490,0.00
 000988,-0.00000872,0.00000346,-0.00001894,-0.00000382,0.00000447,0.000
 00195,-0.00000913,0.00000229,-0.00000264,-0.00000745,0.00000715,-0.000
 08307,-0.00001447,-0.00001846,0.00003059,-0.00000118,0.00001767,0.0000
 3697,0.00000723,0.00003800,0.00001371,0.00000778,0.00000370,-0.0000178
 0,-0.00000447,-0.00002628,0.00001417,0.00000848,-0.00000088,-0.0000032
 6,-0.00001667,0.00001496,-0.00002640,0.00000321,0.00000070,0.00000195,
 0.00000197,-0.00000184,-0.00000640,0.00000034,-0.00000436,-0.00000373,
 0.00384186,-0.00292893,0.00329789,0.00078364,0.00071170,-0.00044109,0.
 00819463,0.00646476,0.00975192,0.00474478,-0.00537995,-0.00093629,-0.0
 0030610,0.00051402,-0.00042460,-0.08361299,-0.11691326,-0.15684370,-0.
 00162393,0.00259858,-0.00090419,-0.01873721,-0.01865519,-0.00887154,-0
 .00081927,-0.00084830,-0.00072527,0.08801458,0.13118953,0.15675405,-0.
 00008239,0.00024588,-0.00019560,-0.00000442,-0.00000313,-0.00004348,-0
 .00004099,-0.00011202,0.00006809,-0.00002132,0.00004657,-0.00003578,-0
 .00002246,0.00005151,-0.00004396,0.00000235,-0.00002946,0.00003838,0.0
 0000844,-0.00004990,0.00004447,-0.00000480,0.00001605,-0.00000326,0.00
 001077,-0.00000322,-0.00000381,-0.00002183,0.00001421,0.00000730,-0.00
 000685,0.00001428,-0.00001847,-0.00001468,0.00000683,0.00000361,-0.000
 01451,0.00001034,-0.00000196,-0.00005299,0.00007459,0.00001602,-0.0000
 4527,-0.00000427,-0.00000438,-0.00001590,-0.00005220,0.00004930,-0.000
 00954,0.00002490,-0.00001688,0.00000612,0.00001497,-0.00001718,0.00001
 248,0.00002196,0.00001973,0.00002014,-0.00000018,-0.00000272,0.0000024
 2,-0.00001800,-0.00000418,0.00000374,-0.00001507,0.00000655,-0.0000095
 4,-0.00000704,-0.00001296,-0.00000555,-0.00001552,-0.00000440,0.000870
 01,0.00032692,-0.00051042,0.00085775,-0.00417985,-0.00108437,0.0016170
 6,-0.00026007,0.00344863,-0.01193925,-0.00017375,0.00889972,-0.0007580
 5,-0.00004440,0.00030236,-0.00807612,-0.00603958,-0.00086014,-0.000607
 65,-0.00017996,0.00006905,-0.34008072,-0.06268733,0.07499835,0.0005858
 1,0.00104652,-0.00165497,0.00058300,0.00180508,-0.00053276,0.35725475,
 0.00041410,-0.00058099,0.00047629,-0.00008223,0.00004284,0.00016879,0.
 00011088,0.00002554,-0.00005920,0.00002532,0.00000333,-0.00002451,0.00
 001399,-0.00002219,0.00001168,-0.00001034,-0.00000163,0.00000345,-0.00
 000653,-0.00000160,0.00000213,0.00000122,-0.00000090,-0.00000512,-0.00
 000193,-0.00000236,0.00000323,0.00000064,-0.00000325,0.00000021,0.0000
 0647,-0.00000211,0.00000535,-0.00000203,-0.00000126,0.00000248,-0.0000
 0160,0.00000249,0.00000069,0.00000821,0.00003414,0.00002469,-0.0000026
 0,0.00001401,-0.00003386,-0.00002256,-0.00002555,0.00001747,-0.0000005
 3,-0.00000293,-0.00001117,0.00000147,0.00000832,0.00000516,0.00000164,
 0.00002261,0.00001409,0.00001692,-0.00000567,0.00000190,0.00000903,-0.
 00000294,0.00000677,-0.00000338,-0.00001033,0.00000677,0.00000090,-0.0
 0000137,-0.00000452,-0.00000357,-0.00000648,-0.00000052,0.00022697,-0.
 00107384,-0.00027460,-0.00374287,0.00230594,-0.00664743,-0.00063724,0.
 00366935,-0.00621664,-0.02342730,0.00125400,0.00736575,-0.00100052,-0.
 00022719,0.00034921,0.01691155,0.00832169,-0.00477169,0.00073711,0.000
 10448,-0.00016475,-0.06255147,-0.07075405,0.00394774,0.00192946,-0.002
 28969,0.00252830,0.00092653,-0.00222180,0.00287640,0.07015432,0.061429
 41,-0.00024485,0.00053299,-0.00029646,-0.00002000,-0.00007195,-0.00003
 243,-0.00008169,0.00002274,0.00006362,0.00001143,0.00001353,0.00001432
 ,-0.00001710,0.00002774,0.00000368,-0.00000414,0.00000683,0.00000113,-
 0.00000185,-0.00002444,-0.00000778,-0.00000538,-0.00000145,0.00001222,
 -0.00000523,-0.00000274,-0.00000368,0.00000233,0.,-0.00000719,-0.00000
 348,0.00000056,0.00000003,0.00000272,-0.00000038,-0.00000373,0.0000026
 5,-0.00000355,0.00000083,0.00000694,-0.00005804,0.00000976,-0.00002438
 ,0.00003851,0.00001033,-0.00000082,0.00003569,0.00003937,-0.00000620,0
 .00000013,0.00000010,0.00000555,-0.00001421,-0.00000195,0.00000602,0.0
 0001811,0.00000949,0.00000429,-0.00000289,-0.00000887,0.00000917,0.000
 00158,0.00000410,0.00000293,0.00000601,-0.00000264,-0.00000040,0.00000
 217,0.00000119,0.00000158,0.00000135,0.00000083,-0.00041228,-0.0002860
 5,-0.00113696,-0.00059066,-0.00639388,0.00107617,0.00294836,-0.0064582
 7,-0.00136028,-0.02104140,-0.00480845,0.01020948,-0.00090057,-0.000131
 90,0.00022490,0.02917530,0.00743086,-0.00083330,0.00132180,0.00035312,
 -0.00036583,0.07499381,0.00397999,-0.08317925,-0.00052661,0.00297302,-
 0.00091216,-0.00168798,0.00241781,-0.00076406,-0.08291986,0.00039547,0
 .07723501||0.,0.,0.00004314,0.,0.,0.00001817,0.00002876,-0.00000530,-0
 .00007137,0.00003876,-0.00005340,0.00004734,-0.00005294,0.00002204,0.0
 0001429,-0.00005348,0.00004885,0.00000539,-0.00001235,0.00000406,0.000
 00585,0.00001887,-0.00004164,0.00004034,0.00000908,0.00000692,-0.00001
 139,0.00002686,0.00001768,-0.00005501,-0.00000045,-0.00001058,0.000004
 30,0.00000560,0.00000504,-0.00000780,0.00000286,-0.00001196,0.00000762
 ,-0.00000979,0.00002756,-0.00007137,0.00000739,-0.00005687,0.00001429,
 0.00002686,0.00006027,0.00004734,0.00002663,0.00003716,0.00004034,-0.0
 0001053,0.00000441,-0.00001139,-0.00001556,-0.00007074,0.00000539,0.00
 000266,-0.00001273,0.00000585,-0.00002874,0.00001442,-0.00005501,-0.00
 000717,0.00000232,-0.00000780,0.00000939,0.00000490,0.00000430,0.00000
 893,0.00000846,0.00000762,-0.00001897,-0.00002226,-0.00007137,-0.00006
 562,-0.00000687,0.00004734,0.00004556,0.00003483,0.00001429,0.00006905
 ,0.00002189,0.00000539,0.00000970,0.00000866,0.00000585,-0.00004550,0.
 00000448,0.00004034,0.00000145,-0.00001132,-0.00001139,0.00000189,-0.0
 0003210,-0.00005501,-0.00000894,0.00000568,0.00000430,0.00000157,-0.00
 000737,-0.00000780,-0.00001179,0.00000350,0.00000762|||@


 NEVER LOSE YOUR IGNORANCE, IT CAN'T BE REPLACED.
   -- ANDY CAPP
 Job cpu time:  0 days  0 hours  3 minutes 25.0 seconds.
 File lengths (MBytes):  RWF=    178 Int=      0 D2E=      0 Chk=      7 Scr=      1
 Normal termination of Gaussian 09 at Mon Sep 06 11:54:02 2021.
