 Entering Link 1 = b:\programy\g09w\l1.exe PID=     18388.
  
 Copyright (c) 1988,1990,1992,1993,1995,1998,2003,2009, Gaussian, Inc.
                  All Rights Reserved.
  
 This is part of the Gaussian(R) 09 program.  It is based on
 the Gaussian(R) 03 system (copyright 2003, Gaussian, Inc.),
 the Gaussian(R) 98 system (copyright 1998, Gaussian, Inc.),
 the Gaussian(R) 94 system (copyright 1995, Gaussian, Inc.),
 the Gaussian 92(TM) system (copyright 1992, Gaussian, Inc.),
 the Gaussian 90(TM) system (copyright 1990, Gaussian, Inc.),
 the Gaussian 88(TM) system (copyright 1988, Gaussian, Inc.),
 the Gaussian 86(TM) system (copyright 1986, Carnegie Mellon
 University), and the Gaussian 82(TM) system (copyright 1983,
 Carnegie Mellon University). Gaussian is a federally registered
 trademark of Gaussian, Inc.
  
 This software contains proprietary and confidential information,
 including trade secrets, belonging to Gaussian, Inc.
  
 This software is provided under written license and may be
 used, copied, transmitted, or stored only in accord with that
 written license.
  
 The following legend is applicable only to US Government
 contracts under FAR:
  
                    RESTRICTED RIGHTS LEGEND
  
 Use, reproduction and disclosure by the US Government is
 subject to restrictions as set forth in subparagraphs (a)
 and (c) of the Commercial Computer Software - Restricted
 Rights clause in FAR 52.227-19.
  
 Gaussian, Inc.
 340 Quinnipiac St., Bldg. 40, Wallingford CT 06492
  
  
 ---------------------------------------------------------------
 Warning -- This program may not be used in any manner that
 competes with the business of Gaussian, Inc. or will provide
 assistance to any competitor of Gaussian, Inc.  The licensee
 of this program is prohibited from giving any competitor of
 Gaussian, Inc. access to this program.  By using this program,
 the user acknowledges that Gaussian, Inc. is engaged in the
 business of creating and licensing software in the field of
 computational chemistry and represents and warrants to the
 licensee that it is not a competitor of Gaussian, Inc. and that
 it will not use this program in any manner prohibited above.
 ---------------------------------------------------------------
  

 Cite this work as:
 Gaussian 09, Revision A.02,
 M. J. Frisch, G. W. Trucks, H. B. Schlegel, G. E. Scuseria, 
 M. A. Robb, J. R. Cheeseman, G. Scalmani, V. Barone, B. Mennucci, 
 G. A. Petersson, H. Nakatsuji, M. Caricato, X. Li, H. P. Hratchian, 
 A. F. Izmaylov, J. Bloino, G. Zheng, J. L. Sonnenberg, M. Hada, 
 M. Ehara, K. Toyota, R. Fukuda, J. Hasegawa, M. Ishida, T. Nakajima, 
 Y. Honda, O. Kitao, H. Nakai, T. Vreven, J. A. Montgomery, Jr., 
 J. E. Peralta, F. Ogliaro, M. Bearpark, J. J. Heyd, E. Brothers, 
 K. N. Kudin, V. N. Staroverov, R. Kobayashi, J. Normand, 
 K. Raghavachari, A. Rendell, J. C. Burant, S. S. Iyengar, J. Tomasi, 
 M. Cossi, N. Rega, J. M. Millam, M. Klene, J. E. Knox, J. B. Cross, 
 V. Bakken, C. Adamo, J. Jaramillo, R. Gomperts, R. E. Stratmann, 
 O. Yazyev, A. J. Austin, R. Cammi, C. Pomelli, J. W. Ochterski, 
 R. L. Martin, K. Morokuma, V. G. Zakrzewski, G. A. Voth, 
 P. Salvador, J. J. Dannenberg, S. Dapprich, A. D. Daniels, 
 O. Farkas, J. B. Foresman, J. V. Ortiz, J. Cioslowski, 
 and D. J. Fox, Gaussian, Inc., Wallingford CT, 2009.
 
 ******************************************
 Gaussian 09:  IA32W-G09RevA.02 11-Jun-2009
                06-Sep-2021 
 ******************************************
 %nprocshared=12
 Will use up to   12 processors via shared memory.
 ----------------------------------------------
 # opt freq=noraman hf/6-311g geom=connectivity
 ----------------------------------------------
 1/18=20,19=15,38=1,57=2/1,3;
 2/9=110,12=2,17=6,18=5,40=1/2;
 3/5=4,6=6,11=9,16=1,25=1,30=1,71=1/1,2,3;
 4//1;
 5/5=2,38=5/2;
 6/7=2,8=2,9=2,10=2,28=1/1;
 7//1,2,3,16;
 1/18=20,19=15/3(2);
 2/9=110/2;
 99//99;
 2/9=110/2;
 3/5=4,6=6,11=9,16=1,25=1,30=1,71=1/1,2,3;
 4/5=5,16=3/1;
 5/5=2,38=5/2;
 7//1,2,3,16;
 1/18=20,19=15/3(-5);
 2/9=110/2;
 6/7=2,8=2,9=2,10=2,19=2,28=1/1;
 99/9=1/99;
 -----
 M0001
 -----
 Symbolic Z-matrix:
 Charge =  0 Multiplicity = 1
 C                    -0.23072  -0.25857   0.68715 
 H                    -0.63085  -0.62891   1.66999 
 C                    -0.49738   1.22589   0.63192 
 C                    -1.02231   1.86375   1.75839 
 C                    -0.25474   1.97527  -0.52053 
 C                    -1.30551   3.2246    1.72687 
 H                    -1.21372   1.29106   2.67359 
 C                    -0.54148   3.33462  -0.55177 
 H                     0.18721   1.47666  -1.39656 
 C                    -1.0698    3.96157   0.57163 
 H                    -1.71702   3.71577   2.61483 
 H                    -0.35008   3.9108   -1.4626 
 H                    -1.29777   5.03193   0.54718 
 C                     1.23906  -0.59779   0.67237 
 C                     1.70708  -1.56396   1.56826 
 C                     2.14497   0.00982  -0.19867 
 C                     3.05248  -1.91169   1.59107 
 H                     1.01025  -2.05383   2.25875 
 C                     3.49101  -0.33699  -0.17251 
 H                     1.7872    0.7757   -0.90563 
 C                     3.94797  -1.29851   0.72144 
 H                     3.40718  -2.66998   2.29667 
 H                     4.19127   0.15057  -0.85849 
 H                     5.00786  -1.57138   0.7415 
 C                    -1.01433  -0.97072  -0.38946 
 C                    -0.46929  -1.28553  -1.6337 
 C                    -2.3428   -1.3179   -0.12277 
 C                    -1.23643  -1.93665  -2.59414 
 H                     0.57394  -1.0267   -1.85522 
 C                    -3.10787  -1.96574  -1.08436 
 H                    -2.78679  -1.07429   0.84958 
 C                    -2.55612  -2.27725  -2.32286 
 H                    -0.79622  -2.18121  -3.56634 
 H                    -4.14727  -2.23137  -0.86587 
 H                    -3.15898  -2.78902  -3.0797 
 

 GradGradGradGradGradGradGradGradGradGradGradGradGradGradGradGradGradGrad
 Berny optimization.
 Initialization pass.
                           ----------------------------
                           !    Initial Parameters    !
                           ! (Angstroms and Degrees)  !
 --------------------------                            --------------------------
 ! Name  Definition              Value          Derivative Info.                !
 --------------------------------------------------------------------------------
 ! R1    R(1,2)                  1.1239         estimate D2E/DX2                !
 ! R2    R(1,3)                  1.5092         estimate D2E/DX2                !
 ! R3    R(1,14)                 1.5085         estimate D2E/DX2                !
 ! R4    R(1,25)                 1.5101         estimate D2E/DX2                !
 ! R5    R(3,4)                  1.3969         estimate D2E/DX2                !
 ! R6    R(3,5)                  1.3959         estimate D2E/DX2                !
 ! R7    R(4,6)                  1.3904         estimate D2E/DX2                !
 ! R8    R(4,7)                  1.0964         estimate D2E/DX2                !
 ! R9    R(5,8)                  1.3896         estimate D2E/DX2                !
 ! R10   R(5,9)                  1.1006         estimate D2E/DX2                !
 ! R11   R(6,10)                 1.3904         estimate D2E/DX2                !
 ! R12   R(6,11)                 1.095          estimate D2E/DX2                !
 ! R13   R(8,10)                 1.3908         estimate D2E/DX2                !
 ! R14   R(8,12)                 1.0946         estimate D2E/DX2                !
 ! R15   R(10,13)                1.0946         estimate D2E/DX2                !
 ! R16   R(14,15)                1.3983         estimate D2E/DX2                !
 ! R17   R(14,16)                1.3959         estimate D2E/DX2                !
 ! R18   R(15,17)                1.3898         estimate D2E/DX2                !
 ! R19   R(15,18)                1.0965         estimate D2E/DX2                !
 ! R20   R(16,19)                1.3902         estimate D2E/DX2                !
 ! R21   R(16,20)                1.102          estimate D2E/DX2                !
 ! R22   R(17,21)                1.3907         estimate D2E/DX2                !
 ! R23   R(17,22)                1.0948         estimate D2E/DX2                !
 ! R24   R(19,21)                1.3901         estimate D2E/DX2                !
 ! R25   R(19,23)                1.0948         estimate D2E/DX2                !
 ! R26   R(21,24)                1.0946         estimate D2E/DX2                !
 ! R27   R(25,26)                1.3944         estimate D2E/DX2                !
 ! R28   R(25,27)                1.3987         estimate D2E/DX2                !
 ! R29   R(26,28)                1.391          estimate D2E/DX2                !
 ! R30   R(26,29)                1.0974         estimate D2E/DX2                !
 ! R31   R(27,30)                1.3891         estimate D2E/DX2                !
 ! R32   R(27,31)                1.0963         estimate D2E/DX2                !
 ! R33   R(28,32)                1.3897         estimate D2E/DX2                !
 ! R34   R(28,33)                1.0949         estimate D2E/DX2                !
 ! R35   R(30,32)                1.3912         estimate D2E/DX2                !
 ! R36   R(30,34)                1.0948         estimate D2E/DX2                !
 ! R37   R(32,35)                1.0946         estimate D2E/DX2                !
 ! A1    A(2,1,3)              107.0494         estimate D2E/DX2                !
 ! A2    A(2,1,14)             106.3407         estimate D2E/DX2                !
 ! A3    A(2,1,25)             106.4578         estimate D2E/DX2                !
 ! A4    A(3,1,14)             113.14           estimate D2E/DX2                !
 ! A5    A(3,1,25)             110.2478         estimate D2E/DX2                !
 ! A6    A(14,1,25)            113.1148         estimate D2E/DX2                !
 ! A7    A(1,3,4)              119.0789         estimate D2E/DX2                !
 ! A8    A(1,3,5)              121.8386         estimate D2E/DX2                !
 ! A9    A(4,3,5)              119.074          estimate D2E/DX2                !
 ! A10   A(3,4,6)              120.3442         estimate D2E/DX2                !
 ! A11   A(3,4,7)              120.0131         estimate D2E/DX2                !
 ! A12   A(6,4,7)              119.6427         estimate D2E/DX2                !
 ! A13   A(3,5,8)              120.5203         estimate D2E/DX2                !
 ! A14   A(3,5,9)              118.9286         estimate D2E/DX2                !
 ! A15   A(8,5,9)              120.5383         estimate D2E/DX2                !
 ! A16   A(4,6,10)             120.2045         estimate D2E/DX2                !
 ! A17   A(4,6,11)             119.8145         estimate D2E/DX2                !
 ! A18   A(10,6,11)            119.9809         estimate D2E/DX2                !
 ! A19   A(5,8,10)             120.0795         estimate D2E/DX2                !
 ! A20   A(5,8,12)             119.8371         estimate D2E/DX2                !
 ! A21   A(10,8,12)            120.0834         estimate D2E/DX2                !
 ! A22   A(6,10,8)             119.7749         estimate D2E/DX2                !
 ! A23   A(6,10,13)            120.1011         estimate D2E/DX2                !
 ! A24   A(8,10,13)            120.1238         estimate D2E/DX2                !
 ! A25   A(1,14,15)            118.3742         estimate D2E/DX2                !
 ! A26   A(1,14,16)            122.7209         estimate D2E/DX2                !
 ! A27   A(15,14,16)           118.9047         estimate D2E/DX2                !
 ! A28   A(14,15,17)           120.492          estimate D2E/DX2                !
 ! A29   A(14,15,18)           119.9642         estimate D2E/DX2                !
 ! A30   A(17,15,18)           119.5437         estimate D2E/DX2                !
 ! A31   A(14,16,19)           120.5311         estimate D2E/DX2                !
 ! A32   A(14,16,20)           119.4814         estimate D2E/DX2                !
 ! A33   A(19,16,20)           119.9857         estimate D2E/DX2                !
 ! A34   A(15,17,21)           120.1821         estimate D2E/DX2                !
 ! A35   A(15,17,22)           119.8339         estimate D2E/DX2                !
 ! A36   A(21,17,22)           119.9839         estimate D2E/DX2                !
 ! A37   A(16,19,21)           120.1926         estimate D2E/DX2                !
 ! A38   A(16,19,23)           119.7611         estimate D2E/DX2                !
 ! A39   A(21,19,23)           120.0463         estimate D2E/DX2                !
 ! A40   A(17,21,19)           119.697          estimate D2E/DX2                !
 ! A41   A(17,21,24)           120.1383         estimate D2E/DX2                !
 ! A42   A(19,21,24)           120.1647         estimate D2E/DX2                !
 ! A43   A(1,25,26)            122.6714         estimate D2E/DX2                !
 ! A44   A(1,25,27)            118.293          estimate D2E/DX2                !
 ! A45   A(26,25,27)           119.0344         estimate D2E/DX2                !
 ! A46   A(25,26,28)           120.4126         estimate D2E/DX2                !
 ! A47   A(25,26,29)           119.8969         estimate D2E/DX2                !
 ! A48   A(28,26,29)           119.6883         estimate D2E/DX2                !
 ! A49   A(25,27,30)           120.4549         estimate D2E/DX2                !
 ! A50   A(25,27,31)           119.9058         estimate D2E/DX2                !
 ! A51   A(30,27,31)           119.6388         estimate D2E/DX2                !
 ! A52   A(26,28,32)           120.2429         estimate D2E/DX2                !
 ! A53   A(26,28,33)           119.7298         estimate D2E/DX2                !
 ! A54   A(32,28,33)           120.0273         estimate D2E/DX2                !
 ! A55   A(27,30,32)           120.1492         estimate D2E/DX2                !
 ! A56   A(27,30,34)           119.8596         estimate D2E/DX2                !
 ! A57   A(32,30,34)           119.9912         estimate D2E/DX2                !
 ! A58   A(28,32,30)           119.7059         estimate D2E/DX2                !
 ! A59   A(28,32,35)           120.1749         estimate D2E/DX2                !
 ! A60   A(30,32,35)           120.1192         estimate D2E/DX2                !
 ! D1    D(2,1,3,4)              5.9872         estimate D2E/DX2                !
 ! D2    D(2,1,3,5)           -172.9411         estimate D2E/DX2                !
 ! D3    D(14,1,3,4)          -110.8264         estimate D2E/DX2                !
 ! D4    D(14,1,3,5)            70.2453         estimate D2E/DX2                !
 ! D5    D(25,1,3,4)           121.3898         estimate D2E/DX2                !
 ! D6    D(25,1,3,5)           -57.5385         estimate D2E/DX2                !
 ! D7    D(2,1,14,15)           18.1076         estimate D2E/DX2                !
 ! D8    D(2,1,14,16)         -162.0529         estimate D2E/DX2                !
 ! D9    D(3,1,14,15)          135.338          estimate D2E/DX2                !
 ! D10   D(3,1,14,16)          -44.8225         estimate D2E/DX2                !
 ! D11   D(25,1,14,15)         -98.3895         estimate D2E/DX2                !
 ! D12   D(25,1,14,16)          81.45           estimate D2E/DX2                !
 ! D13   D(2,1,25,26)         -149.0199         estimate D2E/DX2                !
 ! D14   D(2,1,25,27)           31.3825         estimate D2E/DX2                !
 ! D15   D(3,1,25,26)           95.2056         estimate D2E/DX2                !
 ! D16   D(3,1,25,27)          -84.392          estimate D2E/DX2                !
 ! D17   D(14,1,25,26)         -32.5921         estimate D2E/DX2                !
 ! D18   D(14,1,25,27)         147.8104         estimate D2E/DX2                !
 ! D19   D(1,3,4,6)           -178.5873         estimate D2E/DX2                !
 ! D20   D(1,3,4,7)              1.3762         estimate D2E/DX2                !
 ! D21   D(5,3,4,6)              0.371          estimate D2E/DX2                !
 ! D22   D(5,3,4,7)           -179.6655         estimate D2E/DX2                !
 ! D23   D(1,3,5,8)            178.3895         estimate D2E/DX2                !
 ! D24   D(1,3,5,9)             -2.901          estimate D2E/DX2                !
 ! D25   D(4,3,5,8)             -0.5389         estimate D2E/DX2                !
 ! D26   D(4,3,5,9)            178.1706         estimate D2E/DX2                !
 ! D27   D(3,4,6,10)             0.0908         estimate D2E/DX2                !
 ! D28   D(3,4,6,11)           179.9863         estimate D2E/DX2                !
 ! D29   D(7,4,6,10)          -179.8728         estimate D2E/DX2                !
 ! D30   D(7,4,6,11)             0.0227         estimate D2E/DX2                !
 ! D31   D(3,5,8,10)             0.2448         estimate D2E/DX2                !
 ! D32   D(3,5,8,12)          -179.783          estimate D2E/DX2                !
 ! D33   D(9,5,8,10)          -178.4438         estimate D2E/DX2                !
 ! D34   D(9,5,8,12)             1.5283         estimate D2E/DX2                !
 ! D35   D(4,6,10,8)            -0.3898         estimate D2E/DX2                !
 ! D36   D(4,6,10,13)          179.7138         estimate D2E/DX2                !
 ! D37   D(11,6,10,8)          179.7148         estimate D2E/DX2                !
 ! D38   D(11,6,10,13)          -0.1815         estimate D2E/DX2                !
 ! D39   D(5,8,10,6)             0.2227         estimate D2E/DX2                !
 ! D40   D(5,8,10,13)         -179.8809         estimate D2E/DX2                !
 ! D41   D(12,8,10,6)         -179.7493         estimate D2E/DX2                !
 ! D42   D(12,8,10,13)           0.147          estimate D2E/DX2                !
 ! D43   D(1,14,15,17)         179.9113         estimate D2E/DX2                !
 ! D44   D(1,14,15,18)          -0.0243         estimate D2E/DX2                !
 ! D45   D(16,14,15,17)          0.0655         estimate D2E/DX2                !
 ! D46   D(16,14,15,18)       -179.8701         estimate D2E/DX2                !
 ! D47   D(1,14,16,19)         179.9501         estimate D2E/DX2                !
 ! D48   D(1,14,16,20)           0.4288         estimate D2E/DX2                !
 ! D49   D(15,14,16,19)         -0.2112         estimate D2E/DX2                !
 ! D50   D(15,14,16,20)       -179.7325         estimate D2E/DX2                !
 ! D51   D(14,15,17,21)          0.0828         estimate D2E/DX2                !
 ! D52   D(14,15,17,22)       -179.9695         estimate D2E/DX2                !
 ! D53   D(18,15,17,21)       -179.9813         estimate D2E/DX2                !
 ! D54   D(18,15,17,22)         -0.0336         estimate D2E/DX2                !
 ! D55   D(14,16,19,21)          0.2094         estimate D2E/DX2                !
 ! D56   D(14,16,19,23)       -179.7461         estimate D2E/DX2                !
 ! D57   D(20,16,19,21)        179.7283         estimate D2E/DX2                !
 ! D58   D(20,16,19,23)         -0.2272         estimate D2E/DX2                !
 ! D59   D(15,17,21,19)         -0.0867         estimate D2E/DX2                !
 ! D60   D(15,17,21,24)        179.8678         estimate D2E/DX2                !
 ! D61   D(22,17,21,19)        179.9656         estimate D2E/DX2                !
 ! D62   D(22,17,21,24)         -0.0799         estimate D2E/DX2                !
 ! D63   D(16,19,21,17)         -0.0586         estimate D2E/DX2                !
 ! D64   D(16,19,21,24)        179.987          estimate D2E/DX2                !
 ! D65   D(23,19,21,17)        179.8968         estimate D2E/DX2                !
 ! D66   D(23,19,21,24)         -0.0577         estimate D2E/DX2                !
 ! D67   D(1,25,26,28)        -179.6618         estimate D2E/DX2                !
 ! D68   D(1,25,26,29)           0.881          estimate D2E/DX2                !
 ! D69   D(27,25,26,28)         -0.0671         estimate D2E/DX2                !
 ! D70   D(27,25,26,29)       -179.5243         estimate D2E/DX2                !
 ! D71   D(1,25,27,30)         179.5511         estimate D2E/DX2                !
 ! D72   D(1,25,27,31)          -0.1866         estimate D2E/DX2                !
 ! D73   D(26,25,27,30)         -0.0615         estimate D2E/DX2                !
 ! D74   D(26,25,27,31)       -179.7992         estimate D2E/DX2                !
 ! D75   D(25,26,28,32)          0.1406         estimate D2E/DX2                !
 ! D76   D(25,26,28,33)       -179.8134         estimate D2E/DX2                !
 ! D77   D(29,26,28,32)        179.599          estimate D2E/DX2                !
 ! D78   D(29,26,28,33)         -0.3551         estimate D2E/DX2                !
 ! D79   D(25,27,30,32)          0.1173         estimate D2E/DX2                !
 ! D80   D(25,27,30,34)       -179.8906         estimate D2E/DX2                !
 ! D81   D(31,27,30,32)        179.8557         estimate D2E/DX2                !
 ! D82   D(31,27,30,34)         -0.1522         estimate D2E/DX2                !
 ! D83   D(26,28,32,30)         -0.0846         estimate D2E/DX2                !
 ! D84   D(26,28,32,35)        179.9594         estimate D2E/DX2                !
 ! D85   D(33,28,32,30)        179.8694         estimate D2E/DX2                !
 ! D86   D(33,28,32,35)         -0.0866         estimate D2E/DX2                !
 ! D87   D(27,30,32,28)         -0.0439         estimate D2E/DX2                !
 ! D88   D(27,30,32,35)        179.9122         estimate D2E/DX2                !
 ! D89   D(34,30,32,28)        179.964          estimate D2E/DX2                !
 ! D90   D(34,30,32,35)         -0.0799         estimate D2E/DX2                !
 --------------------------------------------------------------------------------
 Trust Radius=3.00D-01 FncErr=1.00D-07 GrdErr=1.00D-07
 Number of steps in this run= 197 maximum allowed number of steps= 210.
 GradGradGradGradGradGradGradGradGradGradGradGradGradGradGradGradGradGrad

                          Input orientation:                          
 ---------------------------------------------------------------------
 Center     Atomic      Atomic             Coordinates (Angstroms)
 Number     Number       Type             X           Y           Z
 ---------------------------------------------------------------------
      1          6           0       -0.230718   -0.258570    0.687151
      2          1           0       -0.630855   -0.628914    1.669985
      3          6           0       -0.497381    1.225887    0.631920
      4          6           0       -1.022307    1.863750    1.758392
      5          6           0       -0.254738    1.975268   -0.520525
      6          6           0       -1.305507    3.224601    1.726875
      7          1           0       -1.213723    1.291059    2.673585
      8          6           0       -0.541482    3.334620   -0.551775
      9          1           0        0.187208    1.476662   -1.396561
     10          6           0       -1.069800    3.961572    0.571628
     11          1           0       -1.717018    3.715770    2.614832
     12          1           0       -0.350082    3.910800   -1.462598
     13          1           0       -1.297767    5.031928    0.547182
     14          6           0        1.239063   -0.597791    0.672371
     15          6           0        1.707078   -1.563956    1.568263
     16          6           0        2.144971    0.009824   -0.198673
     17          6           0        3.052477   -1.911691    1.591068
     18          1           0        1.010245   -2.053829    2.258750
     19          6           0        3.491014   -0.336991   -0.172514
     20          1           0        1.787202    0.775701   -0.905635
     21          6           0        3.947971   -1.298506    0.721440
     22          1           0        3.407175   -2.669981    2.296672
     23          1           0        4.191269    0.150567   -0.858493
     24          1           0        5.007858   -1.571381    0.741500
     25          6           0       -1.014330   -0.970717   -0.389456
     26          6           0       -0.469285   -1.285533   -1.633700
     27          6           0       -2.342801   -1.317903   -0.122771
     28          6           0       -1.236430   -1.936655   -2.594141
     29          1           0        0.573935   -1.026703   -1.855220
     30          6           0       -3.107870   -1.965736   -1.084364
     31          1           0       -2.786791   -1.074291    0.849577
     32          6           0       -2.556116   -2.277254   -2.322859
     33          1           0       -0.796217   -2.181214   -3.566335
     34          1           0       -4.147266   -2.231373   -0.865872
     35          1           0       -3.158982   -2.789023   -3.079698
 ---------------------------------------------------------------------
                    Distance matrix (angstroms):
                    1          2          3          4          5
     1  C    0.000000
     2  H    1.123933   0.000000
     3  C    1.509229   2.129714   0.000000
     4  C    2.505676   2.524763   1.396910   0.000000
     5  C    2.539506   3.423677   1.395914   2.407293   0.000000
     6  C    3.790604   3.912540   2.418027   1.390364   2.777725
     7  H    2.704361   2.243490   2.164669   1.096446   3.404428
     8  C    3.813466   4.544646   2.418642   2.780561   1.389617
     9  H    2.743638   3.808725   2.155524   3.400955   1.100619
    10  C    4.304301   4.740425   2.795581   2.410710   2.408844
    11  H    4.660517   4.576982   3.408662   2.155479   3.872735
    12  H    4.692475   5.522764   3.408440   3.875188   2.154734
    13  H    5.398848   5.809526   3.890212   3.402978   3.401629
    14  C    1.508491   2.119621   2.518467   3.514601   3.205476
    15  C    2.497087   2.520036   3.676901   4.385756   4.553884
    16  C    2.549632   3.406623   3.025015   4.159182   3.118519
    17  C    3.785399   3.901112   4.833823   5.557501   5.523128
    18  H    2.689398   2.251718   3.959299   4.441739   5.055509
    19  C    3.820532   4.524358   4.358554   5.379751   4.415689
    20  H    2.771044   3.801810   2.790351   4.021720   2.399331
    21  C    4.306285   4.723742   5.112898   5.981538   5.470177
    22  H    4.651852   4.567754   5.761488   6.361193   6.551683
    23  H    4.702168   5.500334   5.035979   6.079840   4.817752
    24  H    5.400843   5.791840   6.176113   7.014063   6.470421
    25  C    1.510061   2.122541   2.476996   3.556335   3.045157
    26  C    2.549101   3.372178   3.382462   4.661556   3.452247
    27  C    2.497810   2.572828   3.232028   3.924972   3.919591
    28  C    3.820249   4.501075   4.577699   5.782169   4.535057
    29  H    2.775094   3.746575   3.522463   4.894987   3.388206
    30  C    3.785589   3.938164   4.466178   5.205363   4.897938
    31  H    2.687990   2.349360   3.252628   3.545622   4.193838
    32  C    4.306126   4.729319   5.024052   6.013077   5.160299
    33  H    4.701968   5.464067   5.415070   6.690709   5.181361
    34  H    4.652223   4.622077   5.245731   5.781191   5.741678
    35  H    5.400655   5.798016   6.081096   7.044203   6.138605
                    6          7          8          9         10
     6  C    0.000000
     7  H    2.154824   0.000000
     8  C    2.405843   3.876982   0.000000
     9  H    3.878058   4.308497   2.167177   0.000000
    10  C    1.390424   3.401555   1.390763   3.410075   0.000000
    11  H    1.095014   2.477091   3.399199   4.973022   2.157311
    12  H    3.399477   4.971612   1.094632   2.493605   2.158390
    13  H    2.158279   4.303807   2.158826   4.315461   1.094636
    14  C    4.711422   3.686295   4.486951   3.112914   5.111633
    15  C    5.659603   4.231303   5.791945   4.510604   6.263848
    16  C    5.093950   4.601332   4.289053   2.723855   5.152129
    17  C    6.737356   5.443337   6.710595   5.349451   7.247596
    18  H    5.788559   4.038118   6.272342   5.148112   6.584680
    19  C    6.268909   5.734577   5.466771   3.962671   6.311292
    20  H    4.742580   4.699145   3.477938   1.814480   4.527090
    21  C    7.004886   6.095885   6.575874   5.131358   7.271100
    22  H    7.568364   6.097918   7.730509   6.418941   8.185144
    23  H    6.807963   6.556694   5.712373   4.252123   6.651906
    24  H    7.989430   7.115799   7.519081   6.091021   8.220727
    25  C    4.707901   3.812822   4.334265   2.906478   5.025359
    26  C    5.686302   5.074024   4.745691   2.849024   5.723303
    27  C    5.013134   3.987620   5.007471   3.979081   5.474996
    28  C    6.731605   6.177992   5.695660   3.887374   6.696188
    29  H    5.868330   5.392385   4.686605   2.574251   5.785702
    30  C    6.171805   5.321343   5.913017   4.775470   6.482979
    31  H    4.630802   3.375860   5.142343   4.516322   5.327779
    32  C    6.945126   6.284849   6.220017   4.740859   7.036344
    33  H    7.582895   7.153153   6.291017   4.365216   7.411573
    34  H    6.675746   5.791456   6.639323   5.728772   7.063270
    35  H    7.918471   7.316514   7.123251   5.676796   7.954081
                   11         12         13         14         15
    11  H    0.000000
    12  H    4.304880   0.000000
    13  H    2.486609   2.488825   0.000000
    14  C    5.578384   5.235539   6.176157   0.000000
    15  C    6.379282   6.587183   7.319658   1.398261   0.000000
    16  C    6.046884   4.800043   6.134352   1.395917   2.406366
    17  C    7.447448   7.402951   8.260034   2.420497   1.389798
    18  H    6.391637   7.160706   7.646197   2.165410   1.096505
    19  C    7.163641   5.870439   7.230192   2.419324   2.778160
    20  H    5.772110   3.834976   5.453731   2.162646   3.405963
    21  C    7.798718   7.097898   8.223292   2.798498   2.410223
    22  H    8.193680   8.459064   9.193291   3.410724   2.155041
    23  H    7.725446   5.926902   7.478845   3.408681   3.872976
    24  H    8.757128   7.976207   9.132489   3.893132   3.402755
    25  C    5.610942   5.042030   6.081889   2.518795   3.404505
    26  C    6.679812   5.200515   6.734459   2.951170   3.881577
    27  C    5.764021   5.753730   6.470030   3.739059   4.395641
    28  C    7.701576   6.021522   7.644136   4.311696   5.111629
    29  H    6.908030   5.038541   6.780989   2.648599   3.645941
    30  C    6.920841   6.502472   7.409840   4.883976   5.511949
    31  H    5.215863   6.011226   6.292420   4.057826   4.577242
    32  C    7.810327   6.625606   7.952655   5.118143   5.815879
    33  H    8.592388   6.460448   8.318774   4.961475   5.745572
    34  H    7.306841   7.245756   7.929181   5.835009   6.375249
    35  H    8.764660   7.442618   8.819618   6.182421   6.839801
                   16         17         18         19         20
    16  C    0.000000
    17  C    2.778302   0.000000
    18  H    3.403703   2.153303   0.000000
    19  C    1.390250   2.404624   3.874634   0.000000
    20  H    1.101980   3.880273   4.315464   2.162989   0.000000
    21  C    2.410217   1.390740   3.400598   1.390135   3.408611
    22  H    3.873146   1.094848   2.475148   3.398051   4.975119
    23  H    2.154647   3.398544   4.969455   1.094823   2.484462
    24  H    3.402978   2.158956   4.302989   2.158694   4.312131
    25  C    3.313464   4.620262   3.505001   4.554864   3.341406
    26  C    3.251398   4.816016   4.234436   4.326518   3.141735
    27  C    4.680676   5.691999   4.178056   5.915916   4.696060
    28  C    4.578310   5.992605   5.349002   5.547245   4.398895
    29  H    2.507327   4.336273   4.262640   3.437520   2.371158
    30  C    5.681517   6.716453   5.305002   6.857809   5.613302
    31  H    5.157171   5.945427   4.166863   6.403055   5.236855
    32  C    5.642970   6.848998   5.810335   6.704952   5.494859
    33  H    4.979196   6.440800   6.100094   5.770575   4.743072
    34  H    6.712702   7.614135   6.032802   7.900174   6.652968
    35  H    6.653253   7.820997   6.813369   7.660720   6.472909
                   21         22         23         24         25
    21  C    0.000000
    22  H    2.157489   0.000000
    23  H    2.157591   4.304110   0.000000
    24  H    1.094634   2.487502   2.488353   0.000000
    25  C    5.095681   5.445410   5.345609   6.156834   0.000000
    26  C    5.005897   5.691350   4.938026   5.976820   1.394390
    27  C    6.347195   6.383107   6.737341   7.405634   1.398748
    28  C    6.186948   6.783870   6.068681   7.088798   2.417230
    29  H    4.254077   5.288271   3.932497   5.167136   2.161986
    30  C    7.313756   7.373817   7.603104   8.327926   2.419891
    31  H    6.739712   6.557860   7.287737   7.811231   2.165075
    32  C    7.247679   7.553485   7.318872   8.191597   2.796818
    33  H    6.455348   7.230647   6.135523   7.253732   3.406676
    34  H    8.301968   8.201442   8.672074   9.318559   3.410501
    35  H    8.196284   8.487282   8.221991   9.098433   3.891423
                   26         27         28         29         30
    26  C    0.000000
    27  C    2.407076   0.000000
    28  C    1.391014   2.777513   0.000000
    29  H    1.097439   3.404927   2.156720   0.000000
    30  C    2.779672   1.389129   2.404696   3.877073   0.000000
    31  H    3.403251   1.096328   3.873820   4.314240   2.153577
    32  C    2.411082   2.409614   1.389666   3.402908   1.391167
    33  H    2.155043   3.872384   1.094879   2.477525   3.398581
    34  H    3.874496   2.154697   3.398049   4.971899   1.094826
    35  H    3.403802   3.402023   2.158357   4.305786   2.159114
                   31         32         33         34         35
    31  H    0.000000
    32  C    3.400688   0.000000
    33  H    4.968697   2.157012   0.000000
    34  H    2.476388   2.157933   4.304015   0.000000
    35  H    4.303259   1.094605   2.487751   2.487710   0.000000
 Stoichiometry    C19H16
 Framework group  C1[X(C19H16)]
 Deg. of freedom    99
 Full point group                 C1      NOp   1
 Largest Abelian subgroup         C1      NOp   1
 Largest concise Abelian subgroup C1      NOp   1
                         Standard orientation:                         
 ---------------------------------------------------------------------
 Center     Atomic      Atomic             Coordinates (Angstroms)
 Number     Number       Type             X           Y           Z
 ---------------------------------------------------------------------
      1          6           0        0.024591   -0.012862   -0.755073
      2          1           0        0.001755   -0.007380   -1.878761
      3          6           0       -0.903010   -1.112551   -0.298989
      4          6           0       -1.478113   -1.955023   -1.253376
      5          6           0       -1.219583   -1.297529    1.047912
      6          6           0       -2.359264   -2.957994   -0.865133
      7          1           0       -1.235963   -1.826981   -2.315055
      8          6           0       -2.103091   -2.298135    1.434224
      9          1           0       -0.741732   -0.652195    1.800617
     10          6           0       -2.676595   -3.129072    0.477742
     11          1           0       -2.805238   -3.613333   -1.620575
     12          1           0       -2.346178   -2.430992    2.493221
     13          1           0       -3.374151   -3.916250    0.781049
     14          6           0        1.461577   -0.247931   -0.360918
     15          6           0        2.457978   -0.021580   -1.315426
     16          6           0        1.833708   -0.677304    0.914128
     17          6           0        3.796298   -0.222470   -0.999071
     18          1           0        2.185358    0.317993   -2.321752
     19          6           0        3.172694   -0.880680    1.228056
     20          1           0        1.055911   -0.862851    1.672392
     21          6           0        4.156991   -0.653364    0.273088
     22          1           0        4.567694   -0.041458   -1.754632
     23          1           0        3.450081   -1.221583    2.230792
     24          1           0        5.211139   -0.813436    0.520823
     25          6           0       -0.499912    1.331402   -0.309948
     26          6           0       -0.075172    1.954265    0.863066
     27          6           0       -1.456539    1.967202   -1.108144
     28          6           0       -0.595180    3.190566    1.231945
     29          1           0        0.680521    1.471741    1.495894
     30          6           0       -1.976438    3.200583   -0.736452
     31          1           0       -1.803100    1.488815   -2.031712
     32          6           0       -1.546460    3.815789    0.434866
     33          1           0       -0.251452    3.670999    2.153788
     34          1           0       -2.726124    3.688699   -1.367608
     35          1           0       -1.955402    4.788337    0.726547
 ---------------------------------------------------------------------
 Rotational constants (GHZ):      0.4007806      0.3717228      0.2368463
 Standard basis: 6-311G (5D, 7F)
 There are   295 symmetry adapted basis functions of A   symmetry.
 Integral buffers will be    262144 words long.
 Raffenetti 1 integral format.
 Two-electron integral symmetry is turned on.
   295 basis functions,   574 primitive gaussians,   295 cartesian basis functions
    65 alpha electrons       65 beta electrons
       nuclear repulsion energy      1288.4442895321 Hartrees.
 NAtoms=   35 NActive=   35 NUniq=   35 SFac= 7.50D-01 NAtFMM=   80 NAOKFM=F Big=F
 One-electron integrals computed using PRISM.
 PrsmSu:  requested number of processors reduced to:  10 ShMem   1 Linda.
 NBasis=   295 RedAO= T  NBF=   295
 NBsUse=   295 1.00D-06 NBFU=   295
 Harris functional with IExCor=  205 diagonalized for initial guess.
 ExpMin= 1.03D-01 ExpMax= 4.56D+03 ExpMxC= 6.82D+02 IAcc=1 IRadAn=         1 AccDes= 0.00D+00
 HarFok:  IExCor=  205 AccDes= 0.00D+00 IRadAn=         1 IDoV= 1
 ScaDFX=  1.000000  1.000000  1.000000  1.000000
 FoFCou: FMM=F IPFlag=           0 FMFlag=      100000 FMFlg1=           0
         NFxFlg=           0 DoJE=T BraDBF=F KetDBF=T FulRan=T
         Omega=  0.000000  0.000000  1.000000  0.000000  0.000000 ICntrl=     500 IOpCl=  0
         NMat0=    1 NMatS0=    1 NMatT0=    0 NMatD0=    1 NMtDS0=    0 NMtDT0=    0
         I1Cent=           4 NGrid=           0.
 Petite list used in FoFCou.
 Initial guess orbital symmetries:
       Occupied  (A) (A) (A) (A) (A) (A) (A) (A) (A) (A) (A) (A)
                 (A) (A) (A) (A) (A) (A) (A) (A) (A) (A) (A) (A)
                 (A) (A) (A) (A) (A) (A) (A) (A) (A) (A) (A) (A)
                 (A) (A) (A) (A) (A) (A) (A) (A) (A) (A) (A) (A)
                 (A) (A) (A) (A) (A) (A) (A) (A) (A) (A) (A) (A)
                 (A) (A) (A) (A) (A)
       Virtual   (A) (A) (A) (A) (A) (A) (A) (A) (A) (A) (A) (A)
                 (A) (A) (A) (A) (A) (A) (A) (A) (A) (A) (A) (A)
                 (A) (A) (A) (A) (A) (A) (A) (A) (A) (A) (A) (A)
                 (A) (A) (A) (A) (A) (A) (A) (A) (A) (A) (A) (A)
                 (A) (A) (A) (A) (A) (A) (A) (A) (A) (A) (A) (A)
                 (A) (A) (A) (A) (A) (A) (A) (A) (A) (A) (A) (A)
                 (A) (A) (A) (A) (A) (A) (A) (A) (A) (A) (A) (A)
                 (A) (A) (A) (A) (A) (A) (A) (A) (A) (A) (A) (A)
                 (A) (A) (A) (A) (A) (A) (A) (A) (A) (A) (A) (A)
                 (A) (A) (A) (A) (A) (A) (A) (A) (A) (A) (A) (A)
                 (A) (A) (A) (A) (A) (A) (A) (A) (A) (A) (A) (A)
                 (A) (A) (A) (A) (A) (A) (A) (A) (A) (A) (A) (A)
                 (A) (A) (A) (A) (A) (A) (A) (A) (A) (A) (A) (A)
                 (A) (A) (A) (A) (A) (A) (A) (A) (A) (A) (A) (A)
                 (A) (A) (A) (A) (A) (A) (A) (A) (A) (A) (A) (A)
                 (A) (A) (A) (A) (A) (A) (A) (A) (A) (A) (A) (A)
                 (A) (A) (A) (A) (A) (A) (A) (A) (A) (A) (A) (A)
                 (A) (A) (A) (A) (A) (A) (A) (A) (A) (A) (A) (A)
                 (A) (A) (A) (A) (A) (A) (A) (A) (A) (A) (A) (A)
                 (A) (A)
 The electronic state of the initial guess is 1-A.
 Requested convergence on RMS density matrix=1.00D-08 within 128 cycles.
 Requested convergence on MAX density matrix=1.00D-06.
 Requested convergence on             energy=1.00D-06.
 No special actions if energy rises.
 Integral accuracy reduced to 1.0D-05 until final iterations.
 Initial convergence to 1.0D-05 achieved.  Increase integral accuracy.
 SCF Done:  E(RHF) =  -728.671758391     A.U. after   14 cycles
             Convg  =    0.6127D-08             -V/T =  2.0001

 **********************************************************************

            Population analysis using the SCF density.

 **********************************************************************

 Orbital symmetries:
       Occupied  (A) (A) (A) (A) (A) (A) (A) (A) (A) (A) (A) (A)
                 (A) (A) (A) (A) (A) (A) (A) (A) (A) (A) (A) (A)
                 (A) (A) (A) (A) (A) (A) (A) (A) (A) (A) (A) (A)
                 (A) (A) (A) (A) (A) (A) (A) (A) (A) (A) (A) (A)
                 (A) (A) (A) (A) (A) (A) (A) (A) (A) (A) (A) (A)
                 (A) (A) (A) (A) (A)
       Virtual   (A) (A) (A) (A) (A) (A) (A) (A) (A) (A) (A) (A)
                 (A) (A) (A) (A) (A) (A) (A) (A) (A) (A) (A) (A)
                 (A) (A) (A) (A) (A) (A) (A) (A) (A) (A) (A) (A)
                 (A) (A) (A) (A) (A) (A) (A) (A) (A) (A) (A) (A)
                 (A) (A) (A) (A) (A) (A) (A) (A) (A) (A) (A) (A)
                 (A) (A) (A) (A) (A) (A) (A) (A) (A) (A) (A) (A)
                 (A) (A) (A) (A) (A) (A) (A) (A) (A) (A) (A) (A)
                 (A) (A) (A) (A) (A) (A) (A) (A) (A) (A) (A) (A)
                 (A) (A) (A) (A) (A) (A) (A) (A) (A) (A) (A) (A)
                 (A) (A) (A) (A) (A) (A) (A) (A) (A) (A) (A) (A)
                 (A) (A) (A) (A) (A) (A) (A) (A) (A) (A) (A) (A)
                 (A) (A) (A) (A) (A) (A) (A) (A) (A) (A) (A) (A)
                 (A) (A) (A) (A) (A) (A) (A) (A) (A) (A) (A) (A)
                 (A) (A) (A) (A) (A) (A) (A) (A) (A) (A) (A) (A)
                 (A) (A) (A) (A) (A) (A) (A) (A) (A) (A) (A) (A)
                 (A) (A) (A) (A) (A) (A) (A) (A) (A) (A) (A) (A)
                 (A) (A) (A) (A) (A) (A) (A) (A) (A) (A) (A) (A)
                 (A) (A) (A) (A) (A) (A) (A) (A) (A) (A) (A) (A)
                 (A) (A) (A) (A) (A) (A) (A) (A) (A) (A) (A) (A)
                 (A) (A)
 The electronic state is 1-A.
 Alpha  occ. eigenvalues --  -11.25832 -11.25274 -11.25260 -11.25127 -11.24446
 Alpha  occ. eigenvalues --  -11.24436 -11.24360 -11.24349 -11.24206 -11.24185
 Alpha  occ. eigenvalues --  -11.24124 -11.24122 -11.24109 -11.24059 -11.24031
 Alpha  occ. eigenvalues --  -11.24017 -11.23909 -11.23830 -11.23727  -1.18591
 Alpha  occ. eigenvalues --   -1.15827  -1.15678  -1.09036  -1.02408  -1.02118
 Alpha  occ. eigenvalues --   -1.01887  -1.01495  -1.01384  -0.92960  -0.84531
 Alpha  occ. eigenvalues --   -0.82952  -0.82539  -0.81706  -0.81556  -0.77729
 Alpha  occ. eigenvalues --   -0.70734  -0.70447  -0.69103  -0.65990  -0.63625
 Alpha  occ. eigenvalues --   -0.63506  -0.62368  -0.62024  -0.61896  -0.59568
 Alpha  occ. eigenvalues --   -0.58776  -0.58514  -0.58427  -0.57607  -0.53937
 Alpha  occ. eigenvalues --   -0.51738  -0.51082  -0.50839  -0.49674  -0.49173
 Alpha  occ. eigenvalues --   -0.48680  -0.47786  -0.47478  -0.46753  -0.34699
 Alpha  occ. eigenvalues --   -0.34243  -0.33701  -0.33580  -0.33275  -0.31180
 Alpha virt. eigenvalues --    0.11646   0.12020   0.13570   0.13752   0.14070
 Alpha virt. eigenvalues --    0.14928   0.15134   0.16271   0.16377   0.16888
 Alpha virt. eigenvalues --    0.18814   0.19129   0.19284   0.21281   0.21421
 Alpha virt. eigenvalues --    0.21510   0.23630   0.24249   0.24979   0.27099
 Alpha virt. eigenvalues --    0.28513   0.29482   0.34025   0.34195   0.35863
 Alpha virt. eigenvalues --    0.37489   0.38502   0.39682   0.40976   0.43675
 Alpha virt. eigenvalues --    0.44101   0.44375   0.45016   0.45388   0.45579
 Alpha virt. eigenvalues --    0.45865   0.46408   0.48397   0.49854   0.50372
 Alpha virt. eigenvalues --    0.50815   0.51035   0.51441   0.54958   0.55781
 Alpha virt. eigenvalues --    0.56806   0.57907   0.58951   0.59040   0.59614
 Alpha virt. eigenvalues --    0.59698   0.60668   0.61087   0.61497   0.61705
 Alpha virt. eigenvalues --    0.61850   0.62385   0.62461   0.63297   0.63472
 Alpha virt. eigenvalues --    0.64158   0.64999   0.65170   0.65411   0.66905
 Alpha virt. eigenvalues --    0.67404   0.68245   0.68435   0.70109   0.71451
 Alpha virt. eigenvalues --    0.72350   0.73787   0.74464   0.75053   0.76238
 Alpha virt. eigenvalues --    0.77309   0.78321   0.78552   0.80468   0.81163
 Alpha virt. eigenvalues --    0.81850   0.82202   0.82340   0.82825   0.82928
 Alpha virt. eigenvalues --    0.83500   0.83948   0.84058   0.84788   0.85601
 Alpha virt. eigenvalues --    0.86029   0.86377   0.86888   0.87443   0.88077
 Alpha virt. eigenvalues --    0.89730   0.90524   0.91280   0.92974   0.94364
 Alpha virt. eigenvalues --    0.96105   0.96843   0.97694   0.98198   0.98972
 Alpha virt. eigenvalues --    0.99327   1.00330   1.02806   1.05737   1.06212
 Alpha virt. eigenvalues --    1.06772   1.07138   1.08030   1.08355   1.10554
 Alpha virt. eigenvalues --    1.11121   1.12211   1.12487   1.13038   1.14253
 Alpha virt. eigenvalues --    1.14623   1.15420   1.18583   1.19427   1.21697
 Alpha virt. eigenvalues --    1.25297   1.26785   1.27726   1.28167   1.28780
 Alpha virt. eigenvalues --    1.30317   1.35075   1.39384   1.45266   1.46675
 Alpha virt. eigenvalues --    1.51719   1.52295   1.56549   2.54611   2.55623
 Alpha virt. eigenvalues --    2.56184   2.59149   2.61980   2.62492   2.64442
 Alpha virt. eigenvalues --    2.66964   2.67754   2.68477   2.72298   2.76739
 Alpha virt. eigenvalues --    2.77738   2.83504   2.87947   2.88558   2.94134
 Alpha virt. eigenvalues --    2.94286   2.94432   2.97087   2.97458   2.98026
 Alpha virt. eigenvalues --    3.00393   3.00802   3.04043   3.05748   3.07179
 Alpha virt. eigenvalues --    3.08139   3.08419   3.08929   3.09982   3.14321
 Alpha virt. eigenvalues --    3.14820   3.16344   3.16837   3.17556   3.18877
 Alpha virt. eigenvalues --    3.22635   3.25639   3.25821   3.28300   3.28841
 Alpha virt. eigenvalues --    3.30930   3.33371   3.34272   3.35183   3.42622
 Alpha virt. eigenvalues --    3.43051   3.44397   3.46879   3.49520   3.52274
 Alpha virt. eigenvalues --    3.53391   3.54470   3.59149   3.60629   3.60689
 Alpha virt. eigenvalues --    3.63094   3.63574   3.63782   3.65953   3.66669
 Alpha virt. eigenvalues --    3.68323   3.70246   3.70496   3.71407   3.73462
 Alpha virt. eigenvalues --    3.74201   3.75523   3.80855   3.85845   3.86673
 Alpha virt. eigenvalues --    3.92964  24.24868  24.30700  24.31565  24.50531
 Alpha virt. eigenvalues --   24.50843  24.51121  24.54012  24.54657  24.56131
 Alpha virt. eigenvalues --   24.77299  24.78580  24.79151  24.79611  24.80640
 Alpha virt. eigenvalues --   24.81833  24.83277  25.05550  25.05818  25.06120
          Condensed to atoms (all electrons):
              1          2          3          4          5          6
     1  C    5.832595   0.464305   0.184899  -0.026147  -0.054364   0.007648
     2  H    0.464305   0.512408  -0.074326   0.001990   0.005563   0.001755
     3  C    0.184899  -0.074326   5.374299   0.503448   0.439192  -0.072634
     4  C   -0.026147   0.001990   0.503448   5.070859  -0.065606   0.459387
     5  C   -0.054364   0.005563   0.439192  -0.065606   5.095211  -0.029580
     6  C    0.007648   0.001755  -0.072634   0.459387  -0.029580   5.055339
     7  H   -0.000474   0.002395  -0.046731   0.395878   0.004620  -0.035082
     8  C    0.001394  -0.000281  -0.061726  -0.033316   0.479472  -0.076848
     9  H    0.003060   0.000066  -0.048283   0.004049   0.388562  -0.000168
    10  C    0.001272  -0.000013  -0.017878  -0.086337  -0.092015   0.496951
    11  H   -0.000367  -0.000037   0.007053  -0.039716  -0.000618   0.396788
    12  H   -0.000319   0.000012   0.006075  -0.000450  -0.039085   0.006001
    13  H   -0.000013  -0.000001  -0.001591   0.007537   0.008005  -0.042750
    14  C    0.169924  -0.074013  -0.112221  -0.000300  -0.006327  -0.000597
    15  C   -0.045135   0.002911   0.001873   0.000203   0.000228  -0.000009
    16  C   -0.046076   0.005095  -0.004673   0.001479  -0.017146   0.000126
    17  C    0.008273   0.001514  -0.000680  -0.000004   0.000029   0.000001
    18  H   -0.000754   0.002689   0.000354  -0.000020  -0.000025   0.000001
    19  C    0.003542  -0.000274   0.001545   0.000042  -0.000017   0.000000
    20  H   -0.000263  -0.000140  -0.003009  -0.000254   0.002900  -0.000139
    21  C    0.001149  -0.000016   0.000022  -0.000011  -0.000005   0.000000
    22  H   -0.000390  -0.000029   0.000014   0.000001   0.000000   0.000000
    23  H   -0.000296   0.000014   0.000011   0.000002   0.000031   0.000000
    24  H   -0.000019  -0.000001  -0.000002   0.000000   0.000001   0.000000
    25  C    0.156262  -0.059781  -0.153964  -0.005674  -0.007921  -0.000459
    26  C   -0.039538   0.004879  -0.013983  -0.000328   0.000021   0.000047
    27  C   -0.051051  -0.003383   0.000729   0.002063   0.000745  -0.000102
    28  C    0.004952  -0.000247   0.000598   0.000027  -0.000644  -0.000001
    29  H   -0.001832  -0.000073  -0.000968  -0.000079   0.000483   0.000002
    30  C    0.006229   0.001536  -0.000431  -0.000036   0.000196   0.000007
    31  H    0.001811   0.001020   0.000584   0.001472  -0.000049   0.000031
    32  C    0.000984   0.000009   0.000077  -0.000003   0.000031   0.000000
    33  H   -0.000326   0.000013   0.000005   0.000000   0.000013   0.000000
    34  H   -0.000350  -0.000026   0.000012  -0.000001   0.000004   0.000000
    35  H   -0.000012  -0.000002  -0.000001   0.000000  -0.000001   0.000000
              7          8          9         10         11         12
     1  C   -0.000474   0.001394   0.003060   0.001272  -0.000367  -0.000319
     2  H    0.002395  -0.000281   0.000066  -0.000013  -0.000037   0.000012
     3  C   -0.046731  -0.061726  -0.048283  -0.017878   0.007053   0.006075
     4  C    0.395878  -0.033316   0.004049  -0.086337  -0.039716  -0.000450
     5  C    0.004620   0.479472   0.388562  -0.092015  -0.000618  -0.039085
     6  C   -0.035082  -0.076848  -0.000168   0.496951   0.396788   0.006001
     7  H    0.510836  -0.000240  -0.000260   0.005169  -0.004176   0.000024
     8  C   -0.000240   5.035385  -0.027245   0.494243   0.006222   0.396708
     9  H   -0.000260  -0.027245   0.494910   0.004552   0.000020  -0.003427
    10  C    0.005169   0.494243   0.004552   5.031133  -0.040762  -0.039567
    11  H   -0.004176   0.006222   0.000020  -0.040762   0.518291  -0.000211
    12  H    0.000024   0.396708  -0.003427  -0.039567  -0.000211   0.515362
    13  H   -0.000186  -0.042911  -0.000169   0.399629  -0.004585  -0.004453
    14  C    0.000561   0.001772  -0.003174  -0.000036   0.000020   0.000009
    15  C    0.000137   0.000027  -0.000195  -0.000001   0.000000   0.000000
    16  C    0.000003  -0.001718   0.000292   0.000044  -0.000001   0.000016
    17  C    0.000003  -0.000001   0.000016   0.000000   0.000000   0.000000
    18  H   -0.000025   0.000002  -0.000007   0.000000   0.000000   0.000000
    19  C    0.000003  -0.000089   0.000857   0.000003   0.000000   0.000001
    20  H   -0.000004   0.001155   0.003448   0.000078   0.000000  -0.000105
    21  C   -0.000001   0.000001  -0.000011   0.000000   0.000000   0.000000
    22  H    0.000000   0.000000   0.000000   0.000000   0.000000   0.000000
    23  H    0.000000   0.000000  -0.000053  -0.000001   0.000000   0.000001
    24  H    0.000000   0.000000   0.000000   0.000000   0.000000   0.000000
    25  C    0.000154   0.000704  -0.001825   0.000098   0.000010   0.000018
    26  C   -0.000048  -0.000026   0.004612  -0.000004   0.000000  -0.000002
    27  C    0.000255  -0.000073  -0.000273  -0.000013   0.000003   0.000006
    28  C    0.000000  -0.000015   0.000439   0.000000   0.000000  -0.000001
    29  H    0.000000   0.000057   0.000949   0.000002   0.000000  -0.000008
    30  C   -0.000006   0.000002  -0.000100   0.000000   0.000000   0.000001
    31  H    0.000257  -0.000019  -0.000038  -0.000012  -0.000003   0.000000
    32  C    0.000000   0.000003  -0.000013   0.000000   0.000000   0.000000
    33  H    0.000000   0.000000   0.000000   0.000000   0.000000   0.000000
    34  H   -0.000001   0.000000   0.000001   0.000000   0.000000   0.000000
    35  H    0.000000   0.000000  -0.000001   0.000000   0.000000   0.000000
             13         14         15         16         17         18
     1  C   -0.000013   0.169924  -0.045135  -0.046076   0.008273  -0.000754
     2  H   -0.000001  -0.074013   0.002911   0.005095   0.001514   0.002689
     3  C   -0.001591  -0.112221   0.001873  -0.004673  -0.000680   0.000354
     4  C    0.007537  -0.000300   0.000203   0.001479  -0.000004  -0.000020
     5  C    0.008005  -0.006327   0.000228  -0.017146   0.000029  -0.000025
     6  C   -0.042750  -0.000597  -0.000009   0.000126   0.000001   0.000001
     7  H   -0.000186   0.000561   0.000137   0.000003   0.000003  -0.000025
     8  C   -0.042911   0.001772   0.000027  -0.001718  -0.000001   0.000002
     9  H   -0.000169  -0.003174  -0.000195   0.000292   0.000016  -0.000007
    10  C    0.399629  -0.000036  -0.000001   0.000044   0.000000   0.000000
    11  H   -0.004585   0.000020   0.000000  -0.000001   0.000000   0.000000
    12  H   -0.004453   0.000009   0.000000   0.000016   0.000000   0.000000
    13  H    0.517478  -0.000001   0.000000   0.000001   0.000000   0.000000
    14  C   -0.000001   5.366541   0.495489   0.450147  -0.071669  -0.045634
    15  C    0.000000   0.495489   5.040589  -0.061383   0.471767   0.394446
    16  C    0.000001   0.450147  -0.061383   5.122275  -0.031250   0.004761
    17  C    0.000000  -0.071669   0.471767  -0.031250   5.044537  -0.034675
    18  H    0.000000  -0.045634   0.394446   0.004761  -0.034675   0.507595
    19  C    0.000000  -0.064591  -0.036124   0.473308  -0.075088  -0.000404
    20  H    0.000000  -0.053022   0.004514   0.386663  -0.000214  -0.000243
    21  C    0.000000  -0.017673  -0.086788  -0.094836   0.494697   0.005349
    22  H    0.000000   0.007146  -0.039667  -0.000598   0.396650  -0.004214
    23  H    0.000000   0.006026  -0.000390  -0.036774   0.005895   0.000022
    24  H    0.000000  -0.001595   0.007487   0.008118  -0.042945  -0.000183
    25  C   -0.000002  -0.102859  -0.001524  -0.005527  -0.000716   0.000480
    26  C    0.000000  -0.014481   0.001907  -0.007495   0.000230   0.000191
    27  C    0.000000   0.006576   0.000423  -0.000168   0.000003   0.000107
    28  C    0.000000   0.000491  -0.000091   0.000010  -0.000004   0.000009
    29  H    0.000000  -0.003192  -0.000912   0.000933  -0.000135  -0.000036
    30  C    0.000000  -0.000762  -0.000016   0.000024   0.000001  -0.000008
    31  H    0.000000   0.000702   0.000012  -0.000038   0.000001   0.000003
    32  C    0.000000   0.000046  -0.000013  -0.000020   0.000000  -0.000004
    33  H    0.000000   0.000038   0.000007   0.000029   0.000001   0.000000
    34  H    0.000000   0.000011   0.000001   0.000000   0.000000   0.000000
    35  H    0.000000  -0.000001   0.000000   0.000001   0.000000   0.000000
             19         20         21         22         23         24
     1  C    0.003542  -0.000263   0.001149  -0.000390  -0.000296  -0.000019
     2  H   -0.000274  -0.000140  -0.000016  -0.000029   0.000014  -0.000001
     3  C    0.001545  -0.003009   0.000022   0.000014   0.000011  -0.000002
     4  C    0.000042  -0.000254  -0.000011   0.000001   0.000002   0.000000
     5  C   -0.000017   0.002900  -0.000005   0.000000   0.000031   0.000001
     6  C    0.000000  -0.000139   0.000000   0.000000   0.000000   0.000000
     7  H    0.000003  -0.000004  -0.000001   0.000000   0.000000   0.000000
     8  C   -0.000089   0.001155   0.000001   0.000000   0.000000   0.000000
     9  H    0.000857   0.003448  -0.000011   0.000000  -0.000053   0.000000
    10  C    0.000003   0.000078   0.000000   0.000000  -0.000001   0.000000
    11  H    0.000000   0.000000   0.000000   0.000000   0.000000   0.000000
    12  H    0.000001  -0.000105   0.000000   0.000000   0.000001   0.000000
    13  H    0.000000   0.000000   0.000000   0.000000   0.000000   0.000000
    14  C   -0.064591  -0.053022  -0.017673   0.007146   0.006026  -0.001595
    15  C   -0.036124   0.004514  -0.086788  -0.039667  -0.000390   0.007487
    16  C    0.473308   0.386663  -0.094836  -0.000598  -0.036774   0.008118
    17  C   -0.075088  -0.000214   0.494697   0.396650   0.005895  -0.042945
    18  H   -0.000404  -0.000243   0.005349  -0.004214   0.000022  -0.000183
    19  C    5.056563  -0.025358   0.495687   0.006228   0.395582  -0.042543
    20  H   -0.025358   0.498290   0.004794   0.000020  -0.003440  -0.000183
    21  C    0.495687   0.004794   5.030423  -0.041059  -0.039655   0.399173
    22  H    0.006228   0.000020  -0.041059   0.517927  -0.000212  -0.004548
    23  H    0.395582  -0.003440  -0.039655  -0.000212   0.515441  -0.004351
    24  H   -0.042543  -0.000183   0.399173  -0.004548  -0.004351   0.517612
    25  C    0.000887  -0.000482   0.000022   0.000022  -0.000007   0.000001
    26  C   -0.001486   0.000369   0.000080  -0.000001   0.000014  -0.000001
    27  C    0.000023  -0.000026  -0.000001   0.000000  -0.000001   0.000000
    28  C   -0.000031   0.000049   0.000004   0.000000   0.000001   0.000000
    29  H    0.000978   0.000125   0.000047   0.000001  -0.000001   0.000001
    30  C    0.000000   0.000006   0.000000   0.000000   0.000000   0.000000
    31  H    0.000000   0.000007   0.000000   0.000000   0.000000   0.000000
    32  C    0.000000   0.000001   0.000000   0.000000   0.000000   0.000000
    33  H   -0.000001  -0.000017  -0.000001   0.000000   0.000000   0.000000
    34  H    0.000000   0.000000   0.000000   0.000000   0.000000   0.000000
    35  H    0.000000   0.000000   0.000000   0.000000   0.000000   0.000000
             25         26         27         28         29         30
     1  C    0.156262  -0.039538  -0.051051   0.004952  -0.001832   0.006229
     2  H   -0.059781   0.004879  -0.003383  -0.000247  -0.000073   0.001536
     3  C   -0.153964  -0.013983   0.000729   0.000598  -0.000968  -0.000431
     4  C   -0.005674  -0.000328   0.002063   0.000027  -0.000079  -0.000036
     5  C   -0.007921   0.000021   0.000745  -0.000644   0.000483   0.000196
     6  C   -0.000459   0.000047  -0.000102  -0.000001   0.000002   0.000007
     7  H    0.000154  -0.000048   0.000255   0.000000   0.000000  -0.000006
     8  C    0.000704  -0.000026  -0.000073  -0.000015   0.000057   0.000002
     9  H   -0.001825   0.004612  -0.000273   0.000439   0.000949  -0.000100
    10  C    0.000098  -0.000004  -0.000013   0.000000   0.000002   0.000000
    11  H    0.000010   0.000000   0.000003   0.000000   0.000000   0.000000
    12  H    0.000018  -0.000002   0.000006  -0.000001  -0.000008   0.000001
    13  H   -0.000002   0.000000   0.000000   0.000000   0.000000   0.000000
    14  C   -0.102859  -0.014481   0.006576   0.000491  -0.003192  -0.000762
    15  C   -0.001524   0.001907   0.000423  -0.000091  -0.000912  -0.000016
    16  C   -0.005527  -0.007495  -0.000168   0.000010   0.000933   0.000024
    17  C   -0.000716   0.000230   0.000003  -0.000004  -0.000135   0.000001
    18  H    0.000480   0.000191   0.000107   0.000009  -0.000036  -0.000008
    19  C    0.000887  -0.001486   0.000023  -0.000031   0.000978   0.000000
    20  H   -0.000482   0.000369  -0.000026   0.000049   0.000125   0.000006
    21  C    0.000022   0.000080  -0.000001   0.000004   0.000047   0.000000
    22  H    0.000022  -0.000001   0.000000   0.000000   0.000001   0.000000
    23  H   -0.000007   0.000014  -0.000001   0.000001  -0.000001   0.000000
    24  H    0.000001  -0.000001   0.000000   0.000000   0.000001   0.000000
    25  C    5.365862   0.487078   0.472511  -0.064722  -0.042409  -0.065030
    26  C    0.487078   5.087968  -0.072203   0.471039   0.390264  -0.027881
    27  C    0.472511  -0.072203   5.072078  -0.031579   0.004201   0.466462
    28  C   -0.064722   0.471039  -0.031579   5.051121  -0.030074  -0.076865
    29  H   -0.042409   0.390264   0.004201  -0.030074   0.481048  -0.000184
    30  C   -0.065030  -0.027881   0.466462  -0.076865  -0.000184   5.050172
    31  H   -0.050653   0.004139   0.399613  -0.000338  -0.000248  -0.035598
    32  C   -0.018551  -0.093465  -0.086068   0.499398   0.004711   0.488576
    33  H    0.006187  -0.037563  -0.000423   0.395894  -0.003329   0.006000
    34  H    0.006694  -0.000523  -0.039638   0.006125   0.000020   0.397104
    35  H   -0.001479   0.007822   0.007370  -0.042194  -0.000182  -0.042963
             31         32         33         34         35
     1  C    0.001811   0.000984  -0.000326  -0.000350  -0.000012
     2  H    0.001020   0.000009   0.000013  -0.000026  -0.000002
     3  C    0.000584   0.000077   0.000005   0.000012  -0.000001
     4  C    0.001472  -0.000003   0.000000  -0.000001   0.000000
     5  C   -0.000049   0.000031   0.000013   0.000004  -0.000001
     6  C    0.000031   0.000000   0.000000   0.000000   0.000000
     7  H    0.000257   0.000000   0.000000  -0.000001   0.000000
     8  C   -0.000019   0.000003   0.000000   0.000000   0.000000
     9  H   -0.000038  -0.000013   0.000000   0.000001  -0.000001
    10  C   -0.000012   0.000000   0.000000   0.000000   0.000000
    11  H   -0.000003   0.000000   0.000000   0.000000   0.000000
    12  H    0.000000   0.000000   0.000000   0.000000   0.000000
    13  H    0.000000   0.000000   0.000000   0.000000   0.000000
    14  C    0.000702   0.000046   0.000038   0.000011  -0.000001
    15  C    0.000012  -0.000013   0.000007   0.000001   0.000000
    16  C   -0.000038  -0.000020   0.000029   0.000000   0.000001
    17  C    0.000001   0.000000   0.000001   0.000000   0.000000
    18  H    0.000003  -0.000004   0.000000   0.000000   0.000000
    19  C    0.000000   0.000000  -0.000001   0.000000   0.000000
    20  H    0.000007   0.000001  -0.000017   0.000000   0.000000
    21  C    0.000000   0.000000  -0.000001   0.000000   0.000000
    22  H    0.000000   0.000000   0.000000   0.000000   0.000000
    23  H    0.000000   0.000000   0.000000   0.000000   0.000000
    24  H    0.000000   0.000000   0.000000   0.000000   0.000000
    25  C   -0.050653  -0.018551   0.006187   0.006694  -0.001479
    26  C    0.004139  -0.093465  -0.037563  -0.000523   0.007822
    27  C    0.399613  -0.086068  -0.000423  -0.039638   0.007370
    28  C   -0.000338   0.499398   0.395894   0.006125  -0.042194
    29  H   -0.000248   0.004711  -0.003329   0.000020  -0.000182
    30  C   -0.035598   0.488576   0.006000   0.397104  -0.042963
    31  H    0.509723   0.005344   0.000024  -0.004288  -0.000185
    32  C    0.005344   5.033615  -0.040277  -0.040735   0.399203
    33  H    0.000024  -0.040277   0.516843  -0.000213  -0.004446
    34  H   -0.004288  -0.040735  -0.000213   0.518576  -0.004485
    35  H   -0.000185   0.399203  -0.004446  -0.004485   0.518539
 Mulliken atomic charges:
              1
     1  C   -0.580574
     2  H    0.204469
     3  C    0.092311
     4  C   -0.190151
     5  C   -0.111902
     6  C   -0.165715
     7  H    0.166937
     8  C   -0.172641
     9  H    0.179409
    10  C   -0.156535
    11  H    0.162067
    12  H    0.163396
    13  H    0.164013
    14  C    0.066651
    15  C   -0.149771
    16  C   -0.145622
    17  C   -0.166239
    18  H    0.170222
    19  C   -0.189245
    20  H    0.184480
    21  C   -0.151391
    22  H    0.162709
    23  H    0.162140
    24  H    0.163978
    25  C    0.086595
    26  C   -0.151633
    27  C   -0.148166
    28  C   -0.183351
    29  H    0.199843
    30  C   -0.166436
    31  H    0.166728
    32  C   -0.152846
    33  H    0.161541
    34  H    0.161713
    35  H    0.163015
 Sum of Mulliken atomic charges =   0.00000
 Mulliken charges with hydrogens summed into heavy atoms:
              1
     1  C   -0.376105
     3  C    0.092311
     4  C   -0.023215
     5  C    0.067507
     6  C   -0.003648
     8  C   -0.009245
    10  C    0.007478
    14  C    0.066651
    15  C    0.020451
    16  C    0.038858
    17  C   -0.003530
    19  C   -0.027105
    21  C    0.012588
    25  C    0.086595
    26  C    0.048210
    27  C    0.018562
    28  C   -0.021810
    30  C   -0.004723
    32  C    0.010169
 Sum of Mulliken charges with hydrogens summed into heavy atoms =   0.00000
 Electronic spatial extent (au):  <R**2>=           4939.1382
 Charge=              0.0000 electrons
 Dipole moment (field-independent basis, Debye):
    X=             -0.0121    Y=             -0.0690    Z=             -0.0416  Tot=              0.0815
 Quadrupole moment (field-independent basis, Debye-Ang):
   XX=           -110.5126   YY=           -114.0970   ZZ=           -102.9237
   XY=              0.8354   XZ=              2.2868   YZ=             -0.0504
 Traceless Quadrupole moment (field-independent basis, Debye-Ang):
   XX=             -1.3348   YY=             -4.9192   ZZ=              6.2541
   XY=              0.8354   XZ=              2.2868   YZ=             -0.0504
 Octapole moment (field-independent basis, Debye-Ang**2):
  XXX=             39.9400  YYY=             17.0763  ZZZ=             -0.1884  XYY=            -44.9008
  XXY=            -12.9795  XXZ=             -6.5004  XZZ=              0.9148  YZZ=             -5.0546
  YYZ=             10.5093  XYZ=              0.0903
 Hexadecapole moment (field-independent basis, Debye-Ang**3):
 XXXX=          -3095.5271 YYYY=          -2904.5700 ZZZZ=           -785.1354 XXXY=             -7.7931
 XXXZ=              2.5232 YYYX=              4.5283 YYYZ=             60.5916 ZZZX=              6.0178
 ZZZY=             -3.8552 XXYY=           -973.0024 XXZZ=           -631.7851 YYZZ=           -600.9271
 XXYZ=            -50.2178 YYXZ=             20.9004 ZZXY=             16.0770
 N-N= 1.288444289532D+03 E-N=-4.272899069378D+03  KE= 7.285909238116D+02
 PrsmSu:  requested number of processors reduced to:  10 ShMem   1 Linda.
 Calling FoFJK, ICntrl=      2127 FMM=F ISym2X=0 I1Cent= 0 IOpClX= 0 NMat=1 NMatS=1 NMatT=0.
 ***** Axes restored to original set *****
 -------------------------------------------------------------------
 Center     Atomic                   Forces (Hartrees/Bohr)
 Number     Number              X              Y              Z
 -------------------------------------------------------------------
      1        6          -0.007442444   -0.007312614    0.021435188
      2        1           0.009531699    0.009864826   -0.023770407
      3        6          -0.005123214    0.010474536    0.008023400
      4        6          -0.001093217   -0.002980360    0.005198425
      5        6           0.003924466   -0.003502339   -0.010348209
      6        6          -0.004973289    0.007695493    0.009838991
      7        1           0.003254279    0.008755470   -0.015061211
      8        6           0.003404843    0.004581273   -0.010931796
      9        1          -0.017166079    0.014913602    0.014766055
     10        6          -0.003342621    0.013107616    0.001412484
     11        1           0.006232520   -0.007405433   -0.013683540
     12        1          -0.002880337   -0.008653543    0.013900621
     13        1           0.003473300   -0.016461174    0.000329566
     14        6           0.010076617   -0.005192863    0.007115271
     15        6          -0.003342593   -0.003449565    0.004026384
     16        6          -0.001788714    0.010345849   -0.008405925
     17        6           0.005075190   -0.009170571    0.007765793
     18        1           0.010759418    0.008376387   -0.011351025
     19        6           0.007356662    0.005184615   -0.008108256
     20        1           0.015690268   -0.019010295    0.017994164
     21        6           0.012851254   -0.003878028    0.000796581
     22        1          -0.005322750    0.011676451   -0.010671294
     23        1          -0.010639513   -0.007469352    0.010480489
     24        1          -0.016245684    0.004287742   -0.000218888
     25        6          -0.008731316   -0.010410767   -0.005313417
     26        6           0.010622813    0.001948615   -0.002963366
     27        6          -0.004079739    0.000737883    0.004943169
     28        6           0.003551306   -0.002263774   -0.011411838
     29        1          -0.020436436   -0.007426842    0.003106845
     30        6          -0.012225974   -0.002448694    0.002947607
     31        1           0.007592370   -0.003783905   -0.015204242
     32        6          -0.006946011   -0.006328255   -0.009816686
     33        1          -0.006746384    0.003669990    0.014845546
     34        1           0.015845003    0.003856351   -0.003300870
     35        1           0.009284307    0.007671673    0.011634393
 -------------------------------------------------------------------
 Cartesian Forces:  Max     0.023770407 RMS     0.009553384

 GradGradGradGradGradGradGradGradGradGradGradGradGradGradGradGradGradGrad
 Berny optimization.
 Internal  Forces:  Max     0.029850096 RMS     0.007832059
 Search for a local minimum.
 Step number   1 out of a maximum of  197
 All quantities printed in internal units (Hartrees-Bohrs-Radians)
 Mixed Optimization -- RFO/linear search
 Second derivative matrix not updated -- first step.
     Eigenvalues ---    0.00633   0.00644   0.00654   0.01530   0.01533
     Eigenvalues ---    0.01536   0.02137   0.02140   0.02146   0.02167
     Eigenvalues ---    0.02170   0.02172   0.02181   0.02185   0.02186
     Eigenvalues ---    0.02201   0.02202   0.02203   0.02213   0.02213
     Eigenvalues ---    0.02215   0.02216   0.02216   0.02217   0.02217
     Eigenvalues ---    0.02218   0.02218   0.02219   0.02219   0.02222
     Eigenvalues ---    0.04522   0.06367   0.06678   0.15996   0.15999
     Eigenvalues ---    0.15999   0.16000   0.16000   0.16000   0.16000
     Eigenvalues ---    0.16000   0.16000   0.16000   0.16000   0.16000
     Eigenvalues ---    0.16000   0.16000   0.16000   0.18927   0.19364
     Eigenvalues ---    0.22000   0.22000   0.22000   0.22000   0.22000
     Eigenvalues ---    0.22000   0.23476   0.23476   0.23477   0.24996
     Eigenvalues ---    0.24999   0.25000   0.31168   0.31344   0.31428
     Eigenvalues ---    0.31503   0.33464   0.33614   0.33967   0.34072
     Eigenvalues ---    0.34078   0.34091   0.34240   0.34255   0.34258
     Eigenvalues ---    0.34261   0.34261   0.34282   0.34283   0.34283
     Eigenvalues ---    0.34286   0.42411   0.42423   0.42486   0.42566
     Eigenvalues ---    0.42580   0.42623   0.46335   0.46352   0.46431
     Eigenvalues ---    0.46757   0.46772   0.46837   0.47219   0.47229
     Eigenvalues ---    0.47255   0.47320   0.47331   0.473741000.00000
     Eigenvalues --- 1000.000001000.000001000.000001000.000001000.00000
     Eigenvalues --- 1000.000001000.000001000.000001000.000001000.00000
     Eigenvalues --- 1000.000001000.000001000.000001000.000001000.00000
     Eigenvalues --- 1000.000001000.000001000.000001000.000001000.00000
     Eigenvalues --- 1000.000001000.000001000.000001000.000001000.00000
     Eigenvalues --- 1000.000001000.000001000.000001000.000001000.00000
     Eigenvalues --- 1000.000001000.000001000.000001000.000001000.00000
     Eigenvalues --- 1000.000001000.000001000.000001000.000001000.00000
     Eigenvalues --- 1000.000001000.000001000.000001000.000001000.00000
     Eigenvalues --- 1000.000001000.000001000.000001000.000001000.00000
     Eigenvalues --- 1000.000001000.000001000.000001000.000001000.00000
     Eigenvalues --- 1000.000001000.000001000.000001000.000001000.00000
     Eigenvalues --- 1000.000001000.000001000.000001000.000001000.00000
     Eigenvalues --- 1000.000001000.000001000.000001000.000001000.00000
     Eigenvalues --- 1000.000001000.000001000.000001000.000001000.00000
     Eigenvalues --- 1000.000001000.000001000.000001000.000001000.00000
     Eigenvalues --- 1000.000001000.000001000.000001000.000001000.00000
     Eigenvalues --- 1000.000001000.00000
 RFO step:  Lambda=-4.28705562D-02 EMin= 6.32863803D-03
 Linear search not attempted -- first point.
 Maximum step size (   0.300) exceeded in Quadratic search.
    -- Step size scaled by   0.575
 Iteration  1 RMS(Cart)=  0.12576344 RMS(Int)=  0.00283988
 Iteration  2 RMS(Cart)=  0.00584742 RMS(Int)=  0.00028886
 Iteration  3 RMS(Cart)=  0.00000908 RMS(Int)=  0.00028881
 Iteration  4 RMS(Cart)=  0.00000000 RMS(Int)=  0.00028881
 Variable       Old X    -DE/DX   Delta X   Delta X   Delta X     New X
                                 (Linear)    (Quad)   (Total)
    R1        2.12393  -0.02743   0.00000  -0.04447  -0.04447   2.07945
    R2        2.85203   0.02259   0.00000   0.03635   0.03635   2.88838
    R3        2.85064   0.02562   0.00000   0.04114   0.04114   2.89178
    R4        2.85360   0.02085   0.00000   0.03363   0.03363   2.88723
    R5        2.63978  -0.00422   0.00000  -0.00473  -0.00472   2.63505
    R6        2.63790   0.00069   0.00000   0.00093   0.00094   2.63884
    R7        2.62741  -0.00279   0.00000  -0.00318  -0.00319   2.62422
    R8        2.07198  -0.01771   0.00000  -0.02654  -0.02654   2.04544
    R9        2.62600  -0.00461   0.00000  -0.00506  -0.00505   2.62095
   R10        2.07987  -0.02540   0.00000  -0.03853  -0.03853   2.04134
   R11        2.62752  -0.00829   0.00000  -0.00939  -0.00941   2.61811
   R12        2.06928  -0.01676   0.00000  -0.02501  -0.02501   2.04427
   R13        2.62816  -0.00554   0.00000  -0.00626  -0.00627   2.62189
   R14        2.06855  -0.01663   0.00000  -0.02478  -0.02478   2.04378
   R15        2.06856  -0.01683   0.00000  -0.02508  -0.02508   2.04348
   R16        2.64233  -0.00360   0.00000  -0.00406  -0.00404   2.63829
   R17        2.63790   0.00072   0.00000   0.00100   0.00101   2.63891
   R18        2.62634  -0.00362   0.00000  -0.00415  -0.00415   2.62219
   R19        2.07209  -0.01773   0.00000  -0.02657  -0.02657   2.04553
   R20        2.62719  -0.00324   0.00000  -0.00349  -0.00350   2.62369
   R21        2.08244  -0.02985   0.00000  -0.04545  -0.04545   2.03699
   R22        2.62812  -0.00845   0.00000  -0.00962  -0.00964   2.61848
   R23        2.06896  -0.01669   0.00000  -0.02489  -0.02489   2.04407
   R24        2.62698  -0.00676   0.00000  -0.00760  -0.00762   2.61936
   R25        2.06892  -0.01670   0.00000  -0.02490  -0.02490   2.04402
   R26        2.06856  -0.01680   0.00000  -0.02504  -0.02504   2.04352
   R27        2.63502  -0.00246   0.00000  -0.00272  -0.00272   2.63230
   R28        2.64325  -0.00428   0.00000  -0.00493  -0.00492   2.63833
   R29        2.62863  -0.00268   0.00000  -0.00291  -0.00292   2.62572
   R30        2.07386  -0.02181   0.00000  -0.03277  -0.03277   2.04109
   R31        2.62507  -0.00418   0.00000  -0.00472  -0.00472   2.62036
   R32        2.07176  -0.01740   0.00000  -0.02606  -0.02606   2.04570
   R33        2.62609  -0.00633   0.00000  -0.00703  -0.00703   2.61906
   R34        2.06902  -0.01671   0.00000  -0.02493  -0.02493   2.04409
   R35        2.62893  -0.00592   0.00000  -0.00668  -0.00668   2.62224
   R36        2.06892  -0.01664   0.00000  -0.02481  -0.02481   2.04411
   R37        2.06850  -0.01674   0.00000  -0.02495  -0.02495   2.04355
    A1        1.86837  -0.00595   0.00000  -0.03556  -0.03481   1.83356
    A2        1.85600  -0.00924   0.00000  -0.04559  -0.04465   1.81134
    A3        1.85804  -0.00025   0.00000  -0.01880  -0.01862   1.83942
    A4        1.97466   0.01469   0.00000   0.05363   0.05244   2.02711
    A5        1.92419  -0.00399   0.00000   0.00976   0.00742   1.93161
    A6        1.97423   0.00302   0.00000   0.02547   0.02356   1.99778
    A7        2.07832  -0.00630   0.00000  -0.01247  -0.01254   2.06578
    A8        2.12648   0.01646   0.00000   0.03221   0.03213   2.15862
    A9        2.07823  -0.01020   0.00000  -0.02004  -0.02005   2.05818
   A10        2.10040   0.00693   0.00000   0.01482   0.01482   2.11522
   A11        2.09462  -0.00408   0.00000  -0.00914  -0.00915   2.08547
   A12        2.08816  -0.00285   0.00000  -0.00568  -0.00569   2.08247
   A13        2.10348   0.00381   0.00000   0.00846   0.00839   2.11187
   A14        2.07570   0.00413   0.00000   0.01304   0.01292   2.08861
   A15        2.10379  -0.00787   0.00000  -0.02098  -0.02109   2.08270
   A16        2.09796  -0.00011   0.00000  -0.00101  -0.00104   2.09693
   A17        2.09116   0.00021   0.00000   0.00093   0.00094   2.09210
   A18        2.09406  -0.00009   0.00000   0.00008   0.00009   2.09415
   A19        2.09578   0.00212   0.00000   0.00426   0.00425   2.10003
   A20        2.09155  -0.00096   0.00000  -0.00183  -0.00184   2.08971
   A21        2.09585  -0.00117   0.00000  -0.00242  -0.00243   2.09342
   A22        2.09047  -0.00254   0.00000  -0.00634  -0.00637   2.08409
   A23        2.09616   0.00130   0.00000   0.00328   0.00328   2.09944
   A24        2.09656   0.00123   0.00000   0.00308   0.00308   2.09963
   A25        2.06602  -0.01294   0.00000  -0.02542  -0.02544   2.04058
   A26        2.14188   0.02505   0.00000   0.04916   0.04914   2.19102
   A27        2.07528  -0.01211   0.00000  -0.02373  -0.02370   2.05158
   A28        2.10298   0.00830   0.00000   0.01759   0.01761   2.12060
   A29        2.09377  -0.00487   0.00000  -0.01085  -0.01086   2.08291
   A30        2.08643  -0.00343   0.00000  -0.00674  -0.00676   2.07967
   A31        2.10367   0.00440   0.00000   0.00978   0.00978   2.11345
   A32        2.08534   0.00422   0.00000   0.01331   0.01331   2.09865
   A33        2.09415  -0.00863   0.00000  -0.02312  -0.02312   2.07102
   A34        2.09757   0.00003   0.00000  -0.00100  -0.00100   2.09657
   A35        2.09150   0.00005   0.00000   0.00068   0.00068   2.09218
   A36        2.09411  -0.00008   0.00000   0.00032   0.00032   2.09444
   A37        2.09776   0.00243   0.00000   0.00498   0.00495   2.10271
   A38        2.09023  -0.00116   0.00000  -0.00233  -0.00232   2.08791
   A39        2.09520  -0.00127   0.00000  -0.00265  -0.00264   2.09256
   A40        2.08911  -0.00305   0.00000  -0.00761  -0.00765   2.08146
   A41        2.09681   0.00153   0.00000   0.00382   0.00383   2.10064
   A42        2.09727   0.00152   0.00000   0.00379   0.00381   2.10108
   A43        2.14102   0.00960   0.00000   0.01894   0.01893   2.15995
   A44        2.06460  -0.00206   0.00000  -0.00395  -0.00395   2.06065
   A45        2.07754  -0.00755   0.00000  -0.01499  -0.01498   2.06256
   A46        2.10160   0.00314   0.00000   0.00685   0.00684   2.10844
   A47        2.09260   0.00057   0.00000   0.00263   0.00263   2.09522
   A48        2.08896  -0.00371   0.00000  -0.00950  -0.00950   2.07945
   A49        2.10233   0.00529   0.00000   0.01109   0.01110   2.11343
   A50        2.09275  -0.00324   0.00000  -0.00722  -0.00723   2.08552
   A51        2.08809  -0.00205   0.00000  -0.00387  -0.00388   2.08421
   A52        2.09864   0.00130   0.00000   0.00275   0.00273   2.10137
   A53        2.08968  -0.00060   0.00000  -0.00123  -0.00123   2.08845
   A54        2.09487  -0.00070   0.00000  -0.00151  -0.00151   2.09336
   A55        2.09700   0.00011   0.00000  -0.00033  -0.00033   2.09667
   A56        2.09195   0.00000   0.00000   0.00031   0.00031   2.09226
   A57        2.09424  -0.00010   0.00000   0.00002   0.00002   2.09426
[...]
 39098,-0.00026011,0.00003462,0.00000652,0.00000387,0.00007070,-0.00052
 518,-0.00035773,-0.00033748,0.00013304,-0.00013020,0.00006688,0.000027
 13,0.00047840,-0.00004313,-0.00000955,0.00001312,0.00002679,-0.0000009
 0,-0.00000707,-0.00000723,-0.00000692,-0.00000631,0.00026557,-0.000117
 94,0.00127054,-0.00023817,-0.00003254,-0.00032527,0.00045284,-0.000078
 62,-0.00014178,0.00040169,-0.00002657,-0.00014569,-0.00005301,-0.00000
 313,0.00010833,-0.00024570,0.00016902,-0.00012976,0.00003460,0.0000473
 0,0.00003379,-0.00005777,-0.00027067,0.00020577,0.00001512,0.00000223,
 -0.00000525,-0.00000237,-0.00000055,0.00000749,-0.00001277,0.00000220,
 0.00000563,-0.08866304,0.00547032,0.06143583,-0.00426960,-0.04258090,-
 0.08633685,-0.02612179,-0.09535513,-0.24607078,0.09907383,0.03405569,0
 .02696960,-0.00024120,-0.00003062,-0.00126556,-0.06852939,0.22024937,0
 .62372661,0.00089069,0.00125347,0.00154220,-0.00026575,0.00002706,-0.0
 0140480,0.00012880,-0.00025489,-0.00010138,-0.00001034,-0.00008273,-0.
 00004330,0.00003178,0.00006596,0.00021828,0.00001998,-0.00004660,-0.00
 007025,-0.00004403,-0.00001929,-0.00003641,-0.00001057,-0.00002898,-0.
 00002105,-0.00002289,0.00004675,-0.00005934,-0.00003326,0.00004401,-0.
 00000533,0.00000135,0.00001293,0.00001268,-0.00000708,0.00002870,-0.00
 002030,0.00000133,0.00001975,-0.00000756,0.00009934,0.00028876,-0.0003
 6536,-0.00000294,-0.00008338,0.00001346,0.00020316,-0.00009954,-0.0000
 5076,0.00001294,-0.00000013,-0.00000980,-0.00002451,0.00005106,0.00001
 248,0.00005798,0.00004154,-0.00000898,-0.00000817,0.00001766,0.0000160
 1,0.00002371,-0.00000647,0.00000118,0.00000807,-0.00000554,0.00000919,
 0.00002596,0.00000618,0.00000545,0.00001192,0.00000204,0.00000227,-0.0
 1042309,0.01249979,0.03093015,-0.00607393,-0.00319329,0.00071064,-0.13
 577604,0.04036322,0.11549529,-0.00070190,-0.00041227,-0.00089004,-0.00
 061149,0.00065034,0.00149174,0.01325476,-0.00816191,-0.01863148,0.1389
 8377,0.00029043,-0.00294856,0.00112611,-0.00041571,0.00025514,0.000844
 05,-0.00023303,-0.00011670,-0.00020193,0.00012763,-0.00020401,-0.00013
 626,0.00010120,0.00001216,-0.00000441,-0.00003066,0.00000424,-0.000084
 26,-0.00001045,0.00000368,0.00001830,0.00006704,-0.00010720,0.00003259
 ,-0.00006082,0.00007666,0.00005817,-0.00000820,0.00000458,0.00005899,-
 0.00000439,0.00000247,0.00001463,-0.00000827,-0.00000318,-0.00000632,-
 0.00000520,0.00001464,0.00000374,0.00008580,0.00016585,0.00025560,0.00
 015198,0.00009101,-0.00009411,0.00001305,0.00000778,0.00004838,-0.0000
 3028,-0.00003506,0.00000636,-0.00000339,-0.00002688,0.00003211,-0.0000
 0475,-0.00004807,-0.00001165,-0.00001135,-0.00000755,0.00002080,0.0000
 2657,0.00000792,0.00000230,0.00001676,-0.00001002,0.00000493,0.0000033
 1,-0.00000442,-0.00000591,0.00000054,-0.00000321,0.00000430,-0.0042316
 7,0.00722152,0.00525487,-0.00294495,0.00589392,-0.00272162,0.04054245,
 -0.08599415,-0.08870413,-0.00035721,-0.00081005,0.00045796,-0.00020005
 ,0.00004447,0.00033449,0.01034073,-0.00003982,-0.01506967,-0.04090854,
 0.07598345,-0.00140874,0.00176240,-0.00009652,0.00014146,0.00015596,0.
 00039299,0.00016337,0.00002268,0.00050584,-0.00011459,0.00028960,0.000
 12573,-0.00018307,-0.00002823,-0.00012874,0.00002139,-0.00006306,0.000
 10777,0.00002094,-0.00000848,-0.00003156,-0.00009124,0.00016907,0.0000
 3690,0.00012864,-0.00007358,-0.00005710,-0.00002056,0.00001952,-0.0000
 9483,0.00000667,0.00001146,-0.00000762,0.00002047,0.00000544,-0.000005
 42,0.00001315,-0.00000085,-0.00000349,-0.00008057,-0.00018773,0.000157
 73,-0.00000288,0.00001746,0.00004452,-0.00009091,0.00003479,0.00001787
 ,-0.00000355,0.00003281,-0.00001811,0.00000749,-0.00000107,-0.00002061
 ,-0.00003140,-0.00001670,0.00002517,0.00000861,-0.00000065,-0.00002958
 ,0.00000995,-0.00000459,0.00000251,-0.00000318,-0.00000445,-0.00000404
 ,-0.00000218,0.00000233,-0.00000679,0.00000308,-0.00000172,-0.00000399
 ,-0.00165930,-0.00366047,-0.00052979,0.00104180,-0.00240343,0.00314480
 ,0.11605840,-0.08785638,-0.26741081,-0.00078462,0.00052246,0.00035686,
 0.00001633,-0.00009214,-0.00018308,0.01594890,-0.00695773,-0.01440338,
 -0.12571567,0.10116251,0.27937204,-0.00014898,0.00170449,0.00141760,0.
 00028906,0.00039444,-0.00085287,0.00096501,0.00038101,0.00008908,0.000
 28292,-0.00040436,-0.00013741,0.00025589,0.00009423,-0.00001681,-0.000
 15059,0.00025573,-0.00021157,0.00000499,0.00001300,0.00000510,-0.00000
 034,-0.00038456,-0.00028244,-0.00027042,0.00006539,-0.00035244,0.00005
 267,-0.00000170,0.00034099,-0.00004169,-0.00001940,0.00000872,0.000024
 44,-0.00003313,0.00000006,0.00000053,-0.00001414,-0.00000975,0.0001235
 5,-0.00053792,0.00036206,-0.00041564,-0.00003165,-0.00026177,0.0004189
 1,-0.00000768,-0.00017853,0.00045396,-0.00001040,-0.00008531,-0.000023
 16,0.00000103,0.00007970,-0.00024775,0.00026089,-0.00009322,0.00002870
 ,0.00002656,0.00000013,-0.00015954,-0.00028785,0.00021944,-0.00000963,
 0.00001864,-0.00002459,-0.00002378,-0.00000412,0.00001226,-0.00002337,
 0.00000153,-0.00000425,-0.07842805,0.00849841,0.05017878,-0.03106104,-
 0.05544089,-0.08641972,0.09286241,0.02809628,0.01698155,-0.35670918,-0
 .02978331,0.07118051,0.00065302,-0.00275862,-0.00163126,-0.20011179,-0
 .00609397,0.04400846,-0.00109451,-0.00392765,-0.00275093,0.74305457,0.
 00067383,-0.00095323,0.00018848,-0.00011791,-0.00005646,0.00015775,-0.
 00054449,0.00015066,-0.00033391,-0.00000420,-0.00017476,0.00007875,0.0
 0005227,-0.00002630,-0.00010752,0.00003812,-0.00000402,-0.00002554,-0.
 00001365,0.00001833,0.00000689,0.00001014,0.00001039,0.00008367,0.0000
 2177,0.00000943,0.00006455,-0.00000113,-0.00002899,-0.00001938,0.00001
 015,-0.00002425,-0.00000596,-0.00000110,-0.00001673,0.00000570,0.00000
 228,-0.00000293,0.00000854,0.00008252,-0.00000336,-0.00010078,-0.00002
 921,-0.00006307,0.00003371,-0.00000184,0.00005522,-0.00005878,-0.00000
 191,-0.00001036,0.00003227,0.00003568,-0.00003740,0.00000814,0.0000181
 9,0.00000461,-0.00000554,0.00000066,-0.00001042,-0.00000316,-0.0000414
 9,0.00002024,0.00000800,-0.00002415,0.00001106,-0.00002289,-0.00001537
 ,-0.00000465,-0.00000202,-0.00001204,-0.00000139,-0.00000378,0.0092249
 7,-0.00586146,-0.00223793,-0.02372010,0.00692185,0.00559766,-0.0029101
 9,-0.00556281,-0.02812620,-0.07157162,-0.11115715,-0.01756124,-0.00280
 363,0.00496665,-0.00589297,0.03501487,-0.12537862,-0.09482062,-0.00363
 675,0.00527860,-0.00549314,0.13430227,0.34677666,0.00076512,-0.0010937
 6,-0.00110052,-0.00058801,-0.00047961,0.00042771,-0.00118039,0.0001371
 8,-0.00024877,-0.00020073,0.00004184,0.00029849,-0.00015896,-0.0003329
 8,-0.00020964,0.00015359,-0.00020315,0.00012384,-0.00001225,0.00002118
 ,0.00001089,-0.00002003,0.00029627,0.00020026,0.00010295,-0.00008913,0
 .00000640,-0.00002118,-0.00010691,-0.00027459,0.00003855,-0.00002968,-
 0.00001354,-0.00002407,-0.00006500,0.00003324,0.00000770,-0.00001051,0
 .00000591,0.00007647,0.00012824,-0.00043561,0.00015986,0.00001745,0.00
 021442,-0.00032595,0.00009646,0.00000442,-0.00026421,0.00001773,0.0000
 9825,0.00004081,-0.00003436,-0.00006324,0.00018004,-0.00014606,0.00004
 288,-0.00000476,-0.00000697,-0.00001096,0.00000827,0.00019180,-0.00011
 204,-0.00002021,0.00000231,-0.00001288,-0.00001783,-0.00000664,-0.0000
 0721,-0.00000380,0.00000122,-0.00000752,0.05141081,-0.00089965,-0.0350
 0627,-0.02526179,0.02038395,0.06030368,-0.04471836,-0.04259121,-0.0510
 4434,-0.00585543,-0.03709345,-0.14958432,-0.00199310,-0.00615425,-0.00
 139856,0.12127444,-0.07510136,-0.28252203,-0.00208412,-0.00520323,0.00
 019043,-0.01556874,0.25927877,0.66898726,0.00051507,-0.00013472,-0.000
 59773,-0.00005484,-0.00007036,-0.00016178,-0.00002736,0.00000239,-0.00
 004785,-0.00000569,-0.00002242,-0.00001351,0.00000152,0.00001048,0.000
 01422,0.00000510,-0.00000322,-0.00000450,-0.00000369,-0.00000047,0.000
 00500,0.00000960,-0.00001062,0.00001417,-0.00000032,-0.00001892,0.0000
 1888,0.00000030,-0.00000021,0.00000050,0.00000103,-0.00000025,0.000000
 54,-0.00000226,0.00000473,-0.00000154,-0.00000193,0.00000282,0.0000018
 2,0.00009131,0.00004288,0.00006710,-0.00001099,0.00001361,0.00000429,0
 .00000430,-0.00000597,0.00004040,-0.00000060,0.00001260,-0.00000152,-0
 .00000198,-0.00000175,-0.00000975,-0.00001808,0.00000352,0.00000943,0.
 00000130,-0.00000989,-0.00000778,-0.00002033,0.00000834,0.00000432,-0.
 00000179,-0.00000224,-0.00000243,-0.00000196,-0.00000326,-0.00000667,0
 .00000170,-0.00000277,-0.00000394,-0.00108740,-0.00372087,-0.00233348,
 0.01318024,-0.00791052,-0.01833867,-0.00080717,-0.00041153,-0.00089128
 ,-0.13744800,0.04106916,0.11747297,0.00101882,0.00145236,-0.00005558,-
 0.00582631,-0.00331253,0.00069093,0.00000288,0.00027929,-0.00005288,-0
 .00919093,0.01337412,0.03172495,0.13940815,0.00044891,-0.00018645,-0.0
 0047606,-0.00013686,-0.00017641,-0.00018060,-0.00003800,0.00015011,-0.
 00011935,0.00003010,-0.00009996,0.00002765,-0.00003778,-0.00009406,-0.
 00004742,-0.00000479,0.00000224,-0.00000550,0.00000820,0.00000658,0.00
 001948,-0.00000818,0.00000798,-0.00000116,0.00002256,0.00004164,-0.000
 03330,0.00000516,-0.00002093,0.00000584,-0.00000057,-0.00001030,-0.000
 00032,0.00000845,-0.00002719,0.00000778,0.00000442,-0.00000553,0.00000
 003,0.00021243,-0.00002368,0.00006571,0.00001366,0.00002986,0.00001494
 ,-0.00009593,0.00003691,0.00001525,-0.00002931,-0.00001446,0.00000336,
 -0.00000578,-0.00001342,0.00001932,0.00002321,-0.00002162,0.00001867,0
 .00000671,-0.00001611,-0.00001086,-0.00001105,0.00003070,-0.00001253,0
 .00000003,0.00000120,0.00000496,-0.00001923,-0.00001042,-0.00000324,-0
 .00000612,0.00000165,-0.00000218,-0.00379643,0.00509328,-0.00486296,0.
 01034635,-0.00007293,-0.01520615,-0.00036214,-0.00078200,0.00050436,0.
 04120631,-0.08642086,-0.08943877,0.00074419,-0.00341519,0.00260620,-0.
 00309956,0.00661529,-0.00291811,0.00029373,-0.00092907,0.00047493,-0.0
 0505728,0.00746562,0.00578768,-0.04201796,0.07626324,0.00099833,0.0000
 9181,-0.00047765,-0.00009508,-0.00015416,-0.00025377,-0.00017833,0.000
 08465,-0.00016451,-0.00000127,-0.00011380,0.00003779,-0.00000089,-0.00
 006903,0.00003805,0.00001586,-0.00001944,-0.00000628,-0.00000028,0.000
 01393,0.00001186,-0.00000963,0.00001704,-0.00001878,0.00001692,0.00002
 804,-0.00004020,0.00000066,-0.00002615,-0.00001500,0.00000471,-0.00001
 848,-0.00001158,0.00000949,-0.00001498,0.00001092,0.00000253,-0.000016
 17,-0.00000226,0.00020149,-0.00009693,0.00003163,-0.00008314,0.0000224
 4,-0.00000635,-0.00001997,0.00004398,-0.00000886,0.00003250,0.00000327
 ,0.00002401,0.00001814,-0.00002943,-0.00000027,-0.00002096,0.00002901,
 0.00001208,0.00001806,-0.00000305,-0.00001274,-0.00007221,0.00000682,0
 .00003059,-0.00001900,0.00001367,-0.00002762,-0.00002415,-0.00001282,-
 0.00000615,-0.00002116,-0.00000317,-0.00001229,-0.00272042,-0.00534801
 ,-0.00001715,0.01571856,-0.00661190,-0.01410888,-0.00101124,0.00046513
 ,0.00036246,0.11728548,-0.08934786,-0.26985905,-0.00104945,0.00240007,
 -0.00003952,0.00114853,-0.00275416,0.00329045,-0.00004442,0.00047691,-
 0.00036038,-0.00238441,-0.00276952,0.00156027,-0.12770856,0.10114150,0
 .28036989,-0.00064597,0.00015835,0.00050713,0.00000048,-0.00001254,-0.
 00005398,-0.00011291,0.00013981,-0.00009858,0.00003307,-0.00009313,0.0
 0002771,0.00002666,-0.00005342,0.00003887,0.00001483,-0.00001420,-0.00
 001219,-0.00001088,0.00001257,0.00000690,0.00000012,0.00001301,-0.0000
 2547,-0.00001770,0.00004060,-0.00003315,0.00001119,-0.00003073,-0.0000
 1469,-0.00000480,-0.00002042,-0.00001125,-0.00000572,-0.00001751,0.000
 01625,-0.00000227,-0.00001920,-0.00000253,0.00008097,-0.00021406,-0.00
 019538,-0.00007287,-0.00002150,0.00001086,-0.00007465,0.00005667,-0.00
 003798,0.00000780,-0.00001743,0.00001899,0.00001327,-0.00001211,0.0000
 1125,0.00001622,0.00001291,0.00000733,0.00000768,0.00000487,0.00000210
 ,-0.00002637,0.00000792,-0.00000471,-0.00001474,0.00001757,-0.00000544
 ,-0.00001758,-0.00000391,0.00000697,-0.00001536,0.00000375,-0.00000101
 ,0.00084632,-0.00311054,-0.00191915,0.00094310,0.00026863,-0.00036710,
 -0.01221521,-0.00063669,0.00727517,0.00102296,-0.00009376,0.00348231,-
 0.00016299,0.00022702,-0.00009754,-0.35624075,-0.05539611,0.04256372,0
 .00095495,0.00091248,-0.00122350,-0.00988463,-0.00534481,-0.00269524,-
 0.00071336,-0.00015868,-0.00002218,0.37537443,-0.00068651,-0.00002758,
 0.00032297,0.00003190,0.00005141,0.00005553,-0.00010268,0.00005148,-0.
 00007772,-0.00000595,-0.00005270,0.00001496,0.00002777,-0.00004535,0.0
 0000097,0.00001709,-0.00000185,-0.00000450,-0.00000796,0.00000411,0.00
 001192,0.00002217,-0.00000064,-0.00001522,-0.00004244,0.00001645,-0.00
 000399,0.00001540,-0.00003421,-0.00000208,-0.00000228,-0.00000824,-0.0
 0000108,-0.00001117,-0.00002006,0.00001406,-0.00000739,-0.00000788,0.0
 0000015,-0.00007980,-0.00029388,-0.00015141,-0.00004554,0.00004010,-0.
 00004179,-0.00000942,0.00002367,-0.00001141,0.00005832,-0.00000393,0.0
 0001168,0.00000249,-0.00000194,0.00000700,-0.00003508,0.00004064,0.000
 00420,-0.00000023,-0.00001153,-0.00000812,-0.00003849,-0.00003982,0.00
 002396,0.00000081,0.00000317,-0.00000336,-0.00001118,-0.00000093,0.000
 00479,-0.00000528,-0.00000021,-0.00000120,-0.00262185,0.00510159,-0.00
 605321,0.00038753,-0.00092498,-0.00018654,-0.01896067,0.00268905,0.003
 54604,-0.00037030,0.00571474,-0.00535425,0.00016536,-0.00091350,0.0005
 5464,-0.05532771,-0.06401347,-0.00233745,0.00151337,-0.00348724,0.0024
 4666,0.01285552,0.00742941,-0.00240218,0.00058438,0.00003502,-0.000054
 72,0.06194744,0.05194846,-0.00110826,0.00004829,0.00036946,0.00005021,
 0.00005654,-0.00002509,0.00001098,0.00011733,0.00001204,0.00003994,-0.
 00004552,-0.00002428,0.00000931,-0.00000758,0.00000557,-0.00000121,0.0
 0000667,-0.00001670,-0.00000862,0.00000323,0.00000080,-0.00000556,-0.0
 0001986,0.00000907,0.00000939,-0.00000621,-0.00001338,0.00000407,-0.00
 000151,0.00001154,-0.00000578,-0.00000646,-0.00000211,0.00000368,0.000
 00152,-0.00000241,0.00000053,-0.00000117,0.00000093,0.00004319,-0.0001
 5981,-0.00022175,-0.00003792,-0.00000690,0.00003158,-0.00006899,0.0000
 3403,0.00001365,-0.00002043,0.00000616,0.00001634,0.00000720,-0.000003
 84,-0.00001513,0.00001480,0.00000070,0.00002565,0.00000094,-0.00000853
 ,-0.00000973,-0.00001795,0.00002340,-0.00001327,-0.00000963,0.00000610
 ,-0.00000356,-0.00000843,-0.00000277,-0.00000235,-0.00000335,-0.000000
 39,-0.00000410,-0.00150842,-0.00605553,-0.00135246,-0.00031875,-0.0002
 2233,-0.00121950,-0.02699631,-0.00525395,0.00874070,0.00299677,-0.0054
 4118,-0.00301832,-0.00011958,0.00054518,-0.00018602,0.04278646,-0.0022
 5263,-0.07373753,-0.00008113,0.00267920,-0.00011205,0.03136651,0.00631
 741,0.00236633,0.00143450,0.00030375,-0.00016752,-0.04715469,0.0071330
 5,0.06856760,0.00005315,0.00026914,-0.00007030,0.00000603,-0.00002686,
 -0.00012096,0.00000182,0.00004455,0.00000388,0.00000705,-0.00001893,0.
 00000858,0.00001856,-0.00001738,0.00003771,0.00000308,-0.00000668,-0.0
 0000003,-0.00000302,0.00000366,0.00000078,-0.00000574,0.00000801,-0.00
 002462,-0.00002039,0.00002579,-0.00002306,-0.00000067,-0.00000900,-0.0
 0000449,-0.00000110,-0.00000620,-0.00000525,0.00000265,-0.00000439,0.0
 0000501,0.00000086,-0.00000866,-0.00000260,0.00003565,-0.00002663,-0.0
 0002906,-0.00000679,-0.00004657,0.00000884,-0.00001622,0.00001622,-0.0
 0006241,-0.00000248,-0.00001652,0.00001242,0.00000750,-0.00000187,0.00
 000844,0.00004186,-0.00000674,-0.00001151,0.00000609,0.00002050,0.0000
 1380,-0.00000053,0.00001644,-0.00000003,-0.00000719,0.00001034,-0.0000
 0812,-0.00000841,-0.00000366,0.00000565,-0.00001263,0.00000300,-0.0000
 0209,-0.00077104,0.00052277,0.00088066,-0.00551492,-0.00204650,0.00292
 726,-0.00059666,-0.00024945,0.00397480,-0.01081594,-0.01889859,-0.0277
 5823,-0.00072015,-0.00079757,-0.00119167,0.01336728,0.00998329,0.01472
 795,0.00039712,0.00043733,0.00060912,-0.15147563,-0.08206624,-0.104924
 39,0.00098367,0.00151124,0.00001551,0.00088468,0.00074237,-0.00130347,
 0.15416244,0.00015729,-0.00086400,0.00036657,-0.00007626,0.00001567,0.
 00013682,-0.00008896,-0.00000278,-0.00016251,0.00001756,-0.00007012,0.
 00002718,0.00001266,-0.00004441,-0.00000181,0.00000825,-0.00001020,-0.
 00000505,-0.00000011,0.00000478,0.00000842,-0.00000106,0.00002431,-0.0
 0002244,-0.00001809,0.00004214,-0.00002672,0.00000337,-0.00001815,-0.0
 0000840,0.00000026,-0.00000986,-0.00000339,-0.00000197,-0.00001976,0.0
 0001149,-0.00000096,-0.00001007,-0.00000215,-0.00000719,-0.00004082,-0
 .00001762,-0.00001080,-0.00002271,-0.00003642,0.00000623,0.00002012,-0
 .00003378,0.00000958,-0.00002022,0.00000357,-0.00000255,-0.00000210,0.
 00001697,0.00001463,0.00000535,-0.00000185,0.00000243,0.00000111,0.000
 00826,-0.00001138,0.00000412,0.00000324,0.00000034,0.00000599,0.000002
 36,-0.00000911,-0.00000542,0.00000142,-0.00000732,0.00000240,0.0000006
 4,0.00058913,-0.00037752,0.00077785,-0.00237418,0.00696462,-0.00268266
 ,0.00003190,0.00627811,-0.00451717,-0.00035258,0.00220622,-0.00543196,
 -0.00002958,-0.00018406,-0.00017231,-0.00829544,-0.00033302,-0.0061397
 9,-0.00028600,-0.00029289,-0.00027568,-0.08217082,-0.12974037,-0.11435
 198,0.00079981,-0.00344075,0.00262550,0.00144715,-0.00325939,0.0022136
 0,0.09064376,0.12319371,-0.00013406,0.00049778,-0.00014932,0.00006641,
 -0.00002805,-0.00001564,-0.00003460,0.00008161,0.00004909,-0.00000790,
 -0.00000085,0.00002208,-0.00001220,-0.00002890,0.00002224,0.00000310,-
 0.00000741,0.00001361,0.00000563,0.00000717,0.00000297,-0.00000735,0.0
 0002009,-0.00001672,0.00001108,0.00001387,-0.00002266,0.00000283,-0.00
 000990,-0.00001348,0.00000011,-0.00000753,-0.00000872,0.00000189,-0.00
 000563,0.00000817,0.00000142,-0.00001247,-0.00000199,0.00005776,-0.000
 07601,-0.00000400,-0.00003275,0.00001469,0.00000865,-0.00005476,0.0000
 2593,-0.00000592,0.00000543,-0.00000929,0.00001036,0.00001314,-0.00001
 547,0.00000708,0.00000009,0.00000289,-0.00000255,0.00000784,0.00000714
 ,-0.00000161,-0.00001258,0.00000080,-0.00000012,-0.00000898,0.00000940
 ,-0.00000802,-0.00000928,-0.00000215,0.00000410,-0.00001074,0.00000150
 ,-0.00000097,0.00086228,0.00065587,-0.00019218,0.00230800,-0.00277489,
 0.00279720,0.00457054,-0.00438686,-0.00176239,0.00641185,0.00316463,0.
 00814127,0.00018203,0.00016843,0.00014418,-0.01942927,-0.01491773,-0.0
 1362835,-0.00080954,-0.00065381,-0.00097326,-0.10498494,-0.11427940,-0
 .21282265,-0.00126457,0.00229710,-0.00016320,0.00000021,0.00255766,-0.
 00002399,0.11230188,0.12768978,0.21858674||0.00001539,-0.00001342,-0.0
 0000283,-0.00000594,0.00000353,-0.00000157,0.00000541,0.00000647,-0.00
 000129,-0.00000396,0.00000047,0.00000055,0.00000056,-0.00001722,0.0000
 1048,0.00000474,-0.00000358,-0.00000073,0.00000092,-0.00000116,0.00000
 084,-0.00000450,0.00001294,0.00000796,-0.00000032,0.00000050,-0.000004
 28,0.00000221,0.00000305,-0.00001039,-0.00000186,-0.00000011,0.0000012
 0,0.00000239,-0.00000076,-0.00000279,-0.00000109,0.00000108,0.00000135
 ,-0.00000302,0.00003637,-0.00002852,0.00003034,-0.00002634,0.00001392,
 -0.00005672,-0.00001630,0.00001300,-0.00004142,-0.00000405,0.00001025,
 -0.00000483,0.00000205,-0.00000118,0.00003955,-0.00003261,0.00001773,0
 .00000027,0.00000807,-0.00000196,0.00001467,0.00003686,-0.00002792,0.0
 0000294,0.00000004,-0.00000076,-0.00000230,0.00000331,-0.00000241,0.00
 000086,-0.00000300,0.00000213,0.00002356,0.00000517,-0.00002307,0.0000
 0155,0.00002392,0.00004206,-0.00002698,-0.00001640,-0.00000527,-0.0000
 3618,-0.00002326,-0.00001274,0.00000616,-0.00000254,-0.00000014,0.0000
 0421,0.00001157,0.00003648,0.00000344,0.00000176,0.00000208,0.00003229
 ,0.00000462,-0.00002886,0.00000309,0.00000158,0.00000004,-0.00000058,-
 0.00000209,-0.00000448,-0.00000484,-0.00000054,0.00000112|||@


 AS FAR AS THE LAWS OF MATHEMATICS REFER TO REALITY,
 THEY ARE NOT CERTAIN; AND AS FAR AS THEY ARE CERTAIN,
 THEY DO NOT REFER TO REALITY.

                                         -- ALBERT EINSTEIN
 Job cpu time:  0 days  0 hours  6 minutes 40.0 seconds.
 File lengths (MBytes):  RWF=    350 Int=      0 D2E=      0 Chk=      7 Scr=      1
 Normal termination of Gaussian 09 at Mon Sep 06 21:00:35 2021.
