 Entering Link 1 = b:\programy\g09w\l1.exe PID=     15184.
  
 Copyright (c) 1988,1990,1992,1993,1995,1998,2003,2009, Gaussian, Inc.
                  All Rights Reserved.
  
 This is part of the Gaussian(R) 09 program.  It is based on
 the Gaussian(R) 03 system (copyright 2003, Gaussian, Inc.),
 the Gaussian(R) 98 system (copyright 1998, Gaussian, Inc.),
 the Gaussian(R) 94 system (copyright 1995, Gaussian, Inc.),
 the Gaussian 92(TM) system (copyright 1992, Gaussian, Inc.),
 the Gaussian 90(TM) system (copyright 1990, Gaussian, Inc.),
 the Gaussian 88(TM) system (copyright 1988, Gaussian, Inc.),
 the Gaussian 86(TM) system (copyright 1986, Carnegie Mellon
 University), and the Gaussian 82(TM) system (copyright 1983,
 Carnegie Mellon University). Gaussian is a federally registered
 trademark of Gaussian, Inc.
  
 This software contains proprietary and confidential information,
 including trade secrets, belonging to Gaussian, Inc.
  
 This software is provided under written license and may be
 used, copied, transmitted, or stored only in accord with that
 written license.
  
 The following legend is applicable only to US Government
 contracts under FAR:
  
                    RESTRICTED RIGHTS LEGEND
  
 Use, reproduction and disclosure by the US Government is
 subject to restrictions as set forth in subparagraphs (a)
 and (c) of the Commercial Computer Software - Restricted
 Rights clause in FAR 52.227-19.
  
 Gaussian, Inc.
 340 Quinnipiac St., Bldg. 40, Wallingford CT 06492
  
  
 ---------------------------------------------------------------
 Warning -- This program may not be used in any manner that
 competes with the business of Gaussian, Inc. or will provide
 assistance to any competitor of Gaussian, Inc.  The licensee
 of this program is prohibited from giving any competitor of
 Gaussian, Inc. access to this program.  By using this program,
 the user acknowledges that Gaussian, Inc. is engaged in the
 business of creating and licensing software in the field of
 computational chemistry and represents and warrants to the
 licensee that it is not a competitor of Gaussian, Inc. and that
 it will not use this program in any manner prohibited above.
 ---------------------------------------------------------------
  

 Cite this work as:
 Gaussian 09, Revision A.02,
 M. J. Frisch, G. W. Trucks, H. B. Schlegel, G. E. Scuseria, 
 M. A. Robb, J. R. Cheeseman, G. Scalmani, V. Barone, B. Mennucci, 
 G. A. Petersson, H. Nakatsuji, M. Caricato, X. Li, H. P. Hratchian, 
 A. F. Izmaylov, J. Bloino, G. Zheng, J. L. Sonnenberg, M. Hada, 
 M. Ehara, K. Toyota, R. Fukuda, J. Hasegawa, M. Ishida, T. Nakajima, 
 Y. Honda, O. Kitao, H. Nakai, T. Vreven, J. A. Montgomery, Jr., 
 J. E. Peralta, F. Ogliaro, M. Bearpark, J. J. Heyd, E. Brothers, 
 K. N. Kudin, V. N. Staroverov, R. Kobayashi, J. Normand, 
 K. Raghavachari, A. Rendell, J. C. Burant, S. S. Iyengar, J. Tomasi, 
 M. Cossi, N. Rega, J. M. Millam, M. Klene, J. E. Knox, J. B. Cross, 
 V. Bakken, C. Adamo, J. Jaramillo, R. Gomperts, R. E. Stratmann, 
 O. Yazyev, A. J. Austin, R. Cammi, C. Pomelli, J. W. Ochterski, 
 R. L. Martin, K. Morokuma, V. G. Zakrzewski, G. A. Voth, 
 P. Salvador, J. J. Dannenberg, S. Dapprich, A. D. Daniels, 
 O. Farkas, J. B. Foresman, J. V. Ortiz, J. Cioslowski, 
 and D. J. Fox, Gaussian, Inc., Wallingford CT, 2009.
 
 ******************************************
 Gaussian 09:  IA32W-G09RevA.02 11-Jun-2009
                07-Sep-2021 
 ******************************************
 %nprocshared=12
 Will use up to   12 processors via shared memory.
 ----------------------------------------------
 # opt freq=noraman hf/6-311g geom=connectivity
 ----------------------------------------------
 1/18=20,19=15,38=1,57=2/1,3;
 2/9=110,12=2,17=6,18=5,40=1/2;
 3/5=4,6=6,11=9,16=1,25=1,30=1,71=1/1,2,3;
 4//1;
 5/5=2,38=5/2;
 6/7=2,8=2,9=2,10=2,28=1/1;
 7//1,2,3,16;
 1/18=20,19=15/3(2);
 2/9=110/2;
 99//99;
 2/9=110/2;
 3/5=4,6=6,11=9,16=1,25=1,30=1,71=1/1,2,3;
 4/5=5,16=3/1;
 5/5=2,38=5/2;
 7//1,2,3,16;
 1/18=20,19=15/3(-5);
 2/9=110/2;
 6/7=2,8=2,9=2,10=2,19=2,28=1/1;
 99/9=1/99;
 -----
 M0001
 -----
 Symbolic Z-matrix:
 Charge =  0 Multiplicity = 1
 C                     0.        0.       -0.77391 
 H                     0.        0.       -1.89859 
 C                     1.10022  -0.93737  -0.34029 
 C                     1.86035  -1.58177  -1.31975 
 C                     1.38504  -1.18003   1.0043 
 C                     2.88253  -2.45182  -0.9579 
 H                     1.6512   -1.40269  -2.3811 
 C                     2.40624  -2.05007   1.36537 
 H                     0.78292  -0.6699    1.77728 
 C                     3.15803  -2.68765   0.38442 
 H                     3.4715   -2.9522   -1.73335 
 H                     2.61879  -2.23116   2.42389 
 H                     3.96328  -3.37276   0.66796 
 C                     0.26167   1.42151  -0.34029 
 C                     0.43967   2.40199  -1.31975 
 C                     0.32942   1.78949   1.0043 
 C                     0.68208   3.72225  -0.9579 
 H                     0.38916   2.13133  -2.3811 
 C                     0.57229   3.1089    1.36537 
 H                     0.18869   1.01298   1.77728 
 C                     0.74855   4.07876   0.38442 
 H                     0.82093   4.48251  -1.73335 
 H                     0.62285   3.38352   2.42389 
 H                     0.93925   5.11868   0.66796 
 C                    -1.3619   -0.48414  -0.34029 
 C                    -2.30003  -0.82023  -1.31975 
 C                    -1.71446  -0.60947   1.0043 
 C                    -3.5646   -1.27043  -0.9579 
 H                    -2.04036  -0.72864  -2.3811 
 C                    -2.97853  -1.05883   1.36537 
 H                    -0.97161  -0.34308   1.77728 
 C                    -3.90659  -1.39111   0.38442 
 H                    -4.29243  -1.53031  -1.73335 
 H                    -3.24163  -1.15236   2.42389 
 H                    -4.90254  -1.74592   0.66796 
 

 GradGradGradGradGradGradGradGradGradGradGradGradGradGradGradGradGradGrad
 Berny optimization.
 Initialization pass.
                           ----------------------------
                           !    Initial Parameters    !
                           ! (Angstroms and Degrees)  !
 --------------------------                            --------------------------
 ! Name  Definition              Value          Derivative Info.                !
 --------------------------------------------------------------------------------
 ! R1    R(1,2)                  1.1247         estimate D2E/DX2                !
 ! R2    R(1,3)                  1.509          estimate D2E/DX2                !
 ! R3    R(1,14)                 1.509          estimate D2E/DX2                !
 ! R4    R(1,25)                 1.509          estimate D2E/DX2                !
 ! R5    R(3,4)                  1.3973         estimate D2E/DX2                !
 ! R6    R(3,5)                  1.3957         estimate D2E/DX2                !
 ! R7    R(4,6)                  1.3902         estimate D2E/DX2                !
 ! R8    R(4,7)                  1.0965         estimate D2E/DX2                !
 ! R9    R(5,8)                  1.3893         estimate D2E/DX2                !
 ! R10   R(5,9)                  1.1047         estimate D2E/DX2                !
 ! R11   R(6,10)                 1.3905         estimate D2E/DX2                !
 ! R12   R(6,11)                 1.0948         estimate D2E/DX2                !
 ! R13   R(8,10)                 1.3907         estimate D2E/DX2                !
 ! R14   R(8,12)                 1.0947         estimate D2E/DX2                !
 ! R15   R(10,13)                1.0946         estimate D2E/DX2                !
 ! R16   R(14,15)                1.3973         estimate D2E/DX2                !
 ! R17   R(14,16)                1.3957         estimate D2E/DX2                !
 ! R18   R(15,17)                1.3902         estimate D2E/DX2                !
 ! R19   R(15,18)                1.0965         estimate D2E/DX2                !
 ! R20   R(16,19)                1.3893         estimate D2E/DX2                !
 ! R21   R(16,20)                1.1047         estimate D2E/DX2                !
 ! R22   R(17,21)                1.3905         estimate D2E/DX2                !
 ! R23   R(17,22)                1.0948         estimate D2E/DX2                !
 ! R24   R(19,21)                1.3907         estimate D2E/DX2                !
 ! R25   R(19,23)                1.0947         estimate D2E/DX2                !
 ! R26   R(21,24)                1.0946         estimate D2E/DX2                !
 ! R27   R(25,26)                1.3973         estimate D2E/DX2                !
 ! R28   R(25,27)                1.3957         estimate D2E/DX2                !
 ! R29   R(26,28)                1.3902         estimate D2E/DX2                !
 ! R30   R(26,29)                1.0965         estimate D2E/DX2                !
 ! R31   R(27,30)                1.3893         estimate D2E/DX2                !
 ! R32   R(27,31)                1.1047         estimate D2E/DX2                !
 ! R33   R(28,32)                1.3905         estimate D2E/DX2                !
 ! R34   R(28,33)                1.0948         estimate D2E/DX2                !
 ! R35   R(30,32)                1.3907         estimate D2E/DX2                !
 ! R36   R(30,34)                1.0947         estimate D2E/DX2                !
 ! R37   R(32,35)                1.0946         estimate D2E/DX2                !
 ! A1    A(2,1,3)              106.6993         estimate D2E/DX2                !
 ! A2    A(2,1,14)             106.6993         estimate D2E/DX2                !
 ! A3    A(2,1,25)             106.6993         estimate D2E/DX2                !
 ! A4    A(3,1,14)             112.0951         estimate D2E/DX2                !
 ! A5    A(3,1,25)             112.0951         estimate D2E/DX2                !
 ! A6    A(14,1,25)            112.0951         estimate D2E/DX2                !
 ! A7    A(1,3,4)              118.7952         estimate D2E/DX2                !
 ! A8    A(1,3,5)              122.25           estimate D2E/DX2                !
 ! A9    A(4,3,5)              118.9546         estimate D2E/DX2                !
 ! A10   A(3,4,6)              120.4083         estimate D2E/DX2                !
 ! A11   A(3,4,7)              119.9621         estimate D2E/DX2                !
 ! A12   A(6,4,7)              119.6296         estimate D2E/DX2                !
 ! A13   A(3,5,8)              120.6145         estimate D2E/DX2                !
 ! A14   A(3,5,9)              118.8557         estimate D2E/DX2                !
 ! A15   A(8,5,9)              120.5296         estimate D2E/DX2                !
 ! A16   A(4,6,10)             120.2047         estimate D2E/DX2                !
 ! A17   A(4,6,11)             119.817          estimate D2E/DX2                !
 ! A18   A(10,6,11)            119.9783         estimate D2E/DX2                !
 ! A19   A(5,8,10)             120.0757         estimate D2E/DX2                !
 ! A20   A(5,8,12)             119.8415         estimate D2E/DX2                !
 ! A21   A(10,8,12)            120.0826         estimate D2E/DX2                !
 ! A22   A(6,10,8)             119.742          estimate D2E/DX2                !
 ! A23   A(6,10,13)            120.1307         estimate D2E/DX2                !
 ! A24   A(8,10,13)            120.1273         estimate D2E/DX2                !
 ! A25   A(1,14,15)            118.7952         estimate D2E/DX2                !
 ! A26   A(1,14,16)            122.25           estimate D2E/DX2                !
 ! A27   A(15,14,16)           118.9546         estimate D2E/DX2                !
 ! A28   A(14,15,17)           120.4083         estimate D2E/DX2                !
 ! A29   A(14,15,18)           119.9621         estimate D2E/DX2                !
 ! A30   A(17,15,18)           119.6296         estimate D2E/DX2                !
 ! A31   A(14,16,19)           120.6145         estimate D2E/DX2                !
 ! A32   A(14,16,20)           118.8557         estimate D2E/DX2                !
 ! A33   A(19,16,20)           120.5296         estimate D2E/DX2                !
 ! A34   A(15,17,21)           120.2047         estimate D2E/DX2                !
 ! A35   A(15,17,22)           119.817          estimate D2E/DX2                !
 ! A36   A(21,17,22)           119.9783         estimate D2E/DX2                !
 ! A37   A(16,19,21)           120.0757         estimate D2E/DX2                !
 ! A38   A(16,19,23)           119.8415         estimate D2E/DX2                !
 ! A39   A(21,19,23)           120.0826         estimate D2E/DX2                !
 ! A40   A(17,21,19)           119.742          estimate D2E/DX2                !
 ! A41   A(17,21,24)           120.1307         estimate D2E/DX2                !
 ! A42   A(19,21,24)           120.1273         estimate D2E/DX2                !
 ! A43   A(1,25,26)            118.7952         estimate D2E/DX2                !
 ! A44   A(1,25,27)            122.25           estimate D2E/DX2                !
 ! A45   A(26,25,27)           118.9546         estimate D2E/DX2                !
 ! A46   A(25,26,28)           120.4083         estimate D2E/DX2                !
 ! A47   A(25,26,29)           119.9621         estimate D2E/DX2                !
 ! A48   A(28,26,29)           119.6296         estimate D2E/DX2                !
 ! A49   A(25,27,30)           120.6145         estimate D2E/DX2                !
 ! A50   A(25,27,31)           118.8557         estimate D2E/DX2                !
 ! A51   A(30,27,31)           120.5296         estimate D2E/DX2                !
 ! A52   A(26,28,32)           120.2047         estimate D2E/DX2                !
 ! A53   A(26,28,33)           119.817          estimate D2E/DX2                !
 ! A54   A(32,28,33)           119.9783         estimate D2E/DX2                !
 ! A55   A(27,30,32)           120.0757         estimate D2E/DX2                !
 ! A56   A(27,30,34)           119.8415         estimate D2E/DX2                !
 ! A57   A(32,30,34)           120.0826         estimate D2E/DX2                !
 ! A58   A(28,32,30)           119.742          estimate D2E/DX2                !
 ! A59   A(28,32,35)           120.1307         estimate D2E/DX2                !
 ! A60   A(30,32,35)           120.1273         estimate D2E/DX2                !
 ! D1    D(2,1,3,4)              0.1147         estimate D2E/DX2                !
 ! D2    D(2,1,3,5)            180.0            estimate D2E/DX2                !
 ! D3    D(14,1,3,4)          -116.345          estimate D2E/DX2                !
 ! D4    D(14,1,3,5)            63.5403         estimate D2E/DX2                !
 ! D5    D(25,1,3,4)           116.5743         estimate D2E/DX2                !
 ! D6    D(25,1,3,5)           -63.5403         estimate D2E/DX2                !
 ! D7    D(2,1,14,15)            0.1147         estimate D2E/DX2                !
 ! D8    D(2,1,14,16)         -180.0            estimate D2E/DX2                !
 ! D9    D(3,1,14,15)          116.5743         estimate D2E/DX2                !
 ! D10   D(3,1,14,16)          -63.5403         estimate D2E/DX2                !
 ! D11   D(25,1,14,15)        -116.345          estimate D2E/DX2                !
 ! D12   D(25,1,14,16)          63.5403         estimate D2E/DX2                !
 ! D13   D(2,1,25,26)            0.1147         estimate D2E/DX2                !
 ! D14   D(2,1,25,27)         -180.0            estimate D2E/DX2                !
 ! D15   D(3,1,25,26)         -116.345          estimate D2E/DX2                !
 ! D16   D(3,1,25,27)           63.5403         estimate D2E/DX2                !
 ! D17   D(14,1,25,26)         116.5743         estimate D2E/DX2                !
 ! D18   D(14,1,25,27)         -63.5403         estimate D2E/DX2                !
 ! D19   D(1,3,4,6)            179.9739         estimate D2E/DX2                !
 ! D20   D(1,3,4,7)             -0.0723         estimate D2E/DX2                !
 ! D21   D(5,3,4,6)              0.0847         estimate D2E/DX2                !
 ! D22   D(5,3,4,7)           -179.9615         estimate D2E/DX2                !
 ! D23   D(1,3,5,8)           -180.0            estimate D2E/DX2                !
 ! D24   D(1,3,5,9)              0.1293         estimate D2E/DX2                !
 ! D25   D(4,3,5,8)             -0.1148         estimate D2E/DX2                !
 ! D26   D(4,3,5,9)           -179.9855         estimate D2E/DX2                !
 ! D27   D(3,4,6,10)            -0.0465         estimate D2E/DX2                !
 ! D28   D(3,4,6,11)           179.9491         estimate D2E/DX2                !
 ! D29   D(7,4,6,10)           179.9996         estimate D2E/DX2                !
 ! D30   D(7,4,6,11)            -0.0047         estimate D2E/DX2                !
 ! D31   D(3,5,8,10)             0.1065         estimate D2E/DX2                !
 ! D32   D(3,5,8,12)          -180.0            estimate D2E/DX2                !
 ! D33   D(9,5,8,10)           179.975          estimate D2E/DX2                !
 ! D34   D(9,5,8,12)            -0.1315         estimate D2E/DX2                !
 ! D35   D(4,6,10,8)             0.0366         estimate D2E/DX2                !
 ! D36   D(4,6,10,13)         -179.9861         estimate D2E/DX2                !
 ! D37   D(11,6,10,8)         -179.9591         estimate D2E/DX2                !
 ! D38   D(11,6,10,13)           0.0182         estimate D2E/DX2                !
 ! D39   D(5,8,10,6)            -0.0663         estimate D2E/DX2                !
 ! D40   D(5,8,10,13)          179.9564         estimate D2E/DX2                !
 ! D41   D(12,8,10,6)         -179.9595         estimate D2E/DX2                !
 ! D42   D(12,8,10,13)           0.0632         estimate D2E/DX2                !
 ! D43   D(1,14,15,17)         179.9739         estimate D2E/DX2                !
 ! D44   D(1,14,15,18)          -0.0723         estimate D2E/DX2                !
 ! D45   D(16,14,15,17)          0.0847         estimate D2E/DX2                !
 ! D46   D(16,14,15,18)       -179.9615         estimate D2E/DX2                !
 ! D47   D(1,14,16,19)        -180.0            estimate D2E/DX2                !
 ! D48   D(1,14,16,20)           0.1293         estimate D2E/DX2                !
 ! D49   D(15,14,16,19)         -0.1148         estimate D2E/DX2                !
 ! D50   D(15,14,16,20)       -179.9855         estimate D2E/DX2                !
 ! D51   D(14,15,17,21)         -0.0465         estimate D2E/DX2                !
 ! D52   D(14,15,17,22)        179.9491         estimate D2E/DX2                !
 ! D53   D(18,15,17,21)        179.9996         estimate D2E/DX2                !
 ! D54   D(18,15,17,22)         -0.0047         estimate D2E/DX2                !
 ! D55   D(14,16,19,21)          0.1065         estimate D2E/DX2                !
 ! D56   D(14,16,19,23)       -180.0            estimate D2E/DX2                !
 ! D57   D(20,16,19,21)        179.975          estimate D2E/DX2                !
 ! D58   D(20,16,19,23)         -0.1315         estimate D2E/DX2                !
 ! D59   D(15,17,21,19)          0.0366         estimate D2E/DX2                !
 ! D60   D(15,17,21,24)       -179.9862         estimate D2E/DX2                !
 ! D61   D(22,17,21,19)       -179.9591         estimate D2E/DX2                !
 ! D62   D(22,17,21,24)          0.0182         estimate D2E/DX2                !
 ! D63   D(16,19,21,17)         -0.0663         estimate D2E/DX2                !
 ! D64   D(16,19,21,24)        179.9564         estimate D2E/DX2                !
 ! D65   D(23,19,21,17)       -179.9595         estimate D2E/DX2                !
 ! D66   D(23,19,21,24)          0.0632         estimate D2E/DX2                !
 ! D67   D(1,25,26,28)         179.9739         estimate D2E/DX2                !
 ! D68   D(1,25,26,29)          -0.0723         estimate D2E/DX2                !
 ! D69   D(27,25,26,28)          0.0847         estimate D2E/DX2                !
 ! D70   D(27,25,26,29)       -179.9615         estimate D2E/DX2                !
 ! D71   D(1,25,27,30)        -180.0            estimate D2E/DX2                !
 ! D72   D(1,25,27,31)           0.1293         estimate D2E/DX2                !
 ! D73   D(26,25,27,30)         -0.1148         estimate D2E/DX2                !
 ! D74   D(26,25,27,31)       -179.9855         estimate D2E/DX2                !
 ! D75   D(25,26,28,32)         -0.0465         estimate D2E/DX2                !
 ! D76   D(25,26,28,33)        179.9491         estimate D2E/DX2                !
 ! D77   D(29,26,28,32)        179.9996         estimate D2E/DX2                !
 ! D78   D(29,26,28,33)         -0.0047         estimate D2E/DX2                !
 ! D79   D(25,27,30,32)          0.1065         estimate D2E/DX2                !
 ! D80   D(25,27,30,34)        180.0            estimate D2E/DX2                !
 ! D81   D(31,27,30,32)        179.975          estimate D2E/DX2                !
 ! D82   D(31,27,30,34)         -0.1315         estimate D2E/DX2                !
 ! D83   D(26,28,32,30)          0.0366         estimate D2E/DX2                !
 ! D84   D(26,28,32,35)       -179.9862         estimate D2E/DX2                !
 ! D85   D(33,28,32,30)       -179.9591         estimate D2E/DX2                !
 ! D86   D(33,28,32,35)          0.0182         estimate D2E/DX2                !
 ! D87   D(27,30,32,28)         -0.0663         estimate D2E/DX2                !
 ! D88   D(27,30,32,35)        179.9564         estimate D2E/DX2                !
 ! D89   D(34,30,32,28)       -179.9595         estimate D2E/DX2                !
 ! D90   D(34,30,32,35)          0.0632         estimate D2E/DX2                !
 --------------------------------------------------------------------------------
 Trust Radius=3.00D-01 FncErr=1.00D-07 GrdErr=1.00D-07
 Number of steps in this run= 197 maximum allowed number of steps= 210.
 GradGradGradGradGradGradGradGradGradGradGradGradGradGradGradGradGradGrad

                          Input orientation:                          
 ---------------------------------------------------------------------
 Center     Atomic      Atomic             Coordinates (Angstroms)
 Number     Number       Type             X           Y           Z
 ---------------------------------------------------------------------
      1          6           0        0.000000    0.000000   -0.773911
      2          1           0        0.000000    0.000000   -1.898594
      3          6           0        1.100224   -0.937371   -0.340292
      4          6           0        1.860351   -1.581766   -1.319746
      5          6           0        1.385040   -1.180029    1.004299
      6          6           0        2.882527   -2.451822   -0.957903
      7          1           0        1.651202   -1.402686   -2.381098
      8          6           0        2.406238   -2.050071    1.365374
      9          1           0        0.782917   -0.669901    1.777280
     10          6           0        3.158031   -2.687646    0.384422
     11          1           0        3.471502   -2.952196   -1.733347
     12          1           0        2.618788   -2.231160    2.423889
     13          1           0        3.963282   -3.372758    0.667958
     14          6           0        0.261675    1.421507   -0.340292
     15          6           0        0.439674    2.401994   -1.319746
     16          6           0        0.329415    1.789494    1.004299
     17          6           0        0.682076    3.722252   -0.957903
     18          1           0        0.389161    2.131326   -2.381098
     19          6           0        0.572295    3.108899    1.365374
     20          1           0        0.188692    1.012977    1.777280
     21          6           0        0.748555    4.078758    0.384422
     22          1           0        0.820926    4.482507   -1.733347
     23          1           0        0.622847    3.383517    2.423889
     24          1           0        0.939253    5.118682    0.667958
     25          6           0       -1.361898   -0.484136   -0.340292
     26          6           0       -2.300025   -0.820228   -1.319746
     27          6           0       -1.714455   -0.609465    1.004299
     28          6           0       -3.564603   -1.270431   -0.957903
     29          1           0       -2.040363   -0.728640   -2.381098
     30          6           0       -2.978533   -1.058828    1.365374
     31          1           0       -0.971610   -0.343076    1.777280
     32          6           0       -3.906586   -1.391112    0.384422
     33          1           0       -4.292428   -1.530311   -1.733347
     34          1           0       -3.241635   -1.152357    2.423889
     35          1           0       -4.902535   -1.745924    0.667958
 ---------------------------------------------------------------------
                    Distance matrix (angstroms):
                    1          2          3          4          5
     1  C    0.000000
     2  H    1.124683   0.000000
     3  C    1.509033   2.125432   0.000000
     4  C    2.502164   2.509573   1.397272   0.000000
     5  C    2.544177   3.426017   1.395682   2.405929   0.000000
     6  C    3.788699   3.899396   2.419010   1.390241   2.776717
     7  H    2.697600   2.219641   2.164483   1.096486   3.403136
     8  C    3.816978   4.543816   2.419313   2.779779   1.389315
     9  H    2.751418   3.817562   2.157854   3.403517   1.104664
    10  C    4.305617   4.733790   2.797007   2.410629   2.408455
    11  H    4.656963   4.560054   3.409265   2.155215   3.871512
    12  H    4.697025   5.524489   3.408903   3.874498   2.154587
    13  H    5.400193   5.802611   3.891630   3.403078   3.401252
    14  C    1.509033   2.125432   2.503491   3.540444   3.136537
    15  C    2.502164   2.509573   3.542176   4.229500   4.373304
    16  C    2.544177   3.426017   3.136537   4.371538   3.151573
    17  C    3.788699   3.899396   4.718938   5.445353   5.326984
    18  H    2.697600   2.219641   3.753318   4.132545   4.839190
    19  C    3.816978   4.543816   4.422703   5.556195   4.380164
    20  H    2.751418   3.817562   3.019744   4.372494   2.614961
    21  C    4.305617   4.733790   5.080397   6.015132   5.333311
    22  H    4.656963   4.560054   5.603007   6.166594   6.314843
    23  H    4.697025   5.524489   5.151568   6.340366   4.839641
    24  H    5.400193   5.802611   6.141519   7.049496   6.323418
    25  C    1.509033   2.125432   2.503491   3.542176   3.136537
    26  C    2.502164   2.509573   3.540444   4.229500   4.371538
    27  C    2.544177   3.426017   3.136537   4.373304   3.151573
    28  C    3.788699   3.899396   4.717307   5.445915   5.325165
    29  H    2.697600   2.219641   3.751232   4.131569   4.837153
    30  C    3.816978   4.543816   4.422703   5.558609   4.380164
    31  H    2.751418   3.817562   3.021554   4.375605   2.617592
    32  C    4.305617   4.733790   5.079294   6.016485   5.331989
    33  H    4.656963   4.560054   5.601149   6.166880   6.312768
    34  H    4.697025   5.524489   5.151568   6.342669   4.839641
    35  H    5.400193   5.802611   6.140313   7.050854   6.321943
                    6          7          8          9         10
     6  C    0.000000
     7  H    2.154607   0.000000
     8  C    2.405384   3.876241   0.000000
     9  H    3.881344   4.310801   2.170186   0.000000
    10  C    1.390451   3.401435   1.390669   3.413578   0.000000
    11  H    1.094797   2.476703   3.398630   4.976129   2.157127
    12  H    3.399230   4.970965   1.094725   2.495206   2.158376
    13  H    2.158606   4.303910   2.158767   4.318652   1.094623
    14  C    4.717307   3.751232   4.422703   3.021554   5.079294
    15  C    5.445915   4.131569   5.558609   4.375605   6.016485
    16  C    5.325165   4.837153   4.380164   2.617592   5.331989
    17  C    6.554477   5.406448   6.456785   5.175172   7.001356
    18  H    5.408105   3.752598   5.965630   5.029316   6.207837
    19  C    6.454177   5.962759   5.475247   3.807014   6.422479
    20  H    5.171344   5.026576   3.803872   1.784707   4.944860
    21  C    7.000296   6.205571   6.424386   4.948838   7.182605
    22  H    7.275743   5.978666   7.402018   6.234842   7.833142
    23  H    7.112935   6.859530   5.815910   4.107787   6.888077
    24  H    7.983249   7.234076   7.350473   5.895992   8.120476
    25  C    4.718938   3.753318   4.422703   3.019744   5.080397
    26  C    5.445353   4.132545   5.556195   4.372494   6.015132
    27  C    5.326984   4.839190   4.380164   2.614961   5.333311
    28  C    6.554477   5.408105   6.454177   5.171344   7.000296
    29  H    5.406448   3.752598   5.962759   5.026576   6.205571
    30  C    6.456785   5.965630   5.475247   3.803872   6.424386
    31  H    5.175172   5.029316   3.807014   1.784707   4.948838
    32  C    7.001356   6.207837   6.422479   4.944860   7.182605
    33  H    7.275333   5.980185   7.398943   6.230886   7.831584
    34  H    7.115510   6.862246   5.815910   4.104618   6.890012
    35  H    7.984291   7.236438   7.348269   5.891756   8.120342
                   11         12         13         14         15
    11  H    0.000000
    12  H    4.304605   0.000000
    13  H    2.486963   2.488816   0.000000
    14  C    5.601149   5.151568   6.140313   0.000000
    15  C    6.166880   6.342669   7.050854   1.397272   0.000000
    16  C    6.312768   4.839641   6.321943   1.395682   2.405929
    17  C    7.275333   7.115510   7.984291   2.419010   1.390241
    18  H    5.980185   6.862246   7.236438   2.164483   1.096486
    19  C    7.398943   5.815910   7.348269   2.419313   2.779779
    20  H    6.230886   4.104618   5.891756   2.157854   3.403517
    21  C    7.831584   6.890012   8.120342   2.797007   2.410629
    22  H    7.893058   8.098656   8.794650   3.409265   2.155215
    23  H    8.095597   5.958890   7.738801   3.408903   3.874498
    24  H    8.793044   7.741079   9.013840   3.891630   3.403078
    25  C    5.603007   5.151568   6.141519   2.503491   3.540444
    26  C    6.166594   6.340366   7.049496   3.542176   4.229500
    27  C    6.314843   4.839641   6.323418   3.136537   4.371538
    28  C    7.275742   7.112935   7.983249   4.718938   5.445353
    29  H    5.978666   6.859530   7.234076   3.753318   4.132545
    30  C    7.402018   5.815910   7.350473   4.422703   5.556195
    31  H    6.234842   4.107787   5.895992   3.019744   4.372494
    32  C    7.833142   6.888077   8.120476   5.080397   6.015132
    33  H    7.893058   8.095597   8.793044   5.603007   6.166594
    34  H    8.098656   5.958890   7.741079   5.151568   6.340366
    35  H    8.794650   7.738801   9.013840   6.141519   7.049496
                   16         17         18         19         20
    16  C    0.000000
    17  C    2.776717   0.000000
    18  H    3.403136   2.154607   0.000000
    19  C    1.389315   2.405384   3.876241   0.000000
    20  H    1.104664   3.881344   4.310801   2.170186   0.000000
    21  C    2.408455   1.390451   3.401435   1.390669   3.413578
    22  H    3.871512   1.094797   2.476703   3.398630   4.976129
    23  H    2.154587   3.399230   4.970965   1.094725   2.495206
    24  H    3.401252   2.158606   4.303910   2.158767   4.318652
    25  C    3.136537   4.717307   3.751232   4.422703   3.021554
    26  C    4.373304   5.445915   4.131569   5.558609   4.375605
    27  C    3.151573   5.325165   4.837153   4.380164   2.617592
    28  C    5.326984   6.554477   5.406448   6.456785   5.175172
    29  H    4.839190   5.408105   3.752598   5.965630   5.029316
    30  C    4.380164   6.454177   5.962759   5.475247   3.807014
    31  H    2.614961   5.171344   5.026576   3.803872   1.784707
    32  C    5.333311   7.000296   6.205571   6.424386   4.948838
    33  H    6.314843   7.275742   5.978666   7.402018   6.234842
    34  H    4.839641   7.112935   6.859530   5.815910   4.107787
    35  H    6.323418   7.983249   7.234076   7.350473   5.895992
                   21         22         23         24         25
    21  C    0.000000
    22  H    2.157127   0.000000
    23  H    2.158376   4.304605   0.000000
    24  H    1.094623   2.486963   2.488816   0.000000
    25  C    5.079294   5.601149   5.151568   6.140313   0.000000
    26  C    6.016485   6.166880   6.342669   7.050854   1.397272
    27  C    5.331989   6.312768   4.839641   6.321943   1.395682
    28  C    7.001356   7.275333   7.115510   7.984291   2.419010
    29  H    6.207837   5.980185   6.862246   7.236438   2.164483
    30  C    6.422479   7.398943   5.815910   7.348269   2.419313
    31  H    4.944860   6.230886   4.104618   5.891756   2.157854
    32  C    7.182605   7.831584   6.890012   8.120342   2.797007
    33  H    7.833142   7.893058   8.098656   8.794650   3.409265
    34  H    6.888077   8.095597   5.958890   7.738801   3.408903
    35  H    8.120476   8.793044   7.741079   9.013840   3.891630
                   26         27         28         29         30
    26  C    0.000000
    27  C    2.405929   0.000000
    28  C    1.390241   2.776717   0.000000
    29  H    1.096486   3.403136   2.154607   0.000000
    30  C    2.779779   1.389315   2.405384   3.876241   0.000000
    31  H    3.403517   1.104664   3.881344   4.310801   2.170186
    32  C    2.410629   2.408455   1.390451   3.401435   1.390669
    33  H    2.155215   3.871512   1.094797   2.476702   3.398630
    34  H    3.874498   2.154587   3.399230   4.970965   1.094725
    35  H    3.403078   3.401252   2.158606   4.303910   2.158767
                   31         32         33         34         35
    31  H    0.000000
    32  C    3.413578   0.000000
    33  H    4.976129   2.157127   0.000000
    34  H    2.495206   2.158376   4.304605   0.000000
    35  H    4.318652   1.094623   2.486963   2.488816   0.000000
 Stoichiometry    C19H16
 Framework group  C3[C3(CH),X(C18H15)]
 Deg. of freedom    33
 Full point group                 C3      NOp   3
 Largest Abelian subgroup         C1      NOp   1
 Largest concise Abelian subgroup C1      NOp   1
                         Standard orientation:                         
 ---------------------------------------------------------------------
 Center     Atomic      Atomic             Coordinates (Angstroms)
 Number     Number       Type             X           Y           Z
 ---------------------------------------------------------------------
      1          6           0        0.000000    0.000000    0.759856
      2          1           0        0.000000    0.000000    1.884538
      3          6           0        0.000000    1.445391    0.326236
      4          6           0        0.002450    2.441902    1.305690
      5          6           0        0.000000    1.819562   -1.018354
      6          6           0        0.003074    3.784228    0.943847
      7          1           0        0.003127    2.166561    2.367043
      8          6           0        0.000000    3.161135   -1.379430
      9          1           0       -0.002184    1.030399   -1.791336
     10          6           0        0.002237    4.146878   -0.398478
     11          1           0        0.004157    4.557057    1.719291
     12          1           0        0.000000    3.440367   -2.437944
     13          1           0        0.002958    5.204142   -0.682014
     14          6           0        1.251745   -0.722696    0.326236
     15          6           0        2.113524   -1.223073    1.305690
     16          6           0        1.575787   -0.909781   -1.018354
     17          6           0        3.275700   -1.894776    0.943847
     18          1           0        1.874734   -1.085989    2.367043
     19          6           0        2.737623   -1.580568   -1.379430
     20          1           0        0.893443   -0.513308   -1.791336
     21          6           0        3.590183   -2.075376   -0.398478
     22          1           0        3.944449   -2.282129    1.719291
     23          1           0        2.979445   -1.720183   -2.437944
     24          1           0        4.505440   -2.604633   -0.682014
     25          6           0       -1.251745   -0.722696    0.326236
     26          6           0       -2.115974   -1.218829    1.305690
     27          6           0       -1.575787   -0.909781   -1.018354
     28          6           0       -3.278775   -1.889451    0.943847
     29          1           0       -1.877860   -1.080573    2.367043
     30          6           0       -2.737623   -1.580568   -1.379430
     31          1           0       -0.891259   -0.517091   -1.791336
     32          6           0       -3.592420   -2.071502   -0.398478
     33          1           0       -3.948606   -2.274929    1.719291
     34          1           0       -2.979445   -1.720183   -2.437944
     35          1           0       -4.508398   -2.599509   -0.682014
 ---------------------------------------------------------------------
 Rotational constants (GHZ):      0.3814389      0.3814389      0.2405106
 Standard basis: 6-311G (5D, 7F)
 There are   295 symmetry adapted basis functions of A   symmetry.
 Integral buffers will be    262144 words long.
 Raffenetti 1 integral format.
 Two-electron integral symmetry is turned on.
   295 basis functions,   574 primitive gaussians,   295 cartesian basis functions
    65 alpha electrons       65 beta electrons
       nuclear repulsion energy      1288.2632632936 Hartrees.
 NAtoms=   35 NActive=   35 NUniq=   13 SFac= 3.00D+00 NAtFMM=   80 NAOKFM=F Big=F
 One-electron integrals computed using PRISM.
 PrsmSu:  requested number of processors reduced to:  10 ShMem   1 Linda.
 NBasis=   295 RedAO= T  NBF=   295
 NBsUse=   295 1.00D-06 NBFU=   295
 Harris functional with IExCor=  205 diagonalized for initial guess.
 ExpMin= 1.03D-01 ExpMax= 4.56D+03 ExpMxC= 6.82D+02 IAcc=1 IRadAn=         1 AccDes= 0.00D+00
 HarFok:  IExCor=  205 AccDes= 0.00D+00 IRadAn=         1 IDoV= 1
 ScaDFX=  1.000000  1.000000  1.000000  1.000000
 FoFCou: FMM=F IPFlag=           0 FMFlag=      100000 FMFlg1=           0
         NFxFlg=           0 DoJE=T BraDBF=F KetDBF=T FulRan=T
         Omega=  0.000000  0.000000  1.000000  0.000000  0.000000 ICntrl=     500 IOpCl=  0
         NMat0=    1 NMatS0=    1 NMatT0=    0 NMatD0=    1 NMtDS0=    0 NMtDT0=    0
         I1Cent=           4 NGrid=           0.
 Petite list used in FoFCou.
 Initial guess orbital symmetries:
       Occupied  (E) (E) (A) (A) (E) (E) (E) (E) (A) (A) (E) (E)
                 (E) (E) (A) (E) (E) (A) (A) (A) (E) (E) (A) (A)
                 (E) (E) (E) (E) (A) (A) (E) (E) (E) (E) (A) (E)
                 (E) (A) (A) (E) (E) (A) (E) (E) (A) (E) (E) (E)
                 (E) (A) (A) (E) (E) (A) (E) (E) (E) (E) (A) (E)
                 (E) (A) (E) (E) (A)
       Virtual   (E) (E) (E) (E) (A) (A) (A) (A) (E) (E) (E) (E)
                 (A) (A) (E) (E) (A) (A) (E) (E) (E) (E) (A) (A)
                 (E) (E) (E) (E) (A) (A) (E) (E) (A) (E) (E) (E)
                 (E) (E) (E) (A) (A) (E) (E) (A) (E) (E) (A) (A)
                 (E) (E) (A) (E) (E) (A) (E) (E) (A) (E) (E) (E)
                 (E) (E) (E) (A) (E) (E) (A) (E) (E) (A) (E) (E)
                 (A) (A) (E) (E) (E) (E) (A) (A) (E) (E) (A) (E)
                 (E) (E) (E) (A) (A) (E) (E) (A) (E) (E) (A) (A)
                 (E) (E) (E) (E) (A) (A) (E) (E) (A) (A) (E) (E)
                 (A) (E) (E) (A) (E) (E) (E) (E) (A) (E) (E) (E)
                 (E) (A) (A) (E) (E) (A) (E) (E) (E) (E) (A) (E)
                 (E) (A) (A) (E) (E) (A) (A) (E) (E) (A) (E) (E)
                 (A) (E) (E) (A) (E) (E) (A) (E) (E) (A) (E) (E)
                 (E) (E) (A) (A) (A) (E) (E) (A) (A) (E) (E) (E)
                 (E) (E) (E) (A) (E) (E) (A) (A) (E) (E) (A) (E)
                 (E) (E) (E) (A) (E) (E) (A) (E) (E) (A) (E) (E)
                 (A) (E) (E) (E) (E) (A) (E) (E) (A) (A) (E) (E)
                 (A) (E) (E) (A) (E) (E) (A) (A) (E) (E) (A) (E)
                 (E) (A) (E) (E) (A) (E) (E) (A) (E) (E) (A) (A)
                 (E) (E)
 The electronic state of the initial guess is 1-A.
 Requested convergence on RMS density matrix=1.00D-08 within 128 cycles.
 Requested convergence on MAX density matrix=1.00D-06.
 Requested convergence on             energy=1.00D-06.
 No special actions if energy rises.
 Integral accuracy reduced to 1.0D-05 until final iterations.
 Initial convergence to 1.0D-05 achieved.  Increase integral accuracy.
 SCF Done:  E(RHF) =  -728.661882399     A.U. after   14 cycles
             Convg  =    0.5654D-08             -V/T =  2.0001

 **********************************************************************

            Population analysis using the SCF density.

 **********************************************************************

 Orbital symmetries:
       Occupied  (A) (E) (E) (A) (E) (E) (A) (E) (E) (A) (E) (E)
                 (A) (E) (E) (A) (E) (E) (A) (A) (E) (E) (A) (A)
                 (E) (E) (E) (E) (A) (A) (E) (E) (E) (E) (A) (E)
                 (E) (A) (A) (E) (E) (A) (E) (E) (A) (E) (E) (E)
                 (E) (A) (A) (E) (E) (A) (E) (E) (A) (E) (E) (E)
                 (E) (E) (E) (A) (A)
       Virtual   (E) (E) (E) (E) (A) (A) (A) (E) (E) (A) (A) (E)
                 (E) (A) (E) (E) (A) (E) (E) (A) (E) (E) (A) (E)
                 (E) (A) (E) (E) (A) (A) (E) (E) (A) (E) (E) (E)
                 (E) (A) (E) (E) (A) (E) (E) (A) (E) (E) (A) (A)
                 (E) (E) (A) (E) (E) (E) (E) (A) (A) (E) (E) (E)
                 (E) (E) (E) (A) (A) (E) (E) (E) (E) (A) (A) (E)
                 (E) (E) (E) (A) (E) (E) (A) (E) (E) (A) (A) (E)
                 (E) (E) (E) (A) (A) (E) (E) (E) (E) (A) (A) (A)
                 (E) (E) (A) (E) (E) (A) (A) (E) (E) (E) (E) (A)
                 (A) (E) (E) (E) (E) (A) (A) (E) (E) (E) (E) (A)
                 (E) (E) (A) (E) (E) (A) (E) (E) (E) (E) (A) (E)
                 (E) (A) (A) (E) (E) (A) (A) (E) (E) (A) (E) (E)
                 (A) (A) (E) (E) (E) (E) (A) (A) (E) (E) (A) (E)
                 (E) (E) (E) (A) (E) (E) (A) (A) (E) (E) (A) (E)
                 (E) (E) (E) (A) (E) (E) (A) (A) (E) (E) (A) (E)
                 (E) (E) (E) (A) (A) (E) (E) (E) (E) (A) (E) (E)
                 (A) (E) (E) (E) (E) (A) (E) (E) (A) (A) (E) (E)
                 (E) (E) (A) (A) (E) (E) (A) (A) (E) (E) (A) (E)
                 (E) (A) (E) (E) (A) (A) (E) (E) (E) (E) (A) (A)
                 (E) (E)
 The electronic state is 1-A.
 Alpha  occ. eigenvalues --  -11.25895 -11.25309 -11.25309 -11.25302 -11.24433
 Alpha  occ. eigenvalues --  -11.24433 -11.24433 -11.24315 -11.24315 -11.24315
 Alpha  occ. eigenvalues --  -11.24167 -11.24167 -11.24166 -11.24083 -11.24083
 Alpha  occ. eigenvalues --  -11.24082 -11.23985 -11.23985 -11.23985  -1.18666
 Alpha  occ. eigenvalues --   -1.15801  -1.15801  -1.09083  -1.02578  -1.01967
 Alpha  occ. eigenvalues --   -1.01967  -1.01544  -1.01544  -0.93065  -0.85064
 Alpha  occ. eigenvalues --   -0.82364  -0.82364  -0.81934  -0.81934  -0.78034
 Alpha  occ. eigenvalues --   -0.70469  -0.70469  -0.69870  -0.66405  -0.63081
 Alpha  occ. eigenvalues --   -0.63081  -0.62917  -0.62307  -0.62307  -0.59922
 Alpha  occ. eigenvalues --   -0.58652  -0.58652  -0.57968  -0.57968  -0.53383
 Alpha  occ. eigenvalues --   -0.52147  -0.51251  -0.51251  -0.49542  -0.48624
 Alpha  occ. eigenvalues --   -0.48624  -0.48112  -0.47201  -0.47201  -0.34399
 Alpha  occ. eigenvalues --   -0.34399  -0.33774  -0.33774  -0.33413  -0.31074
 Alpha virt. eigenvalues --    0.12123   0.12123   0.12786   0.12786   0.14081
 Alpha virt. eigenvalues --    0.15510   0.15694   0.16376   0.16376   0.16684
 Alpha virt. eigenvalues --    0.18461   0.19286   0.19286   0.21245   0.21593
 Alpha virt. eigenvalues --    0.21593   0.23777   0.24509   0.24509   0.28412
 Alpha virt. eigenvalues --    0.30979   0.30979   0.33868   0.33993   0.33993
 Alpha virt. eigenvalues --    0.38189   0.39438   0.39438   0.40127   0.43673
 Alpha virt. eigenvalues --    0.44509   0.44509   0.44813   0.45918   0.45918
 Alpha virt. eigenvalues --    0.46989   0.46989   0.48788   0.50140   0.50140
 Alpha virt. eigenvalues --    0.50772   0.52412   0.52412   0.55402   0.57112
 Alpha virt. eigenvalues --    0.57112   0.57374   0.58298   0.58681   0.58681
 Alpha virt. eigenvalues --    0.58968   0.60512   0.60512   0.61961   0.61961
 Alpha virt. eigenvalues --    0.62014   0.62155   0.63138   0.63138   0.63900
 Alpha virt. eigenvalues --    0.63900   0.65388   0.65388   0.65727   0.65992
 Alpha virt. eigenvalues --    0.66936   0.66936   0.68951   0.68951   0.70502
 Alpha virt. eigenvalues --    0.71462   0.74293   0.74293   0.75598   0.75598
 Alpha virt. eigenvalues --    0.76045   0.78749   0.78749   0.79609   0.81309
 Alpha virt. eigenvalues --    0.81309   0.81935   0.82767   0.82799   0.82799
 Alpha virt. eigenvalues --    0.83482   0.83482   0.84100   0.84270   0.86391
 Alpha virt. eigenvalues --    0.86391   0.86743   0.86743   0.86985   0.88627
 Alpha virt. eigenvalues --    0.89534   0.90402   0.90402   0.95753   0.96686
 Alpha virt. eigenvalues --    0.96686   0.96857   0.97600   0.98005   0.98005
 Alpha virt. eigenvalues --    1.00693   1.00693   1.02874   1.06065   1.06217
 Alpha virt. eigenvalues --    1.06217   1.07660   1.07660   1.08077   1.11066
 Alpha virt. eigenvalues --    1.11904   1.11904   1.12628   1.12628   1.13006
 Alpha virt. eigenvalues --    1.14539   1.14539   1.15115   1.22654   1.22654
 Alpha virt. eigenvalues --    1.25073   1.25916   1.25916   1.27818   1.27818
 Alpha virt. eigenvalues --    1.31109   1.38597   1.38597   1.38910   1.43638
 Alpha virt. eigenvalues --    1.52659   1.52659   1.55440   2.45113   2.55201
 Alpha virt. eigenvalues --    2.55201   2.56988   2.62127   2.62127   2.63069
 Alpha virt. eigenvalues --    2.66399   2.67291   2.67291   2.77815   2.77815
 Alpha virt. eigenvalues --    2.78255   2.83359   2.89162   2.89162   2.93999
 Alpha virt. eigenvalues --    2.94071   2.94071   2.96564   2.96564   2.98230
 Alpha virt. eigenvalues --    3.00832   3.00832   3.04211   3.04754   3.08412
 Alpha virt. eigenvalues --    3.08412   3.09156   3.09749   3.09749   3.13040
 Alpha virt. eigenvalues --    3.13040   3.15943   3.16636   3.16636   3.19343
 Alpha virt. eigenvalues --    3.22842   3.24353   3.24353   3.29222   3.30398
 Alpha virt. eigenvalues --    3.30398   3.33699   3.33699   3.34692   3.43643
 Alpha virt. eigenvalues --    3.44343   3.44343   3.48459   3.48459   3.51039
 Alpha virt. eigenvalues --    3.52870   3.52870   3.59367   3.59778   3.59778
 Alpha virt. eigenvalues --    3.62708   3.62708   3.63246   3.65544   3.65544
 Alpha virt. eigenvalues --    3.66496   3.68451   3.71035   3.71035   3.74565
 Alpha virt. eigenvalues --    3.74565   3.76313   3.80861   3.84788   3.84788
 Alpha virt. eigenvalues --    3.98426  24.23883  24.30688  24.30688  24.50333
 Alpha virt. eigenvalues --   24.50782  24.50782  24.53777  24.54628  24.54628
 Alpha virt. eigenvalues --   24.76561  24.78625  24.78792  24.78792  24.81062
 Alpha virt. eigenvalues --   24.81062  24.82962  25.04358  25.06497  25.06497
          Condensed to atoms (all electrons):
              1          2          3          4          5          6
     1  C    5.770338   0.437606   0.198456  -0.022223  -0.052328   0.007783
     2  H    0.437606   0.507721  -0.063999   0.003082   0.005145   0.001721
     3  C    0.198456  -0.063999   5.405607   0.505899   0.425764  -0.075507
     4  C   -0.022223   0.003082   0.505899   5.045499  -0.063302   0.470071
     5  C   -0.052328   0.005145   0.425764  -0.063302   5.081394  -0.028287
     6  C    0.007783   0.001721  -0.075507   0.470071  -0.028287   5.043794
     7  H   -0.000725   0.003405  -0.046016   0.393524   0.004569  -0.033451
     8  C    0.001673  -0.000298  -0.055350  -0.035103   0.483145  -0.078044
     9  H    0.002880   0.000004  -0.059235   0.004149   0.385245   0.000082
    10  C    0.001293   0.000000  -0.021399  -0.085329  -0.093041   0.499793
    11  H   -0.000378  -0.000043   0.007514  -0.040178  -0.000733   0.397003
    12  H   -0.000298   0.000012   0.005988  -0.000514  -0.038159   0.005948
    13  H   -0.000011  -0.000002  -0.001591   0.007563   0.008351  -0.042988
    14  C    0.198456  -0.063999  -0.155190  -0.002746  -0.004053  -0.000557
    15  C   -0.022223   0.003082  -0.002649   0.000720   0.000212  -0.000027
    16  C   -0.052328   0.005145  -0.004023   0.000218  -0.009828   0.000096
    17  C    0.007783   0.001721  -0.000563  -0.000027   0.000094   0.000003
    18  H   -0.000725   0.003405   0.000306   0.000139  -0.000040   0.000001
    19  C    0.001673  -0.000298   0.001908   0.000035  -0.000314  -0.000001
    20  H    0.002880   0.000004  -0.001961  -0.000328  -0.000344  -0.000016
    21  C    0.001293   0.000000  -0.000055  -0.000009  -0.000017   0.000000
    22  H   -0.000378  -0.000043   0.000018   0.000001   0.000000   0.000000
    23  H   -0.000298   0.000012   0.000018   0.000001   0.000030   0.000000
    24  H   -0.000011  -0.000002  -0.000002   0.000000   0.000001   0.000000
    25  C    0.198456  -0.063999  -0.155190  -0.002649  -0.004023  -0.000563
    26  C   -0.022223   0.003082  -0.002746   0.000720   0.000218  -0.000027
    27  C   -0.052328   0.005145  -0.004053   0.000212  -0.009828   0.000094
    28  C    0.007783   0.001721  -0.000557  -0.000027   0.000096   0.000003
    29  H   -0.000725   0.003405   0.000301   0.000145  -0.000041   0.000001
    30  C    0.001673  -0.000298   0.001914   0.000034  -0.000312  -0.000001
    31  H    0.002880   0.000004  -0.002027  -0.000325  -0.000504  -0.000016
    32  C    0.001293   0.000000  -0.000058  -0.000008  -0.000018   0.000000
    33  H   -0.000378  -0.000043   0.000018   0.000001   0.000000   0.000000
    34  H   -0.000298   0.000012   0.000018   0.000001   0.000031   0.000000
    35  H   -0.000011  -0.000002  -0.000002   0.000000   0.000000   0.000000
              7          8          9         10         11         12
     1  C   -0.000725   0.001673   0.002880   0.001293  -0.000378  -0.000298
     2  H    0.003405  -0.000298   0.000004   0.000000  -0.000043   0.000012
     3  C   -0.046016  -0.055350  -0.059235  -0.021399   0.007514   0.005988
     4  C    0.393524  -0.035103   0.004149  -0.085329  -0.040178  -0.000514
     5  C    0.004569   0.483145   0.385245  -0.093041  -0.000733  -0.038159
     6  C   -0.033451  -0.078044   0.000082   0.499793   0.397003   0.005948
     7  H    0.511806  -0.000175  -0.000304   0.005134  -0.004159   0.000027
     8  C   -0.000175   5.037077  -0.021646   0.494728   0.006424   0.396524
     9  H   -0.000304  -0.021646   0.530340   0.004618   0.000022  -0.003439
    10  C    0.005134   0.494728   0.004618   5.031870  -0.041411  -0.039230
    11  H   -0.004159   0.006424   0.000022  -0.041411   0.518824  -0.000208
    12  H    0.000027   0.396524  -0.003439  -0.039230  -0.000208   0.515334
    13  H   -0.000190  -0.043049  -0.000208   0.399271  -0.004666  -0.004423
    14  C    0.000301   0.001914  -0.002027  -0.000058   0.000018   0.000018
    15  C    0.000145   0.000034  -0.000325  -0.000008   0.000001   0.000001
    16  C   -0.000041  -0.000312  -0.000504  -0.000018   0.000000   0.000031
    17  C    0.000001  -0.000001  -0.000016   0.000000   0.000000   0.000000
    18  H    0.000027   0.000000   0.000001   0.000000   0.000000   0.000000
    19  C    0.000001  -0.000066   0.000935   0.000001   0.000000  -0.000001
    20  H    0.000001   0.000933  -0.002490  -0.000010   0.000000  -0.000026
    21  C    0.000000   0.000001  -0.000010   0.000000   0.000000   0.000000
    22  H    0.000000   0.000000   0.000000   0.000000   0.000000   0.000000
    23  H    0.000000  -0.000001  -0.000028   0.000000   0.000000   0.000000
    24  H    0.000000   0.000000   0.000000   0.000000   0.000000   0.000000
    25  C    0.000306   0.001908  -0.001961  -0.000055   0.000018   0.000018
    26  C    0.000139   0.000035  -0.000328  -0.000009   0.000001   0.000001
    27  C   -0.000040  -0.000314  -0.000344  -0.000017   0.000000   0.000030
    28  C    0.000001  -0.000001  -0.000016   0.000000   0.000000   0.000000
    29  H    0.000027   0.000001   0.000001   0.000000   0.000000   0.000000
    30  C    0.000000  -0.000066   0.000933   0.000001   0.000000  -0.000001
    31  H    0.000001   0.000935  -0.002490  -0.000010   0.000000  -0.000028
    32  C    0.000000   0.000001  -0.000010   0.000000   0.000000   0.000000
    33  H    0.000000   0.000000   0.000000   0.000000   0.000000   0.000000
    34  H    0.000000  -0.000001  -0.000026   0.000000   0.000000   0.000000
    35  H    0.000000   0.000000   0.000000   0.000000   0.000000   0.000000
             13         14         15         16         17         18
     1  C   -0.000011   0.198456  -0.022223  -0.052328   0.007783  -0.000725
     2  H   -0.000002  -0.063999   0.003082   0.005145   0.001721   0.003405
     3  C   -0.001591  -0.155190  -0.002649  -0.004023  -0.000563   0.000306
     4  C    0.007563  -0.002746   0.000720   0.000218  -0.000027   0.000139
     5  C    0.008351  -0.004053   0.000212  -0.009828   0.000094  -0.000040
     6  C   -0.042988  -0.000557  -0.000027   0.000096   0.000003   0.000001
     7  H   -0.000190   0.000301   0.000145  -0.000041   0.000001   0.000027
     8  C   -0.043049   0.001914   0.000034  -0.000312  -0.000001   0.000000
     9  H   -0.000208  -0.002027  -0.000325  -0.000504  -0.000016   0.000001
    10  C    0.399271  -0.000058  -0.000008  -0.000018   0.000000   0.000000
    11  H   -0.004666   0.000018   0.000001   0.000000   0.000000   0.000000
    12  H   -0.004423   0.000018   0.000001   0.000031   0.000000   0.000000
    13  H    0.518089  -0.000002   0.000000   0.000000   0.000000   0.000000
    14  C   -0.000002   5.405607   0.505899   0.425764  -0.075507  -0.046016
    15  C    0.000000   0.505899   5.045499  -0.063302   0.470071   0.393524
    16  C    0.000000   0.425764  -0.063302   5.081394  -0.028287   0.004569
    17  C    0.000000  -0.075507   0.470071  -0.028287   5.043794  -0.033451
    18  H    0.000000  -0.046016   0.393524   0.004569  -0.033451   0.511806
    19  C    0.000000  -0.055350  -0.035103   0.483145  -0.078044  -0.000175
    20  H    0.000000  -0.059235   0.004149   0.385245   0.000082  -0.000304
    21  C    0.000000  -0.021399  -0.085329  -0.093041   0.499793   0.005134
    22  H    0.000000   0.007514  -0.040178  -0.000733   0.397003  -0.004159
    23  H    0.000000   0.005988  -0.000514  -0.038159   0.005948   0.000027
    24  H    0.000000  -0.001591   0.007563   0.008351  -0.042988  -0.000190
    25  C   -0.000002  -0.155190  -0.002746  -0.004053  -0.000557   0.000301
    26  C    0.000000  -0.002649   0.000720   0.000212  -0.000027   0.000145
    27  C    0.000001  -0.004023   0.000218  -0.009828   0.000096  -0.000041
    28  C    0.000000  -0.000563  -0.000027   0.000094   0.000003   0.000001
    29  H    0.000000   0.000306   0.000139  -0.000040   0.000001   0.000027
    30  C    0.000000   0.001908   0.000035  -0.000314  -0.000001   0.000001
    31  H    0.000000  -0.001961  -0.000328  -0.000344  -0.000016   0.000001
    32  C    0.000000  -0.000055  -0.000009  -0.000017   0.000000   0.000000
    33  H    0.000000   0.000018   0.000001   0.000000   0.000000   0.000000
    34  H    0.000000   0.000018   0.000001   0.000030   0.000000   0.000000
    35  H    0.000000  -0.000002   0.000000   0.000001   0.000000   0.000000
             19         20         21         22         23         24
     1  C    0.001673   0.002880   0.001293  -0.000378  -0.000298  -0.000011
     2  H   -0.000298   0.000004   0.000000  -0.000043   0.000012  -0.000002
     3  C    0.001908  -0.001961  -0.000055   0.000018   0.000018  -0.000002
     4  C    0.000035  -0.000328  -0.000009   0.000001   0.000001   0.000000
     5  C   -0.000314  -0.000344  -0.000017   0.000000   0.000030   0.000001
     6  C   -0.000001  -0.000016   0.000000   0.000000   0.000000   0.000000
     7  H    0.000001   0.000001   0.000000   0.000000   0.000000   0.000000
     8  C   -0.000066   0.000933   0.000001   0.000000  -0.000001   0.000000
     9  H    0.000935  -0.002490  -0.000010   0.000000  -0.000028   0.000000
    10  C    0.000001  -0.000010   0.000000   0.000000   0.000000   0.000000
    11  H    0.000000   0.000000   0.000000   0.000000   0.000000   0.000000
    12  H   -0.000001  -0.000026   0.000000   0.000000   0.000000   0.000000
    13  H    0.000000   0.000000   0.000000   0.000000   0.000000   0.000000
    14  C   -0.055350  -0.059235  -0.021399   0.007514   0.005988  -0.001591
    15  C   -0.035103   0.004149  -0.085329  -0.040178  -0.000514   0.007563
    16  C    0.483145   0.385245  -0.093041  -0.000733  -0.038159   0.008351
    17  C   -0.078044   0.000082   0.499793   0.397003   0.005948  -0.042988
    18  H   -0.000175  -0.000304   0.005134  -0.004159   0.000027  -0.000190
    19  C    5.037077  -0.021646   0.494728   0.006424   0.396524  -0.043049
    20  H   -0.021646   0.530340   0.004618   0.000022  -0.003439  -0.000208
    21  C    0.494728   0.004618   5.031870  -0.041411  -0.039230   0.399271
    22  H    0.006424   0.000022  -0.041411   0.518824  -0.000208  -0.004666
    23  H    0.396524  -0.003439  -0.039230  -0.000208   0.515334  -0.004423
    24  H   -0.043049  -0.000208   0.399271  -0.004666  -0.004423   0.518089
    25  C    0.001914  -0.002027  -0.000058   0.000018   0.000018  -0.000002
    26  C    0.000034  -0.000325  -0.000008   0.000001   0.000001   0.000000
    27  C   -0.000312  -0.000504  -0.000018   0.000000   0.000031   0.000000
    28  C   -0.000001  -0.000016   0.000000   0.000000   0.000000   0.000000
    29  H    0.000000   0.000001   0.000000   0.000000   0.000000   0.000000
    30  C   -0.000066   0.000935   0.000001   0.000000  -0.000001   0.000000
    31  H    0.000933  -0.002490  -0.000010   0.000000  -0.000026   0.000000
    32  C    0.000001  -0.000010   0.000000   0.000000   0.000000   0.000000
    33  H    0.000000   0.000000   0.000000   0.000000   0.000000   0.000000
    34  H   -0.000001  -0.000028   0.000000   0.000000   0.000000   0.000000
    35  H    0.000000   0.000000   0.000000   0.000000   0.000000   0.000000
             25         26         27         28         29         30
     1  C    0.198456  -0.022223  -0.052328   0.007783  -0.000725   0.001673
     2  H   -0.063999   0.003082   0.005145   0.001721   0.003405  -0.000298
     3  C   -0.155190  -0.002746  -0.004053  -0.000557   0.000301   0.001914
     4  C   -0.002649   0.000720   0.000212  -0.000027   0.000145   0.000034
     5  C   -0.004023   0.000218  -0.009828   0.000096  -0.000041  -0.000312
     6  C   -0.000563  -0.000027   0.000094   0.000003   0.000001  -0.000001
     7  H    0.000306   0.000139  -0.000040   0.000001   0.000027   0.000000
     8  C    0.001908   0.000035  -0.000314  -0.000001   0.000001  -0.000066
     9  H   -0.001961  -0.000328  -0.000344  -0.000016   0.000001   0.000933
    10  C   -0.000055  -0.000009  -0.000017   0.000000   0.000000   0.000001
    11  H    0.000018   0.000001   0.000000   0.000000   0.000000   0.000000
    12  H    0.000018   0.000001   0.000030   0.000000   0.000000  -0.000001
    13  H   -0.000002   0.000000   0.000001   0.000000   0.000000   0.000000
    14  C   -0.155190  -0.002649  -0.004023  -0.000563   0.000306   0.001908
    15  C   -0.002746   0.000720   0.000218  -0.000027   0.000139   0.000035
    16  C   -0.004053   0.000212  -0.009828   0.000094  -0.000040  -0.000314
    17  C   -0.000557  -0.000027   0.000096   0.000003   0.000001  -0.000001
    18  H    0.000301   0.000145  -0.000041   0.000001   0.000027   0.000001
    19  C    0.001914   0.000034  -0.000312  -0.000001   0.000000  -0.000066
    20  H   -0.002027  -0.000325  -0.000504  -0.000016   0.000001   0.000935
    21  C   -0.000058  -0.000008  -0.000018   0.000000   0.000000   0.000001
    22  H    0.000018   0.000001   0.000000   0.000000   0.000000   0.000000
    23  H    0.000018   0.000001   0.000031   0.000000   0.000000  -0.000001
    24  H   -0.000002   0.000000   0.000000   0.000000   0.000000   0.000000
    25  C    5.405607   0.505899   0.425764  -0.075507  -0.046016  -0.055350
    26  C    0.505899   5.045499  -0.063302   0.470071   0.393524  -0.035103
    27  C    0.425764  -0.063302   5.081394  -0.028287   0.004569   0.483145
    28  C   -0.075507   0.470071  -0.028287   5.043794  -0.033451  -0.078044
    29  H   -0.046016   0.393524   0.004569  -0.033451   0.511806  -0.000175
    30  C   -0.055350  -0.035103   0.483145  -0.078044  -0.000175   5.037077
    31  H   -0.059235   0.004149   0.385245   0.000082  -0.000304  -0.021646
    32  C   -0.021399  -0.085329  -0.093041   0.499793   0.005134   0.494728
    33  H    0.007514  -0.040178  -0.000733   0.397003  -0.004159   0.006424
    34  H    0.005988  -0.000514  -0.038159   0.005948   0.000027   0.396524
    35  H   -0.001591   0.007563   0.008351  -0.042988  -0.000190  -0.043049
             31         32         33         34         35
     1  C    0.002880   0.001293  -0.000378  -0.000298  -0.000011
     2  H    0.000004   0.000000  -0.000043   0.000012  -0.000002
     3  C   -0.002027  -0.000058   0.000018   0.000018  -0.000002
     4  C   -0.000325  -0.000008   0.000001   0.000001   0.000000
     5  C   -0.000504  -0.000018   0.000000   0.000031   0.000000
     6  C   -0.000016   0.000000   0.000000   0.000000   0.000000
     7  H    0.000001   0.000000   0.000000   0.000000   0.000000
     8  C    0.000935   0.000001   0.000000  -0.000001   0.000000
     9  H   -0.002490  -0.000010   0.000000  -0.000026   0.000000
    10  C   -0.000010   0.000000   0.000000   0.000000   0.000000
    11  H    0.000000   0.000000   0.000000   0.000000   0.000000
    12  H   -0.000028   0.000000   0.000000   0.000000   0.000000
    13  H    0.000000   0.000000   0.000000   0.000000   0.000000
    14  C   -0.001961  -0.000055   0.000018   0.000018  -0.000002
    15  C   -0.000328  -0.000009   0.000001   0.000001   0.000000
    16  C   -0.000344  -0.000017   0.000000   0.000030   0.000001
    17  C   -0.000016   0.000000   0.000000   0.000000   0.000000
    18  H    0.000001   0.000000   0.000000   0.000000   0.000000
    19  C    0.000933   0.000001   0.000000  -0.000001   0.000000
    20  H   -0.002490  -0.000010   0.000000  -0.000028   0.000000
    21  C   -0.000010   0.000000   0.000000   0.000000   0.000000
    22  H    0.000000   0.000000   0.000000   0.000000   0.000000
    23  H   -0.000026   0.000000   0.000000   0.000000   0.000000
    24  H    0.000000   0.000000   0.000000   0.000000   0.000000
    25  C   -0.059235  -0.021399   0.007514   0.005988  -0.001591
    26  C    0.004149  -0.085329  -0.040178  -0.000514   0.007563
    27  C    0.385245  -0.093041  -0.000733  -0.038159   0.008351
    28  C    0.000082   0.499793   0.397003   0.005948  -0.042988
    29  H   -0.000304   0.005134  -0.004159   0.000027  -0.000190
    30  C   -0.021646   0.494728   0.006424   0.396524  -0.043049
    31  H    0.530340   0.004618   0.000022  -0.003439  -0.000208
    32  C    0.004618   5.031870  -0.041411  -0.039230   0.399271
    33  H    0.000022  -0.041411   0.518824  -0.000208  -0.004666
    34  H   -0.003439  -0.039230  -0.000208   0.515334  -0.004423
    35  H   -0.000208   0.399271  -0.004666  -0.004423   0.518089
 Mulliken atomic charges:
              1
     1  C   -0.616309
     2  H    0.207587
     3  C    0.098445
     4  C   -0.179248
     5  C   -0.089121
     6  C   -0.166905
     7  H    0.165688
     8  C   -0.190904
     9  H    0.166193
    10  C   -0.156113
    11  H    0.161951
    12  H    0.162397
    13  H    0.163856
    14  C    0.098445
    15  C   -0.179248
    16  C   -0.089121
    17  C   -0.166905
    18  H    0.165688
    19  C   -0.190904
    20  H    0.166193
    21  C   -0.156113
    22  H    0.161951
    23  H    0.162397
    24  H    0.163856
    25  C    0.098445
    26  C   -0.179248
    27  C   -0.089121
    28  C   -0.166905
    29  H    0.165688
    30  C   -0.190904
    31  H    0.166193
    32  C   -0.156113
    33  H    0.161951
    34  H    0.162397
    35  H    0.163856
 Sum of Mulliken atomic charges =   0.00000
 Mulliken charges with hydrogens summed into heavy atoms:
              1
     1  C   -0.408722
     3  C    0.098445
     4  C   -0.013559
     5  C    0.077072
     6  C   -0.004953
     8  C   -0.028507
    10  C    0.007743
    14  C    0.098445
    15  C   -0.013559
    16  C    0.077072
    17  C   -0.004953
    19  C   -0.028507
    21  C    0.007743
    25  C    0.098445
    26  C   -0.013559
    27  C    0.077072
    28  C   -0.004953
    30  C   -0.028507
    32  C    0.007743
 Sum of Mulliken charges with hydrogens summed into heavy atoms =   0.00000
 Electronic spatial extent (au):  <R**2>=           4935.7709
 Charge=              0.0000 electrons
 Dipole moment (field-independent basis, Debye):
    X=              0.0000    Y=              0.0000    Z=              0.0938  Tot=              0.0938
 Quadrupole moment (field-independent basis, Debye-Ang):
   XX=           -113.6362   YY=           -113.6362   ZZ=           -100.1400
   XY=              0.0000   XZ=              0.0000   YZ=              0.0000
 Traceless Quadrupole moment (field-independent basis, Debye-Ang):
   XX=             -4.4987   YY=             -4.4987   ZZ=              8.9974
   XY=              0.0000   XZ=              0.0000   YZ=              0.0000
 Octapole moment (field-independent basis, Debye-Ang**2):
  XXX=             -0.1247  YYY=             54.0143  ZZZ=             -0.1237  XYY=              0.1247
  XXY=            -54.0143  XXZ=              0.4738  XZZ=              0.0000  YZZ=              0.0000
  YYZ=              0.4738  XYZ=              0.0000
 Hexadecapole moment (field-independent basis, Debye-Ang**3):
 XXXX=          -2947.2583 YYYY=          -2947.2583 ZZZZ=           -846.7324 XXXY=              0.0000
 XXXZ=             -0.1328 YYYX=              0.0000 YYYZ=             -1.5515 ZZZX=              0.0000
 ZZZY=              0.0000 XXYY=           -982.4194 XXZZ=           -617.0852 YYZZ=           -617.0852
 XXYZ=              1.5515 YYXZ=              0.1328 ZZXY=              0.0000
 N-N= 1.288263263294D+03 E-N=-4.272432871697D+03  KE= 7.285967966680D+02
 PrsmSu:  requested number of processors reduced to:  10 ShMem   1 Linda.
 Calling FoFJK, ICntrl=      2127 FMM=F ISym2X=1 I1Cent= 0 IOpClX= 0 NMat=1 NMatS=1 NMatT=0.
 ***** Axes restored to original set *****
 -------------------------------------------------------------------
 Center     Atomic                   Forces (Hartrees/Bohr)
 Number     Number              X              Y              Z
 -------------------------------------------------------------------
      1        6           0.000000000    0.000000000   -0.024358455
      2        1           0.000000000    0.000000000    0.028898096
      3        6           0.010563032   -0.008601536   -0.005044101
      4        6          -0.001178941    0.000815140   -0.006042209
      5        6          -0.006715894    0.005229626    0.011963975
      6        6           0.008070990   -0.006820976   -0.007889696
      7        1           0.003076174   -0.002630089    0.017365128
      8        6           0.001125554   -0.000618646    0.012136329
      9        1           0.024483125   -0.020741923   -0.017242605
     10        6           0.010125736   -0.008732318    0.001907723
     11        1          -0.008872124    0.007577838    0.011862561
     12        1          -0.003212414    0.002667782   -0.016174761
     13        1          -0.012392773    0.010531523   -0.004355557
     14        6           0.002167632    0.013448622   -0.005044101
     15        6          -0.000116461   -0.001428563   -0.006042209
     16        6          -0.001171042   -0.008430948    0.011963975
     17        6           0.001871644    0.010400170   -0.007889696
     18        1           0.000739636    0.003979089    0.017365128
     19        6          -0.000027014    0.001284082    0.012136329
     20        1           0.005721469    0.031573970   -0.017242605
     21        6           0.002499541    0.013135304    0.001907723
     22        1          -0.002126538   -0.011472404    0.011862561
     23        1          -0.000704160   -0.004115923   -0.016174761
     24        1          -0.002924180   -0.015998217   -0.004355557
     25        6          -0.012730665   -0.004847086   -0.005044101
     26        6           0.001295402    0.000613423   -0.006042209
     27        6           0.007886936    0.003201322    0.011963975
     28        6          -0.009942634   -0.003579194   -0.007889696
     29        1          -0.003815811   -0.001349001    0.017365128
     30        6          -0.001098541   -0.000665435    0.012136329
     31        1          -0.030204595   -0.010832047   -0.017242605
     32        6          -0.012625277   -0.004402986    0.001907723
     33        1           0.010998662    0.003894566    0.011862561
     34        1           0.003916574    0.001448141   -0.016174761
     35        1           0.015316953    0.005466695   -0.004355557
 -------------------------------------------------------------------
 Cartesian Forces:  Max     0.031573970 RMS     0.010597641

 GradGradGradGradGradGradGradGradGradGradGradGradGradGradGradGradGradGrad
 Berny optimization.
 Internal  Forces:  Max     0.035367302 RMS     0.010610914
 Search for a local minimum.
 Step number   1 out of a maximum of  197
 All quantities printed in internal units (Hartrees-Bohrs-Radians)
 Mixed Optimization -- RFO/linear search
 Second derivative matrix not updated -- first step.
     Eigenvalues ---    0.00646   0.00646   0.00646   0.01534   0.01534
     Eigenvalues ---    0.01534   0.02145   0.02145   0.02145   0.02171
     Eigenvalues ---    0.02171   0.02171   0.02188   0.02188   0.02188
     Eigenvalues ---    0.02204   0.02204   0.02204   0.02214   0.02214
     Eigenvalues ---    0.02214   0.02216   0.02216   0.02216   0.02217
     Eigenvalues ---    0.02217   0.02217   0.02222   0.02222   0.02222
     Eigenvalues ---    0.04560   0.06515   0.06515   0.16000   0.16000
     Eigenvalues ---    0.16000   0.16000   0.16000   0.16000   0.16000
     Eigenvalues ---    0.16000   0.16000   0.16000   0.16000   0.16000
     Eigenvalues ---    0.16000   0.16000   0.16000   0.19116   0.19116
     Eigenvalues ---    0.22000   0.22000   0.22000   0.22000   0.22000
     Eigenvalues ---    0.22000   0.23476   0.23476   0.23476   0.25000
     Eigenvalues ---    0.25000   0.25000   0.31094   0.31448   0.31448
     Eigenvalues ---    0.31448   0.33172   0.33172   0.33172   0.34074
     Eigenvalues ---    0.34074   0.34074   0.34264   0.34264   0.34264
     Eigenvalues ---    0.34272   0.34272   0.34272   0.34284   0.34284
     Eigenvalues ---    0.34284   0.42479   0.42479   0.42479   0.42598
     Eigenvalues ---    0.42598   0.42598   0.46421   0.46421   0.46421
     Eigenvalues ---    0.46781   0.46781   0.46781   0.47239   0.47239
     Eigenvalues ---    0.47239   0.47371   0.47371   0.473711000.00000
     Eigenvalues --- 1000.000001000.000001000.000001000.000001000.00000
     Eigenvalues --- 1000.000001000.000001000.000001000.000001000.00000
     Eigenvalues --- 1000.000001000.000001000.000001000.000001000.00000
     Eigenvalues --- 1000.000001000.000001000.000001000.000001000.00000
     Eigenvalues --- 1000.000001000.000001000.000001000.000001000.00000
     Eigenvalues --- 1000.000001000.000001000.000001000.000001000.00000
     Eigenvalues --- 1000.000001000.000001000.000001000.000001000.00000
     Eigenvalues --- 1000.000001000.000001000.000001000.000001000.00000
     Eigenvalues --- 1000.000001000.000001000.000001000.000001000.00000
     Eigenvalues --- 1000.000001000.000001000.000001000.000001000.00000
     Eigenvalues --- 1000.000001000.000001000.000001000.000001000.00000
     Eigenvalues --- 1000.000001000.000001000.000001000.000001000.00000
     Eigenvalues --- 1000.000001000.000001000.000001000.000001000.00000
     Eigenvalues --- 1000.000001000.000001000.000001000.000001000.00000
     Eigenvalues --- 1000.000001000.000001000.000001000.000001000.00000
     Eigenvalues --- 1000.000001000.000001000.000001000.000001000.00000
     Eigenvalues --- 1000.000001000.000001000.000001000.000001000.00000
     Eigenvalues --- 1000.000001000.00000
 RFO step:  Lambda=-7.25288574D-02 EMin= 6.46456614D-03
 Linear search not attempted -- first point.
 Maximum step size (   0.300) exceeded in Quadratic search.
    -- Step size scaled by   0.525
 Iteration  1 RMS(Cart)=  0.16581062 RMS(Int)=  0.00451179
 Iteration  2 RMS(Cart)=  0.00946110 RMS(Int)=  0.00043933
 Iteration  3 RMS(Cart)=  0.00000964 RMS(Int)=  0.00043931
 Iteration  4 RMS(Cart)=  0.00000000 RMS(Int)=  0.00043931
 ClnCor:  largest displacement from symmetrization is 1.36D-08 for atom    23.
 Variable       Old X    -DE/DX   Delta X   Delta X   Delta X     New X
                                 (Linear)    (Quad)   (Total)
    R1        2.12534  -0.02890   0.00000  -0.03957  -0.03957   2.08577
    R2        2.85166   0.03109   0.00000   0.04219   0.04219   2.89384
    R3        2.85166   0.03109   0.00000   0.04219   0.04219   2.89384
    R4        2.85166   0.03109   0.00000   0.04219   0.04219   2.89384
    R5        2.64046  -0.00284   0.00000  -0.00267  -0.00265   2.63781
    R6        2.63746   0.00355   0.00000   0.00373   0.00374   2.64120
    R7        2.62717  -0.00332   0.00000  -0.00331  -0.00330   2.62387
    R8        2.07206  -0.01783   0.00000  -0.02265  -0.02265   2.04941
    R9        2.62542  -0.00401   0.00000  -0.00373  -0.00374   2.62168
   R10        2.08751  -0.03499   0.00000  -0.04545  -0.04545   2.04206
   R11        2.62757  -0.01013   0.00000  -0.01001  -0.01002   2.61755
   R12        2.06887  -0.01664   0.00000  -0.02104  -0.02104   2.04782
   R13        2.62798  -0.00717   0.00000  -0.00704  -0.00706   2.62092
   R14        2.06873  -0.01670   0.00000  -0.02112  -0.02112   2.04761
   R15        2.06854  -0.01684   0.00000  -0.02128  -0.02128   2.04725
   R16        2.64046  -0.00284   0.00000  -0.00267  -0.00265   2.63781
   R17        2.63746   0.00355   0.00000   0.00373   0.00374   2.64120
   R18        2.62717  -0.00332   0.00000  -0.00331  -0.00330   2.62387
   R19        2.07206  -0.01783   0.00000  -0.02265  -0.02265   2.04941
   R20        2.62542  -0.00401   0.00000  -0.00373  -0.00374   2.62168
   R21        2.08751  -0.03499   0.00000  -0.04545  -0.04545   2.04206
   R22        2.62757  -0.01013   0.00000  -0.01001  -0.01002   2.61755
   R23        2.06887  -0.01664   0.00000  -0.02104  -0.02104   2.04782
   R24        2.62798  -0.00717   0.00000  -0.00704  -0.00706   2.62092
   R25        2.06873  -0.01670   0.00000  -0.02112  -0.02112   2.04761
   R26        2.06854  -0.01684   0.00000  -0.02128  -0.02128   2.04725
   R27        2.64046  -0.00284   0.00000  -0.00267  -0.00265   2.63781
   R28        2.63746   0.00355   0.00000   0.00373   0.00374   2.64120
   R29        2.62717  -0.00332   0.00000  -0.00331  -0.00330   2.62387
   R30        2.07206  -0.01783   0.00000  -0.02265  -0.02265   2.04941
   R31        2.62542  -0.00401   0.00000  -0.00373  -0.00374   2.62168
   R32        2.08751  -0.03499   0.00000  -0.04545  -0.04545   2.04206
   R33        2.62757  -0.01013   0.00000  -0.01001  -0.01002   2.61755
   R34        2.06887  -0.01664   0.00000  -0.02104  -0.02104   2.04782
   R35        2.62798  -0.00717   0.00000  -0.00704  -0.00706   2.62092
   R36        2.06873  -0.01670   0.00000  -0.02112  -0.02112   2.04761
   R37        2.06854  -0.01684   0.00000  -0.02128  -0.02128   2.04725
    A1        1.86225  -0.00976   0.00000  -0.04340  -0.04241   1.81985
    A2        1.86225  -0.00976   0.00000  -0.04340  -0.04241   1.81985
    A3        1.86225  -0.00976   0.00000  -0.04340  -0.04241   1.81985
    A4        1.95643   0.00870   0.00000   0.03868   0.03558   1.99201
    A5        1.95643   0.00870   0.00000   0.03868   0.03558   1.99201
    A6        1.95643   0.00870   0.00000   0.03868   0.03558   1.99201
    A7        2.07337  -0.02009   0.00000  -0.03284  -0.03286   2.04051
    A8        2.13367   0.03537   0.00000   0.05745   0.05743   2.19110
    A9        2.07615  -0.01528   0.00000  -0.02461  -0.02457   2.05158
   A10        2.10152   0.01024   0.00000   0.01799   0.01802   2.11954
   A11        2.09373  -0.00558   0.00000  -0.01003  -0.01005   2.08369
   A12        2.08793  -0.00466   0.00000  -0.00796  -0.00797   2.07996
   A13        2.10512   0.00513   0.00000   0.00947   0.00947   2.11459
   A14        2.07442   0.00801   0.00000   0.01916   0.01915   2.09358
   A15        2.10364  -0.01314   0.00000  -0.02862  -0.02863   2.07501
   A16        2.09797   0.00005   0.00000  -0.00101  -0.00102   2.09695
   A17        2.09120   0.00009   0.00000   0.00076   0.00076   2.09197
   A18        2.09402  -0.00014   0.00000   0.00025   0.00025   2.09427
   A19        2.09572   0.00339   0.00000   0.00564   0.00561   2.10133
   A20        2.09163  -0.00160   0.00000  -0.00261  -0.00260   2.08903
   A21        2.09584  -0.00179   0.00000  -0.00303  -0.00301   2.09283
   A22        2.08989  -0.00353   0.00000  -0.00747  -0.00751   2.08238
   A23        2.09668   0.00177   0.00000   0.00375   0.00377   2.10044
   A24        2.09662   0.00176   0.00000   0.00372   0.00374   2.10036
   A25        2.07337  -0.02009   0.00000  -0.03284  -0.03286   2.04051
   A26        2.13367   0.03537   0.00000   0.05745   0.05743   2.19110
   A27        2.07615  -0.01528   0.00000  -0.02461  -0.02457   2.05158
   A28        2.10152   0.01024   0.00000   0.01799   0.01802   2.11954
   A29        2.09373  -0.00558   0.00000  -0.01003  -0.01005   2.08369
   A30        2.08793  -0.00466   0.00000  -0.00796  -0.00797   2.07996
   A31        2.10512   0.00513   0.00000   0.00947   0.00947   2.11459
   A32        2.07442   0.00801   0.00000   0.01916   0.01915   2.09358
   A33        2.10364  -0.01314   0.00000  -0.02862  -0.02863   2.07501
   A34        2.09797   0.00005   0.00000  -0.00101  -0.00102   2.09695
   A35        2.09120   0.00009   0.00000   0.00076   0.00076   2.09197
   A36        2.09402  -0.00014   0.00000   0.00025   0.00025   2.09427
   A37        2.09572   0.00339   0.00000   0.00564   0.00561   2.10133
   A38        2.09163  -0.00160   0.00000  -0.00261  -0.00260   2.08903
   A39        2.09584  -0.00179   0.00000  -0.00303  -0.00301   2.09283
   A40        2.08989  -0.00353   0.00000  -0.00747  -0.00751   2.08238
   A41        2.09668   0.00177   0.00000   0.00375   0.00377   2.10044
   A42        2.09662   0.00176   0.00000   0.00372   0.00374   2.10036
   A43        2.07337  -0.02009   0.00000  -0.03284  -0.03286   2.04051
   A44        2.13367   0.03537   0.00000   0.05745   0.05743   2.19110
   A45        2.07615  -0.01528   0.00000  -0.02461  -0.02457   2.05158
   A46        2.10152   0.01024   0.00000   0.01799   0.01802   2.11954
   A47        2.09373  -0.00558   0.00000  -0.01003  -0.01005   2.08369
   A48        2.08793  -0.00466   0.00000  -0.00796  -0.00797   2.07996
   A49        2.10512   0.00513   0.00000   0.00947   0.00947   2.11459
   A50        2.07442   0.00801   0.00000   0.01916   0.01915   2.09358
   A51        2.10364  -0.01314   0.00000  -0.02862  -0.02863   2.07501
   A52        2.09797   0.00005   0.00000  -0.00101  -0.00102   2.09695
   A53        2.09120   0.00009   0.00000   0.00076   0.00076   2.09197
   A54        2.09402  -0.00014   0.00000   0.00025   0.00025   2.09427
   A55        2.09572   0.00339   0.00000   0.00564   0.00561   2.10133
   A56        2.09163  -0.00160   0.00000  -0.00261  -0.00260   2.08903
[...]
 0022176,0.00012791,-0.00019929,-0.00000728,0.00003009,-0.00006550,-0.0
 0002417,-0.00002190,0.00004885,-0.00002187,-0.00005266,0.00009006,0.00
 003370,-0.00009765,0.00008447,-0.00005385,0.00000308,0.00003950,0.0000
 0273,-0.00000977,0.00001417,0.00001640,-0.00001467,-0.00000133,-0.0000
 2317,0.00000715,0.00000948,-0.00080940,-0.00067198,0.00043397,-0.00006
 262,0.00030634,-0.00007500,-0.00011131,-0.00010348,0.00023276,-0.00002
 929,-0.00009699,-0.00014628,0.00003315,0.00001951,0.00000478,-0.000004
 35,0.00025777,0.00009006,0.00012852,-0.00002469,-0.00000678,0.00012833
 ,-0.00002068,0.00010765,-0.00000317,-0.00002121,0.00003089,-0.00000759
 ,-0.00000010,-0.00001995,-0.00001164,-0.00003675,0.00000112,0.03509543
 ,0.01777615,0.00678950,-0.01563178,-0.00978191,-0.00731420,0.09475492,
 0.00165720,-0.14795362,0.00575359,-0.03246358,-0.03404621,-0.00070176,
 0.00061869,0.00029708,-0.16554062,0.26597549,0.61498201,-0.00040423,0.
 00106232,-0.00153553,0.00048214,-0.00007237,-0.00022859,-0.00031826,-0
 .00005428,0.00017345,-0.00005931,0.00004756,-0.00003772,-0.00002332,-0
 .00006326,0.00005639,0.00000956,-0.00001549,0.00004060,-0.00000304,0.0
 0000273,-0.00000221,-0.00001810,0.00002380,-0.00004288,0.00009111,0.00
 009550,0.00001392,0.00001994,0.00000521,-0.00001723,0.00000607,0.00000
 445,-0.00000444,0.00000309,-0.00000580,0.00000992,0.00001187,-0.000006
 10,-0.00000029,-0.00166051,-0.00039255,0.00152631,-0.00031296,-0.00013
 900,0.00022953,-0.00072605,-0.00029582,0.00046630,0.00003126,0.0003150
 9,0.00014968,0.00005093,0.00001456,-0.00016659,-0.00008244,-0.00034073
 ,-0.00010141,-0.00017649,0.00005900,-0.00001143,-0.00010547,0.00007106
 ,-0.00018373,0.00000750,0.00004208,-0.00003715,0.00002618,0.00000443,0
 .00000988,0.00002001,0.00004509,-0.00002186,0.01292908,0.01314261,0.01
 051121,-0.00006090,-0.00087136,0.00515926,-0.12448683,-0.09981683,-0.0
 6656040,-0.00071629,0.00065942,0.00057182,0.00038859,0.00073170,0.0005
 4591,-0.00831700,-0.02493013,-0.02033898,0.12765269,0.00075915,-0.0025
 5667,0.00227114,-0.00037186,-0.00006454,0.00014616,0.00050634,0.000371
 90,-0.00049434,0.00016917,-0.00014644,0.00013682,0.00037331,0.00019820
 ,-0.00017111,-0.00001972,0.00001441,-0.00004564,-0.00001635,-0.0000050
 7,0.00001750,-0.00004203,-0.00002740,0.00012364,-0.00020364,-0.0003281
 2,-0.00002655,-0.00001733,-0.00001531,0.00001367,-0.00000017,-0.000016
 37,0.00000727,0.00001352,-0.00001956,-0.00000326,-0.00002317,0.0000025
 8,0.00000512,-0.00108635,0.00016507,0.00130089,-0.00032141,0.00048207,
 0.00002436,-0.00078617,-0.00018835,0.00038592,0.00002423,-0.00029318,-
 0.00012999,0.00003052,0.00000609,0.00003489,-0.00015356,0.00034896,0.0
 0001964,0.00035813,-0.00006052,-0.00001826,0.00023291,-0.00021545,0.00
 015349,-0.00001603,-0.00002147,0.00001052,0.00001589,0.00001153,-0.000
 00149,0.00000168,-0.00001315,0.00001115,-0.00850233,-0.00476964,-0.006
 09954,-0.00045658,0.00426289,-0.00449903,-0.09987632,-0.21707653,-0.12
 977421,0.00054111,-0.00000751,0.00078878,-0.00029455,-0.00039120,-0.00
 027148,-0.00152568,-0.00191944,-0.00786552,0.11283507,0.22044651,-0.00
 194890,0.00138337,-0.00117162,0.00021076,0.00007705,0.00005896,-0.0002
 5923,-0.00009584,0.00032636,-0.00006041,0.00007717,-0.00005984,-0.0000
 6862,-0.00000488,0.00009862,0.00001055,0.00001680,0.00000230,-0.000001
 66,-0.00001395,-0.00003725,0.00005655,0.00001373,-0.00000678,0.0000215
 3,-0.00000077,-0.00004292,-0.00001984,-0.00000038,0.00000266,-0.000004
 80,0.00000480,-0.00000327,-0.00001048,0.00001141,-0.00001108,0.0000001
 6,-0.00000331,-0.00000887,0.00049490,-0.00019610,-0.00002360,-0.000468
 63,0.00052517,-0.00016858,-0.00000714,0.00011447,0.00063146,-0.0001070
 8,0.00015794,-0.00010750,0.00006904,-0.00005800,-0.00006060,0.00008366
 ,0.00024447,0.00008447,-0.00002996,0.00000122,-0.00004292,0.00015562,-
 0.00014790,0.00006539,0.00002454,-0.00002864,-0.00000068,-0.00005727,-
 0.00003061,-0.00003663,-0.00001525,-0.00004185,-0.00000779,-0.01445648
 ,-0.02104283,-0.00934680,0.00522778,-0.00489672,-0.00088310,-0.0656564
 3,-0.12792976,-0.15554403,0.00074004,0.00079496,-0.00057686,-0.0007252
 8,-0.00091429,-0.00074740,0.00710163,0.00796327,0.00992547,0.06766002,
 0.14320130,0.15549526,-0.00010632,0.00105534,-0.00002523,-0.00018881,-
 0.00015514,-0.00013585,-0.00012598,-0.00075045,0.00016385,-0.00014950,
 0.00017753,-0.00020794,-0.00017165,0.00008751,0.00014715,-0.00000292,0
 .00002795,0.00005540,0.00002379,-0.00002466,-0.00000752,0.00002217,0.0
 0001031,-0.00004626,-0.00005634,-0.00004269,0.00005027,-0.00006077,0.0
 0004208,-0.00000812,-0.00003229,0.00002730,-0.00000182,-0.00003683,0.0
 0002975,-0.00003529,-0.00000529,0.00001213,-0.00000681,-0.00012779,0.0
 0016970,0.00013691,-0.00007262,-0.00005716,-0.00008154,0.00002075,-0.0
 0005903,0.00012697,0.00003266,0.00005102,-0.00001572,-0.00001857,0.000
 05694,-0.00000559,0.00002072,-0.00001900,0.00002959,-0.00000125,0.0000
 0702,0.00000959,-0.00002024,-0.00006548,-0.00006945,-0.00001376,-0.000
 04239,0.00002175,-0.00001796,-0.00002061,-0.00001380,-0.00001130,-0.00
 001862,-0.00000090,-0.00054203,0.00232949,-0.00106216,-0.02415297,0.00
 914230,0.03499153,-0.02102264,-0.03265715,-0.01788562,-0.19392373,0.03
 883955,0.12451287,-0.00373813,-0.00488422,0.00312035,-0.19356561,-0.11
 519613,-0.06399519,-0.00370151,-0.00373447,0.00412246,0.73658483,0.001
 65045,-0.00094289,-0.00036175,-0.00004031,-0.00011860,0.00077152,0.000
 62803,0.00061600,0.00024700,-0.00016473,0.00027198,0.00008659,0.000080
 23,0.00011824,0.00007123,0.00003528,-0.00021405,0.00013119,0.00000937,
 0.00000486,0.00000259,-0.00033019,0.00008072,0.00012147,-0.00020454,-0
 .00026459,0.00020872,0.00011908,0.00008632,-0.00019664,-0.00001681,-0.
 00002077,-0.00002241,-0.00001818,0.00003080,-0.00000681,-0.00001492,0.
 00000472,0.00000628,-0.00019050,0.00033271,-0.00033343,-0.00019548,-0.
 00029724,0.00005326,0.00004191,0.00022587,0.00021141,0.00009297,0.0002
 6344,0.00018807,0.00002228,-0.00002106,-0.00005128,0.00005251,-0.00026
 058,0.00004509,0.00002956,0.00000588,0.00001737,-0.00014248,0.00004578
 ,-0.00024647,0.00000321,-0.00000758,0.00001340,-0.00000342,-0.00001006
 ,-0.00001547,-0.00000503,-0.00001380,-0.00000218,0.00183889,-0.0485046
 7,-0.05201734,0.04941656,0.05393993,0.01717704,-0.07326426,-0.00549656
 ,0.03342716,-0.01294775,-0.15203173,-0.07470293,-0.00522946,0.00404573
 ,-0.00239062,-0.06281670,-0.22669535,-0.12974850,-0.00368454,0.0046290
 9,-0.00239891,0.19484822,0.46834235,0.00158478,-0.00078608,-0.00115397
 ,0.00036898,0.00008466,0.00096791,0.00059326,0.00102603,0.00037608,-0.
 00022478,0.00030583,0.00028468,0.00041736,0.00008105,0.00007404,0.0000
 6383,-0.00032965,0.00018599,-0.00000545,0.00000981,0.00000552,-0.00043
 560,0.00016989,0.00010765,-0.00004106,-0.00023587,0.00006539,0.0002481
 7,0.00006308,-0.00027657,-0.00000284,-0.00004192,-0.00002646,0.0000299
 6,0.00000057,0.00004707,-0.00000284,-0.00000751,0.00000400,-0.00003410
 ,0.00026566,-0.00051952,-0.00028101,-0.00029174,0.00010580,0.00007001,
 0.00039124,0.00023174,0.00008496,0.00033052,0.00024556,0.00004282,-0.0
 0001986,-0.00008425,0.00005793,-0.00033863,0.00003950,0.00002045,0.000
 00809,0.00000266,-0.00016624,0.00010535,-0.00027657,0.00000690,-0.0000
 0013,0.00000987,0.00000748,0.00000193,-0.00000761,-0.00000260,-0.00000
 682,-0.00000723,-0.00295370,-0.05217980,-0.07024947,0.08441943,0.04738
 580,0.00646854,-0.06745011,0.00410389,0.06268386,0.06081671,-0.1108915
 9,-0.26217039,0.00248241,-0.00268569,0.00406399,-0.00043449,-0.0939827
 6,-0.19707461,0.00453336,-0.00222772,0.00329665,-0.15428565,0.22214830
 ,0.55389187,-0.00015976,-0.00100108,-0.00102716,0.00007474,0.00001201,
 0.00002696,0.00003095,-0.00019425,0.00008021,-0.00006434,0.00007356,-0
 .00003005,-0.00002656,0.00006477,-0.00001975,-0.00000319,0.00001458,0.
 00001989,0.00000797,-0.00001443,-0.00001363,-0.00000604,0.00001177,0.0
 0001996,-0.00000295,-0.00004811,0.00001253,-0.00002609,0.00003527,-0.0
 0000333,-0.00001905,0.00000223,-0.00000251,-0.00001395,0.00000643,-0.0
 0002471,-0.00001405,0.00000151,-0.00000656,-0.00045554,0.00012603,0.00
 013178,-0.00002057,-0.00008214,-0.00001210,0.00001197,-0.00008804,0.00
 000607,0.00002070,0.00004247,-0.00000708,-0.00000112,0.00001321,-0.000
 00098,0.00003291,-0.00002863,-0.00000982,-0.00001261,0.00000634,0.0000
 0656,-0.00002819,-0.00002967,-0.00003488,0.00000323,-0.00001510,0.0000
 0559,-0.00000767,-0.00001353,-0.00001337,-0.00000497,-0.00001090,-0.00
 000140,-0.00361965,-0.00341706,0.00448706,-0.00812654,-0.02491866,-0.0
 2100867,-0.00079069,0.00064783,0.00070693,-0.12809189,-0.10060043,-0.0
 6784711,0.00023935,0.00221675,-0.00105196,0.00024135,-0.00070806,0.005
 01625,-0.00017013,0.00028289,-0.00040015,0.01256258,0.01376604,0.01190
 347,0.12789626,0.00012267,-0.00036232,-0.00040643,-0.00005829,-0.00000
 766,0.00005800,0.00005849,-0.00010060,0.00005515,-0.00002945,0.0000653
 5,-0.00001302,0.00000009,0.00002710,-0.00003215,-0.00001158,0.00000566
 ,0.00000824,0.00000476,-0.00001037,0.00000019,-0.00000413,-0.00001628,
 0.00000786,0.00001000,-0.00001103,0.00003557,-0.00001033,0.00000475,0.
 00000604,-0.00001730,0.00000197,0.00000212,-0.00000011,0.00000468,-0.0
 0000600,-0.00001019,0.00000747,-0.00000132,-0.00006721,0.00010391,0.00
 014066,-0.00003261,-0.00001121,-0.00006171,-0.00000345,-0.00008629,0.0
 0000542,-0.00001330,-0.00001420,-0.00002561,-0.00000244,0.00001511,-0.
 00000118,0.00000940,0.00003541,0.00000252,0.00001096,0.00000231,0.0000
 0176,0.00001444,-0.00002487,0.00002342,0.00000443,-0.00002032,0.000001
 79,-0.00000544,-0.00000679,-0.00000784,-0.00000203,-0.00001098,-0.0000
 0236,-0.00396796,0.00491112,-0.00230680,-0.00189066,-0.00241689,-0.008
 52995,0.00051674,0.00003127,0.00080336,-0.10069598,-0.20917735,-0.1264
 4874,0.00143443,-0.00197465,0.00293282,-0.00035319,0.00441632,-0.00496
 774,0.00033939,-0.00066748,0.00048463,-0.00912197,-0.00378717,-0.00498
 100,0.11197159,0.21137396,0.00018618,0.00040837,0.00021804,-0.00003522
 ,-0.00000542,-0.00004028,-0.00009068,-0.00007016,0.00002030,-0.0000027
 8,-0.00000598,-0.00004492,-0.00001392,0.00002549,-0.00001363,-0.000001
 23,0.00001783,-0.00000619,0.00000559,0.00000010,-0.00000358,0.00001201
 ,-0.00000582,0.00003089,0.00000946,-0.00003743,-0.00000068,-0.00002249
 ,0.00001214,0.00000987,-0.00000435,0.00000395,0.00000195,-0.00000910,0
 .00000233,-0.00001894,-0.00000934,0.00000110,-0.00000264,-0.00000830,0
 .00000610,-0.00008326,-0.00001200,-0.00002021,0.00003061,-0.00000335,0
 .00001747,0.00003702,0.00000238,0.00003867,0.00001378,0.00000726,0.000
 00466,-0.00001781,-0.00000111,-0.00002672,0.00001417,0.00000851,0.0000
 0021,-0.00000327,-0.00001850,0.00001278,-0.00002646,0.00000309,0.00000
 111,0.00000195,0.00000219,-0.00000157,-0.00000640,0.00000090,-0.000004
 27,-0.00000373,0.00418540,-0.00241839,0.00330154,0.00730802,0.00745915
 ,0.00975433,0.00068738,0.00080558,-0.00044193,-0.06804666,-0.12656434,
 -0.15672432,-0.00194237,0.00237258,-0.00090733,0.00538949,-0.00473454,
 -0.00093536,-0.00036899,0.00047102,-0.00042494,-0.01621274,-0.02088836
 ,-0.00886077,0.07059464,0.14128384,0.15662170,-0.00012448,0.00076552,0
 .00106224,-0.00040507,-0.00009003,0.00013792,-0.00000279,-0.00022138,0
 .00016602,-0.00008990,0.00009610,-0.00006483,-0.00010182,0.00002358,-0
 .00003016,-0.00000878,0.00000681,0.00000733,0.00002165,0.00000307,-0.0
 0001443,0.00000355,-0.00001217,0.00000388,0.00002400,-0.00000570,0.000
 05515,-0.00002244,0.00001803,-0.00000541,-0.00001523,0.00000917,0.0000
 0026,-0.00001302,0.00002437,-0.00001354,-0.00000733,0.00000873,-0.0000
 0148,0.00011621,0.00029215,0.00002117,0.00002509,-0.00004377,-0.000009
 34,0.00001708,-0.00009067,-0.00003881,-0.00000183,-0.00000229,-0.00001
 659,-0.00001364,0.00001731,-0.00001677,0.00000953,0.00000827,-0.000020
 90,-0.00001724,0.00001753,0.00001512,0.00000889,-0.00005614,-0.0000144
 8,-0.00000271,-0.00001292,0.00000657,-0.00002636,-0.00001666,-0.000008
 52,-0.00001021,-0.00001288,0.00000187,-0.00374346,-0.00505156,0.002421
 43,-0.00075380,-0.00055186,-0.00079395,-0.00883293,0.01516571,0.028330
 65,0.00044616,-0.00505267,-0.00023713,-0.00017194,0.00043797,-0.000219
 45,-0.13218545,0.04727091,0.11529067,0.00023048,0.00139811,-0.00193730
 ,0.01254517,-0.00874688,-0.01537736,0.00035009,-0.00031374,-0.00070472
 ,0.13258937,-0.00001103,0.00026975,0.00046743,-0.00004247,-0.00001504,
 0.00008402,-0.00006659,-0.00000683,-0.00002176,-0.00000850,-0.00002504
 ,0.00001028,0.00006162,0.00000415,-0.00001668,-0.00000353,0.00001173,0
 .00000344,-0.00000500,-0.00000630,-0.00000031,0.00000017,0.00001521,-0
 .00000653,-0.00001716,0.00001372,-0.00003429,0.00000084,-0.00000558,0.
 00000551,0.00000108,0.00000076,0.00000268,0.00000886,-0.00001162,0.000
 00549,0.00000079,-0.00000358,-0.00000163,0.00004025,-0.00000049,-0.000
 01303,-0.00001401,-0.00002895,-0.00000798,0.00001728,0.00005280,-0.000
 00710,0.00002359,0.00000847,0.00001228,-0.00000680,0.00000078,0.000017
 34,0.00000456,-0.00003588,-0.00000687,-0.00000179,0.00000077,0.0000033
 8,-0.00000821,-0.00001492,-0.00002623,-0.00000637,-0.00000656,0.000006
 71,-0.00000116,0.00000172,0.00000577,-0.00000506,0.00000125,0.00000299
 ,-0.00505670,0.00389096,-0.00232746,-0.00057167,-0.00084071,0.00058019
 ,-0.00781943,0.00944988,0.01021548,-0.00531470,0.00128887,-0.00561171,
 0.00042360,-0.00060277,0.00049416,0.04724858,-0.10745552,-0.10375646,0
 .00223813,-0.00176848,0.00234771,0.01441624,-0.00346196,-0.02094215,0.
 00064017,-0.00047118,-0.00094588,-0.04752689,0.10161761,-0.00033565,-0
 .00034052,-0.00029413,0.00009534,0.00000979,-0.00006469,0.00006852,0.0
 0014187,-0.00003222,0.00003741,-0.00002891,0.00004706,0.00000520,-0.00
 003467,0.00004325,0.00000907,-0.00001896,-0.00000190,-0.00000882,0.000
 00582,-0.00000060,0.00000010,0.00002063,-0.00001995,-0.00000365,0.0000
 0930,-0.00003663,0.00002030,-0.00000422,-0.00000761,0.00001347,-0.0000
 0766,-0.00000640,-0.00000074,-0.00001027,0.00000611,0.00001145,-0.0000
 0757,0.00000119,0.00005626,-0.00010544,-0.00001650,0.00002855,0.000065
 46,0.00001640,-0.00001470,0.00001139,-0.00003750,-0.00002533,-0.000034
 38,0.00000231,0.00001091,-0.00002536,-0.00000284,-0.00001816,0.0000305
 8,-0.00000133,-0.00000778,-0.00000696,-0.00001108,0.00001175,0.0000339
 6,0.00004707,0.00000716,0.00002440,-0.00001894,0.00001152,0.00000898,0
 .00000611,0.00001206,0.00001498,0.00000003,0.00303810,-0.00222970,0.00
 384364,-0.00071152,0.00068392,0.00036768,0.00031045,-0.00571139,-0.001
 61707,-0.00064749,-0.00582253,0.00234150,-0.00022822,0.00049443,-0.000
 51184,0.11527942,-0.10350837,-0.25408611,-0.00112222,0.00274992,-0.000
 89949,0.01267588,-0.00504022,-0.00925104,0.00047881,-0.00024454,-0.000
 72465,-0.12709322,0.11657775,0.26183500,-0.00017359,0.00029806,-0.0002
 5490,0.00000714,-0.00000771,-0.00006455,-0.00003982,-0.00012031,0.0000
 7514,-0.00003068,0.00005045,-0.00004511,-0.00003001,0.00004230,-0.0000
 3238,-0.00000694,0.00001528,-0.00000258,0.00001120,-0.00000148,-0.0000
 0418,0.00000729,-0.00002835,0.00003764,0.00001539,-0.00004776,0.000043
 87,-0.00002341,0.00001162,0.00000721,-0.00001507,0.00000506,0.00000325
 ,-0.00000939,0.00001336,-0.00001900,-0.00001534,0.00000806,-0.00000203
 ,-0.00006213,0.00006227,0.00001274,-0.00004348,-0.00001169,-0.00000002
 ,-0.00000657,-0.00004973,0.00004672,-0.00001249,0.00002375,-0.00001526
 ,0.00000408,0.00001443,-0.00001771,0.00000971,0.00002022,0.00001778,0.
 00001758,0.00000281,-0.00000295,0.00000342,-0.00001716,-0.00000508,0.0
 0000585,-0.00001300,0.00000562,-0.00000864,-0.00000797,-0.00001229,-0.
 00000316,-0.00001509,-0.00000430,0.00076857,0.00056213,-0.00047246,0.0
 0176370,-0.00050235,0.00421085,0.00188036,-0.00423581,-0.00022696,-0.0
 0918108,-0.00828163,-0.00024181,-0.00066629,-0.00027850,0.00008944,-0.
 00874853,-0.00145273,0.00789407,-0.00061764,-0.00009433,0.00025567,-0.
 31994585,-0.09461840,0.07394559,0.00019344,0.00211397,-0.00089468,0.00
 016317,0.00136132,-0.00196425,0.33478919,0.00046591,-0.00048930,0.0004
 4785,-0.00008691,0.00003130,0.00016182,0.00010245,0.00002421,-0.000050
 08,0.00001289,-0.00001394,0.00000600,0.00002106,0.00001203,-0.00002884
 ,0.00000045,0.00000124,-0.00000550,-0.00000019,-0.00000280,0.00000271,
 -0.00000916,-0.00000658,0.00000829,-0.00000435,-0.00000853,0.00000772,
 -0.00000196,-0.00000169,0.00000116,-0.00000380,-0.00000087,0.00000291,
 0.00000553,0.00000042,0.00000296,-0.00000389,0.00000331,0.00000044,-0.
 00000402,0.00004307,0.00002666,-0.00001001,0.00001231,-0.00003413,-0.0
 0002012,-0.00003484,0.00002363,-0.00000180,0.00000002,-0.00001327,0.00
 000093,0.00001036,0.00000292,0.,0.00002547,0.00001649,0.00001988,-0.00
 000313,0.00000151,0.00000989,-0.00000400,0.00000622,-0.00000130,-0.000
 01243,0.00000753,-0.00000004,-0.00000227,-0.00000613,-0.00000315,-0.00
 000887,-0.00000107,0.00046292,-0.00097173,-0.00033594,-0.00088029,0.00
 351584,-0.00572892,-0.00379673,0.00127977,-0.00673366,0.01468125,0.009
 42848,-0.00484914,0.00063885,0.00016309,-0.00015473,-0.02472062,-0.001
 93561,0.00844370,-0.00105093,-0.00036744,0.00038527,-0.09448120,-0.090
 89576,0.01346721,0.00123466,-0.00182879,0.00278461,0.00224487,-0.00186
 701,0.00229849,0.10517893,0.08390466,-0.00031066,0.00049762,-0.0002970
 1,-0.00001056,-0.00007392,-0.00003247,-0.00008397,0.00001217,0.0000637
 3,-0.00002054,0.00002540,0.00000367,0.00000959,0.00001488,0.00001439,-
 0.00000514,-0.00000216,0.00001224,-0.00000483,-0.00000337,-0.00000368,
 -0.00000501,0.00000628,0.00000112,0.00000127,-0.00002451,-0.00000779,0
 .00000233,0.00000031,-0.00000723,0.00000275,-0.00000003,-0.00000373,-0
 .00000353,0.00000012,0.00000003,0.00000308,-0.00000319,0.00000083,0.00
 001414,-0.00005664,0.00000964,-0.00002909,0.00003496,0.00001038,-0.000
 00527,0.00003536,0.00003942,-0.00000613,-0.00000056,0.00000017,0.00000
 731,-0.00001339,-0.00000197,0.00000370,0.00001861,0.00000948,0.0000045
 8,-0.00000231,-0.00000887,0.00000884,0.00000276,0.00000400,0.00000214,
 0.00000634,-0.00000264,-0.00000067,0.00000209,0.00000119,0.00000139,0.
 00000154,0.00000083,-0.00037339,-0.00033736,-0.00113767,0.00374567,-0.
 00603137,-0.00135780,0.00022794,-0.00641786,0.00108416,0.02798747,0.01
 107686,-0.00083746,0.00126623,0.00051791,-0.00036585,-0.02024589,-0.00
 743895,0.01021235,-0.00087590,-0.00024504,0.00022496,0.07393863,0.0134
 9562,-0.08319989,-0.00198150,0.00218303,-0.00076506,-0.00090189,0.0028
 8346,-0.00091481,-0.08236311,-0.01016467,0.07725135||0.,0.,0.00000180,
 0.,0.,0.00000530,0.00000036,-0.00000298,-0.00000821,-0.00000171,0.0000
 1257,0.00000731,0.00000309,-0.00001377,-0.00000660,0.00000037,-0.00001
 096,-0.00000097,0.00000096,-0.00000094,-0.00000136,-0.00000330,0.00000
 663,0.00000443,-0.00000488,0.00000490,0.00000561,0.00000573,0.00000264
 ,-0.00000494,-0.00000033,0.00000207,-0.00000031,0.00000065,-0.00000064
 ,0.00000049,-0.00000079,-0.00000130,0.00000218,0.00000240,0.00000180,-
 0.00000821,-0.00001003,-0.00000777,0.00000731,0.00001038,0.00000956,-0
 .00000660,0.00000930,0.00000580,-0.00000097,0.00000034,0.00000130,-0.0
 0000136,-0.00000409,-0.00000617,0.00000443,-0.00000181,-0.00000668,0.0
 0000561,-0.00000515,0.00000364,-0.00000494,-0.00000163,-0.00000132,-0.
 00000031,0.00000023,0.00000088,0.00000049,0.00000152,-0.00000004,0.000
 00218,-0.00000276,0.00000118,-0.00000821,0.00001175,-0.00000480,0.0000
 0731,-0.00001347,0.00000421,-0.00000660,-0.00000967,0.00000516,-0.0000
 0097,-0.00000130,-0.00000036,-0.00000136,0.00000739,-0.00000045,0.0000
 0443,0.00000669,0.00000177,0.00000561,-0.00000058,-0.00000628,-0.00000
 494,0.00000195,-0.00000075,-0.00000031,-0.00000088,-0.00000024,0.00000
 049,-0.00000073,0.00000134,0.00000218|||@


 IF YOU PERCEIVE THAT THERE ARE FOUR POSSIBLE WAYS IN
 WHICH A PROCEDURE CAN GO WRONG AND CIRCUMVENT THESE, 
 THEN A FIFTH WAY WILL DEVELOP.

                              -- MURPHY'S TWELFTH LAW
 Job cpu time:  0 days  0 hours  3 minutes 22.0 seconds.
 File lengths (MBytes):  RWF=    178 Int=      0 D2E=      0 Chk=      7 Scr=      1
 Normal termination of Gaussian 09 at Tue Sep 07 05:00:32 2021.
