 Entering Link 1 = b:\programy\g09w\l1.exe PID=     16620.
  
 Copyright (c) 1988,1990,1992,1993,1995,1998,2003,2009, Gaussian, Inc.
                  All Rights Reserved.
  
 This is part of the Gaussian(R) 09 program.  It is based on
 the Gaussian(R) 03 system (copyright 2003, Gaussian, Inc.),
 the Gaussian(R) 98 system (copyright 1998, Gaussian, Inc.),
 the Gaussian(R) 94 system (copyright 1995, Gaussian, Inc.),
 the Gaussian 92(TM) system (copyright 1992, Gaussian, Inc.),
 the Gaussian 90(TM) system (copyright 1990, Gaussian, Inc.),
 the Gaussian 88(TM) system (copyright 1988, Gaussian, Inc.),
 the Gaussian 86(TM) system (copyright 1986, Carnegie Mellon
 University), and the Gaussian 82(TM) system (copyright 1983,
 Carnegie Mellon University). Gaussian is a federally registered
 trademark of Gaussian, Inc.
  
 This software contains proprietary and confidential information,
 including trade secrets, belonging to Gaussian, Inc.
  
 This software is provided under written license and may be
 used, copied, transmitted, or stored only in accord with that
 written license.
  
 The following legend is applicable only to US Government
 contracts under FAR:
  
                    RESTRICTED RIGHTS LEGEND
  
 Use, reproduction and disclosure by the US Government is
 subject to restrictions as set forth in subparagraphs (a)
 and (c) of the Commercial Computer Software - Restricted
 Rights clause in FAR 52.227-19.
  
 Gaussian, Inc.
 340 Quinnipiac St., Bldg. 40, Wallingford CT 06492
  
  
 ---------------------------------------------------------------
 Warning -- This program may not be used in any manner that
 competes with the business of Gaussian, Inc. or will provide
 assistance to any competitor of Gaussian, Inc.  The licensee
 of this program is prohibited from giving any competitor of
 Gaussian, Inc. access to this program.  By using this program,
 the user acknowledges that Gaussian, Inc. is engaged in the
 business of creating and licensing software in the field of
 computational chemistry and represents and warrants to the
 licensee that it is not a competitor of Gaussian, Inc. and that
 it will not use this program in any manner prohibited above.
 ---------------------------------------------------------------
  

 Cite this work as:
 Gaussian 09, Revision A.02,
 M. J. Frisch, G. W. Trucks, H. B. Schlegel, G. E. Scuseria, 
 M. A. Robb, J. R. Cheeseman, G. Scalmani, V. Barone, B. Mennucci, 
 G. A. Petersson, H. Nakatsuji, M. Caricato, X. Li, H. P. Hratchian, 
 A. F. Izmaylov, J. Bloino, G. Zheng, J. L. Sonnenberg, M. Hada, 
 M. Ehara, K. Toyota, R. Fukuda, J. Hasegawa, M. Ishida, T. Nakajima, 
 Y. Honda, O. Kitao, H. Nakai, T. Vreven, J. A. Montgomery, Jr., 
 J. E. Peralta, F. Ogliaro, M. Bearpark, J. J. Heyd, E. Brothers, 
 K. N. Kudin, V. N. Staroverov, R. Kobayashi, J. Normand, 
 K. Raghavachari, A. Rendell, J. C. Burant, S. S. Iyengar, J. Tomasi, 
 M. Cossi, N. Rega, J. M. Millam, M. Klene, J. E. Knox, J. B. Cross, 
 V. Bakken, C. Adamo, J. Jaramillo, R. Gomperts, R. E. Stratmann, 
 O. Yazyev, A. J. Austin, R. Cammi, C. Pomelli, J. W. Ochterski, 
 R. L. Martin, K. Morokuma, V. G. Zakrzewski, G. A. Voth, 
 P. Salvador, J. J. Dannenberg, S. Dapprich, A. D. Daniels, 
 O. Farkas, J. B. Foresman, J. V. Ortiz, J. Cioslowski, 
 and D. J. Fox, Gaussian, Inc., Wallingford CT, 2009.
 
 ******************************************
 Gaussian 09:  IA32W-G09RevA.02 11-Jun-2009
                06-Sep-2021 
 ******************************************
 %nprocshared=12
 Will use up to   12 processors via shared memory.
 ----------------------------------------------
 # opt freq=noraman hf/6-311g geom=connectivity
 ----------------------------------------------
 1/18=20,19=15,38=1,57=2/1,3;
 2/9=110,12=2,17=6,18=5,40=1/2;
 3/5=4,6=6,11=9,16=1,25=1,30=1,71=1/1,2,3;
 4//1;
 5/5=2,38=5/2;
 6/7=2,8=2,9=2,10=2,28=1/1;
 7//1,2,3,16;
 1/18=20,19=15/3(2);
 2/9=110/2;
 99//99;
 2/9=110/2;
 3/5=4,6=6,11=9,16=1,25=1,30=1,71=1/1,2,3;
 4/5=5,16=3/1;
 5/5=2,38=5/2;
 7//1,2,3,16;
 1/18=20,19=15/3(-5);
 2/9=110/2;
 6/7=2,8=2,9=2,10=2,19=2,28=1/1;
 99/9=1/99;
 -----
 M0001
 -----
 Symbolic Z-matrix:
 Charge =  0 Multiplicity = 1
 C                    -0.21821  -0.10657   0.7293 
 H                    -0.55052  -0.3238    1.78083 
 C                    -1.45975  -0.07095  -0.12784 
 C                    -1.3928    0.03653  -1.51798 
 C                    -2.71078  -0.16947   0.48571 
 C                    -2.55308   0.03577  -2.28287 
 H                    -0.40763   0.14331  -1.99712 
 C                    -3.87108  -0.16627  -0.28039 
 H                    -2.78139  -0.25082   1.57687 
 C                    -3.79478  -0.06746  -1.6654 
 H                    -2.48721   0.11727  -3.37264 
 H                    -4.84712  -0.24326   0.20968 
 H                    -4.70907  -0.06931  -2.26731 
 C                     0.50689   1.21533   0.77845 
 C                     0.96161   1.67772   2.01708 
 C                     0.74332   1.98943  -0.35881 
 C                     1.63631   2.88883   2.11321 
 H                     0.78733   1.08248   2.92131 
 C                     1.41596   3.20207  -0.26052 
 H                     0.38506   1.63656  -1.33927 
 C                     1.86442   3.65447   0.97483 
 H                     1.98791   3.24044   3.08857 
 H                     1.59104   3.80098  -1.16012 
 H                     2.39398   4.60938   1.05168 
 C                     0.67123  -1.25452   0.31559 
 C                     1.72314  -1.10377  -0.5875 
 C                     0.4184   -2.5185    0.85846 
 C                     2.50925  -2.1953   -0.94145 
 H                     1.93935  -0.11661  -1.01551 
 C                     1.20331  -3.60767   0.50176 
 H                    -0.40671  -2.65397   1.56748 
 C                     2.25134  -3.44855  -0.39931 
 H                     3.33406  -2.0637   -1.64931 
 H                     0.99593  -4.59308   0.93146 
 H                     2.87027  -4.30697  -0.67892 
 

 GradGradGradGradGradGradGradGradGradGradGradGradGradGradGradGradGradGrad
 Berny optimization.
 Initialization pass.
                           ----------------------------
                           !    Initial Parameters    !
                           ! (Angstroms and Degrees)  !
 --------------------------                            --------------------------
 ! Name  Definition              Value          Derivative Info.                !
 --------------------------------------------------------------------------------
 ! R1    R(1,2)                  1.124          estimate D2E/DX2                !
 ! R2    R(1,3)                  1.5091         estimate D2E/DX2                !
 ! R3    R(1,14)                 1.5085         estimate D2E/DX2                !
 ! R4    R(1,25)                 1.51           estimate D2E/DX2                !
 ! R5    R(3,4)                  1.3959         estimate D2E/DX2                !
 ! R6    R(3,5)                  1.3969         estimate D2E/DX2                !
 ! R7    R(4,6)                  1.3897         estimate D2E/DX2                !
 ! R8    R(4,7)                  1.1007         estimate D2E/DX2                !
 ! R9    R(5,8)                  1.3904         estimate D2E/DX2                !
 ! R10   R(5,9)                  1.0965         estimate D2E/DX2                !
 ! R11   R(6,10)                 1.3906         estimate D2E/DX2                !
 ! R12   R(6,11)                 1.0948         estimate D2E/DX2                !
 ! R13   R(8,10)                 1.3906         estimate D2E/DX2                !
 ! R14   R(8,12)                 1.0949         estimate D2E/DX2                !
 ! R15   R(10,13)                1.0946         estimate D2E/DX2                !
 ! R16   R(14,15)                1.3981         estimate D2E/DX2                !
 ! R17   R(14,16)                1.3959         estimate D2E/DX2                !
 ! R18   R(15,17)                1.3897         estimate D2E/DX2                !
 ! R19   R(15,18)                1.0965         estimate D2E/DX2                !
 ! R20   R(16,19)                1.3902         estimate D2E/DX2                !
 ! R21   R(16,20)                1.1019         estimate D2E/DX2                !
 ! R22   R(17,21)                1.3907         estimate D2E/DX2                !
 ! R23   R(17,22)                1.0948         estimate D2E/DX2                !
 ! R24   R(19,21)                1.3899         estimate D2E/DX2                !
 ! R25   R(19,23)                1.0948         estimate D2E/DX2                !
 ! R26   R(21,24)                1.0946         estimate D2E/DX2                !
 ! R27   R(25,26)                1.3946         estimate D2E/DX2                !
 ! R28   R(25,27)                1.3987         estimate D2E/DX2                !
 ! R29   R(26,28)                1.3909         estimate D2E/DX2                !
 ! R30   R(26,29)                1.0975         estimate D2E/DX2                !
 ! R31   R(27,30)                1.3891         estimate D2E/DX2                !
 ! R32   R(27,31)                1.0963         estimate D2E/DX2                !
 ! R33   R(28,32)                1.3896         estimate D2E/DX2                !
 ! R34   R(28,33)                1.0948         estimate D2E/DX2                !
 ! R35   R(30,32)                1.3913         estimate D2E/DX2                !
 ! R36   R(30,34)                1.0948         estimate D2E/DX2                !
 ! R37   R(32,35)                1.0946         estimate D2E/DX2                !
 ! A1    A(2,1,3)              107.0191         estimate D2E/DX2                !
 ! A2    A(2,1,14)             106.3196         estimate D2E/DX2                !
 ! A3    A(2,1,25)             106.4721         estimate D2E/DX2                !
 ! A4    A(3,1,14)             113.1582         estimate D2E/DX2                !
 ! A5    A(3,1,25)             110.2998         estimate D2E/DX2                !
 ! A6    A(14,1,25)            113.0781         estimate D2E/DX2                !
 ! A7    A(1,3,4)              121.8705         estimate D2E/DX2                !
 ! A8    A(1,3,5)              119.0567         estimate D2E/DX2                !
 ! A9    A(4,3,5)              119.0651         estimate D2E/DX2                !
 ! A10   A(3,4,6)              120.5336         estimate D2E/DX2                !
 ! A11   A(3,4,7)              118.941          estimate D2E/DX2                !
 ! A12   A(6,4,7)              120.5129         estimate D2E/DX2                !
 ! A13   A(3,5,8)              120.3454         estimate D2E/DX2                !
 ! A14   A(3,5,9)              120.0011         estimate D2E/DX2                !
 ! A15   A(8,5,9)              119.6534         estimate D2E/DX2                !
 ! A16   A(4,6,10)             120.0765         estimate D2E/DX2                !
 ! A17   A(4,6,11)             119.8407         estimate D2E/DX2                !
 ! A18   A(10,6,11)            120.0828         estimate D2E/DX2                !
 ! A19   A(5,8,10)             120.2083         estimate D2E/DX2                !
 ! A20   A(5,8,12)             119.8116         estimate D2E/DX2                !
 ! A21   A(10,8,12)            119.98           estimate D2E/DX2                !
 ! A22   A(6,10,8)             119.7691         estimate D2E/DX2                !
 ! A23   A(6,10,13)            120.1175         estimate D2E/DX2                !
 ! A24   A(8,10,13)            120.1133         estimate D2E/DX2                !
 ! A25   A(1,14,15)            118.3592         estimate D2E/DX2                !
 ! A26   A(1,14,16)            122.7398         estimate D2E/DX2                !
 ! A27   A(15,14,16)           118.9007         estimate D2E/DX2                !
 ! A28   A(14,15,17)           120.491          estimate D2E/DX2                !
 ! A29   A(14,15,18)           119.957          estimate D2E/DX2                !
 ! A30   A(17,15,18)           119.552          estimate D2E/DX2                !
 ! A31   A(14,16,19)           120.5362         estimate D2E/DX2                !
 ! A32   A(14,16,20)           119.4908         estimate D2E/DX2                !
 ! A33   A(19,16,20)           119.9712         estimate D2E/DX2                !
 ! A34   A(15,17,21)           120.1852         estimate D2E/DX2                !
 ! A35   A(15,17,22)           119.8309         estimate D2E/DX2                !
 ! A36   A(21,17,22)           119.9839         estimate D2E/DX2                !
 ! A37   A(16,19,21)           120.1905         estimate D2E/DX2                !
 ! A38   A(16,19,23)           119.7663         estimate D2E/DX2                !
 ! A39   A(21,19,23)           120.0432         estimate D2E/DX2                !
 ! A40   A(17,21,19)           119.696          estimate D2E/DX2                !
 ! A41   A(17,21,24)           120.1423         estimate D2E/DX2                !
 ! A42   A(19,21,24)           120.1616         estimate D2E/DX2                !
 ! A43   A(1,25,26)            122.6531         estimate D2E/DX2                !
 ! A44   A(1,25,27)            118.308          estimate D2E/DX2                !
 ! A45   A(26,25,27)           119.0378         estimate D2E/DX2                !
 ! A46   A(25,26,28)           120.4152         estimate D2E/DX2                !
 ! A47   A(25,26,29)           119.8936         estimate D2E/DX2                !
 ! A48   A(28,26,29)           119.6888         estimate D2E/DX2                !
 ! A49   A(25,27,30)           120.4489         estimate D2E/DX2                !
 ! A50   A(25,27,31)           119.917          estimate D2E/DX2                !
 ! A51   A(30,27,31)           119.6336         estimate D2E/DX2                !
 ! A52   A(26,28,32)           120.2357         estimate D2E/DX2                !
 ! A53   A(26,28,33)           119.7342         estimate D2E/DX2                !
 ! A54   A(32,28,33)           120.0301         estimate D2E/DX2                !
 ! A55   A(27,30,32)           120.1508         estimate D2E/DX2                !
 ! A56   A(27,30,34)           119.8614         estimate D2E/DX2                !
 ! A57   A(32,30,34)           119.9878         estimate D2E/DX2                !
 ! A58   A(28,32,30)           119.7115         estimate D2E/DX2                !
 ! A59   A(28,32,35)           120.1763         estimate D2E/DX2                !
 ! A60   A(30,32,35)           120.1122         estimate D2E/DX2                !
 ! D1    D(2,1,3,4)           -173.1176         estimate D2E/DX2                !
 ! D2    D(2,1,3,5)              5.858          estimate D2E/DX2                !
 ! D3    D(14,1,3,4)            70.1037         estimate D2E/DX2                !
 ! D4    D(14,1,3,5)          -110.9207         estimate D2E/DX2                !
 ! D5    D(25,1,3,4)           -57.6882         estimate D2E/DX2                !
 ! D6    D(25,1,3,5)           121.2874         estimate D2E/DX2                !
 ! D7    D(2,1,14,15)           18.2158         estimate D2E/DX2                !
 ! D8    D(2,1,14,16)         -161.9443         estimate D2E/DX2                !
 ! D9    D(3,1,14,15)          135.4058         estimate D2E/DX2                !
 ! D10   D(3,1,14,16)          -44.7542         estimate D2E/DX2                !
 ! D11   D(25,1,14,15)         -98.2656         estimate D2E/DX2                !
 ! D12   D(25,1,14,16)          81.5743         estimate D2E/DX2                !
 ! D13   D(2,1,25,26)         -149.6507         estimate D2E/DX2                !
 ! D14   D(2,1,25,27)           30.737          estimate D2E/DX2                !
 ! D15   D(3,1,25,26)           94.5765         estimate D2E/DX2                !
 ! D16   D(3,1,25,27)          -85.0358         estimate D2E/DX2                !
 ! D17   D(14,1,25,26)         -33.2595         estimate D2E/DX2                !
 ! D18   D(14,1,25,27)         147.1282         estimate D2E/DX2                !
 ! D19   D(1,3,4,6)            178.507          estimate D2E/DX2                !
 ! D20   D(1,3,4,7)             -2.7732         estimate D2E/DX2                !
 ! D21   D(5,3,4,6)             -0.4686         estimate D2E/DX2                !
 ! D22   D(5,3,4,7)            178.2513         estimate D2E/DX2                !
 ! D23   D(1,3,5,8)           -178.7208         estimate D2E/DX2                !
 ! D24   D(1,3,5,9)              1.2218         estimate D2E/DX2                !
 ! D25   D(4,3,5,8)              0.2838         estimate D2E/DX2                !
 ! D26   D(4,3,5,9)           -179.7736         estimate D2E/DX2                !
 ! D27   D(3,4,6,10)             0.2437         estimate D2E/DX2                !
 ! D28   D(3,4,6,11)          -179.7942         estimate D2E/DX2                !
 ! D29   D(7,4,6,10)          -178.4559         estimate D2E/DX2                !
 ! D30   D(7,4,6,11)             1.5062         estimate D2E/DX2                !
 ! D31   D(3,5,8,10)             0.1256         estimate D2E/DX2                !
 ! D32   D(3,5,8,12)          -179.9587         estimate D2E/DX2                !
 ! D33   D(9,5,8,10)          -179.8171         estimate D2E/DX2                !
 ! D34   D(9,5,8,12)             0.0985         estimate D2E/DX2                !
 ! D35   D(4,6,10,8)             0.1707         estimate D2E/DX2                !
 ! D36   D(4,6,10,13)         -179.9273         estimate D2E/DX2                !
 ! D37   D(11,6,10,8)         -179.7914         estimate D2E/DX2                !
 ! D38   D(11,6,10,13)           0.1107         estimate D2E/DX2                !
 ! D39   D(5,8,10,6)            -0.3545         estimate D2E/DX2                !
 ! D40   D(5,8,10,13)          179.7434         estimate D2E/DX2                !
 ! D41   D(12,8,10,6)          179.7299         estimate D2E/DX2                !
 ! D42   D(12,8,10,13)          -0.1721         estimate D2E/DX2                !
 ! D43   D(1,14,15,17)         179.9186         estimate D2E/DX2                !
 ! D44   D(1,14,15,18)          -0.0146         estimate D2E/DX2                !
 ! D45   D(16,14,15,17)          0.0724         estimate D2E/DX2                !
 ! D46   D(16,14,15,18)       -179.8608         estimate D2E/DX2                !
 ! D47   D(1,14,16,19)         179.9536         estimate D2E/DX2                !
 ! D48   D(1,14,16,20)           0.4455         estimate D2E/DX2                !
 ! D49   D(15,14,16,19)         -0.2073         estimate D2E/DX2                !
 ! D50   D(15,14,16,20)       -179.7154         estimate D2E/DX2                !
 ! D51   D(14,15,17,21)          0.0724         estimate D2E/DX2                !
 ! D52   D(14,15,17,22)       -179.9823         estimate D2E/DX2                !
 ! D53   D(18,15,17,21)       -179.9941         estimate D2E/DX2                !
 ! D54   D(18,15,17,22)         -0.0488         estimate D2E/DX2                !
 ! D55   D(14,16,19,21)          0.198          estimate D2E/DX2                !
 ! D56   D(14,16,19,23)       -179.7552         estimate D2E/DX2                !
 ! D57   D(20,16,19,21)        179.7038         estimate D2E/DX2                !
 ! D58   D(20,16,19,23)         -0.2494         estimate D2E/DX2                !
 ! D59   D(15,17,21,19)         -0.0837         estimate D2E/DX2                !
 ! D60   D(15,17,21,24)        179.864          estimate D2E/DX2                !
 ! D61   D(22,17,21,19)        179.971          estimate D2E/DX2                !
 ! D62   D(22,17,21,24)         -0.0812         estimate D2E/DX2                !
 ! D63   D(16,19,21,17)         -0.0507         estimate D2E/DX2                !
 ! D64   D(16,19,21,24)       -179.9984         estimate D2E/DX2                !
 ! D65   D(23,19,21,17)        179.9024         estimate D2E/DX2                !
 ! D66   D(23,19,21,24)         -0.0454         estimate D2E/DX2                !
 ! D67   D(1,25,26,28)        -179.6596         estimate D2E/DX2                !
 ! D68   D(1,25,26,29)           0.9081         estimate D2E/DX2                !
 ! D69   D(27,25,26,28)         -0.05           estimate D2E/DX2                !
 ! D70   D(27,25,26,29)       -179.4824         estimate D2E/DX2                !
 ! D71   D(1,25,27,30)         179.5643         estimate D2E/DX2                !
 ! D72   D(1,25,27,31)          -0.1941         estimate D2E/DX2                !
 ! D73   D(26,25,27,30)         -0.0624         estimate D2E/DX2                !
 ! D74   D(26,25,27,31)       -179.8207         estimate D2E/DX2                !
 ! D75   D(25,26,28,32)          0.1241         estimate D2E/DX2                !
 ! D76   D(25,26,28,33)       -179.8251         estimate D2E/DX2                !
 ! D77   D(29,26,28,32)        179.5576         estimate D2E/DX2                !
 ! D78   D(29,26,28,33)         -0.3916         estimate D2E/DX2                !
 ! D79   D(25,27,30,32)          0.1013         estimate D2E/DX2                !
 ! D80   D(25,27,30,34)       -179.91           estimate D2E/DX2                !
 ! D81   D(31,27,30,32)        179.8603         estimate D2E/DX2                !
 ! D82   D(31,27,30,34)         -0.151          estimate D2E/DX2                !
 ! D83   D(26,28,32,30)         -0.0851         estimate D2E/DX2                !
 ! D84   D(26,28,32,35)        179.9689         estimate D2E/DX2                !
 ! D85   D(33,28,32,30)        179.864          estimate D2E/DX2                !
 ! D86   D(33,28,32,35)         -0.082          estimate D2E/DX2                !
 ! D87   D(27,30,32,28)         -0.0272         estimate D2E/DX2                !
 ! D88   D(27,30,32,35)        179.9189         estimate D2E/DX2                !
 ! D89   D(34,30,32,28)        179.9841         estimate D2E/DX2                !
 ! D90   D(34,30,32,35)         -0.0698         estimate D2E/DX2                !
 --------------------------------------------------------------------------------
 Trust Radius=3.00D-01 FncErr=1.00D-07 GrdErr=1.00D-07
 Number of steps in this run= 197 maximum allowed number of steps= 210.
 GradGradGradGradGradGradGradGradGradGradGradGradGradGradGradGradGradGrad

                          Input orientation:                          
 ---------------------------------------------------------------------
 Center     Atomic      Atomic             Coordinates (Angstroms)
 Number     Number       Type             X           Y           Z
 ---------------------------------------------------------------------
      1          6           0       -0.218208   -0.106572    0.729301
      2          1           0       -0.550523   -0.323799    1.780827
      3          6           0       -1.459749   -0.070952   -0.127838
      4          6           0       -1.392805    0.036525   -1.517975
      5          6           0       -2.710776   -0.169470    0.485706
      6          6           0       -2.553083    0.035774   -2.282867
      7          1           0       -0.407633    0.143308   -1.997120
      8          6           0       -3.871076   -0.166273   -0.280391
      9          1           0       -2.781391   -0.250822    1.576874
     10          6           0       -3.794782   -0.067458   -1.665396
     11          1           0       -2.487207    0.117274   -3.372645
     12          1           0       -4.847121   -0.243256    0.209678
     13          1           0       -4.709065   -0.069314   -2.267307
     14          6           0        0.506895    1.215333    0.778447
     15          6           0        0.961611    1.677720    2.017077
     16          6           0        0.743316    1.989428   -0.358810
     17          6           0        1.636307    2.888829    2.113209
     18          1           0        0.787332    1.082480    2.921310
     19          6           0        1.415957    3.202067   -0.260522
     20          1           0        0.385064    1.636558   -1.339269
     21          6           0        1.864422    3.654473    0.974832
     22          1           0        1.987909    3.240436    3.088569
     23          1           0        1.591040    3.800977   -1.160116
     24          1           0        2.393981    4.609380    1.051683
     25          6           0        0.671235   -1.254525    0.315590
     26          6           0        1.723141   -1.103772   -0.587499
     27          6           0        0.418405   -2.518500    0.858457
     28          6           0        2.509249   -2.195297   -0.941454
     29          1           0        1.939348   -0.116610   -1.015508
     30          6           0        1.203311   -3.607670    0.501759
     31          1           0       -0.406709   -2.653975    1.567483
     32          6           0        2.251342   -3.448546   -0.399306
     33          1           0        3.334058   -2.063701   -1.649311
     34          1           0        0.995933   -4.593083    0.931458
     35          1           0        2.870274   -4.306968   -0.678925
 ---------------------------------------------------------------------
                    Distance matrix (angstroms):
                    1          2          3          4          5
     1  C    0.000000
     2  H    1.123978   0.000000
     3  C    1.509099   2.129231   0.000000
     4  C    2.539765   3.423648   1.395892   0.000000
     5  C    2.505233   2.523460   1.396857   2.407119   0.000000
     6  C    3.813799   4.544574   2.418868   1.389715   2.780645
     7  H    2.744394   3.809395   2.155707   1.100702   3.400989
     8  C    3.790314   3.911458   2.418027   2.777511   1.390399
     9  H    2.703533   2.241359   2.164517   3.404237   1.096473
    10  C    4.304415   4.739977   2.795796   2.408743   2.410958
    11  H    4.693019   5.523003   3.408793   2.155002   3.875445
    12  H    4.659992   4.575560   3.408503   3.872384   2.155366
    13  H    5.398967   5.809099   3.890422   3.401512   3.403274
    14  C    1.508517   2.119393   2.518645   3.204997   3.515222
    15  C    2.496806   2.519612   3.677159   4.553393   4.386757
    16  C    2.549849   3.406330   3.025228   3.117772   4.159903
    17  C    3.785084   3.900473   4.834062   5.522377   5.558695
    18  H    2.688840   2.251262   3.959429   5.055123   4.442557
    19  C    3.820646   4.523923   4.358892   4.414859   5.380896
    20  H    2.771538   3.801753   2.790429   2.398512   4.022002
    21  C    4.306169   4.723160   5.113197   5.469292   5.982827
    22  H    4.651404   4.567012   5.761676   6.550917   6.362389
    23  H    4.702363   5.499929   5.036343   4.816896   6.081020
    24  H    5.400710   5.791201   6.176407   6.469458   7.015432
    25  C    1.509987   2.122701   2.477613   3.047791   3.555880
    26  C    2.548962   3.374444   3.377691   3.446039   4.656642
    27  C    2.497869   2.570272   3.238940   3.931420   3.930478
    28  C    3.820107   4.502835   4.574687   4.532045   5.778358
    29  H    2.774799   3.749917   3.513390   3.373302   4.886726
    30  C    3.785522   3.936465   4.471762   4.909104   5.209756
    31  H    2.688371   2.344337   3.264202   4.210847   3.556928
    32  C    4.305952   4.729426   5.025340   5.164974   6.013169
    33  H    4.701781   5.466541   5.409854   5.174112   6.684791
    34  H    4.652288   4.619495   5.253775   5.756654   5.788501
    35  H    5.400477   5.798092   6.082486   6.143597   7.044386
                    6          7          8          9         10
     6  C    0.000000
     7  H    2.167065   0.000000
     8  C    2.405793   3.877942   0.000000
     9  H    3.877095   4.308538   2.154993   0.000000
    10  C    1.390591   3.409874   1.390621   3.401897   0.000000
    11  H    1.094805   2.493466   3.399637   4.971899   2.158374
    12  H    3.399007   4.972770   1.094878   2.477201   2.157365
    13  H    2.158598   4.315151   2.158579   4.304255   1.094629
    14  C    4.486254   3.112776   4.711327   3.687807   5.111003
    15  C    5.791251   4.510325   5.659817   4.233570   6.263349
    16  C    4.287774   2.723399   5.093702   4.603167   5.150949
    17  C    6.709426   5.348867   6.737524   5.446202   7.246670
    18  H    6.271956   5.147906   5.788872   4.039924   6.584528
    19  C    5.465215   3.961977   6.268877   5.737263   6.309934
    20  H    3.476434   1.814093   4.741956   4.700269   4.525610
    21  C    6.574340   5.130596   7.004971   6.098963   7.269812
    22  H    7.729347   6.418337   7.568570   6.100846   8.184245
    23  H    5.710611   4.251330   6.807914   6.559447   6.650352
    24  H    7.517349   6.090159   7.989507   7.119119   8.219253
    25  C    4.337405   2.909729   4.708723   3.810365   5.027797
    26  C    4.739086   2.842964   5.680535   5.069797   5.716930
    27  C    5.022148   3.990224   5.022906   3.987127   5.488933
    28  C    5.692475   3.884804   6.727740   6.173640   6.692727
    29  H    4.670263   2.557233   5.856952   5.387377   5.771050
    30  C    5.927843   4.786374   6.180968   5.319977   6.496968
    31  H    5.163997   4.531136   4.648132   3.378513   5.349824
    32  C    6.226620   4.746007   6.947766   6.281650   7.042042
    33  H    6.282326   4.357995   7.575495   7.147973   7.403081
    34  H    6.659859   5.742819   6.689768   5.791370   7.083494
    35  H    7.130557   5.682190   7.921489   7.313157   7.960499
                   11         12         13         14         15
    11  H    0.000000
    12  H    4.304906   0.000000
    13  H    2.488623   2.486920   0.000000
    14  C    5.234687   5.578214   6.175207   0.000000
    15  C    6.586231   6.379515   7.318787   1.398132   0.000000
    16  C    4.798379   6.046572   6.132637   1.395876   2.406169
    17  C    7.401316   7.447699   8.258528   2.420279   1.389691
    18  H    7.160174   6.391994   7.645833   2.165215   1.096504
    19  C    5.868215   7.163622   7.228071   2.419289   2.778042
    20  H    3.833116   5.771368   5.451734   2.162636   3.405754
    21  C    7.095703   7.798882   8.221241   2.798365   2.410164
    22  H    8.457428   8.194008   9.191807   3.410441   2.154869
    23  H    5.924276   7.725417   7.476386   3.408658   3.872848
    24  H    7.973687   8.757317   9.130123   3.892981   3.402689
    25  C    5.045856   5.611250   6.084711   2.518222   3.402563
    26  C    5.193748   6.674153   6.727937   2.953525   3.885928
    27  C    5.769931   5.772643   6.485358   3.735738   4.386996
    28  C    6.018574   7.697515   7.640795   4.312758   5.113546
    29  H    5.020476   6.897339   6.765400   2.654105   3.656797
    30  C    6.519672   6.929092   7.425892   4.880872   5.503631
    31  H    6.034331   5.231870   6.316357   4.053245   4.564868
    32  C    6.633978   7.812357   7.959642   5.116832   5.812136
    33  H    6.450864   8.584961   8.309713   4.963761   5.750577
    34  H    7.269458   7.320057   7.952584   5.830975   6.364175
    35  H    7.452023   8.767072   8.827630   6.181044   6.835782
                   16         17         18         19         20
    16  C    0.000000
    17  C    2.777990   0.000000
    18  H    3.403479   2.153295   0.000000
    19  C    1.390180   2.404427   3.874515   0.000000
    20  H    1.101890   3.879871   4.315247   2.162696   0.000000
    21  C    2.409949   1.390736   3.400594   1.389925   3.408159
    22  H    3.872784   1.094796   2.475102   3.397795   4.974664
    23  H    2.154632   3.398341   4.969327   1.094814   2.484186
    24  H    3.402695   2.158981   4.303004   2.158458   4.311620
    25  C    3.314097   4.618461   3.502120   4.554967   3.343474
    26  C    3.252728   4.821019   4.238770   4.329148   3.140863
    27  C    4.680674   5.683035   4.166356   5.913722   4.700598
    28  C    4.579292   5.995109   5.350679   5.548918   4.399265
    29  H    2.509411   4.348950   4.273581   3.443481   2.365210
    30  C    5.681520   6.707366   5.293843   6.855567   5.617904
    31  H    5.156971   5.932487   4.149660   6.399761   5.242594
    32  C    5.643345   6.844949   5.805172   6.704311   5.497710
    33  H    4.980481   6.447206   6.105312   5.773747   4.741794
    34  H    6.712530   7.601686   6.017894   7.896936   6.658663
    35  H    6.653648   7.816533   6.807826   7.660007   6.475943
                   21         22         23         24         25
    21  C    0.000000
    22  H    2.157443   0.000000
    23  H    2.157361   4.303840   0.000000
    24  H    1.094617   2.487530   2.488029   0.000000
    25  C    5.094757   5.443134   5.346200   6.155897   0.000000
    26  C    5.010162   5.696991   4.939828   5.981391   1.394562
    27  C    6.341143   6.371976   6.736876   7.399115   1.398663
    28  C    6.189326   6.786757   6.070108   7.091509   2.417335
    29  H    4.264755   5.302411   3.935698   5.178315   2.162125
    30  C    7.307501   7.362318   7.602645   8.321058   2.419722
    31  H    6.730957   6.541557   7.286783   7.801681   2.165100
    32  C    7.245057   7.548321   7.319182   8.188766   2.796703
    33  H    6.460918   7.238334   6.137741   7.260104   3.406792
    34  H    8.293270   8.185424   8.671164   9.308830   3.410380
    35  H    8.193363   8.481502   8.222333   9.095225   3.891304
                   26         27         28         29         30
    26  C    0.000000
    27  C    2.407194   0.000000
    28  C    1.390926   2.777727   0.000000
    29  H    1.097463   3.405009   2.156666   0.000000
    30  C    2.779606   1.389102   2.404815   3.877028   0.000000
    31  H    3.403430   1.096305   3.874011   4.314400   2.153478
    32  C    2.410888   2.409692   1.389632   3.402770   1.391261
    33  H    2.154986   3.872567   1.094847   2.477516   3.398680
    34  H    3.874449   2.154707   3.398133   4.971873   1.094845
    35  H    3.403637   3.402033   2.158337   4.305695   2.159120
                   31         32         33         34         35
    31  H    0.000000
    32  C    3.400711   0.000000
    33  H    4.968856   2.156985   0.000000
    34  H    2.476302   2.157996   4.304065   0.000000
    35  H    4.303179   1.094601   2.487769   2.487639   0.000000
 Stoichiometry    C19H16
 Framework group  C1[X(C19H16)]
 Deg. of freedom    99
 Full point group                 C1      NOp   1
 Largest Abelian subgroup         C1      NOp   1
 Largest concise Abelian subgroup C1      NOp   1
                         Standard orientation:                         
 ---------------------------------------------------------------------
 Center     Atomic      Atomic             Coordinates (Angstroms)
 Number     Number       Type             X           Y           Z
 ---------------------------------------------------------------------
      1          6           0        0.023142   -0.012339   -0.754271
      2          1           0        0.000549   -0.006229   -1.878005
      3          6           0       -0.909050   -1.108588   -0.299697
      4          6           0       -1.224709   -1.296339    1.047012
      5          6           0       -1.488879   -1.945870   -1.255714
      6          6           0       -2.110752   -2.295399    1.431867
      7          1           0       -0.744373   -0.654428    1.801182
      8          6           0       -2.372273   -2.947522   -0.869041
      9          1           0       -1.248846   -1.814422   -2.317485
     10          6           0       -2.687785   -3.122027    0.474025
     11          1           0       -2.352872   -2.430455    2.490987
     12          1           0       -2.821177   -3.599268   -1.625659
     13          1           0       -3.386692   -3.908393    0.776299
     14          6           0        1.459237   -0.253549   -0.360477
     15          6           0        2.456235   -0.028512   -1.314482
     16          6           0        1.830067   -0.687236    0.913442
     17          6           0        3.793747   -0.235035   -0.998810
     18          1           0        2.184588    0.314547   -2.319887
     19          6           0        3.168289   -0.896031    1.226759
     20          1           0        1.051926   -0.872129    1.671382
     21          6           0        4.153101   -0.670140    0.272290
     22          1           0        4.565618   -0.055184   -1.754090
     23          1           0        3.444661   -1.240138    2.228670
     24          1           0        5.206661   -0.834720    0.519496
     25          6           0       -0.494738    1.334123   -0.308290
     26          6           0       -0.076275    1.947982    0.871909
     27          6           0       -1.437891    1.981682   -1.112895
     28          6           0       -0.589526    3.186750    1.241645
     29          1           0        0.669497    1.456340    1.509512
     30          6           0       -1.950859    3.217724   -0.740513
     31          1           0       -1.779184    1.510836   -2.042253
     32          6           0       -1.527478    3.823674    0.438122
     33          1           0       -0.251020    3.659889    2.169138
     34          1           0       -2.689842    3.715380   -1.376852
     35          1           0       -1.931121    4.798285    0.730281
 ---------------------------------------------------------------------
 Rotational constants (GHZ):      0.4001528      0.3719948      0.2369050
 Standard basis: 6-311G (5D, 7F)
 There are   295 symmetry adapted basis functions of A   symmetry.
 Integral buffers will be    262144 words long.
 Raffenetti 1 integral format.
 Two-electron integral symmetry is turned on.
   295 basis functions,   574 primitive gaussians,   295 cartesian basis functions
    65 alpha electrons       65 beta electrons
       nuclear repulsion energy      1288.3946809259 Hartrees.
 NAtoms=   35 NActive=   35 NUniq=   35 SFac= 7.50D-01 NAtFMM=   80 NAOKFM=F Big=F
 One-electron integrals computed using PRISM.
 PrsmSu:  requested number of processors reduced to:  10 ShMem   1 Linda.
 NBasis=   295 RedAO= T  NBF=   295
 NBsUse=   295 1.00D-06 NBFU=   295
 Harris functional with IExCor=  205 diagonalized for initial guess.
 ExpMin= 1.03D-01 ExpMax= 4.56D+03 ExpMxC= 6.82D+02 IAcc=1 IRadAn=         1 AccDes= 0.00D+00
 HarFok:  IExCor=  205 AccDes= 0.00D+00 IRadAn=         1 IDoV= 1
 ScaDFX=  1.000000  1.000000  1.000000  1.000000
 FoFCou: FMM=F IPFlag=           0 FMFlag=      100000 FMFlg1=           0
         NFxFlg=           0 DoJE=T BraDBF=F KetDBF=T FulRan=T
         Omega=  0.000000  0.000000  1.000000  0.000000  0.000000 ICntrl=     500 IOpCl=  0
         NMat0=    1 NMatS0=    1 NMatT0=    0 NMatD0=    1 NMtDS0=    0 NMtDT0=    0
         I1Cent=           4 NGrid=           0.
 Petite list used in FoFCou.
 Initial guess orbital symmetries:
       Occupied  (A) (A) (A) (A) (A) (A) (A) (A) (A) (A) (A) (A)
                 (A) (A) (A) (A) (A) (A) (A) (A) (A) (A) (A) (A)
                 (A) (A) (A) (A) (A) (A) (A) (A) (A) (A) (A) (A)
                 (A) (A) (A) (A) (A) (A) (A) (A) (A) (A) (A) (A)
                 (A) (A) (A) (A) (A) (A) (A) (A) (A) (A) (A) (A)
                 (A) (A) (A) (A) (A)
       Virtual   (A) (A) (A) (A) (A) (A) (A) (A) (A) (A) (A) (A)
                 (A) (A) (A) (A) (A) (A) (A) (A) (A) (A) (A) (A)
                 (A) (A) (A) (A) (A) (A) (A) (A) (A) (A) (A) (A)
                 (A) (A) (A) (A) (A) (A) (A) (A) (A) (A) (A) (A)
                 (A) (A) (A) (A) (A) (A) (A) (A) (A) (A) (A) (A)
                 (A) (A) (A) (A) (A) (A) (A) (A) (A) (A) (A) (A)
                 (A) (A) (A) (A) (A) (A) (A) (A) (A) (A) (A) (A)
                 (A) (A) (A) (A) (A) (A) (A) (A) (A) (A) (A) (A)
                 (A) (A) (A) (A) (A) (A) (A) (A) (A) (A) (A) (A)
                 (A) (A) (A) (A) (A) (A) (A) (A) (A) (A) (A) (A)
                 (A) (A) (A) (A) (A) (A) (A) (A) (A) (A) (A) (A)
                 (A) (A) (A) (A) (A) (A) (A) (A) (A) (A) (A) (A)
                 (A) (A) (A) (A) (A) (A) (A) (A) (A) (A) (A) (A)
                 (A) (A) (A) (A) (A) (A) (A) (A) (A) (A) (A) (A)
                 (A) (A) (A) (A) (A) (A) (A) (A) (A) (A) (A) (A)
                 (A) (A) (A) (A) (A) (A) (A) (A) (A) (A) (A) (A)
                 (A) (A) (A) (A) (A) (A) (A) (A) (A) (A) (A) (A)
                 (A) (A) (A) (A) (A) (A) (A) (A) (A) (A) (A) (A)
                 (A) (A) (A) (A) (A) (A) (A) (A) (A) (A) (A) (A)
                 (A) (A)
 The electronic state of the initial guess is 1-A.
 Requested convergence on RMS density matrix=1.00D-08 within 128 cycles.
 Requested convergence on MAX density matrix=1.00D-06.
 Requested convergence on             energy=1.00D-06.
 No special actions if energy rises.
 Integral accuracy reduced to 1.0D-05 until final iterations.
 Initial convergence to 1.0D-05 achieved.  Increase integral accuracy.
 SCF Done:  E(RHF) =  -728.671718635     A.U. after   14 cycles
             Convg  =    0.6174D-08             -V/T =  2.0001

 **********************************************************************

            Population analysis using the SCF density.

 **********************************************************************

 Orbital symmetries:
       Occupied  (A) (A) (A) (A) (A) (A) (A) (A) (A) (A) (A) (A)
                 (A) (A) (A) (A) (A) (A) (A) (A) (A) (A) (A) (A)
                 (A) (A) (A) (A) (A) (A) (A) (A) (A) (A) (A) (A)
                 (A) (A) (A) (A) (A) (A) (A) (A) (A) (A) (A) (A)
                 (A) (A) (A) (A) (A) (A) (A) (A) (A) (A) (A) (A)
                 (A) (A) (A) (A) (A)
       Virtual   (A) (A) (A) (A) (A) (A) (A) (A) (A) (A) (A) (A)
                 (A) (A) (A) (A) (A) (A) (A) (A) (A) (A) (A) (A)
                 (A) (A) (A) (A) (A) (A) (A) (A) (A) (A) (A) (A)
                 (A) (A) (A) (A) (A) (A) (A) (A) (A) (A) (A) (A)
                 (A) (A) (A) (A) (A) (A) (A) (A) (A) (A) (A) (A)
                 (A) (A) (A) (A) (A) (A) (A) (A) (A) (A) (A) (A)
                 (A) (A) (A) (A) (A) (A) (A) (A) (A) (A) (A) (A)
                 (A) (A) (A) (A) (A) (A) (A) (A) (A) (A) (A) (A)
                 (A) (A) (A) (A) (A) (A) (A) (A) (A) (A) (A) (A)
                 (A) (A) (A) (A) (A) (A) (A) (A) (A) (A) (A) (A)
                 (A) (A) (A) (A) (A) (A) (A) (A) (A) (A) (A) (A)
                 (A) (A) (A) (A) (A) (A) (A) (A) (A) (A) (A) (A)
                 (A) (A) (A) (A) (A) (A) (A) (A) (A) (A) (A) (A)
                 (A) (A) (A) (A) (A) (A) (A) (A) (A) (A) (A) (A)
                 (A) (A) (A) (A) (A) (A) (A) (A) (A) (A) (A) (A)
                 (A) (A) (A) (A) (A) (A) (A) (A) (A) (A) (A) (A)
                 (A) (A) (A) (A) (A) (A) (A) (A) (A) (A) (A) (A)
                 (A) (A) (A) (A) (A) (A) (A) (A) (A) (A) (A) (A)
                 (A) (A) (A) (A) (A) (A) (A) (A) (A) (A) (A) (A)
                 (A) (A)
 The electronic state is 1-A.
 Alpha  occ. eigenvalues --  -11.25832 -11.25271 -11.25261 -11.25132 -11.24448
 Alpha  occ. eigenvalues --  -11.24430 -11.24354 -11.24351 -11.24209 -11.24189
 Alpha  occ. eigenvalues --  -11.24128 -11.24115 -11.24110 -11.24052 -11.24025
 Alpha  occ. eigenvalues --  -11.24019 -11.23913 -11.23834 -11.23737  -1.18592
 Alpha  occ. eigenvalues --   -1.15828  -1.15682  -1.09038  -1.02411  -1.02119
 Alpha  occ. eigenvalues --   -1.01889  -1.01495  -1.01389  -0.92963  -0.84537
 Alpha  occ. eigenvalues --   -0.82943  -0.82542  -0.81709  -0.81562  -0.77734
 Alpha  occ. eigenvalues --   -0.70732  -0.70449  -0.69109  -0.65999  -0.63616
 Alpha  occ. eigenvalues --   -0.63501  -0.62370  -0.62033  -0.61902  -0.59569
 Alpha  occ. eigenvalues --   -0.58773  -0.58519  -0.58432  -0.57614  -0.53918
 Alpha  occ. eigenvalues --   -0.51741  -0.51081  -0.50853  -0.49675  -0.49166
 Alpha  occ. eigenvalues --   -0.48681  -0.47793  -0.47473  -0.46762  -0.34692
 Alpha  occ. eigenvalues --   -0.34245  -0.33698  -0.33587  -0.33282  -0.31179
 Alpha virt. eigenvalues --    0.11651   0.12014   0.13586   0.13743   0.14053
 Alpha virt. eigenvalues --    0.14931   0.15137   0.16274   0.16375   0.16881
 Alpha virt. eigenvalues --    0.18808   0.19132   0.19284   0.21286   0.21419
 Alpha virt. eigenvalues --    0.21512   0.23639   0.24244   0.24984   0.27157
 Alpha virt. eigenvalues --    0.28522   0.29490   0.34029   0.34194   0.35875
 Alpha virt. eigenvalues --    0.37459   0.38509   0.39677   0.40956   0.43680
 Alpha virt. eigenvalues --    0.44103   0.44380   0.45030   0.45396   0.45577
 Alpha virt. eigenvalues --    0.45871   0.46409   0.48413   0.49895   0.50381
 Alpha virt. eigenvalues --    0.50799   0.51020   0.51448   0.54977   0.55778
 Alpha virt. eigenvalues --    0.56808   0.57908   0.58954   0.59054   0.59610
 Alpha virt. eigenvalues --    0.59686   0.60665   0.61068   0.61499   0.61700
 Alpha virt. eigenvalues --    0.61853   0.62383   0.62467   0.63289   0.63464
 Alpha virt. eigenvalues --    0.64134   0.64996   0.65163   0.65418   0.66900
 Alpha virt. eigenvalues --    0.67405   0.68225   0.68440   0.70105   0.71402
 Alpha virt. eigenvalues --    0.72345   0.73799   0.74456   0.75067   0.76226
 Alpha virt. eigenvalues --    0.77295   0.78318   0.78615   0.80473   0.81180
 Alpha virt. eigenvalues --    0.81859   0.82195   0.82343   0.82823   0.82910
 Alpha virt. eigenvalues --    0.83517   0.83925   0.84056   0.84781   0.85604
 Alpha virt. eigenvalues --    0.86040   0.86385   0.86906   0.87457   0.88066
 Alpha virt. eigenvalues --    0.89674   0.90550   0.91270   0.92975   0.94410
 Alpha virt. eigenvalues --    0.96099   0.96852   0.97682   0.98143   0.98948
 Alpha virt. eigenvalues --    0.99322   1.00300   1.02798   1.05759   1.06234
 Alpha virt. eigenvalues --    1.06802   1.07140   1.08018   1.08378   1.10511
 Alpha virt. eigenvalues --    1.11095   1.12220   1.12488   1.12994   1.14257
 Alpha virt. eigenvalues --    1.14642   1.15388   1.18584   1.19508   1.21714
 Alpha virt. eigenvalues --    1.25331   1.26746   1.27690   1.28217   1.28841
 Alpha virt. eigenvalues --    1.30332   1.35134   1.39500   1.45224   1.46622
 Alpha virt. eigenvalues --    1.51671   1.52281   1.56504   2.54614   2.55622
 Alpha virt. eigenvalues --    2.56175   2.59185   2.61969   2.62498   2.64459
 Alpha virt. eigenvalues --    2.66992   2.67724   2.68454   2.72313   2.76767
 Alpha virt. eigenvalues --    2.77773   2.83496   2.87938   2.88626   2.94130
 Alpha virt. eigenvalues --    2.94275   2.94424   2.97080   2.97455   2.98030
 Alpha virt. eigenvalues --    3.00372   3.00773   3.04045   3.05738   3.07139
 Alpha virt. eigenvalues --    3.08139   3.08426   3.08971   3.09974   3.14328
 Alpha virt. eigenvalues --    3.14782   3.16344   3.16834   3.17572   3.18825
 Alpha virt. eigenvalues --    3.22648   3.25641   3.25815   3.28297   3.28890
 Alpha virt. eigenvalues --    3.30928   3.33380   3.34270   3.35155   3.42632
 Alpha virt. eigenvalues --    3.43063   3.44417   3.46940   3.49491   3.52245
 Alpha virt. eigenvalues --    3.53438   3.54455   3.59231   3.60650   3.60675
 Alpha virt. eigenvalues --    3.63122   3.63507   3.63784   3.65972   3.66670
 Alpha virt. eigenvalues --    3.68371   3.70281   3.70470   3.71432   3.73486
 Alpha virt. eigenvalues --    3.74191   3.75554   3.80869   3.85850   3.86661
 Alpha virt. eigenvalues --    3.93029  24.24836  24.30689  24.31557  24.50538
 Alpha virt. eigenvalues --   24.50836  24.51121  24.53994  24.54667  24.56107
 Alpha virt. eigenvalues --   24.77291  24.78593  24.79145  24.79612  24.80650
 Alpha virt. eigenvalues --   24.81850  24.83243  25.05545  25.05824  25.06129
          Condensed to atoms (all electrons):
              1          2          3          4          5          6
     1  C    5.829952   0.463822   0.185191  -0.054360  -0.026155   0.001397
     2  H    0.463822   0.512420  -0.074290   0.005548   0.002065  -0.000282
     3  C    0.185191  -0.074290   5.374920   0.438953   0.503542  -0.061682
     4  C   -0.054360   0.005548   0.438953   5.095247  -0.065461   0.479346
     5  C   -0.026155   0.002065   0.503542  -0.065461   5.070205  -0.033433
     6  C    0.001397  -0.000282  -0.061682   0.479346  -0.033433   5.035917
     7  H    0.003101   0.000067  -0.048448   0.388555   0.004047  -0.027231
     8  C    0.007675   0.001758  -0.072783  -0.029607   0.459749  -0.076846
     9  H   -0.000482   0.002416  -0.046667   0.004630   0.395754  -0.000238
    10  C    0.001273  -0.000013  -0.017869  -0.092114  -0.086299   0.494267
    11  H   -0.000319   0.000012   0.006066  -0.039044  -0.000449   0.396664
    12  H   -0.000368  -0.000037   0.007065  -0.000618  -0.039719   0.006226
    13  H   -0.000013  -0.000001  -0.001593   0.008016   0.007532  -0.042918
    14  C    0.170894  -0.073825  -0.112478  -0.006305  -0.000340   0.001779
    15  C   -0.045167   0.002840   0.001925   0.000225   0.000197   0.000028
    16  C   -0.045927   0.005104  -0.004614  -0.017214   0.001486  -0.001732
    17  C    0.008278   0.001518  -0.000681   0.000029  -0.000004  -0.000001
    18  H   -0.000737   0.002690   0.000362  -0.000026  -0.000022   0.000002
    19  C    0.003558  -0.000275   0.001545  -0.000014   0.000042  -0.000089
    20  H   -0.000290  -0.000140  -0.003014   0.002894  -0.000257   0.001159
    21  C    0.001141  -0.000016   0.000021  -0.000004  -0.000011   0.000001
    22  H   -0.000389  -0.000029   0.000014   0.000000   0.000001   0.000000
    23  H   -0.000295   0.000014   0.000011   0.000031   0.000002   0.000000
    24  H   -0.000019  -0.000001  -0.000002   0.000001   0.000000   0.000000
    25  C    0.157761  -0.059852  -0.154361  -0.007707  -0.005704   0.000737
    26  C   -0.040042   0.004907  -0.014050  -0.000061  -0.000319  -0.000031
    27  C   -0.050148  -0.003271   0.000688   0.000792   0.002050  -0.000067
    28  C    0.004837  -0.000248   0.000631  -0.000659   0.000027  -0.000016
    29  H   -0.001659  -0.000067  -0.001022   0.000490  -0.000081   0.000062
    30  C    0.006263   0.001548  -0.000426   0.000194  -0.000036   0.000002
    31  H    0.001781   0.001061   0.000558  -0.000051   0.001440  -0.000018
    32  C    0.000989   0.000009   0.000075   0.000029  -0.000003   0.000003
    33  H   -0.000325   0.000013   0.000005   0.000014   0.000000   0.000000
    34  H   -0.000351  -0.000026   0.000012   0.000003  -0.000001   0.000000
    35  H   -0.000012  -0.000002  -0.000001  -0.000001   0.000000   0.000000
              7          8          9         10         11         12
     1  C    0.003101   0.007675  -0.000482   0.001273  -0.000319  -0.000368
     2  H    0.000067   0.001758   0.002416  -0.000013   0.000012  -0.000037
     3  C   -0.048448  -0.072783  -0.046667  -0.017869   0.006066   0.007065
     4  C    0.388555  -0.029607   0.004630  -0.092114  -0.039044  -0.000618
     5  C    0.004047   0.459749   0.395754  -0.086299  -0.000449  -0.039719
     6  C   -0.027231  -0.076846  -0.000238   0.494267   0.396664   0.006226
     7  H    0.495234  -0.000168  -0.000260   0.004558  -0.003430   0.000021
     8  C   -0.000168   5.054958  -0.035032   0.497014   0.005998   0.396783
     9  H   -0.000260  -0.035032   0.510852   0.005159   0.000024  -0.004173
    10  C    0.004558   0.497014   0.005159   5.031048  -0.039547  -0.040782
    11  H   -0.003430   0.005998   0.000024  -0.039547   0.515349  -0.000211
    12  H    0.000021   0.396783  -0.004173  -0.040782  -0.000211   0.518315
    13  H   -0.000169  -0.042743  -0.000186   0.399620  -0.004454  -0.004580
    14  C   -0.003188  -0.000601   0.000559  -0.000035   0.000009   0.000020
    15  C   -0.000197  -0.000009   0.000136  -0.000001   0.000000   0.000000
    16  C    0.000288   0.000126   0.000002   0.000044   0.000016  -0.000001
    17  C    0.000016   0.000001   0.000003   0.000000   0.000000   0.000000
    18  H   -0.000007   0.000001  -0.000025   0.000000   0.000000   0.000000
    19  C    0.000862   0.000000   0.000003   0.000003   0.000001   0.000000
    20  H    0.003446  -0.000139  -0.000005   0.000079  -0.000105   0.000000
    21  C   -0.000011   0.000000  -0.000001   0.000000   0.000000   0.000000
    22  H    0.000000   0.000000   0.000000   0.000000   0.000000   0.000000
    23  H   -0.000053   0.000000   0.000000  -0.000001   0.000001   0.000000
    24  H    0.000000   0.000000   0.000000   0.000000   0.000000   0.000000
    25  C   -0.001873  -0.000463   0.000151   0.000097   0.000018   0.000011
    26  C    0.004742   0.000048  -0.000048  -0.000004  -0.000002   0.000000
    27  C   -0.000268  -0.000099   0.000253  -0.000014   0.000006   0.000003
    28  C    0.000444  -0.000001   0.000000   0.000000  -0.000001   0.000000
    29  H    0.001019   0.000002   0.000000   0.000002  -0.000009   0.000000
    30  C   -0.000099   0.000007  -0.000006   0.000000   0.000001   0.000000
    31  H   -0.000037   0.000030   0.000256  -0.000012   0.000000  -0.000003
    32  C   -0.000011   0.000000   0.000000   0.000000   0.000000   0.000000
    33  H   -0.000001   0.000000   0.000000   0.000000   0.000000   0.000000
    34  H    0.000001   0.000000  -0.000001   0.000000   0.000000   0.000000
    35  H   -0.000001   0.000000   0.000000   0.000000   0.000000   0.000000
             13         14         15         16         17         18
     1  C   -0.000013   0.170894  -0.045167  -0.045927   0.008278  -0.000737
     2  H   -0.000001  -0.073825   0.002840   0.005104   0.001518   0.002690
     3  C   -0.001593  -0.112478   0.001925  -0.004614  -0.000681   0.000362
     4  C    0.008016  -0.006305   0.000225  -0.017214   0.000029  -0.000026
     5  C    0.007532  -0.000340   0.000197   0.001486  -0.000004  -0.000022
     6  C   -0.042918   0.001779   0.000028  -0.001732  -0.000001   0.000002
     7  H   -0.000169  -0.003188  -0.000197   0.000288   0.000016  -0.000007
     8  C   -0.042743  -0.000601  -0.000009   0.000126   0.000001   0.000001
     9  H   -0.000186   0.000559   0.000136   0.000002   0.000003  -0.000025
    10  C    0.399620  -0.000035  -0.000001   0.000044   0.000000   0.000000
    11  H   -0.004454   0.000009   0.000000   0.000016   0.000000   0.000000
    12  H   -0.004580   0.000020   0.000000  -0.000001   0.000000   0.000000
    13  H    0.517465  -0.000001   0.000000   0.000001   0.000000   0.000000
    14  C   -0.000001   5.366640   0.495207   0.450146  -0.071619  -0.045648
    15  C    0.000000   0.495207   5.040891  -0.061463   0.471739   0.394443
    16  C    0.000001   0.450146  -0.061463   5.121807  -0.031252   0.004758
    17  C    0.000000  -0.071619   0.471739  -0.031252   5.044440  -0.034670
    18  H    0.000000  -0.045648   0.394443   0.004758  -0.034670   0.507663
    19  C    0.000000  -0.064394  -0.036168   0.473381  -0.075113  -0.000401
    20  H    0.000000  -0.053071   0.004508   0.386607  -0.000212  -0.000243
    21  C    0.000000  -0.017769  -0.086705  -0.094863   0.494717   0.005347
    22  H    0.000000   0.007157  -0.039689  -0.000600   0.396676  -0.004218
    23  H    0.000000   0.006025  -0.000392  -0.036758   0.005898   0.000022
    24  H    0.000000  -0.001595   0.007488   0.008128  -0.042955  -0.000183
    25  C   -0.000002  -0.103853  -0.001463  -0.005794  -0.000716   0.000479
    26  C    0.000000  -0.014333   0.001919  -0.007391   0.000224   0.000186
    27  C    0.000000   0.006379   0.000445  -0.000174   0.000003   0.000117
    28  C    0.000000   0.000522  -0.000088   0.000015  -0.000003   0.000009
    29  H    0.000000  -0.003181  -0.000886   0.001082  -0.000135  -0.000036
    30  C    0.000000  -0.000759  -0.000016   0.000025   0.000001  -0.000008
    31  H    0.000000   0.000694   0.000013  -0.000038   0.000001   0.000003
    32  C    0.000000   0.000045  -0.000013  -0.000019   0.000000  -0.000004
    33  H    0.000000   0.000037   0.000007   0.000028   0.000001   0.000000
    34  H    0.000000   0.000011   0.000001   0.000000   0.000000   0.000000
    35  H    0.000000  -0.000001   0.000000   0.000001   0.000000   0.000000
             19         20         21         22         23         24
     1  C    0.003558  -0.000290   0.001141  -0.000389  -0.000295  -0.000019
     2  H   -0.000275  -0.000140  -0.000016  -0.000029   0.000014  -0.000001
     3  C    0.001545  -0.003014   0.000021   0.000014   0.000011  -0.000002
     4  C   -0.000014   0.002894  -0.000004   0.000000   0.000031   0.000001
     5  C    0.000042  -0.000257  -0.000011   0.000001   0.000002   0.000000
     6  C   -0.000089   0.001159   0.000001   0.000000   0.000000   0.000000
     7  H    0.000862   0.003446  -0.000011   0.000000  -0.000053   0.000000
     8  C    0.000000  -0.000139   0.000000   0.000000   0.000000   0.000000
     9  H    0.000003  -0.000005  -0.000001   0.000000   0.000000   0.000000
    10  C    0.000003   0.000079   0.000000   0.000000  -0.000001   0.000000
    11  H    0.000001  -0.000105   0.000000   0.000000   0.000001   0.000000
    12  H    0.000000   0.000000   0.000000   0.000000   0.000000   0.000000
    13  H    0.000000   0.000000   0.000000   0.000000   0.000000   0.000000
    14  C   -0.064394  -0.053071  -0.017769   0.007157   0.006025  -0.001595
    15  C   -0.036168   0.004508  -0.086705  -0.039689  -0.000392   0.007488
    16  C    0.473381   0.386607  -0.094863  -0.000600  -0.036758   0.008128
    17  C   -0.075113  -0.000212   0.494717   0.396676   0.005898  -0.042955
    18  H   -0.000401  -0.000243   0.005347  -0.004218   0.000022  -0.000183
    19  C    5.056532  -0.025338   0.495791   0.006234   0.395583  -0.042551
    20  H   -0.025338   0.498450   0.004798   0.000020  -0.003440  -0.000183
    21  C    0.495791   0.004798   5.030330  -0.041076  -0.039651   0.399180
    22  H    0.006234   0.000020  -0.041076   0.517972  -0.000212  -0.004550
    23  H    0.395583  -0.003440  -0.039651  -0.000212   0.515455  -0.004359
    24  H   -0.042551  -0.000183   0.399180  -0.004550  -0.004359   0.517644
    25  C    0.000882  -0.000497   0.000023   0.000021  -0.000007   0.000001
    26  C   -0.001490   0.000344   0.000081  -0.000001   0.000013   0.000000
    27  C    0.000023  -0.000028  -0.000001   0.000000  -0.000001   0.000000
    28  C   -0.000031   0.000052   0.000004   0.000000   0.000001   0.000000
    29  H    0.000961   0.000147   0.000047   0.000001  -0.000003   0.000001
    30  C    0.000000   0.000006   0.000000   0.000000   0.000000   0.000000
    31  H    0.000000   0.000007   0.000000   0.000000   0.000000   0.000000
    32  C    0.000000   0.000001   0.000000   0.000000   0.000000   0.000000
    33  H   -0.000001  -0.000017  -0.000001   0.000000   0.000000   0.000000
    34  H    0.000000   0.000000   0.000000   0.000000   0.000000   0.000000
    35  H    0.000000   0.000000   0.000000   0.000000   0.000000   0.000000
             25         26         27         28         29         30
     1  C    0.157761  -0.040042  -0.050148   0.004837  -0.001659   0.006263
     2  H   -0.059852   0.004907  -0.003271  -0.000248  -0.000067   0.001548
     3  C   -0.154361  -0.014050   0.000688   0.000631  -0.001022  -0.000426
     4  C   -0.007707  -0.000061   0.000792  -0.000659   0.000490   0.000194
     5  C   -0.005704  -0.000319   0.002050   0.000027  -0.000081  -0.000036
     6  C    0.000737  -0.000031  -0.000067  -0.000016   0.000062   0.000002
     7  H   -0.001873   0.004742  -0.000268   0.000444   0.001019  -0.000099
     8  C   -0.000463   0.000048  -0.000099  -0.000001   0.000002   0.000007
     9  H    0.000151  -0.000048   0.000253   0.000000   0.000000  -0.000006
    10  C    0.000097  -0.000004  -0.000014   0.000000   0.000002   0.000000
    11  H    0.000018  -0.000002   0.000006  -0.000001  -0.000009   0.000001
    12  H    0.000011   0.000000   0.000003   0.000000   0.000000   0.000000
    13  H   -0.000002   0.000000   0.000000   0.000000   0.000000   0.000000
    14  C   -0.103853  -0.014333   0.006379   0.000522  -0.003181  -0.000759
    15  C   -0.001463   0.001919   0.000445  -0.000088  -0.000886  -0.000016
    16  C   -0.005794  -0.007391  -0.000174   0.000015   0.001082   0.000025
    17  C   -0.000716   0.000224   0.000003  -0.000003  -0.000135   0.000001
    18  H    0.000479   0.000186   0.000117   0.000009  -0.000036  -0.000008
    19  C    0.000882  -0.001490   0.000023  -0.000031   0.000961   0.000000
    20  H   -0.000497   0.000344  -0.000028   0.000052   0.000147   0.000006
    21  C    0.000023   0.000081  -0.000001   0.000004   0.000047   0.000000
    22  H    0.000021  -0.000001   0.000000   0.000000   0.000001   0.000000
    23  H   -0.000007   0.000013  -0.000001   0.000001  -0.000003   0.000000
    24  H    0.000001   0.000000   0.000000   0.000000   0.000001   0.000000
    25  C    5.366209   0.486002   0.473116  -0.064568  -0.042651  -0.065323
    26  C    0.486002   5.087564  -0.071963   0.471475   0.390180  -0.027893
    27  C    0.473116  -0.071963   5.071661  -0.031578   0.004189   0.466288
    28  C   -0.064568   0.471475  -0.031578   5.050471  -0.029945  -0.076892
    29  H   -0.042651   0.390180   0.004189  -0.029945   0.481502  -0.000181
    30  C   -0.065323  -0.027893   0.466288  -0.076892  -0.000181   5.050221
    31  H   -0.050630   0.004142   0.399567  -0.000335  -0.000249  -0.035572
    32  C   -0.018523  -0.093501  -0.086100   0.499298   0.004712   0.488945
    33  H    0.006179  -0.037575  -0.000424   0.395904  -0.003333   0.005997
    34  H    0.006706  -0.000523  -0.039648   0.006124   0.000020   0.397087
    35  H   -0.001479   0.007827   0.007374  -0.042209  -0.000182  -0.042954
             31         32         33         34         35
     1  C    0.001781   0.000989  -0.000325  -0.000351  -0.000012
     2  H    0.001061   0.000009   0.000013  -0.000026  -0.000002
     3  C    0.000558   0.000075   0.000005   0.000012  -0.000001
     4  C   -0.000051   0.000029   0.000014   0.000003  -0.000001
     5  C    0.001440  -0.000003   0.000000  -0.000001   0.000000
     6  C   -0.000018   0.000003   0.000000   0.000000   0.000000
     7  H   -0.000037  -0.000011  -0.000001   0.000001  -0.000001
     8  C    0.000030   0.000000   0.000000   0.000000   0.000000
     9  H    0.000256   0.000000   0.000000  -0.000001   0.000000
    10  C   -0.000012   0.000000   0.000000   0.000000   0.000000
    11  H    0.000000   0.000000   0.000000   0.000000   0.000000
    12  H   -0.000003   0.000000   0.000000   0.000000   0.000000
    13  H    0.000000   0.000000   0.000000   0.000000   0.000000
    14  C    0.000694   0.000045   0.000037   0.000011  -0.000001
    15  C    0.000013  -0.000013   0.000007   0.000001   0.000000
    16  C   -0.000038  -0.000019   0.000028   0.000000   0.000001
    17  C    0.000001   0.000000   0.000001   0.000000   0.000000
    18  H    0.000003  -0.000004   0.000000   0.000000   0.000000
    19  C    0.000000   0.000000  -0.000001   0.000000   0.000000
    20  H    0.000007   0.000001  -0.000017   0.000000   0.000000
    21  C    0.000000   0.000000  -0.000001   0.000000   0.000000
    22  H    0.000000   0.000000   0.000000   0.000000   0.000000
    23  H    0.000000   0.000000   0.000000   0.000000   0.000000
    24  H    0.000000   0.000000   0.000000   0.000000   0.000000
    25  C   -0.050630  -0.018523   0.006179   0.006706  -0.001479
    26  C    0.004142  -0.093501  -0.037575  -0.000523   0.007827
    27  C    0.399567  -0.086100  -0.000424  -0.039648   0.007374
    28  C   -0.000335   0.499298   0.395904   0.006124  -0.042209
    29  H   -0.000249   0.004712  -0.003333   0.000020  -0.000182
    30  C   -0.035572   0.488945   0.005997   0.397087  -0.042954
    31  H    0.509918   0.005340   0.000024  -0.004288  -0.000185
    32  C    0.005340   5.033428  -0.040251  -0.040724   0.399194
    33  H    0.000024  -0.040251   0.516797  -0.000213  -0.004445
    34  H   -0.004288  -0.040724  -0.000213   0.518587  -0.004486
    35  H   -0.000185   0.399194  -0.004445  -0.004486   0.518539
 Mulliken atomic charges:
              1
     1  C   -0.580855
     2  H    0.204564
     3  C    0.092395
     4  C   -0.111752
     5  C   -0.189845
     6  C   -0.173008
     7  H    0.179050
     8  C   -0.165658
     9  H    0.166925
    10  C   -0.156471
    11  H    0.163408
    12  H    0.162050
    13  H    0.164028
    14  C    0.066871
    15  C   -0.149754
    16  C   -0.145206
    17  C   -0.166184
    18  H    0.170147
    19  C   -0.189535
    20  H    0.184460
    21  C   -0.151372
    22  H    0.162669
    23  H    0.162112
    24  H    0.163957
    25  C    0.087074
    26  C   -0.150426
    27  C   -0.149169
    28  C   -0.183239
    29  H    0.199205
    30  C   -0.166420
    31  H    0.166583
    32  C   -0.152917
    33  H    0.161581
    34  H    0.161708
    35  H    0.163022
 Sum of Mulliken atomic charges =   0.00000
 Mulliken charges with hydrogens summed into heavy atoms:
              1
     1  C   -0.376291
     3  C    0.092395
     4  C    0.067298
     5  C   -0.022919
     6  C   -0.009600
     8  C   -0.003608
    10  C    0.007558
    14  C    0.066871
    15  C    0.020394
    16  C    0.039254
    17  C   -0.003515
    19  C   -0.027423
    21  C    0.012585
    25  C    0.087074
    26  C    0.048779
    27  C    0.017414
    28  C   -0.021658
    30  C   -0.004713
    32  C    0.010105
 Sum of Mulliken charges with hydrogens summed into heavy atoms =   0.00000
 Electronic spatial extent (au):  <R**2>=           4939.5769
 Charge=              0.0000 electrons
 Dipole moment (field-independent basis, Debye):
    X=             -0.0126    Y=             -0.0673    Z=             -0.0426  Tot=              0.0806
 Quadrupole moment (field-independent basis, Debye-Ang):
   XX=           -110.6073   YY=           -114.0674   ZZ=           -102.8525
   XY=              0.8048   XZ=              2.2774   YZ=             -0.1306
 Traceless Quadrupole moment (field-independent basis, Debye-Ang):
   XX=             -1.4316   YY=             -4.8916   ZZ=              6.3232
   XY=              0.8048   XZ=              2.2774   YZ=             -0.1306
 Octapole moment (field-independent basis, Debye-Ang**2):
  XXX=             40.1052  YYY=             17.6443  ZZZ=             -0.1803  XYY=            -44.8648
  XXY=            -13.6683  XXZ=             -6.5032  XZZ=              0.7666  YZZ=             -4.8383
  YYZ=             10.4058  XYZ=              0.0639
 Hexadecapole moment (field-independent basis, Debye-Ang**3):
 XXXX=          -3092.0832 YYYY=          -2907.1957 ZZZZ=           -786.8261 XXXY=             -6.8262
 XXXZ=              1.7299 YYYX=              3.4630 YYYZ=             59.0183 ZZZX=              6.2688
 ZZZY=             -3.9666 XXYY=           -972.9300 XXZZ=           -631.4652 YYZZ=           -601.1998
 XXYZ=            -50.0054 YYXZ=             21.5444 ZZXY=             15.6868
 N-N= 1.288394680926D+03 E-N=-4.272799462230D+03  KE= 7.285923707342D+02
 PrsmSu:  requested number of processors reduced to:  10 ShMem   1 Linda.
 Calling FoFJK, ICntrl=      2127 FMM=F ISym2X=0 I1Cent= 0 IOpClX= 0 NMat=1 NMatS=1 NMatT=0.
 ***** Axes restored to original set *****
 -------------------------------------------------------------------
 Center     Atomic                   Forces (Hartrees/Bohr)
 Number     Number              X              Y              Z
 -------------------------------------------------------------------
      1        6          -0.007460259   -0.003396162    0.022457644
      2        1           0.007321804    0.005264071   -0.025975007
      3        6          -0.014060322   -0.000795404    0.001028842
      4        6           0.009408276    0.000502808   -0.007002064
      5        6          -0.000747462   -0.000434511    0.006023212
      6        6           0.003126034    0.001551321   -0.011939132
      7        1          -0.024843105   -0.009645326    0.005315894
      8        6          -0.012653225   -0.000769629    0.004085978
      9        1           0.001687551    0.001372921   -0.017612817
     10        6          -0.012313900   -0.000158862   -0.005724909
     11        1          -0.001095537   -0.001180538    0.016662287
     12        1           0.014798782    0.001086139   -0.007602483
     13        1           0.014054073   -0.000031979    0.009249375
     14        6           0.003516049    0.010203936    0.007746033
     15        6          -0.000309977   -0.002923384    0.005639157
     16        6          -0.004527151   -0.001663538   -0.012608193
     17        6           0.004920370    0.004853242    0.011135878
     18        1           0.002396613    0.009212299   -0.014970029
     19        6           0.002249318    0.006102597   -0.010324743
     20        1           0.010699578    0.015312471    0.024081589
     21        6           0.006641540    0.011665540    0.001823582
     22        1          -0.005453105   -0.005221920   -0.014843695
     23        1          -0.002653825   -0.009101918    0.013737296
     24        1          -0.008233432   -0.014588592   -0.001147864
     25        6           0.008465728   -0.011652991    0.002264603
     26        6           0.003042149    0.009743383   -0.004489712
     27        6          -0.004335058   -0.002474501    0.004043254
     28        6           0.008681142    0.000223629   -0.008488768
     29        1          -0.001711566   -0.020118080    0.008669348
     30        6          -0.003018031   -0.011450120    0.004858403
     31        1           0.013064214    0.002755424   -0.011160129
     32        6           0.007923885   -0.010373370   -0.003744796
     33        1          -0.012533279   -0.002042658    0.010841233
     34        1           0.003300234    0.014999540   -0.006431935
     35        1          -0.009348105    0.013174164    0.004402668
 -------------------------------------------------------------------
 Cartesian Forces:  Max     0.025975007 RMS     0.009558701

 GradGradGradGradGradGradGradGradGradGradGradGradGradGradGradGradGradGrad
 Berny optimization.
 Internal  Forces:  Max     0.029810111 RMS     0.007837400
 Search for a local minimum.
 Step number   1 out of a maximum of  197
 All quantities printed in internal units (Hartrees-Bohrs-Radians)
 Mixed Optimization -- RFO/linear search
 Second derivative matrix not updated -- first step.
     Eigenvalues ---    0.00634   0.00646   0.00653   0.01530   0.01533
     Eigenvalues ---    0.01536   0.02138   0.02140   0.02146   0.02168
     Eigenvalues ---    0.02171   0.02172   0.02181   0.02185   0.02185
     Eigenvalues ---    0.02202   0.02202   0.02203   0.02212   0.02213
     Eigenvalues ---    0.02214   0.02215   0.02216   0.02217   0.02218
     Eigenvalues ---    0.02218   0.02220   0.02220   0.02220   0.02222
     Eigenvalues ---    0.04519   0.06372   0.06675   0.15996   0.15999
     Eigenvalues ---    0.15999   0.16000   0.16000   0.16000   0.16000
     Eigenvalues ---    0.16000   0.16000   0.16000   0.16000   0.16000
     Eigenvalues ---    0.16000   0.16000   0.16000   0.18938   0.19365
     Eigenvalues ---    0.22000   0.22000   0.22000   0.22000   0.22000
     Eigenvalues ---    0.22000   0.23476   0.23476   0.23477   0.24996
     Eigenvalues ---    0.24999   0.25000   0.31164   0.31352   0.31441
     Eigenvalues ---    0.31500   0.33474   0.33605   0.33964   0.34072
     Eigenvalues ---    0.34075   0.34094   0.34255   0.34258   0.34259
     Eigenvalues ---    0.34262   0.34263   0.34264   0.34283   0.34285
     Eigenvalues ---    0.34286   0.42418   0.42441   0.42493   0.42571
     Eigenvalues ---    0.42573   0.42614   0.46353   0.46357   0.46435
     Eigenvalues ---    0.46769   0.46772   0.46818   0.47224   0.47225
     Eigenvalues ---    0.47274   0.47319   0.47337   0.473781000.00000
     Eigenvalues --- 1000.000001000.000001000.000001000.000001000.00000
     Eigenvalues --- 1000.000001000.000001000.000001000.000001000.00000
     Eigenvalues --- 1000.000001000.000001000.000001000.000001000.00000
     Eigenvalues --- 1000.000001000.000001000.000001000.000001000.00000
     Eigenvalues --- 1000.000001000.000001000.000001000.000001000.00000
     Eigenvalues --- 1000.000001000.000001000.000001000.000001000.00000
     Eigenvalues --- 1000.000001000.000001000.000001000.000001000.00000
     Eigenvalues --- 1000.000001000.000001000.000001000.000001000.00000
     Eigenvalues --- 1000.000001000.000001000.000001000.000001000.00000
     Eigenvalues --- 1000.000001000.000001000.000001000.000001000.00000
     Eigenvalues --- 1000.000001000.000001000.000001000.000001000.00000
     Eigenvalues --- 1000.000001000.000001000.000001000.000001000.00000
     Eigenvalues --- 1000.000001000.000001000.000001000.000001000.00000
     Eigenvalues --- 1000.000001000.000001000.000001000.000001000.00000
     Eigenvalues --- 1000.000001000.000001000.000001000.000001000.00000
     Eigenvalues --- 1000.000001000.000001000.000001000.000001000.00000
     Eigenvalues --- 1000.000001000.000001000.000001000.000001000.00000
     Eigenvalues --- 1000.000001000.00000
 RFO step:  Lambda=-4.29131951D-02 EMin= 6.33841965D-03
 Linear search not attempted -- first point.
 Maximum step size (   0.300) exceeded in Quadratic search.
    -- Step size scaled by   0.575
 Iteration  1 RMS(Cart)=  0.12601676 RMS(Int)=  0.00284629
 Iteration  2 RMS(Cart)=  0.00585769 RMS(Int)=  0.00028951
 Iteration  3 RMS(Cart)=  0.00000908 RMS(Int)=  0.00028946
 Iteration  4 RMS(Cart)=  0.00000000 RMS(Int)=  0.00028946
 Variable       Old X    -DE/DX   Delta X   Delta X   Delta X     New X
                                 (Linear)    (Quad)   (Total)
    R1        2.12401  -0.02748   0.00000  -0.04456  -0.04456   2.07945
    R2        2.85178   0.02269   0.00000   0.03651   0.03651   2.88830
    R3        2.85068   0.02568   0.00000   0.04125   0.04125   2.89193
    R4        2.85346   0.02085   0.00000   0.03363   0.03363   2.88709
    R5        2.63785   0.00066   0.00000   0.00090   0.00092   2.63877
    R6        2.63968  -0.00409   0.00000  -0.00458  -0.00457   2.63511
    R7        2.62618  -0.00467   0.00000  -0.00513  -0.00512   2.62106
    R8        2.08003  -0.02549   0.00000  -0.03866  -0.03866   2.04136
    R9        2.62747  -0.00288   0.00000  -0.00328  -0.00329   2.62419
   R10        2.07203  -0.01774   0.00000  -0.02658  -0.02658   2.04545
   R11        2.62784  -0.00541   0.00000  -0.00611  -0.00613   2.62171
   R12        2.06888  -0.01674   0.00000  -0.02496  -0.02496   2.04392
   R13        2.62789  -0.00846   0.00000  -0.00959  -0.00961   2.61828
   R14        2.06902  -0.01667   0.00000  -0.02487  -0.02487   2.04415
   R15        2.06855  -0.01682   0.00000  -0.02508  -0.02508   2.04347
   R16        2.64209  -0.00342   0.00000  -0.00385  -0.00383   2.63826
   R17        2.63782   0.00073   0.00000   0.00102   0.00103   2.63886
   R18        2.62613  -0.00355   0.00000  -0.00407  -0.00406   2.62207
   R19        2.07209  -0.01773   0.00000  -0.02657  -0.02657   2.04553
   R20        2.62706  -0.00314   0.00000  -0.00338  -0.00339   2.62367
   R21        2.08227  -0.02981   0.00000  -0.04538  -0.04538   2.03689
   R22        2.62811  -0.00843   0.00000  -0.00960  -0.00961   2.61850
   R23        2.06887  -0.01665   0.00000  -0.02483  -0.02483   2.04403
   R24        2.62658  -0.00658   0.00000  -0.00739  -0.00741   2.61917
   R25        2.06890  -0.01669   0.00000  -0.02489  -0.02489   2.04401
   R26        2.06853  -0.01679   0.00000  -0.02502  -0.02502   2.04350
   R27        2.63534  -0.00257   0.00000  -0.00285  -0.00284   2.63250
   R28        2.64309  -0.00426   0.00000  -0.00490  -0.00490   2.63819
   R29        2.62847  -0.00268   0.00000  -0.00292  -0.00292   2.62555
   R30        2.07390  -0.02181   0.00000  -0.03278  -0.03278   2.04112
   R31        2.62502  -0.00407   0.00000  -0.00460  -0.00459   2.62043
   R32        2.07172  -0.01739   0.00000  -0.02605  -0.02605   2.04567
   R33        2.62602  -0.00623   0.00000  -0.00692  -0.00692   2.61910
   R34        2.06896  -0.01670   0.00000  -0.02490  -0.02490   2.04406
   R35        2.62910  -0.00609   0.00000  -0.00687  -0.00687   2.62223
   R36        2.06896  -0.01665   0.00000  -0.02483  -0.02483   2.04413
   R37        2.06850  -0.01674   0.00000  -0.02495  -0.02495   2.04355
    A1        1.86783  -0.00594   0.00000  -0.03548  -0.03472   1.83311
    A2        1.85563  -0.00923   0.00000  -0.04553  -0.04459   1.81104
    A3        1.85829  -0.00027   0.00000  -0.01899  -0.01882   1.83947
    A4        1.97498   0.01477   0.00000   0.05386   0.05269   2.02767
    A5        1.92510  -0.00404   0.00000   0.00961   0.00727   1.93237
    A6        1.97358   0.00298   0.00000   0.02536   0.02345   1.99704
    A7        2.12704   0.01649   0.00000   0.03226   0.03218   2.15922
    A8        2.07793  -0.00631   0.00000  -0.01249  -0.01256   2.06537
    A9        2.07808  -0.01021   0.00000  -0.02007  -0.02007   2.05801
   A10        2.10371   0.00375   0.00000   0.00835   0.00828   2.11199
   A11        2.07591   0.00414   0.00000   0.01304   0.01292   2.08883
   A12        2.10335  -0.00783   0.00000  -0.02088  -0.02100   2.08235
   A13        2.10042   0.00697   0.00000   0.01490   0.01490   2.11532
   A14        2.09441  -0.00405   0.00000  -0.00906  -0.00907   2.08535
   A15        2.08835  -0.00292   0.00000  -0.00583  -0.00585   2.08250
   A16        2.09573   0.00215   0.00000   0.00432   0.00432   2.10005
   A17        2.09161  -0.00099   0.00000  -0.00191  -0.00192   2.08969
   A18        2.09584  -0.00116   0.00000  -0.00241  -0.00242   2.09343
   A19        2.09803  -0.00013   0.00000  -0.00108  -0.00111   2.09693
   A20        2.09111   0.00022   0.00000   0.00098   0.00099   2.09210
   A21        2.09405  -0.00009   0.00000   0.00010   0.00011   2.09416
   A22        2.09036  -0.00251   0.00000  -0.00631  -0.00634   2.08402
   A23        2.09645   0.00126   0.00000   0.00317   0.00317   2.09961
   A24        2.09637   0.00126   0.00000   0.00315   0.00316   2.09953
   A25        2.06576  -0.01295   0.00000  -0.02543  -0.02545   2.04031
   A26        2.14221   0.02506   0.00000   0.04917   0.04916   2.19137
   A27        2.07521  -0.01211   0.00000  -0.02373  -0.02370   2.05151
   A28        2.10296   0.00833   0.00000   0.01765   0.01767   2.12064
   A29        2.09364  -0.00486   0.00000  -0.01080  -0.01082   2.08283
   A30        2.08658  -0.00347   0.00000  -0.00685  -0.00686   2.07972
   A31        2.10375   0.00438   0.00000   0.00973   0.00973   2.11348
   A32        2.08551   0.00422   0.00000   0.01330   0.01330   2.09880
   A33        2.09389  -0.00861   0.00000  -0.02305  -0.02306   2.07083
   A34        2.09763   0.00000   0.00000  -0.00104  -0.00105   2.09658
   A35        2.09144   0.00007   0.00000   0.00072   0.00072   2.09217
   A36        2.09411  -0.00007   0.00000   0.00032   0.00033   2.09444
   A37        2.09772   0.00246   0.00000   0.00503   0.00501   2.10273
   A38        2.09032  -0.00119   0.00000  -0.00240  -0.00239   2.08793
   A39        2.09515  -0.00127   0.00000  -0.00263  -0.00262   2.09253
   A40        2.08909  -0.00305   0.00000  -0.00762  -0.00765   2.08144
   A41        2.09688   0.00151   0.00000   0.00377   0.00379   2.10067
   A42        2.09722   0.00154   0.00000   0.00385   0.00386   2.10108
   A43        2.14070   0.00959   0.00000   0.01892   0.01891   2.15961
   A44        2.06486  -0.00201   0.00000  -0.00386  -0.00387   2.06100
   A45        2.07760  -0.00758   0.00000  -0.01506  -0.01505   2.06255
   A46        2.10164   0.00314   0.00000   0.00685   0.00685   2.10849
   A47        2.09254   0.00058   0.00000   0.00265   0.00265   2.09519
   A48        2.08896  -0.00372   0.00000  -0.00953  -0.00953   2.07943
   A49        2.10223   0.00533   0.00000   0.01117   0.01118   2.11341
   A50        2.09295  -0.00327   0.00000  -0.00731  -0.00732   2.08563
   A51        2.08800  -0.00205   0.00000  -0.00387  -0.00387   2.08413
   A52        2.09851   0.00133   0.00000   0.00282   0.00281   2.10131
   A53        2.08976  -0.00062   0.00000  -0.00127  -0.00126   2.08849
   A54        2.09492  -0.00072   0.00000  -0.00155  -0.00155   2.09337
   A55        2.09703   0.00009   0.00000  -0.00036  -0.00036   2.09667
   A56        2.09198   0.00001   0.00000   0.00033   0.00033   2.09231
   A57        2.09418  -0.00010   0.00000   0.00002   0.00003   2.09421
[...]
 .00007959,0.00023412,-0.00005671,0.00047268,0.00008055,0.00017219,0.00
 037614,-0.00006379,-0.00002879,-0.00005846,-0.00018265,-0.00011356,-0.
 00009916,-0.00009664,-0.00027267,-0.00000533,0.00002052,-0.00000881,-0
 .00011402,0.00010558,0.00022829,0.00000880,0.00000575,0.00001389,0.000
 01200,-0.00001811,0.00001627,0.00000999,-0.00000874,0.00000393,-0.0009
 2210,0.00071382,0.00079723,0.00009099,-0.00002474,-0.00019136,0.000155
 49,0.00020588,0.00002875,0.00011485,0.00008157,-0.00007054,-0.00002493
 ,-0.00001355,0.00008660,0.00000772,-0.00011623,-0.00008400,-0.00004033
 ,0.00003950,0.00000619,0.00004113,0.00002228,0.00012283,0.00000821,0.0
 0001987,0.00000659,0.00000735,0.00000619,-0.00000106,-0.00000728,-0.00
 000116,0.00000730,-0.03551828,-0.02573369,0.03511643,0.03797892,-0.017
 36620,-0.02765535,0.05971881,-0.00465460,-0.11816551,0.00595874,0.0595
 0584,-0.00378275,-0.00004830,-0.00054820,-0.00095627,-0.25319541,-0.09
 515910,0.34980827,-0.00104130,0.00100302,-0.00141722,0.00094874,-0.000
 20042,-0.00093299,0.00010584,0.00010403,-0.00012169,-0.00008302,0.0000
 5946,0.00009583,-0.00002163,-0.00003862,0.00003593,0.00003151,-0.00002
 388,-0.00003588,0.00001824,-0.00003360,-0.00002147,-0.00000131,0.00001
 941,-0.00001776,0.00000364,-0.00001810,-0.00000387,0.00000251,0.000006
 65,-0.00000044,-0.00000947,-0.00000362,-0.00000279,0.00000538,-0.00000
 130,-0.00000107,0.00000540,-0.00000401,0.00000032,0.00016435,-0.000082
 79,-0.00035527,0.00002011,-0.00012317,0.00011760,0.00010580,0.00006653
 ,-0.00003029,-0.00000051,0.00003106,-0.00000791,-0.00002688,-0.0000032
 4,-0.00002968,-0.00003325,0.00004622,-0.00004211,-0.00001050,0.0000052
 8,-0.00000399,0.00000037,-0.00002014,0.00000276,-0.00001024,-0.0000069
 0,-0.00000328,-0.00000657,0.00000925,0.00000520,-0.00000243,0.00000217
 ,-0.00000302,-0.00236810,0.00232251,0.00442847,0.00316579,-0.00073015,
 0.00314309,-0.26745140,-0.04202265,0.14133221,0.00036289,0.00030751,-0
 .00086076,-0.00032047,0.00007801,0.00011399,-0.01184862,-0.00827761,0.
 01186809,0.27845564,-0.00150454,0.00114451,0.00075040,0.00036608,-0.00
 052128,-0.00091495,0.00025085,0.00005215,0.00012366,-0.00013500,0.0000
 6028,0.00011066,0.00005629,-0.00003040,-0.00000243,0.00000343,-0.00002
 030,0.00000270,-0.00000465,-0.00000835,-0.00007136,0.00008215,-0.00000
 884,-0.00001610,0.00002379,-0.00005014,-0.00001715,-0.00004131,-0.0000
 3048,-0.00003642,-0.00001214,-0.00000289,-0.00003335,-0.00001863,0.000
 00823,0.00000191,-0.00001248,0.00000582,-0.00001836,-0.00005006,0.0000
 7876,-0.00036678,0.00005124,0.00001557,0.00003293,0.00013777,0.0001392
 5,0.00000407,0.00000743,0.00000216,-0.00001105,-0.00004787,-0.00000909
 ,-0.00001104,-0.00000401,0.00004813,-0.00002248,-0.00002081,-0.0000015
 5,0.00000233,0.00001256,0.00002813,0.00000228,0.00000532,0.00001017,0.
 00001098,0.00000187,0.00002520,-0.00000340,0.00000192,0.00001222,0.000
 00013,-0.02896117,-0.00073895,0.01890182,-0.00036816,-0.00607488,0.002
 62601,-0.04163417,-0.08140322,0.03065162,0.00040631,-0.00112860,-0.000
 22306,-0.00141263,-0.00011520,0.00089879,0.02565318,0.00981802,-0.0162
 5886,0.04350016,0.08110864,-0.00238745,-0.00092671,-0.00225786,0.00014
 073,0.00034465,-0.00004483,-0.00028644,0.00039273,0.00035995,0.0000284
 7,-0.00023644,-0.00006213,-0.00043339,-0.00003910,-0.00003667,-0.00020
 272,-0.00006170,-0.00009210,0.00016764,0.00009488,-0.00001315,-0.00002
 322,0.00005551,0.00014211,0.00003106,0.00001620,-0.00002540,0.00004652
 ,-0.00003362,-0.00009548,0.00000326,0.00002195,-0.00000331,0.00000490,
 0.00000506,-0.00001740,0.00001490,0.00000972,0.00000126,0.00017225,-0.
 00016809,0.00017995,-0.00004842,-0.00006771,0.00009695,-0.00005276,-0.
 00009031,-0.00001628,-0.00002446,0.00001752,-0.00004187,0.00001394,0.0
 0000298,-0.00003605,-0.00003070,-0.00001814,0.00002019,0.00002186,0.00
 000487,-0.00003325,0.00000310,-0.00000980,0.00000563,-0.00000228,-0.00
 001328,-0.00000593,-0.00000348,-0.00000554,-0.00000389,0.00000323,-0.0
 0000027,-0.00000507,0.01031441,-0.00130167,-0.00062454,0.00284835,0.00
 285981,0.00587389,0.14059903,0.03126753,-0.14032623,-0.00091387,-0.000
 14736,-0.00038940,0.00042474,0.00002507,-0.00031444,0.00672082,0.00438
 467,0.00084219,-0.15827670,-0.03460105,0.13477495,-0.00221033,-0.00035
 119,-0.00025488,0.00012857,0.00039760,-0.00077212,0.00024786,0.0013554
 5,0.00027167,-0.00023925,0.00020203,0.00002083,0.00019461,0.00011939,-
 0.00022754,0.00035492,-0.00011617,-0.00005454,-0.00000929,-0.00017186,
 -0.00015223,-0.00014023,-0.00013568,-0.00017869,0.00002800,0.00001109,
 0.00000263,-0.00018813,0.00010501,0.00016778,-0.00001213,0.00002188,-0
 .00004040,-0.00004286,-0.00002921,-0.00000078,0.00000213,-0.00000773,-
 0.00001202,-0.00005307,-0.00001053,0.00047444,0.00003013,-0.00022126,-
 0.00017981,0.00017164,0.00025937,0.00002017,0.00013922,0.00023558,-0.0
 0010640,-0.00008152,-0.00003191,0.00001933,-0.00015228,-0.00015357,-0.
 00010613,-0.00001704,0.00001611,-0.00000540,0.00009562,-0.00003095,0.0
 0021223,0.00000263,0.00002883,0.00001453,-0.00000506,0.00001696,0.0000
 0284,-0.00000229,0.00000586,0.00000368,-0.04169763,-0.04465716,0.02958
 059,0.06498916,-0.00009689,-0.03430774,-0.03963002,0.07088686,0.020006
 90,-0.15203938,0.00222171,0.04113659,-0.00018185,0.00415728,0.00468692
 ,-0.27697701,-0.05878835,0.12940392,0.00151356,0.00375449,0.00406982,0
 .62260267,-0.00145135,0.00067626,0.00025084,0.00018213,-0.00000990,-0.
 00070260,-0.00016102,0.00056946,-0.00032096,0.00010782,0.00018334,-0.0
 0009377,0.00041604,0.00011464,0.00017573,0.00033699,-0.00011106,-0.000
 00262,0.00006210,-0.00028431,-0.00026665,-0.00009346,-0.00009642,-0.00
 024437,-0.00002184,0.00000550,-0.00000453,-0.00009032,0.00009676,0.000
 22301,0.00004094,0.00000824,0.00003449,0.00001397,-0.00003202,0.000022
 77,0.00001727,-0.00000214,0.00000405,0.00031887,0.00009967,0.00043559,
 0.00001925,-0.00039703,-0.00010219,0.00016748,0.00026420,-0.00019193,0
 .00014328,0.00033411,-0.00006998,-0.00002148,0.00000730,0.00005983,-0.
 00018706,-0.00015420,-0.00016831,-0.00000759,0.00002845,-0.00001695,0.
 00003661,-0.00015088,0.00028960,-0.00000613,-0.00002130,-0.00003540,-0
 .00000879,-0.00002748,0.00001409,-0.00000550,-0.00002554,-0.00000399,-
 0.04348699,-0.04635879,0.03343574,0.05904882,-0.06373798,-0.02490235,0
 .01199504,0.07543698,-0.01698366,-0.07370532,-0.34173677,0.08806367,0.
 00394011,-0.00178181,-0.00075519,0.01669281,-0.16671725,0.00382253,0.0
 0434272,-0.00384670,-0.00062295,-0.09106824,0.79243427,0.00107885,-0.0
 0012912,-0.00066842,0.00001005,-0.00041905,0.00054165,-0.00020978,-0.0
 0071928,0.00004958,0.00021587,-0.00025442,0.00007570,-0.00030205,-0.00
 009250,0.00009734,-0.00029836,0.00006874,-0.00003355,0.00009661,0.0000
 7452,0.00003925,0.00011654,0.00010675,0.00020593,-0.00000802,-0.000000
 37,0.00000072,0.00017718,-0.00009410,-0.00015955,0.00001405,-0.0000227
 7,0.00004483,0.00002065,0.00002428,-0.00000459,0.00000563,0.00000380,0
 .00000354,0.00004921,-0.00004378,-0.00036221,-0.00007933,0.00022981,0.
 00010255,-0.00015846,-0.00026612,0.00004283,-0.00013099,-0.00022223,0.
 00006861,0.00004339,-0.00000208,-0.00004964,0.00014135,0.00013337,0.00
 010619,0.00000346,-0.00000869,-0.00000410,-0.00006460,0.00004895,-0.00
 019615,0.00000183,-0.00000220,0.00000723,0.00000384,-0.00000562,-0.000
 00310,0.00000231,0.00000488,-0.00000446,0.02838541,0.03445413,-0.03123
 959,-0.04358607,0.01225718,0.03491349,0.02869766,-0.05484869,0.0004482
 2,0.05412714,0.04192646,-0.12367443,0.00487229,-0.00110127,0.00618473,
 0.11644673,0.05055101,-0.16431740,0.00385985,-0.00015051,0.00670767,-0
 .26086752,-0.04730285,0.34378093,-0.00049703,-0.00056138,0.00039694,-0
 .00023379,0.00023013,0.00006146,0.00007988,0.00011520,0.00021809,-0.00
 009381,0.00005828,-0.00004827,-0.00008987,-0.00000815,-0.00010957,0.00
 001144,0.00001355,0.00002131,0.00000741,-0.00002357,0.00007619,-0.0000
 0989,0.00000034,0.00000133,0.00001824,-0.00001460,-0.00000888,-0.00002
 718,0.00000274,-0.00001395,-0.00002220,-0.00000841,-0.00002644,-0.0000
 1799,0.00000356,-0.00000456,-0.00001344,-0.00000198,-0.00000579,-0.000
 11523,-0.00022904,-0.00006414,0.00003764,0.00001893,0.00000902,0.00006
 778,0.00007411,0.00002627,-0.00000101,0.00000527,-0.00002107,-0.000012
 54,-0.00000431,-0.00002886,0.00000266,-0.00001632,-0.00001584,-0.00002
 020,-0.00000811,0.00000543,0.00003489,0.00003162,0.00000721,0.00000485
 ,0.00000929,0.00001189,-0.00000488,0.00002962,-0.00000720,0.00000182,0
 .00001705,0.00000450,0.00156325,0.00418153,0.00364488,-0.01178419,-0.0
 0819478,0.01194051,0.00040482,0.00038355,-0.00090604,-0.27028193,-0.04
 274828,0.14275002,-0.00040443,0.00012986,-0.00282857,0.00351759,-0.000
 66316,0.00343694,-0.00042322,-0.00013341,-0.00048275,-0.00097745,0.003
 27467,0.00348322,0.28008292,0.00076518,0.00056174,-0.00063314,0.000210
 60,-0.00018668,-0.00011902,-0.00000952,-0.00008842,-0.00011298,0.00001
 202,-0.00000821,0.00002583,0.00005449,-0.00001317,0.00004035,0.0000005
 6,0.00000608,0.00000911,0.00000398,0.00000774,0.00000198,0.00001174,0.
 00000416,-0.00000225,-0.00000995,0.00000185,0.00000729,0.00001009,-0.0
 0000124,0.00000430,0.00000287,0.00000149,0.00000472,0.00000727,-0.0000
 0005,0.00000171,0.00000118,-0.00000049,0.00000232,0.00000039,0.0001923
 0,0.00004671,-0.00003083,-0.00002002,-0.00000666,-0.00003635,-0.000007
 18,0.00002711,-0.00001006,0.00000447,-0.00000149,0.00001240,-0.0000023
 8,0.00000191,-0.00001814,-0.00001162,0.00001107,0.00001937,0.00000082,
 -0.00000350,-0.00002907,-0.00003162,0.00000195,0.00000106,-0.00000759,
 -0.00000679,0.00000751,-0.00001473,-0.00000127,0.00000470,-0.00000685,
 -0.00000374,0.00394506,-0.00387737,-0.00028680,0.02519694,0.00984086,-
 0.01616082,0.00036024,-0.00127547,-0.00019712,-0.04274899,-0.08218037,
 0.03156352,-0.00099281,0.00118966,-0.00040411,-0.00024541,-0.00587335,
 0.00261520,-0.00011696,0.00007803,-0.00014588,-0.03029316,0.00059787,0
 .01933715,0.04506399,0.08021782,0.00004110,0.00051761,-0.00021376,0.00
 006598,-0.00002328,-0.00006459,0.00000776,-0.00013502,-0.00003318,-0.0
 0001920,0.00003203,0.00004751,0.00001446,-0.00001971,0.00003519,-0.000
 00138,-0.00000571,-0.00001872,0.00000758,-0.00000239,-0.00001402,0.000
 01908,0.00001066,0.00000680,-0.00000677,-0.00000310,-0.00000533,0.0000
 1514,-0.00000801,-0.00000720,-0.00000350,0.00000475,0.00000218,0.00001
 360,-0.00000028,-0.00000281,0.00000935,-0.00000283,0.00000421,0.000076
 52,0.00001783,0.00002218,-0.00001586,-0.00007452,-0.00000510,0.0000084
 8,0.00003377,-0.00002827,-0.00000394,0.00004736,0.00000550,0.00002405,
 0.00001159,-0.00000075,-0.00003658,-0.00002031,-0.00001867,-0.00000074
 ,0.00001102,-0.00000818,-0.00002200,-0.00004357,0.00003770,-0.00000028
 ,-0.00001861,-0.00002547,0.00000220,-0.00000995,0.00000109,0.00000276,
 -0.00001611,-0.00000391,0.00404492,-0.00070490,0.00630289,0.00628871,0
 .00433603,0.00094179,-0.00090507,-0.00033068,-0.00035605,0.14259264,0.
 03136995,-0.14126599,-0.00266366,-0.00089831,-0.00322112,0.00332277,0.
 00292195,0.00643518,-0.00048641,-0.00014594,-0.00094138,0.00913131,-0.
 00110025,0.00021462,-0.15905456,-0.03537170,0.13574081,0.00039656,0.00
 081640,-0.00035107,0.00006861,-0.00007531,0.00000685,0.00004695,0.0000
 3460,0.00005123,-0.00002924,-0.00001117,-0.00000519,-0.00003643,0.0000
 0426,-0.00001325,-0.00001618,-0.00001117,-0.00000709,0.00000533,0.0000
 2309,-0.00000336,-0.00000198,-0.00000736,0.00001129,0.00000727,0.00000
 501,-0.00000650,-0.00001400,-0.00000876,-0.00001682,-0.00000376,0.0000
 0585,-0.00001030,-0.00000124,0.00000359,-0.00000360,0.00000132,0.00000
 461,-0.00000218,-0.00027390,0.00015690,-0.00000308,0.00002786,0.000030
 08,0.00003358,0.00002657,0.00001328,0.00000135,0.00000020,-0.00003612,
 -0.00000390,-0.00000329,-0.00000028,0.00000483,0.00003837,0.00001474,0
 .00000224,-0.00001777,0.00000793,0.00000132,-0.00000101,0.00003167,-0.
 00002671,-0.00000123,0.00000048,0.00000260,0.00000190,0.00000765,-0.00
 000169,-0.00000223,0.00000222,0.00000132,-0.00008000,0.00378780,0.0048
 8066,-0.00105321,0.00048333,0.00000895,0.01005756,0.02294878,-0.006695
 71,-0.00239343,0.00041064,0.00677386,-0.00025842,-0.00009994,-0.000592
 75,-0.08171222,-0.06116298,0.03091807,-0.00045097,-0.00104338,-0.00274
 200,-0.00017954,-0.03018402,0.00862162,-0.00030808,-0.00136842,0.00035
 908,0.07653659,-0.00076189,-0.00078255,0.00052587,0.00001970,0.0000094
 6,-0.00004638,-0.00012053,-0.00010983,-0.00017275,0.00003972,0.0000282
 2,0.00006334,0.00008819,0.00002111,0.00007764,0.00000796,-0.00000144,-
 0.00002507,-0.00002106,-0.00002233,-0.00004982,0.00002355,0.00000990,-
 0.00000824,-0.00001982,-0.00000835,0.00000116,0.00003966,0.00000378,0.
 00000968,0.00000511,-0.00000631,0.00002657,0.00002206,-0.00001343,0.00
 000391,0.00001615,-0.00000794,0.00000985,0.00040214,-0.00005890,-0.000
 05861,-0.00002020,-0.00008361,0.00002338,-0.00006257,-0.00007976,-0.00
 005843,0.00000450,0.00001623,0.00002765,0.00001041,0.00001352,0.000012
 83,-0.00002021,0.00001882,-0.00000116,0.00000312,0.00000665,-0.0000024
 4,-0.00001388,-0.00003492,-0.00000187,-0.00001650,-0.00001313,-0.00001
 463,-0.00000631,-0.00001915,0.00001020,-0.00000659,-0.00001545,-0.0000
 0226,0.00442075,-0.00159017,-0.00086853,0.00061148,0.00068909,-0.00064
 713,-0.01060032,-0.01875725,0.01070553,-0.00008195,0.00184684,0.001216
 40,-0.00016219,-0.00011551,-0.00009801,-0.06098908,-0.32970731,0.08551
 395,0.00007220,0.00112923,-0.00112740,0.00315261,-0.00024601,-0.000960
 10,0.00002951,-0.00023275,-0.00000145,0.06499371,0.34709536,-0.0002142
 9,-0.00041697,0.00008188,0.00001629,0.00001456,-0.00005126,-0.00005305
 ,0.00009914,0.00001349,-0.00002266,-0.00000479,-0.00001212,0.00002556,
 0.00002420,-0.00002859,-0.00000086,-0.00001524,0.00002618,0.00002743,0
 .00002641,0.00000238,-0.00000464,-0.00001218,-0.00001164,0.00000355,-0
 .00000332,-0.00000489,-0.00002469,0.00000111,-0.00000125,-0.00000248,0
 .00000943,-0.00001810,-0.00000177,-0.00000269,-0.00000047,-0.00000317,
 0.00000582,-0.00000260,0.00002091,0.00006090,-0.00010183,-0.00000363,0
 .00000724,0.00005458,-0.00003211,-0.00003547,0.00001585,-0.00002496,-0
 .00004467,0.00000377,0.00001076,-0.00000123,-0.00001403,0.00001867,0.0
 0002850,0.00002532,0.00000271,-0.00000086,-0.00000246,-0.00001767,0.00
 001128,-0.00004353,-0.00000319,-0.00000650,-0.00000077,0.00000411,-0.0
 0000068,-0.00000361,0.00000225,0.00000076,-0.00000198,0.00484816,-0.00
 079184,0.00626558,0.00002406,-0.00068053,-0.00083727,-0.00087605,-0.00
 999065,0.00791434,0.00682458,0.00094337,0.00426598,-0.00057335,-0.0000
 8676,-0.00088857,0.03086631,0.08568285,-0.08257249,-0.00287593,-0.0004
 5082,-0.00332260,0.00286553,0.01960745,0.00033662,0.00013515,0.0008919
 7,-0.00030502,-0.03841326,-0.09374523,0.07225879,-0.00030462,0.0000087
 0,-0.00048321,0.00008495,-0.00000739,-0.00011271,-0.00000644,0.0001054
 3,0.00009412,-0.00003646,0.00001119,-0.00002443,-0.00002745,-0.0000045
 1,-0.00005307,0.00001299,0.00000180,0.00003090,0.00001388,0.00000207,0
 .00003986,-0.00000866,-0.00000561,-0.00000741,0.00000816,-0.00000678,-
 0.00000268,-0.00002125,0.00000227,0.00000100,-0.00000740,0.00000200,-0
 .00001971,-0.00001102,0.00000280,-0.00000089,-0.00001045,0.00000317,-0
 .00000509,-0.00005898,0.00000221,-0.00002863,-0.00000424,0.00002820,0.
 00002241,0.00001946,0.00001510,0.00002143,-0.00001394,-0.00000848,-0.0
 0001164,-0.00000046,-0.00000403,-0.00001699,0.00000689,-0.00000090,0.0
 0000375,-0.00000173,-0.00000399,-0.00000188,0.00000497,0.00001430,-0.0
 0000418,0.00000600,0.00000070,0.00000329,0.00000019,0.00000956,-0.0000
 0456,0.00000406,0.00000667,-0.00000020,-0.00031369,-0.00112874,-0.0001
 7883,0.00271533,-0.00149018,0.00407992,-0.00144678,-0.00162418,0.00654
 289,0.00965460,-0.00981672,-0.00109005,0.00021064,-0.00038176,-0.00011
 688,-0.01098610,0.02584305,0.00547296,-0.00079990,0.00108957,0.0002816
 3,-0.17566436,0.13934221,0.05523044,-0.00049682,0.00021804,-0.00282752
 ,-0.00037694,-0.00105944,-0.00254830,0.17785556,-0.00013080,0.00008123
 ,-0.00014035,0.00007200,-0.00002187,-0.00005885,-0.00004772,-0.0000151
 7,-0.00004668,0.00001023,0.00001961,0.00005027,0.00001871,0.00000593,0
 .00003309,0.00000028,-0.00001125,-0.00003539,-0.00001843,-0.00001984,-
 0.00004559,0.00000864,0.00000354,0.00000709,-0.00000705,0.00000057,-0.
 00000073,0.00001669,-0.00000450,0.00000056,0.00000375,0.00000269,0.000
 01258,0.00001149,-0.00000476,-0.00000085,0.00001268,-0.00000260,0.0000
 0460,0.00007220,0.00002566,-0.00000134,0.00002968,-0.00002415,0.000029
 44,0.00000586,-0.00003702,-0.00006754,0.00001020,0.00000002,0.00002464
 ,0.00000093,0.00001125,0.00001330,0.00002276,0.00003672,-0.00001100,-0
 .00002209,0.00001557,-0.00000092,-0.00001541,-0.00000204,-0.00000833,-
 0.00000865,-0.00000798,-0.00001422,-0.00000299,-0.00001089,0.00000940,
 -0.00000675,-0.00001499,-0.00000236,-0.00107364,-0.00003707,0.00048987
 ,-0.00209953,-0.00443487,0.00352459,-0.00106958,0.00109879,0.00196111,
 0.02387600,-0.01788548,-0.01076497,0.00099162,-0.00103858,-0.00044882,
 -0.00760650,0.00944269,0.00393613,-0.00026902,0.00022637,0.00011388,0.
 13921575,-0.24511946,-0.05257528,-0.00105730,0.00113468,-0.00037790,0.
 00022228,0.00101790,-0.00112456,-0.15116633,0.25556928,-0.00059365,-0.
 00009409,-0.00073681,0.00009369,0.00006692,-0.00005701,-0.00011310,0.0
 0006519,0.00006973,-0.00001612,-0.00001343,0.00001323,-0.00003862,-0.0
 0000741,-0.00001947,-0.00000375,-0.00000400,0.00000011,0.00001888,0.00
 001669,0.00000504,-0.00000814,0.00000119,0.00001161,0.00000041,0.00000
 472,-0.00000401,0.00000092,-0.00000039,-0.00000655,-0.00000467,0.00000
 366,-0.00000423,0.00000256,-0.00000114,-0.00000390,0.00000365,0.000000
 73,0.00000185,0.00003971,0.00004055,0.00002419,-0.00004318,-0.00000685
 ,0.00000754,-0.00003127,-0.00003820,0.00001555,-0.00000717,0.00000168,
 0.00000159,0.00001493,0.00000759,0.00000169,-0.00000355,-0.00001128,0.
 00000105,0.00000234,0.00000326,-0.00000825,0.00000231,-0.00000480,0.00
 000052,-0.00000115,-0.00000762,-0.00000724,-0.00000289,-0.00000085,0.0
 0000096,-0.00000029,-0.00000372,-0.00000026,-0.00008281,0.00040401,-0.
 00098999,0.00412084,0.00316910,0.00596642,0.00647219,0.00233322,0.0042
 6708,-0.00679088,0.00967395,0.00776246,-0.00034688,0.00035984,0.000067
 89,0.01128402,-0.01668525,0.00094924,0.00052719,-0.00076517,-0.0002954
 9,0.05517449,-0.05254788,-0.07325503,-0.00260389,-0.00113693,-0.003258
 13,-0.00278037,-0.00033846,-0.00303967,-0.06428574,0.05551517,0.062518
 28||0.00001667,0.00001108,0.00000432,-0.00000428,-0.00000531,-0.000003
 14,-0.00000202,0.00000566,-0.00000607,0.00000930,-0.00000036,0.0000195
 1,-0.00000286,-0.00000345,0.00000064,-0.00001699,0.00000019,-0.0000004
 6,0.00000172,-0.00000117,-0.00000388,0.00000495,0.00000353,0.00000180,
 0.00000089,0.00000089,0.00000112,0.00000400,0.00000037,-0.00001142,0.0
 0000292,0.00000155,-0.00000200,-0.00000105,-0.00000156,0.00000114,-0.0
 0000187,-0.00000053,0.00000075,-0.00001619,-0.00000156,-0.00004663,0.0
 0002540,0.00002821,0.00002510,-0.00001175,-0.00005705,0.00002605,-0.00
 001530,-0.00004034,0.00001544,-0.00000265,-0.00000453,-0.00000192,0.00
 003091,0.00003741,0.00003112,-0.00000529,0.00000155,-0.00000617,-0.000
 01184,0.00001577,-0.00004767,0.00000123,0.00000281,-0.00000107,-0.0000
 0220,-0.00000231,-0.00000368,0.00000167,0.00000056,0.00000350,0.000015
 46,0.00001864,-0.00002456,-0.00004189,0.00001693,0.00002146,0.00000782
 ,-0.00003118,0.00000749,0.00001480,-0.00004322,0.00000601,0.00000407,0
 .00000568,0.00000088,-0.00002746,0.00001546,0.00002388,-0.00000132,0.0
 0000428,0.00000048,0.00002151,0.00002509,-0.00003000,-0.00000051,0.000
 00337,-0.00000111,0.00000389,-0.00000201,-0.00000258,-0.00000176,-0.00
 000445,0.00000171|||@


 The number of Unix installations has grown to 10,
  with more expected.
                  -- The Unix Programmer's Manual,
                     2nd Edition, June, 1972.
 Job cpu time:  0 days  0 hours  6 minutes 23.0 seconds.
 File lengths (MBytes):  RWF=    350 Int=      0 D2E=      0 Chk=      7 Scr=      1
 Normal termination of Gaussian 09 at Mon Sep 06 17:03:04 2021.
