 Entering Link 1 = b:\programy\g09w\l1.exe PID=      7720.
  
 Copyright (c) 1988,1990,1992,1993,1995,1998,2003,2009, Gaussian, Inc.
                  All Rights Reserved.
  
 This is part of the Gaussian(R) 09 program.  It is based on
 the Gaussian(R) 03 system (copyright 2003, Gaussian, Inc.),
 the Gaussian(R) 98 system (copyright 1998, Gaussian, Inc.),
 the Gaussian(R) 94 system (copyright 1995, Gaussian, Inc.),
 the Gaussian 92(TM) system (copyright 1992, Gaussian, Inc.),
 the Gaussian 90(TM) system (copyright 1990, Gaussian, Inc.),
 the Gaussian 88(TM) system (copyright 1988, Gaussian, Inc.),
 the Gaussian 86(TM) system (copyright 1986, Carnegie Mellon
 University), and the Gaussian 82(TM) system (copyright 1983,
 Carnegie Mellon University). Gaussian is a federally registered
 trademark of Gaussian, Inc.
  
 This software contains proprietary and confidential information,
 including trade secrets, belonging to Gaussian, Inc.
  
 This software is provided under written license and may be
 used, copied, transmitted, or stored only in accord with that
 written license.
  
 The following legend is applicable only to US Government
 contracts under FAR:
  
                    RESTRICTED RIGHTS LEGEND
  
 Use, reproduction and disclosure by the US Government is
 subject to restrictions as set forth in subparagraphs (a)
 and (c) of the Commercial Computer Software - Restricted
 Rights clause in FAR 52.227-19.
  
 Gaussian, Inc.
 340 Quinnipiac St., Bldg. 40, Wallingford CT 06492
  
  
 ---------------------------------------------------------------
 Warning -- This program may not be used in any manner that
 competes with the business of Gaussian, Inc. or will provide
 assistance to any competitor of Gaussian, Inc.  The licensee
 of this program is prohibited from giving any competitor of
 Gaussian, Inc. access to this program.  By using this program,
 the user acknowledges that Gaussian, Inc. is engaged in the
 business of creating and licensing software in the field of
 computational chemistry and represents and warrants to the
 licensee that it is not a competitor of Gaussian, Inc. and that
 it will not use this program in any manner prohibited above.
 ---------------------------------------------------------------
  

 Cite this work as:
 Gaussian 09, Revision A.02,
 M. J. Frisch, G. W. Trucks, H. B. Schlegel, G. E. Scuseria, 
 M. A. Robb, J. R. Cheeseman, G. Scalmani, V. Barone, B. Mennucci, 
 G. A. Petersson, H. Nakatsuji, M. Caricato, X. Li, H. P. Hratchian, 
 A. F. Izmaylov, J. Bloino, G. Zheng, J. L. Sonnenberg, M. Hada, 
 M. Ehara, K. Toyota, R. Fukuda, J. Hasegawa, M. Ishida, T. Nakajima, 
 Y. Honda, O. Kitao, H. Nakai, T. Vreven, J. A. Montgomery, Jr., 
 J. E. Peralta, F. Ogliaro, M. Bearpark, J. J. Heyd, E. Brothers, 
 K. N. Kudin, V. N. Staroverov, R. Kobayashi, J. Normand, 
 K. Raghavachari, A. Rendell, J. C. Burant, S. S. Iyengar, J. Tomasi, 
 M. Cossi, N. Rega, J. M. Millam, M. Klene, J. E. Knox, J. B. Cross, 
 V. Bakken, C. Adamo, J. Jaramillo, R. Gomperts, R. E. Stratmann, 
 O. Yazyev, A. J. Austin, R. Cammi, C. Pomelli, J. W. Ochterski, 
 R. L. Martin, K. Morokuma, V. G. Zakrzewski, G. A. Voth, 
 P. Salvador, J. J. Dannenberg, S. Dapprich, A. D. Daniels, 
 O. Farkas, J. B. Foresman, J. V. Ortiz, J. Cioslowski, 
 and D. J. Fox, Gaussian, Inc., Wallingford CT, 2009.
 
 ******************************************
 Gaussian 09:  IA32W-G09RevA.02 11-Jun-2009
                07-Sep-2021 
 ******************************************
 %nprocshared=12
 Will use up to   12 processors via shared memory.
 ----------------------------------------------
 # opt freq=noraman hf/6-311g geom=connectivity
 ----------------------------------------------
 1/18=20,19=15,38=1,57=2/1,3;
 2/9=110,12=2,17=6,18=5,40=1/2;
 3/5=4,6=6,11=9,16=1,25=1,30=1,71=1/1,2,3;
 4//1;
 5/5=2,38=5/2;
 6/7=2,8=2,9=2,10=2,28=1/1;
 7//1,2,3,16;
 1/18=20,19=15/3(2);
 2/9=110/2;
 99//99;
 2/9=110/2;
 3/5=4,6=6,11=9,16=1,25=1,30=1,71=1/1,2,3;
 4/5=5,16=3/1;
 5/5=2,38=5/2;
 7//1,2,3,16;
 1/18=20,19=15/3(-5);
 2/9=110/2;
 6/7=2,8=2,9=2,10=2,19=2,28=1/1;
 99/9=1/99;
 -----
 M0001
 -----
 Symbolic Z-matrix:
 Charge =  0 Multiplicity = 1
 C                     0.05245   0.73325  -0.24209 
 H                     0.07798   1.80774  -0.56808 
 C                     1.47188   0.224    -0.2594 
 C                     2.4922    1.07306  -0.69462 
 C                     1.79578  -1.06986   0.15524 
 C                     3.81156   0.63417  -0.71331 
 H                     2.25484   2.09157  -1.02415 
 C                     3.11487  -1.50603   0.13685 
 H                     0.99268  -1.73573   0.50941 
 C                     4.12555  -0.6549   -0.29803 
 H                     4.60434   1.30715  -1.05593 
 H                     3.35719  -2.52125   0.46747 
 H                     5.16479  -0.99856  -0.31189 
 C                    -0.5156    0.68689   1.15618 
 C                    -0.81696  -0.52621   1.77829 
 C                    -0.7515    1.88098   1.84063 
 C                    -1.35151  -0.54538   3.06066 
 H                    -0.60805  -1.46638   1.24568 
 C                    -1.28404   1.85916   3.12504 
 H                    -0.51648   2.84111   1.36648 
 C                    -1.58712   0.64761   3.73598 
 H                    -1.58599  -1.50179   3.53903 
 H                    -1.4651    2.79976   3.65516 
 H                    -2.00849   0.63237   4.74616 
 C                    -0.86534   0.0515   -1.22687 
 C                    -2.20746   0.44619  -1.26482 
 C                    -0.41922  -0.91377  -2.12827 
 C                    -3.08311  -0.11919  -2.18182 
 H                    -2.56608   1.2045   -0.55855 
 C                    -1.29818  -1.47802  -3.04764 
 H                     0.63115  -1.23149  -2.11521 
 C                    -2.63006  -1.08395  -3.07664 
 H                    -4.13144   0.19577  -2.20034 
 H                    -0.93525  -2.23511  -3.75043 
 H                    -3.32028  -1.52915  -3.80015 
 

 GradGradGradGradGradGradGradGradGradGradGradGradGradGradGradGradGradGrad
 Berny optimization.
 Initialization pass.
                           ----------------------------
                           !    Initial Parameters    !
                           ! (Angstroms and Degrees)  !
 --------------------------                            --------------------------
 ! Name  Definition              Value          Derivative Info.                !
 --------------------------------------------------------------------------------
 ! R1    R(1,2)                  1.1231         estimate D2E/DX2                !
 ! R2    R(1,3)                  1.5081         estimate D2E/DX2                !
 ! R3    R(1,14)                 1.51           estimate D2E/DX2                !
 ! R4    R(1,25)                 1.5089         estimate D2E/DX2                !
 ! R5    R(3,4)                  1.3969         estimate D2E/DX2                !
 ! R6    R(3,5)                  1.3968         estimate D2E/DX2                !
 ! R7    R(4,6)                  1.3906         estimate D2E/DX2                !
 ! R8    R(4,7)                  1.0965         estimate D2E/DX2                !
 ! R9    R(5,8)                  1.3895         estimate D2E/DX2                !
 ! R10   R(5,9)                  1.1017         estimate D2E/DX2                !
 ! R11   R(6,10)                 1.3902         estimate D2E/DX2                !
 ! R12   R(6,11)                 1.0949         estimate D2E/DX2                !
 ! R13   R(8,10)                 1.391          estimate D2E/DX2                !
 ! R14   R(8,12)                 1.0949         estimate D2E/DX2                !
 ! R15   R(10,13)                1.0947         estimate D2E/DX2                !
 ! R16   R(14,15)                1.3962         estimate D2E/DX2                !
 ! R17   R(14,16)                1.3964         estimate D2E/DX2                !
 ! R18   R(15,17)                1.3895         estimate D2E/DX2                !
 ! R19   R(15,18)                1.1006         estimate D2E/DX2                !
 ! R20   R(16,19)                1.3906         estimate D2E/DX2                !
 ! R21   R(16,20)                1.0963         estimate D2E/DX2                !
 ! R22   R(17,21)                1.391          estimate D2E/DX2                !
 ! R23   R(17,22)                1.0948         estimate D2E/DX2                !
 ! R24   R(19,21)                1.3903         estimate D2E/DX2                !
 ! R25   R(19,23)                1.0948         estimate D2E/DX2                !
 ! R26   R(21,24)                1.0946         estimate D2E/DX2                !
 ! R27   R(25,26)                1.3995         estimate D2E/DX2                !
 ! R28   R(25,27)                1.394          estimate D2E/DX2                !
 ! R29   R(26,28)                1.3883         estimate D2E/DX2                !
 ! R30   R(26,29)                1.0966         estimate D2E/DX2                !
 ! R31   R(27,30)                1.3915         estimate D2E/DX2                !
 ! R32   R(27,31)                1.0975         estimate D2E/DX2                !
 ! R33   R(28,32)                1.3917         estimate D2E/DX2                !
 ! R34   R(28,33)                1.0948         estimate D2E/DX2                !
 ! R35   R(30,32)                1.3893         estimate D2E/DX2                !
 ! R36   R(30,34)                1.0949         estimate D2E/DX2                !
 ! R37   R(32,35)                1.0946         estimate D2E/DX2                !
 ! A1    A(2,1,3)              107.3565         estimate D2E/DX2                !
 ! A2    A(2,1,14)             107.8608         estimate D2E/DX2                !
 ! A3    A(2,1,25)             104.8707         estimate D2E/DX2                !
 ! A4    A(3,1,14)             110.753          estimate D2E/DX2                !
 ! A5    A(3,1,25)             114.3565         estimate D2E/DX2                !
 ! A6    A(14,1,25)            111.2022         estimate D2E/DX2                !
 ! A7    A(1,3,4)              119.0645         estimate D2E/DX2                !
 ! A8    A(1,3,5)              121.8466         estimate D2E/DX2                !
 ! A9    A(4,3,5)              119.0877         estimate D2E/DX2                !
 ! A10   A(3,4,6)              120.3549         estimate D2E/DX2                !
 ! A11   A(3,4,7)              120.0066         estimate D2E/DX2                !
 ! A12   A(6,4,7)              119.6385         estimate D2E/DX2                !
 ! A13   A(3,5,8)              120.465          estimate D2E/DX2                !
 ! A14   A(3,5,9)              119.0951         estimate D2E/DX2                !
 ! A15   A(8,5,9)              120.4353         estimate D2E/DX2                !
 ! A16   A(4,6,10)             120.194          estimate D2E/DX2                !
 ! A17   A(4,6,11)             119.8147         estimate D2E/DX2                !
 ! A18   A(10,6,11)            119.9913         estimate D2E/DX2                !
 ! A19   A(5,8,10)             120.1209         estimate D2E/DX2                !
 ! A20   A(5,8,12)             119.8152         estimate D2E/DX2                !
 ! A21   A(10,8,12)            120.0639         estimate D2E/DX2                !
 ! A22   A(6,10,8)             119.7775         estimate D2E/DX2                !
 ! A23   A(6,10,13)            120.1145         estimate D2E/DX2                !
 ! A24   A(8,10,13)            120.108          estimate D2E/DX2                !
 ! A25   A(1,14,15)            121.3646         estimate D2E/DX2                !
 ! A26   A(1,14,16)            119.419          estimate D2E/DX2                !
 ! A27   A(15,14,16)           119.2156         estimate D2E/DX2                !
 ! A28   A(14,15,17)           120.4145         estimate D2E/DX2                !
 ! A29   A(14,15,18)           119.0533         estimate D2E/DX2                !
 ! A30   A(17,15,18)           120.523          estimate D2E/DX2                !
 ! A31   A(14,16,19)           120.2649         estimate D2E/DX2                !
 ! A32   A(14,16,20)           120.0451         estimate D2E/DX2                !
 ! A33   A(19,16,20)           119.69           estimate D2E/DX2                !
 ! A34   A(15,17,21)           120.0938         estimate D2E/DX2                !
 ! A35   A(15,17,22)           119.8501         estimate D2E/DX2                !
 ! A36   A(21,17,22)           120.0561         estimate D2E/DX2                !
 ! A37   A(16,19,21)           120.2004         estimate D2E/DX2                !
 ! A38   A(16,19,23)           119.8084         estimate D2E/DX2                !
 ! A39   A(21,19,23)           119.9912         estimate D2E/DX2                !
 ! A40   A(17,21,19)           119.8099         estimate D2E/DX2                !
 ! A41   A(17,21,24)           120.0862         estimate D2E/DX2                !
 ! A42   A(19,21,24)           120.1039         estimate D2E/DX2                !
 ! A43   A(1,25,26)            118.267          estimate D2E/DX2                !
 ! A44   A(1,25,27)            122.6975         estimate D2E/DX2                !
 ! A45   A(26,25,27)           118.9904         estimate D2E/DX2                !
 ! A46   A(25,26,28)           120.5274         estimate D2E/DX2                !
 ! A47   A(25,26,29)           119.4201         estimate D2E/DX2                !
 ! A48   A(28,26,29)           120.0517         estimate D2E/DX2                !
 ! A49   A(25,27,30)           120.3892         estimate D2E/DX2                !
 ! A50   A(25,27,31)           119.9382         estimate D2E/DX2                !
 ! A51   A(30,27,31)           119.6725         estimate D2E/DX2                !
 ! A52   A(26,28,32)           120.1127         estimate D2E/DX2                !
 ! A53   A(26,28,33)           119.8678         estimate D2E/DX2                !
 ! A54   A(32,28,33)           120.0195         estimate D2E/DX2                !
 ! A55   A(27,30,32)           120.2887         estimate D2E/DX2                !
 ! A56   A(27,30,34)           119.6768         estimate D2E/DX2                !
 ! A57   A(32,30,34)           120.0344         estimate D2E/DX2                !
 ! A58   A(28,32,30)           119.6909         estimate D2E/DX2                !
 ! A59   A(28,32,35)           120.1121         estimate D2E/DX2                !
 ! A60   A(30,32,35)           120.197          estimate D2E/DX2                !
 ! D1    D(2,1,3,4)             -2.5716         estimate D2E/DX2                !
 ! D2    D(2,1,3,5)            177.0277         estimate D2E/DX2                !
 ! D3    D(14,1,3,4)          -120.092          estimate D2E/DX2                !
 ! D4    D(14,1,3,5)            59.5073         estimate D2E/DX2                !
 ! D5    D(25,1,3,4)           113.3182         estimate D2E/DX2                !
 ! D6    D(25,1,3,5)           -67.0825         estimate D2E/DX2                !
 ! D7    D(2,1,14,15)          172.5186         estimate D2E/DX2                !
 ! D8    D(2,1,14,16)           -7.1561         estimate D2E/DX2                !
 ! D9    D(3,1,14,15)          -70.2702         estimate D2E/DX2                !
 ! D10   D(3,1,14,16)          110.055          estimate D2E/DX2                !
 ! D11   D(25,1,14,15)          58.0489         estimate D2E/DX2                !
 ! D12   D(25,1,14,16)        -121.6258         estimate D2E/DX2                !
 ! D13   D(2,1,25,26)          -63.681          estimate D2E/DX2                !
 ! D14   D(2,1,25,27)          113.8483         estimate D2E/DX2                !
 ! D15   D(3,1,25,26)          178.9954         estimate D2E/DX2                !
 ! D16   D(3,1,25,27)           -3.4753         estimate D2E/DX2                !
 ! D17   D(14,1,25,26)          52.6386         estimate D2E/DX2                !
 ! D18   D(14,1,25,27)        -129.8321         estimate D2E/DX2                !
 ! D19   D(1,3,4,6)            179.5803         estimate D2E/DX2                !
 ! D20   D(1,3,4,7)             -0.4344         estimate D2E/DX2                !
 ! D21   D(5,3,4,6)             -0.0302         estimate D2E/DX2                !
 ! D22   D(5,3,4,7)            179.9551         estimate D2E/DX2                !
 ! D23   D(1,3,5,8)           -179.5141         estimate D2E/DX2                !
 ! D24   D(1,3,5,9)             -0.2937         estimate D2E/DX2                !
 ! D25   D(4,3,5,8)              0.0852         estimate D2E/DX2                !
 ! D26   D(4,3,5,9)            179.3055         estimate D2E/DX2                !
 ! D27   D(3,4,6,10)            -0.0152         estimate D2E/DX2                !
 ! D28   D(3,4,6,11)          -179.9867         estimate D2E/DX2                !
 ! D29   D(7,4,6,10)           179.9994         estimate D2E/DX2                !
 ! D30   D(7,4,6,11)             0.0279         estimate D2E/DX2                !
 ! D31   D(3,5,8,10)            -0.0948         estimate D2E/DX2                !
 ! D32   D(3,5,8,12)           179.7898         estimate D2E/DX2                !
 ! D33   D(9,5,8,10)          -179.3047         estimate D2E/DX2                !
 ! D34   D(9,5,8,12)             0.5799         estimate D2E/DX2                !
 ! D35   D(4,6,10,8)             0.0063         estimate D2E/DX2                !
 ! D36   D(4,6,10,13)         -179.9101         estimate D2E/DX2                !
 ! D37   D(11,6,10,8)          179.9778         estimate D2E/DX2                !
 ! D38   D(11,6,10,13)           0.0615         estimate D2E/DX2                !
 ! D39   D(5,8,10,6)             0.0484         estimate D2E/DX2                !
 ! D40   D(5,8,10,13)          179.9648         estimate D2E/DX2                !
 ! D41   D(12,8,10,6)         -179.8359         estimate D2E/DX2                !
 ! D42   D(12,8,10,13)           0.0805         estimate D2E/DX2                !
 ! D43   D(1,14,15,17)        -179.356          estimate D2E/DX2                !
 ! D44   D(1,14,15,18)           1.7429         estimate D2E/DX2                !
 ! D45   D(16,14,15,17)          0.3194         estimate D2E/DX2                !
 ! D46   D(16,14,15,18)       -178.5817         estimate D2E/DX2                !
 ! D47   D(1,14,16,19)         179.4933         estimate D2E/DX2                !
 ! D48   D(1,14,16,20)          -0.541          estimate D2E/DX2                !
 ! D49   D(15,14,16,19)         -0.1884         estimate D2E/DX2                !
 ! D50   D(15,14,16,20)        179.7772         estimate D2E/DX2                !
 ! D51   D(14,15,17,21)         -0.1713         estimate D2E/DX2                !
 ! D52   D(14,15,17,22)        179.8933         estimate D2E/DX2                !
 ! D53   D(18,15,17,21)        178.7135         estimate D2E/DX2                !
 ! D54   D(18,15,17,22)         -1.222          estimate D2E/DX2                !
 ! D55   D(14,16,19,21)         -0.0906         estimate D2E/DX2                !
 ! D56   D(14,16,19,23)        179.9429         estimate D2E/DX2                !
 ! D57   D(20,16,19,21)        179.9436         estimate D2E/DX2                !
 ! D58   D(20,16,19,23)         -0.0228         estimate D2E/DX2                !
 ! D59   D(15,17,21,19)         -0.1105         estimate D2E/DX2                !
 ! D60   D(15,17,21,24)        179.9843         estimate D2E/DX2                !
 ! D61   D(22,17,21,19)        179.8248         estimate D2E/DX2                !
 ! D62   D(22,17,21,24)         -0.0804         estimate D2E/DX2                !
 ! D63   D(16,19,21,17)          0.2411         estimate D2E/DX2                !
 ! D64   D(16,19,21,24)       -179.8537         estimate D2E/DX2                !
 ! D65   D(23,19,21,17)       -179.7925         estimate D2E/DX2                !
 ! D66   D(23,19,21,24)          0.1127         estimate D2E/DX2                !
 ! D67   D(1,25,26,28)         177.922          estimate D2E/DX2                !
 ! D68   D(1,25,26,29)          -2.4164         estimate D2E/DX2                !
 ! D69   D(27,25,26,28)          0.299          estimate D2E/DX2                !
 ! D70   D(27,25,26,29)        179.9606         estimate D2E/DX2                !
 ! D71   D(1,25,27,30)        -177.7335         estimate D2E/DX2                !
 ! D72   D(1,25,27,31)           2.2128         estimate D2E/DX2                !
 ! D73   D(26,25,27,30)         -0.2213         estimate D2E/DX2                !
 ! D74   D(26,25,27,31)        179.725          estimate D2E/DX2                !
 ! D75   D(25,26,28,32)         -0.1892         estimate D2E/DX2                !
 ! D76   D(25,26,28,33)        179.8453         estimate D2E/DX2                !
 ! D77   D(29,26,28,32)       -179.8487         estimate D2E/DX2                !
 ! D78   D(29,26,28,33)          0.1859         estimate D2E/DX2                !
 ! D79   D(25,27,30,32)          0.0346         estimate D2E/DX2                !
 ! D80   D(25,27,30,34)        179.9889         estimate D2E/DX2                !
 ! D81   D(31,27,30,32)       -179.912          estimate D2E/DX2                !
 ! D82   D(31,27,30,34)          0.0424         estimate D2E/DX2                !
 ! D83   D(26,28,32,30)         -0.0015         estimate D2E/DX2                !
 ! D84   D(26,28,32,35)       -179.9522         estimate D2E/DX2                !
 ! D85   D(33,28,32,30)        179.9639         estimate D2E/DX2                !
 ! D86   D(33,28,32,35)          0.0132         estimate D2E/DX2                !
 ! D87   D(27,30,32,28)          0.0787         estimate D2E/DX2                !
 ! D88   D(27,30,32,35)       -179.9706         estimate D2E/DX2                !
 ! D89   D(34,30,32,28)       -179.8755         estimate D2E/DX2                !
 ! D90   D(34,30,32,35)          0.0751         estimate D2E/DX2                !
 --------------------------------------------------------------------------------
 Trust Radius=3.00D-01 FncErr=1.00D-07 GrdErr=1.00D-07
 Number of steps in this run= 197 maximum allowed number of steps= 210.
 GradGradGradGradGradGradGradGradGradGradGradGradGradGradGradGradGradGrad

                          Input orientation:                          
 ---------------------------------------------------------------------
 Center     Atomic      Atomic             Coordinates (Angstroms)
 Number     Number       Type             X           Y           Z
 ---------------------------------------------------------------------
      1          6           0        0.052452    0.733252   -0.242094
      2          1           0        0.077985    1.807742   -0.568083
      3          6           0        1.471883    0.224004   -0.259405
      4          6           0        2.492205    1.073063   -0.694619
      5          6           0        1.795783   -1.069863    0.155241
      6          6           0        3.811557    0.634168   -0.713309
      7          1           0        2.254843    2.091573   -1.024145
      8          6           0        3.114872   -1.506034    0.136848
      9          1           0        0.992677   -1.735734    0.509414
     10          6           0        4.125546   -0.654898   -0.298027
     11          1           0        4.604338    1.307150   -1.055929
     12          1           0        3.357190   -2.521254    0.467466
     13          1           0        5.164788   -0.998561   -0.311886
     14          6           0       -0.515601    0.686889    1.156177
     15          6           0       -0.816959   -0.526208    1.778285
     16          6           0       -0.751502    1.880977    1.840634
     17          6           0       -1.351514   -0.545381    3.060655
     18          1           0       -0.608050   -1.466381    1.245678
     19          6           0       -1.284040    1.859159    3.125035
     20          1           0       -0.516478    2.841110    1.366479
     21          6           0       -1.587115    0.647608    3.735980
     22          1           0       -1.585985   -1.501794    3.539028
     23          1           0       -1.465098    2.799761    3.655156
     24          1           0       -2.008492    0.632367    4.746155
     25          6           0       -0.865338    0.051502   -1.226874
     26          6           0       -2.207460    0.446193   -1.264816
     27          6           0       -0.419225   -0.913767   -2.128273
     28          6           0       -3.083110   -0.119191   -2.181816
     29          1           0       -2.566082    1.204497   -0.558545
     30          6           0       -1.298183   -1.478018   -3.047636
     31          1           0        0.631147   -1.231492   -2.115214
     32          6           0       -2.630056   -1.083951   -3.076638
     33          1           0       -4.131443    0.195768   -2.200343
     34          1           0       -0.935251   -2.235113   -3.750428
     35          1           0       -3.320282   -1.529147   -3.800151
 ---------------------------------------------------------------------
                    Distance matrix (angstroms):
                    1          2          3          4          5
     1  C    0.000000
     2  H    1.123143   0.000000
     3  C    1.508118   2.132243   0.000000
     4  C    2.504525   2.526702   1.396913   0.000000
     5  C    2.539351   3.428504   1.396758   2.408193   0.000000
     6  C    3.789820   3.916367   2.418333   1.390564   2.778749
     7  H    2.703177   2.242157   2.164640   1.096490   3.405343
     8  C    3.812666   4.549805   2.418566   2.780430   1.389453
     9  H    2.746758   3.814955   2.159003   3.404059   1.101727
    10  C    4.303509   4.745553   2.795690   2.410588   2.409449
    11  H    4.659545   4.580007   3.408802   2.155563   3.873643
    12  H    4.692183   5.528631   3.408690   3.875275   2.154533
    13  H    5.398151   5.815199   3.890368   3.403059   3.401983
    14  C    1.509966   2.140498   2.483592   3.552671   3.070919
    15  C    2.534571   3.428366   3.154964   4.429840   3.123500
    16  C    2.510253   2.548594   3.478386   4.195458   4.246960
    17  C    3.809747   4.555041   4.425644   5.612095   4.315320
    18  H    2.736442   3.805293   3.073890   4.452539   2.669212
    19  C    3.793604   3.936608   4.660824   5.428418   5.184993
    20  H    2.711872   2.272392   3.666923   4.052935   4.702059
    21  C    4.303555   4.758511   5.049754   6.037554   5.216838
    22  H    4.687941   5.530840   5.172720   6.417576   4.803429
    23  H    4.664973   4.604450   5.530296   6.128807   6.152783
    24  H    5.398175   5.828896   6.110271   7.074780   6.200531
    25  C    1.508944   2.099581   2.535421   3.549644   3.201448
    26  C    2.497111   2.750002   3.820705   4.775452   4.510093
    27  C    2.548102   3.176165   2.891969   3.805165   3.185132
    28  C    3.784300   4.038530   4.955947   5.892144   5.492650
    29  H    2.679353   2.712026   4.166055   5.061823   4.970721
    30  C    3.819031   4.340305   4.283034   5.139236   4.471872
    31  H    2.775552   3.454931   2.503864   3.285209   2.556848
    32  C    4.304964   4.689160   5.145237   6.046841   5.480264
    33  H    4.650656   4.793956   5.930034   6.849055   6.502507
    34  H    4.700549   5.243915   4.901918   5.659457   4.906181
    35  H    5.399403   5.755806   6.210899   7.085254   6.483069
                    6          7          8          9         10
     6  C    0.000000
     7  H    2.154995   0.000000
     8  C    2.405952   3.876897   0.000000
     9  H    3.880408   4.311977   2.166859   0.000000
    10  C    1.390230   3.401452   1.391047   3.411017   0.000000
    11  H    1.094895   2.477187   3.399299   4.975293   2.157149
    12  H    3.399613   4.971745   1.094851   2.491932   2.158619
    13  H    2.158282   4.303954   2.158946   4.315608   1.094679
    14  C    4.714027   3.795037   4.362141   2.926142   5.045329
    15  C    5.383092   4.913488   4.371918   2.519478   5.362461
    16  C    5.375748   4.158056   5.415126   4.230237   5.898316
    17  C    6.503187   6.053506   5.424030   3.663469   6.425801
    18  H    5.270945   5.099734   3.884742   1.782403   5.044646
    19  C    6.496045   5.458334   6.293188   4.994814   6.877605
    20  H    5.284695   3.735922   5.796237   4.894855   6.044918
    21  C    6.995857   6.285258   6.300842   4.769316   7.113665
    22  H    7.195705   6.963247   5.802836   3.985321   6.932663
    23  H    7.184454   6.019581   7.203783   6.042108   7.669265
    24  H    7.979895   7.321317   7.215770   5.706566   8.045325
    25  C    4.740949   3.733433   4.486394   3.108236   5.125493
    26  C    6.047153   4.762074   5.839783   4.260232   6.500311
    27  C    4.722048   4.171547   4.239268   3.102659   4.906298
    28  C    7.089463   5.892489   6.761251   5.144703   7.469964
    29  H    6.404959   4.923922   6.332755   4.738171   6.950043
    30  C    6.001654   5.427752   5.442130   4.238758   6.136344
    31  H    3.944747   3.856110   3.363934   2.696969   3.980635
    32  C    7.073304   6.177291   6.596124   5.138949   7.317304
    33  H    8.092880   6.764774   7.801774   6.109835   8.515885
    34  H    6.323690   6.027399   5.660916   4.702398   6.326755
    35  H    8.066700   7.204015   7.543984   6.100545   8.274632
                   11         12         13         14         15
    11  H    0.000000
    12  H    4.304973   0.000000
    13  H    2.486767   2.488654   0.000000
    14  C    5.611766   5.075925   6.104324   0.000000
    15  C    6.386270   4.808532   6.353994   1.396223   0.000000
    16  C    6.115913   6.176292   6.922975   1.396416   2.408882
    17  C    7.473307   5.727181   7.351299   2.417494   1.389457
    18  H    6.337102   4.176302   5.997543   2.157111   1.100563
    19  C    7.242802   6.913155   7.846425   2.416840   2.778826
    20  H    5.868889   6.675963   7.059516   2.164462   3.405687
    21  C    7.856939   6.720939   8.042593   2.793755   2.409056
    22  H    8.205115   5.908365   7.788179   3.407937   2.154851
    23  H    7.826894   7.856783   8.609302   3.407443   3.873603
    24  H    8.823211   7.552685   8.927467   3.888398   3.401514
    25  C    5.614556   5.226816   6.188882   2.490977   3.060567
    26  C    6.869169   6.540021   7.572677   2.963365   3.484181
    27  C    5.596301   4.856252   5.872619   3.654997   3.945832
    28  C    7.899299   7.366550   8.502808   4.287665   4.580776
    29  H    7.188383   7.072416   8.042429   2.722621   3.393457
    30  C    6.823769   5.925941   7.034501   4.792839   4.942372
    31  H    4.832498   3.970521   4.884686   3.961972   4.213523
    32  C    7.882708   7.104480   8.271079   5.052081   5.212359
    33  H    8.880244   8.401133   9.560994   4.957998   5.228435
    34  H    7.105984   6.024745   7.110774   5.726167   5.788007
    35  H    8.852962   7.986580   9.189446   6.110830   6.196085
                   16         17         18         19         20
    16  C    0.000000
    17  C    2.781309   0.000000
    18  H    3.402846   2.166823   0.000000
    19  C    1.390596   2.406347   3.879196   0.000000
    20  H    1.096318   3.877607   4.310157   2.155435   0.000000
    21  C    2.410764   1.390969   3.410150   1.390310   3.401801
    22  H    3.876086   1.094780   2.493405   3.399789   4.972387
    23  H    2.155429   3.399457   4.973941   1.094780   2.477829
    24  H    3.403102   2.158615   4.315012   2.158212   4.304284
    25  C    3.573450   4.356092   2.912675   4.730967   3.824800
    26  C    3.717827   4.519465   3.538167   4.703187   3.939386
    27  C    4.865514   5.284870   3.424117   6.002855   5.130483
    28  C    5.061341   5.537470   4.437179   5.942490   5.285960
    29  H    3.083243   4.199507   3.771299   3.954868   3.253474
    30  C    5.956249   6.179311   4.348444   7.017038   6.224977
    31  H    5.219954   5.584919   3.589760   6.378109   5.479536
    32  C    6.041468   6.292146   4.787189   6.995313   6.294013
    33  H    5.531132   5.996283   5.201162   6.263723   5.726083
    34  H    6.945210   7.029889   5.065480   8.009789   7.219844
    35  H    7.074322   7.205173   5.728920   7.974027   7.324925
                   21         22         23         24         25
    21  C    0.000000
    22  H    2.158407   0.000000
    23  H    2.157124   4.304820   0.000000
    24  H    1.094644   2.488034   2.486595   0.000000
    25  C    5.050368   5.064176   5.634435   6.109114   0.000000
    26  C    5.043149   5.220900   5.504227   6.017144   1.399468
    27  C    6.179913   5.815961   6.952136   7.223162   1.394017
    28  C    6.151934   6.072975   6.723726   7.050988   2.420653
    29  H    4.439757   5.007465   4.638137   5.364521   2.160692
    30  C    7.114718   6.592992   7.953282   8.105643   2.417015
    31  H    6.533619   6.079407   7.344551   7.584198   2.162103
    32  C    7.106179   6.710568   7.858588   8.032944   2.797340
    33  H    6.474387   6.503956   6.940969   7.276769   3.411143
    34  H    8.048684   7.355092   8.970696   9.031402   3.406145
    35  H    8.033393   7.541358   8.818320   8.912479   3.891909
                   26         27         28         29         30
    26  C    0.000000
    27  C    2.406831   0.000000
    28  C    1.388276   2.780378   0.000000
    29  H    1.096564   3.400012   2.157423   0.000000
    30  C    2.776297   1.391465   2.404583   3.872858   0.000000
    31  H    3.405216   1.097452   3.877802   4.310398   2.156965
    32  C    2.408865   2.411666   1.391663   3.403216   1.389250
    33  H    2.153981   3.875155   1.094781   2.482618   3.398062
    34  H    3.871200   2.154908   3.398672   4.967761   1.094911
    35  H    3.401215   3.404409   2.159453   4.306929   2.158188
                   31         32         33         34         35
    31  H    0.000000
    32  C    3.403168   0.000000
    33  H    4.972583   2.158642   0.000000
    34  H    2.476849   2.156742   4.304369   0.000000
    35  H    4.305972   1.094569   2.488514   2.487817   0.000000
 Stoichiometry    C19H16
 Framework group  C1[X(C19H16)]
 Deg. of freedom    99
 Full point group                 C1      NOp   1
 Largest Abelian subgroup         C1      NOp   1
 Largest concise Abelian subgroup C1      NOp   1
                         Standard orientation:                         
 ---------------------------------------------------------------------
 Center     Atomic      Atomic             Coordinates (Angstroms)
 Number     Number       Type             X           Y           Z
 ---------------------------------------------------------------------
      1          6           0       -0.014248    0.012933   -0.759469
      2          1           0        0.016985    0.014283   -1.882177
      3          6           0       -1.464608   -0.042399   -0.349814
      4          6           0       -2.450414   -0.025004   -1.339385
      5          6           0       -1.849403   -0.118822    0.990717
      6          6           0       -3.795677   -0.083703   -0.992267
      7          1           0       -2.165299    0.035440   -2.396431
      8          6           0       -3.194115   -0.178533    1.335336
      9          1           0       -1.071721   -0.144200    1.770697
     10          6           0       -4.170163   -0.160580    0.344366
     11          1           0       -4.561000   -0.069709   -1.775133
     12          1           0       -3.483678   -0.241692    2.389310
     13          1           0       -5.229513   -0.208214    0.616083
     14          6           0        0.725087   -1.212090   -0.277081
     15          6           0        0.992073   -1.412865    1.078591
     16          6           0        1.157568   -2.161881   -1.204893
     17          6           0        1.685691   -2.540879    1.499386
     18          1           0        0.629509   -0.674531    1.809788
     19          6           0        1.849217   -3.291377   -0.781079
     20          1           0        0.952087   -2.019706   -2.272357
     21          6           0        2.116580   -3.481755    0.569934
     22          1           0        1.891521   -2.688184    2.564505
     23          1           0        2.184004   -4.031708   -1.514818
     24          1           0        2.663242   -4.370255    0.901558
     25          6           0        0.700055    1.277673   -0.350674
     26          6           0        2.056312    1.405959   -0.671023
     27          6           0        0.052796    2.336377    0.284530
     28          6           0        2.748613    2.567228   -0.355611
     29          1           0        2.572603    0.577253   -1.170164
     30          6           0        0.748158    3.500066    0.598336
     31          1           0       -1.011628    2.254230    0.538802
     32          6           0        2.095409    3.618504    0.280683
     33          1           0        3.810054    2.655026   -0.608946
     34          1           0        0.228178    4.324481    1.097124
     35          1           0        2.641063    4.534392    0.528659
 ---------------------------------------------------------------------
 Rotational constants (GHZ):      0.4048517      0.3797658      0.2330052
 Standard basis: 6-311G (5D, 7F)
 There are   295 symmetry adapted basis functions of A   symmetry.
 Integral buffers will be    262144 words long.
 Raffenetti 1 integral format.
 Two-electron integral symmetry is turned on.
   295 basis functions,   574 primitive gaussians,   295 cartesian basis functions
    65 alpha electrons       65 beta electrons
       nuclear repulsion energy      1290.4058660329 Hartrees.
 NAtoms=   35 NActive=   35 NUniq=   35 SFac= 7.50D-01 NAtFMM=   80 NAOKFM=F Big=F
 One-electron integrals computed using PRISM.
 PrsmSu:  requested number of processors reduced to:  10 ShMem   1 Linda.
 NBasis=   295 RedAO= T  NBF=   295
 NBsUse=   295 1.00D-06 NBFU=   295
 Harris functional with IExCor=  205 diagonalized for initial guess.
 ExpMin= 1.03D-01 ExpMax= 4.56D+03 ExpMxC= 6.82D+02 IAcc=1 IRadAn=         1 AccDes= 0.00D+00
 HarFok:  IExCor=  205 AccDes= 0.00D+00 IRadAn=         1 IDoV= 1
 ScaDFX=  1.000000  1.000000  1.000000  1.000000
 FoFCou: FMM=F IPFlag=           0 FMFlag=      100000 FMFlg1=           0
         NFxFlg=           0 DoJE=T BraDBF=F KetDBF=T FulRan=T
         Omega=  0.000000  0.000000  1.000000  0.000000  0.000000 ICntrl=     500 IOpCl=  0
         NMat0=    1 NMatS0=    1 NMatT0=    0 NMatD0=    1 NMtDS0=    0 NMtDT0=    0
         I1Cent=           4 NGrid=           0.
 Petite list used in FoFCou.
 Initial guess orbital symmetries:
       Occupied  (A) (A) (A) (A) (A) (A) (A) (A) (A) (A) (A) (A)
                 (A) (A) (A) (A) (A) (A) (A) (A) (A) (A) (A) (A)
                 (A) (A) (A) (A) (A) (A) (A) (A) (A) (A) (A) (A)
                 (A) (A) (A) (A) (A) (A) (A) (A) (A) (A) (A) (A)
                 (A) (A) (A) (A) (A) (A) (A) (A) (A) (A) (A) (A)
                 (A) (A) (A) (A) (A)
       Virtual   (A) (A) (A) (A) (A) (A) (A) (A) (A) (A) (A) (A)
                 (A) (A) (A) (A) (A) (A) (A) (A) (A) (A) (A) (A)
                 (A) (A) (A) (A) (A) (A) (A) (A) (A) (A) (A) (A)
                 (A) (A) (A) (A) (A) (A) (A) (A) (A) (A) (A) (A)
                 (A) (A) (A) (A) (A) (A) (A) (A) (A) (A) (A) (A)
                 (A) (A) (A) (A) (A) (A) (A) (A) (A) (A) (A) (A)
                 (A) (A) (A) (A) (A) (A) (A) (A) (A) (A) (A) (A)
                 (A) (A) (A) (A) (A) (A) (A) (A) (A) (A) (A) (A)
                 (A) (A) (A) (A) (A) (A) (A) (A) (A) (A) (A) (A)
                 (A) (A) (A) (A) (A) (A) (A) (A) (A) (A) (A) (A)
                 (A) (A) (A) (A) (A) (A) (A) (A) (A) (A) (A) (A)
                 (A) (A) (A) (A) (A) (A) (A) (A) (A) (A) (A) (A)
                 (A) (A) (A) (A) (A) (A) (A) (A) (A) (A) (A) (A)
                 (A) (A) (A) (A) (A) (A) (A) (A) (A) (A) (A) (A)
                 (A) (A) (A) (A) (A) (A) (A) (A) (A) (A) (A) (A)
                 (A) (A) (A) (A) (A) (A) (A) (A) (A) (A) (A) (A)
                 (A) (A) (A) (A) (A) (A) (A) (A) (A) (A) (A) (A)
                 (A) (A) (A) (A) (A) (A) (A) (A) (A) (A) (A) (A)
                 (A) (A) (A) (A) (A) (A) (A) (A) (A) (A) (A) (A)
                 (A) (A)
 The electronic state of the initial guess is 1-A.
 Requested convergence on RMS density matrix=1.00D-08 within 128 cycles.
 Requested convergence on MAX density matrix=1.00D-06.
 Requested convergence on             energy=1.00D-06.
 No special actions if energy rises.
 Integral accuracy reduced to 1.0D-05 until final iterations.
 Initial convergence to 1.0D-05 achieved.  Increase integral accuracy.
 SCF Done:  E(RHF) =  -728.672343023     A.U. after   14 cycles
             Convg  =    0.8405D-08             -V/T =  2.0001

 **********************************************************************

            Population analysis using the SCF density.

 **********************************************************************

 Orbital symmetries:
       Occupied  (A) (A) (A) (A) (A) (A) (A) (A) (A) (A) (A) (A)
                 (A) (A) (A) (A) (A) (A) (A) (A) (A) (A) (A) (A)
                 (A) (A) (A) (A) (A) (A) (A) (A) (A) (A) (A) (A)
                 (A) (A) (A) (A) (A) (A) (A) (A) (A) (A) (A) (A)
                 (A) (A) (A) (A) (A) (A) (A) (A) (A) (A) (A) (A)
                 (A) (A) (A) (A) (A)
       Virtual   (A) (A) (A) (A) (A) (A) (A) (A) (A) (A) (A) (A)
                 (A) (A) (A) (A) (A) (A) (A) (A) (A) (A) (A) (A)
                 (A) (A) (A) (A) (A) (A) (A) (A) (A) (A) (A) (A)
                 (A) (A) (A) (A) (A) (A) (A) (A) (A) (A) (A) (A)
                 (A) (A) (A) (A) (A) (A) (A) (A) (A) (A) (A) (A)
                 (A) (A) (A) (A) (A) (A) (A) (A) (A) (A) (A) (A)
                 (A) (A) (A) (A) (A) (A) (A) (A) (A) (A) (A) (A)
                 (A) (A) (A) (A) (A) (A) (A) (A) (A) (A) (A) (A)
                 (A) (A) (A) (A) (A) (A) (A) (A) (A) (A) (A) (A)
                 (A) (A) (A) (A) (A) (A) (A) (A) (A) (A) (A) (A)
                 (A) (A) (A) (A) (A) (A) (A) (A) (A) (A) (A) (A)
                 (A) (A) (A) (A) (A) (A) (A) (A) (A) (A) (A) (A)
                 (A) (A) (A) (A) (A) (A) (A) (A) (A) (A) (A) (A)
                 (A) (A) (A) (A) (A) (A) (A) (A) (A) (A) (A) (A)
                 (A) (A) (A) (A) (A) (A) (A) (A) (A) (A) (A) (A)
                 (A) (A) (A) (A) (A) (A) (A) (A) (A) (A) (A) (A)
                 (A) (A) (A) (A) (A) (A) (A) (A) (A) (A) (A) (A)
                 (A) (A) (A) (A) (A) (A) (A) (A) (A) (A) (A) (A)
                 (A) (A) (A) (A) (A) (A) (A) (A) (A) (A) (A) (A)
                 (A) (A)
 The electronic state is 1-A.
 Alpha  occ. eigenvalues --  -11.25769 -11.25242 -11.25191 -11.24936 -11.24525
 Alpha  occ. eigenvalues --  -11.24434 -11.24415 -11.24364 -11.24224 -11.24169
 Alpha  occ. eigenvalues --  -11.24143 -11.24114 -11.24073 -11.24049 -11.24024
 Alpha  occ. eigenvalues --  -11.23983 -11.23737 -11.23658 -11.23504  -1.18613
 Alpha  occ. eigenvalues --   -1.15872  -1.15580  -1.09028  -1.02383  -1.02231
 Alpha  occ. eigenvalues --   -1.01875  -1.01490  -1.01115  -0.92923  -0.84309
 Alpha  occ. eigenvalues --   -0.83326  -0.82362  -0.81881  -0.81173  -0.77598
 Alpha  occ. eigenvalues --   -0.70859  -0.70374  -0.68987  -0.65717  -0.63882
 Alpha  occ. eigenvalues --   -0.63602  -0.62500  -0.61720  -0.61616  -0.59706
 Alpha  occ. eigenvalues --   -0.58850  -0.58481  -0.58323  -0.56880  -0.54948
 Alpha  occ. eigenvalues --   -0.51729  -0.50943  -0.50261  -0.49839  -0.49381
 Alpha  occ. eigenvalues --   -0.48458  -0.47909  -0.47521  -0.46342  -0.34994
 Alpha  occ. eigenvalues --   -0.34314  -0.33914  -0.33343  -0.32669  -0.31400
 Alpha virt. eigenvalues --    0.11505   0.12276   0.12833   0.13602   0.14935
 Alpha virt. eigenvalues --    0.15040   0.15566   0.16238   0.16474   0.16936
 Alpha virt. eigenvalues --    0.18907   0.19174   0.19231   0.21254   0.21309
 Alpha virt. eigenvalues --    0.21568   0.23583   0.23973   0.25024   0.25435
 Alpha virt. eigenvalues --    0.27042   0.31202   0.33283   0.34267   0.35782
 Alpha virt. eigenvalues --    0.37494   0.39850   0.40396   0.41560   0.43168
 Alpha virt. eigenvalues --    0.44093   0.44423   0.44861   0.45456   0.45642
 Alpha virt. eigenvalues --    0.45869   0.46766   0.47173   0.48118   0.50538
 Alpha virt. eigenvalues --    0.51142   0.51459   0.51995   0.54899   0.55988
 Alpha virt. eigenvalues --    0.57359   0.57839   0.58461   0.59015   0.59410
 Alpha virt. eigenvalues --    0.60075   0.60422   0.60646   0.61179   0.61449
 Alpha virt. eigenvalues --    0.62086   0.62283   0.62934   0.63625   0.63756
 Alpha virt. eigenvalues --    0.64317   0.64528   0.65206   0.65901   0.66392
 Alpha virt. eigenvalues --    0.67168   0.67807   0.68600   0.69932   0.72336
 Alpha virt. eigenvalues --    0.73162   0.73926   0.74149   0.75171   0.75762
 Alpha virt. eigenvalues --    0.76679   0.78866   0.79282   0.79770   0.81419
 Alpha virt. eigenvalues --    0.81518   0.82172   0.82502   0.82953   0.83188
 Alpha virt. eigenvalues --    0.83813   0.84334   0.84727   0.84779   0.85463
 Alpha virt. eigenvalues --    0.86014   0.86306   0.86424   0.87626   0.88193
 Alpha virt. eigenvalues --    0.90343   0.90684   0.92280   0.93293   0.94851
 Alpha virt. eigenvalues --    0.96017   0.96463   0.97081   0.98173   0.99596
 Alpha virt. eigenvalues --    0.99830   1.02328   1.02995   1.04544   1.06184
 Alpha virt. eigenvalues --    1.07048   1.08301   1.09095   1.10305   1.10466
 Alpha virt. eigenvalues --    1.11234   1.11781   1.12516   1.12641   1.13864
 Alpha virt. eigenvalues --    1.14898   1.16653   1.19205   1.20641   1.20915
 Alpha virt. eigenvalues --    1.23994   1.25830   1.27228   1.28614   1.28860
 Alpha virt. eigenvalues --    1.29342   1.32324   1.33291   1.46546   1.47575
 Alpha virt. eigenvalues --    1.52226   1.54058   1.57330   2.53603   2.55676
 Alpha virt. eigenvalues --    2.56187   2.57772   2.62076   2.62233   2.63951
 Alpha virt. eigenvalues --    2.66232   2.67318   2.68515   2.71821   2.74356
 Alpha virt. eigenvalues --    2.78320   2.83524   2.86452   2.91418   2.94353
 Alpha virt. eigenvalues --    2.94571   2.94743   2.96047   2.97987   2.98518
 Alpha virt. eigenvalues --    3.00076   3.02163   3.03853   3.04586   3.06404
 Alpha virt. eigenvalues --    3.08533   3.09088   3.09644   3.10141   3.13187
 Alpha virt. eigenvalues --    3.15237   3.16278   3.17686   3.18390   3.19342
 Alpha virt. eigenvalues --    3.21628   3.24168   3.25245   3.27619   3.28756
 Alpha virt. eigenvalues --    3.31250   3.33863   3.34196   3.35650   3.41193
 Alpha virt. eigenvalues --    3.41561   3.44209   3.45131   3.49932   3.52255
 Alpha virt. eigenvalues --    3.53411   3.55819   3.57410   3.58239   3.59772
 Alpha virt. eigenvalues --    3.62240   3.64258   3.64956   3.66184   3.66467
 Alpha virt. eigenvalues --    3.67652   3.69233   3.71287   3.72611   3.73868
 Alpha virt. eigenvalues --    3.75910   3.77256   3.78721   3.85383   3.87814
 Alpha virt. eigenvalues --    3.91278  24.25931  24.30078  24.31835  24.50490
 Alpha virt. eigenvalues --   24.50801  24.51024  24.53201  24.54571  24.56525
 Alpha virt. eigenvalues --   24.76368  24.77119  24.79119  24.80192  24.80616
 Alpha virt. eigenvalues --   24.82638  24.87075  25.04704  25.05803  25.07112
          Condensed to atoms (all electrons):
              1          2          3          4          5          6
     1  C    6.081953   0.473972   0.121191  -0.025639  -0.069058   0.008311
     2  H    0.473972   0.504448  -0.076714   0.006565   0.004454   0.001474
     3  C    0.121191  -0.076714   5.389164   0.500508   0.450595  -0.076895
     4  C   -0.025639   0.006565   0.500508   5.044736  -0.062500   0.469291
     5  C   -0.069058   0.004454   0.450595  -0.062500   5.101302  -0.029737
     6  C    0.008311   0.001474  -0.076895   0.469291  -0.029737   5.046451
     7  H   -0.002095   0.002809  -0.045249   0.394121   0.004767  -0.033799
     8  C    0.002236  -0.000226  -0.065012  -0.034353   0.479944  -0.077136
     9  H    0.001094  -0.000050  -0.048421   0.004617   0.386255  -0.000147
    10  C    0.001740   0.000003  -0.015931  -0.088915  -0.093650   0.499414
    11  H   -0.000416  -0.000033   0.007049  -0.039495  -0.000630   0.396387
    12  H   -0.000369   0.000012   0.005975  -0.000370  -0.038493   0.005895
    13  H   -0.000026  -0.000002  -0.001671   0.007558   0.007980  -0.042558
    14  C    0.153995  -0.070930  -0.136859  -0.004074  -0.003456  -0.000607
    15  C   -0.054260   0.005667  -0.003920   0.000707  -0.012385   0.000049
    16  C   -0.024579   0.001278  -0.001684   0.000599   0.000543  -0.000011
    17  C    0.003013  -0.000268   0.001909   0.000030  -0.000526  -0.000001
    18  H    0.000428   0.000120  -0.002761  -0.000198  -0.001214   0.000004
    19  C    0.006854   0.001589  -0.000513  -0.000017   0.000136   0.000002
    20  H    0.000000   0.002301   0.000393   0.000257  -0.000005   0.000007
    21  C    0.001262  -0.000002  -0.000086  -0.000008  -0.000022   0.000000
    22  H   -0.000345   0.000011   0.000026   0.000000   0.000056   0.000000
    23  H   -0.000340  -0.000039   0.000025   0.000001   0.000000   0.000000
    24  H   -0.000011  -0.000001  -0.000003   0.000000   0.000000   0.000000
    25  C    0.041586  -0.062678  -0.067460  -0.000826   0.006359  -0.000779
    26  C   -0.085486  -0.005024   0.011331  -0.000238   0.000684   0.000005
    27  C   -0.027490   0.001422  -0.012320   0.000876  -0.017270   0.000372
    28  C    0.007750   0.000759  -0.000877   0.000008  -0.000019   0.000000
    29  H   -0.001703  -0.000145   0.000851  -0.000005  -0.000042   0.000000
    30  C    0.011833  -0.000144  -0.001373  -0.000119  -0.000847   0.000003
    31  H   -0.010888  -0.000274   0.000489  -0.001206  -0.001238  -0.000122
    32  C    0.000470   0.000028   0.000115  -0.000004  -0.000021   0.000000
    33  H   -0.000354   0.000002   0.000012   0.000000   0.000000   0.000000
    34  H   -0.000359   0.000015   0.000058   0.000004   0.000030   0.000000
    35  H   -0.000014  -0.000002   0.000000   0.000000   0.000001   0.000000
              7          8          9         10         11         12
     1  C   -0.002095   0.002236   0.001094   0.001740  -0.000416  -0.000369
     2  H    0.002809  -0.000226  -0.000050   0.000003  -0.000033   0.000012
     3  C   -0.045249  -0.065012  -0.048421  -0.015931   0.007049   0.005975
     4  C    0.394121  -0.034353   0.004617  -0.088915  -0.039495  -0.000370
     5  C    0.004767   0.479944   0.386255  -0.093650  -0.000630  -0.038493
     6  C   -0.033799  -0.077136  -0.000147   0.499414   0.396387   0.005895
     7  H    0.506386  -0.000294  -0.000268   0.005078  -0.004079   0.000025
     8  C   -0.000294   5.047390  -0.026821   0.490230   0.006278   0.396944
     9  H   -0.000268  -0.026821   0.497384   0.004654   0.000017  -0.003402
    10  C    0.005078   0.490230   0.004654   5.033847  -0.041093  -0.039802
    11  H   -0.004079   0.006278   0.000017  -0.041093   0.517964  -0.000206
    12  H    0.000025   0.396944  -0.003402  -0.039802  -0.000206   0.514492
    13  H   -0.000179  -0.042913  -0.000172   0.399419  -0.004557  -0.004354
    14  C    0.000174   0.001996  -0.003611  -0.000048   0.000019   0.000025
    15  C   -0.000025  -0.000099   0.002309  -0.000002  -0.000001   0.000035
    16  C    0.000167   0.000047  -0.000218  -0.000014   0.000001   0.000002
    17  C    0.000002  -0.000102   0.001171   0.000002   0.000000  -0.000001
    18  H   -0.000003   0.000852   0.001830  -0.000013   0.000000  -0.000035
    19  C   -0.000002   0.000001  -0.000069   0.000000   0.000000   0.000000
    20  H    0.000052  -0.000001   0.000001  -0.000002   0.000000   0.000000
    21  C   -0.000001   0.000001   0.000010   0.000000   0.000000   0.000000
    22  H    0.000000   0.000002  -0.000065   0.000000   0.000000   0.000001
    23  H    0.000000   0.000000   0.000001   0.000000   0.000000   0.000000
    24  H    0.000000   0.000000   0.000000   0.000000   0.000000   0.000000
    25  C    0.000508   0.000896   0.001134  -0.000070   0.000025   0.000016
    26  C    0.000012   0.000017   0.000039   0.000000   0.000000   0.000000
    27  C    0.000152  -0.001454   0.001424   0.000115  -0.000007   0.000008
    28  C   -0.000001   0.000000  -0.000035   0.000000   0.000000   0.000000
    29  H   -0.000002   0.000000   0.000020   0.000000   0.000000   0.000000
    30  C    0.000006  -0.000040   0.000072   0.000004   0.000000  -0.000002
    31  H    0.000071   0.000517  -0.000029   0.000077   0.000010   0.000042
    32  C    0.000000   0.000000   0.000002   0.000000   0.000000   0.000000
    33  H    0.000000   0.000000   0.000000   0.000000   0.000000   0.000000
    34  H    0.000000  -0.000001  -0.000001  -0.000001   0.000000   0.000000
    35  H    0.000000   0.000000   0.000000   0.000000   0.000000   0.000000
             13         14         15         16         17         18
     1  C   -0.000026   0.153995  -0.054260  -0.024579   0.003013   0.000428
     2  H   -0.000002  -0.070930   0.005667   0.001278  -0.000268   0.000120
     3  C   -0.001671  -0.136859  -0.003920  -0.001684   0.001909  -0.002761
     4  C    0.007558  -0.004074   0.000707   0.000599   0.000030  -0.000198
     5  C    0.007980  -0.003456  -0.012385   0.000543  -0.000526  -0.001214
     6  C   -0.042558  -0.000607   0.000049  -0.000011  -0.000001   0.000004
     7  H   -0.000179   0.000174  -0.000025   0.000167   0.000002  -0.000003
     8  C   -0.042913   0.001996  -0.000099   0.000047  -0.000102   0.000852
     9  H   -0.000172  -0.003611   0.002309  -0.000218   0.001171   0.001830
    10  C    0.399419  -0.000048  -0.000002  -0.000014   0.000002  -0.000013
    11  H   -0.004557   0.000019  -0.000001   0.000001   0.000000   0.000000
    12  H   -0.004354   0.000025   0.000035   0.000002  -0.000001  -0.000035
    13  H    0.516891  -0.000003   0.000001   0.000000   0.000000   0.000000
    14  C   -0.000003   5.385971   0.445021   0.493327  -0.058486  -0.044875
    15  C    0.000001   0.445021   5.072031  -0.071970   0.479202   0.389231
    16  C    0.000000   0.493327  -0.071970   5.092319  -0.030619   0.004055
    17  C    0.000000  -0.058486   0.479202  -0.030619   5.039484  -0.028297
    18  H    0.000000  -0.044875   0.389231   0.004055  -0.028297   0.496447
    19  C    0.000000  -0.073148  -0.026742   0.453697  -0.078430   0.000001
    20  H    0.000000  -0.050759   0.004326   0.400519  -0.000283  -0.000271
    21  C    0.000000  -0.018828  -0.091015  -0.086109   0.491293   0.004551
    22  H    0.000000   0.006029  -0.038979  -0.000482   0.397219  -0.003341
    23  H    0.000000   0.006942  -0.000682  -0.039716   0.006240   0.000015
    24  H    0.000000  -0.001543   0.007883   0.007481  -0.042911  -0.000171
    25  C    0.000002  -0.101348  -0.008465  -0.001857  -0.000594   0.001012
    26  C    0.000000  -0.005747  -0.007322   0.000720  -0.000320   0.000066
    27  C   -0.000003  -0.000800   0.001674  -0.000439   0.000024   0.000075
    28  C    0.000000  -0.001448  -0.000164  -0.000046  -0.000004   0.000012
    29  H    0.000000   0.003733  -0.000505   0.001896  -0.000210  -0.000080
    30  C    0.000000  -0.000761   0.000048   0.000008   0.000006  -0.000057
    31  H    0.000008   0.000377   0.000090  -0.000019  -0.000001   0.000010
    32  C    0.000000   0.000123   0.000038  -0.000003   0.000002  -0.000046
    33  H    0.000000   0.000013   0.000014  -0.000005   0.000002   0.000005
    34  H    0.000000   0.000012   0.000000   0.000000   0.000000   0.000001
    35  H    0.000000   0.000002   0.000000   0.000000   0.000000   0.000001
             19         20         21         22         23         24
     1  C    0.006854   0.000000   0.001262  -0.000345  -0.000340  -0.000011
     2  H    0.001589   0.002301  -0.000002   0.000011  -0.000039  -0.000001
     3  C   -0.000513   0.000393  -0.000086   0.000026   0.000025  -0.000003
     4  C   -0.000017   0.000257  -0.000008   0.000000   0.000001   0.000000
     5  C    0.000136  -0.000005  -0.000022   0.000056   0.000000   0.000000
     6  C    0.000002   0.000007   0.000000   0.000000   0.000000   0.000000
     7  H   -0.000002   0.000052  -0.000001   0.000000   0.000000   0.000000
     8  C    0.000001  -0.000001   0.000001   0.000002   0.000000   0.000000
     9  H   -0.000069   0.000001   0.000010  -0.000065   0.000001   0.000000
    10  C    0.000000  -0.000002   0.000000   0.000000   0.000000   0.000000
    11  H    0.000000   0.000000   0.000000   0.000000   0.000000   0.000000
    12  H    0.000000   0.000000   0.000000   0.000001   0.000000   0.000000
    13  H    0.000000   0.000000   0.000000   0.000000   0.000000   0.000000
    14  C   -0.073148  -0.050759  -0.018828   0.006029   0.006942  -0.001543
    15  C   -0.026742   0.004326  -0.091015  -0.038979  -0.000682   0.007883
    16  C    0.453697   0.400519  -0.086109  -0.000482  -0.039716   0.007481
    17  C   -0.078430  -0.000283   0.491293   0.397219   0.006240  -0.042911
    18  H    0.000001  -0.000271   0.004551  -0.003341   0.000015  -0.000171
    19  C    5.060095  -0.034992   0.497206   0.005988   0.397001  -0.042556
    20  H   -0.034992   0.510042   0.005255   0.000024  -0.004215  -0.000185
    21  C    0.497206   0.005255   5.034116  -0.039834  -0.040693   0.399693
    22  H    0.005988   0.000024  -0.039834   0.514923  -0.000206  -0.004479
    23  H    0.397001  -0.004215  -0.040693  -0.000206   0.518149  -0.004589
    24  H   -0.042556  -0.000185   0.399693  -0.004479  -0.004589   0.517401
    25  C   -0.000415   0.000123   0.000059   0.000022   0.000011   0.000000
    26  C   -0.000124   0.000309   0.000094   0.000017  -0.000002   0.000000
    27  C    0.000022  -0.000037  -0.000002   0.000000   0.000000   0.000000
    28  C    0.000013  -0.000008   0.000002   0.000001   0.000000   0.000000
    29  H    0.000114   0.000215  -0.000092   0.000004   0.000004   0.000000
    30  C    0.000000   0.000000   0.000000   0.000000   0.000000   0.000000
    31  H    0.000000   0.000001   0.000000   0.000000   0.000000   0.000000
    32  C    0.000000   0.000001   0.000000   0.000000   0.000000   0.000000
    33  H   -0.000001   0.000000   0.000000   0.000000   0.000000   0.000000
    34  H    0.000000   0.000000   0.000000   0.000000   0.000000   0.000000
    35  H    0.000000   0.000000   0.000000   0.000000   0.000000   0.000000
             25         26         27         28         29         30
     1  C    0.041586  -0.085486  -0.027490   0.007750  -0.001703   0.011833
     2  H   -0.062678  -0.005024   0.001422   0.000759  -0.000145  -0.000144
     3  C   -0.067460   0.011331  -0.012320  -0.000877   0.000851  -0.001373
     4  C   -0.000826  -0.000238   0.000876   0.000008  -0.000005  -0.000119
     5  C    0.006359   0.000684  -0.017270  -0.000019  -0.000042  -0.000847
     6  C   -0.000779   0.000005   0.000372   0.000000   0.000000   0.000003
     7  H    0.000508   0.000012   0.000152  -0.000001  -0.000002   0.000006
     8  C    0.000896   0.000017  -0.001454   0.000000   0.000000  -0.000040
     9  H    0.001134   0.000039   0.001424  -0.000035   0.000020   0.000072
    10  C   -0.000070   0.000000   0.000115   0.000000   0.000000   0.000004
    11  H    0.000025   0.000000  -0.000007   0.000000   0.000000   0.000000
    12  H    0.000016   0.000000   0.000008   0.000000   0.000000  -0.000002
    13  H    0.000002   0.000000  -0.000003   0.000000   0.000000   0.000000
    14  C   -0.101348  -0.005747  -0.000800  -0.001448   0.003733  -0.000761
    15  C   -0.008465  -0.007322   0.001674  -0.000164  -0.000505   0.000048
    16  C   -0.001857   0.000720  -0.000439  -0.000046   0.001896   0.000008
    17  C   -0.000594  -0.000320   0.000024  -0.000004  -0.000210   0.000006
    18  H    0.001012   0.000066   0.000075   0.000012  -0.000080  -0.000057
    19  C   -0.000415  -0.000124   0.000022   0.000013   0.000114   0.000000
    20  H    0.000123   0.000309  -0.000037  -0.000008   0.000215   0.000000
    21  C    0.000059   0.000094  -0.000002   0.000002  -0.000092   0.000000
    22  H    0.000022   0.000017   0.000000   0.000001   0.000004   0.000000
    23  H    0.000011  -0.000002   0.000000   0.000000   0.000004   0.000000
    24  H    0.000000   0.000000   0.000000   0.000000   0.000000   0.000000
    25  C    5.354691   0.470076   0.503264  -0.056840  -0.046328  -0.069946
    26  C    0.470076   5.119784  -0.082158   0.464872   0.397809  -0.033321
    27  C    0.503264  -0.082158   5.091983  -0.029740   0.004392   0.454728
    28  C   -0.056840   0.464872  -0.029740   5.059546  -0.035173  -0.074220
    29  H   -0.046328   0.397809   0.004392  -0.035173   0.492131  -0.000455
    30  C   -0.069946  -0.033321   0.454728  -0.074220  -0.000455   5.077778
    31  H   -0.034645   0.004916   0.393448  -0.000410  -0.000201  -0.036121
    32  C   -0.020338  -0.085003  -0.090616   0.480134   0.005242   0.497238
    33  H    0.006168  -0.038569  -0.000450   0.397215  -0.003930   0.006012
    34  H    0.006488  -0.000410  -0.036821   0.006019   0.000018   0.395549
    35  H   -0.001460   0.007434   0.007694  -0.043282  -0.000174  -0.042093
             31         32         33         34         35
     1  C   -0.010888   0.000470  -0.000354  -0.000359  -0.000014
     2  H   -0.000274   0.000028   0.000002   0.000015  -0.000002
     3  C    0.000489   0.000115   0.000012   0.000058   0.000000
     4  C   -0.001206  -0.000004   0.000000   0.000004   0.000000
     5  C   -0.001238  -0.000021   0.000000   0.000030   0.000001
     6  C   -0.000122   0.000000   0.000000   0.000000   0.000000
     7  H    0.000071   0.000000   0.000000   0.000000   0.000000
     8  C    0.000517   0.000000   0.000000  -0.000001   0.000000
     9  H   -0.000029   0.000002   0.000000  -0.000001   0.000000
    10  C    0.000077   0.000000   0.000000  -0.000001   0.000000
    11  H    0.000010   0.000000   0.000000   0.000000   0.000000
    12  H    0.000042   0.000000   0.000000   0.000000   0.000000
    13  H    0.000008   0.000000   0.000000   0.000000   0.000000
    14  C    0.000377   0.000123   0.000013   0.000012   0.000002
    15  C    0.000090   0.000038   0.000014   0.000000   0.000000
    16  C   -0.000019  -0.000003  -0.000005   0.000000   0.000000
    17  C   -0.000001   0.000002   0.000002   0.000000   0.000000
    18  H    0.000010  -0.000046   0.000005   0.000001   0.000001
    19  C    0.000000   0.000000  -0.000001   0.000000   0.000000
    20  H    0.000001   0.000001   0.000000   0.000000   0.000000
    21  C    0.000000   0.000000   0.000000   0.000000   0.000000
    22  H    0.000000   0.000000   0.000000   0.000000   0.000000
    23  H    0.000000   0.000000   0.000000   0.000000   0.000000
    24  H    0.000000   0.000000   0.000000   0.000000   0.000000
    25  C   -0.034645  -0.020338   0.006168   0.006488  -0.001460
    26  C    0.004916  -0.085003  -0.038569  -0.000410   0.007434
    27  C    0.393448  -0.090616  -0.000450  -0.036821   0.007694
    28  C   -0.000410   0.480134   0.397215   0.006019  -0.043282
    29  H   -0.000201   0.005242  -0.003930   0.000018  -0.000174
    30  C   -0.036121   0.497238   0.006012   0.395549  -0.042093
    31  H    0.476710   0.004987   0.000018  -0.003475  -0.000170
    32  C    0.004987   5.042211  -0.040827  -0.041215   0.399494
    33  H    0.000018  -0.040827   0.517665  -0.000212  -0.004410
    34  H   -0.003475  -0.041215  -0.000212   0.517795  -0.004472
    35  H   -0.000170   0.399494  -0.004410  -0.004472   0.519324
 Mulliken atomic charges:
              1
     1  C   -0.614256
     2  H    0.209605
     3  C    0.068060
     4  C   -0.171912
     5  C   -0.111996
     6  C   -0.165875
     7  H    0.171667
     8  C   -0.178900
     9  H    0.181275
    10  C   -0.155044
    11  H    0.162768
    12  H    0.163564
    13  H    0.164578
    14  C    0.079572
    15  C   -0.091790
    16  C   -0.198889
    17  C   -0.178546
    18  H    0.182645
    19  C   -0.165710
    20  H    0.166933
    21  C   -0.156851
    22  H    0.163407
    23  H    0.162092
    24  H    0.163992
    25  C    0.081608
    26  C   -0.134460
    27  C   -0.162063
    28  C   -0.174064
    29  H    0.182617
    30  C   -0.183784
    31  H    0.207026
    32  C   -0.152012
    33  H    0.161632
    34  H    0.160981
    35  H    0.162128
 Sum of Mulliken atomic charges =   0.00000
 Mulliken charges with hydrogens summed into heavy atoms:
              1
     1  C   -0.404651
     3  C    0.068060
     4  C   -0.000246
     5  C    0.069279
     6  C   -0.003106
     8  C   -0.015335
    10  C    0.009535
    14  C    0.079572
    15  C    0.090855
    16  C   -0.031956
    17  C   -0.015139
    19  C   -0.003618
    21  C    0.007141
    25  C    0.081608
    26  C    0.048157
    27  C    0.044964
    28  C   -0.012432
    30  C   -0.022803
    32  C    0.010116
 Sum of Mulliken charges with hydrogens summed into heavy atoms =   0.00000
 Electronic spatial extent (au):  <R**2>=           4933.0940
 Charge=              0.0000 electrons
 Dipole moment (field-independent basis, Debye):
    X=             -0.0929    Y=             -0.1602    Z=             -0.0200  Tot=              0.1863
 Quadrupole moment (field-independent basis, Debye-Ang):
   XX=           -107.9536   YY=           -113.3142   ZZ=           -106.4744
   XY=             -2.7097   XZ=             -1.1873   YZ=              2.5987
 Traceless Quadrupole moment (field-independent basis, Debye-Ang):
   XX=              1.2938   YY=             -4.0668   ZZ=              2.7730
   XY=             -2.7097   XZ=             -1.1873   YZ=              2.5987
 Octapole moment (field-independent basis, Debye-Ang**2):
  XXX=            -28.6804  YYY=              5.7289  ZZZ=              0.5594  XYY=             37.9065
  XXY=              3.9184  XXZ=             -4.0709  XZZ=             -9.7875  YZZ=            -17.1628
  YYZ=             12.7558  XYZ=             -1.2130
 Hexadecapole moment (field-independent basis, Debye-Ang**3):
 XXXX=          -3059.8321 YYYY=          -2901.1413 ZZZZ=           -678.6055 XXXY=             58.4547
 XXXZ=            -18.9106 YYYX=            -61.1410 YYYZ=             77.8764 ZZZX=              6.5332
 ZZZY=             -3.4300 XXYY=          -1020.2746 XXZZ=           -630.2580 YYZZ=           -629.5185
 XXYZ=            -13.8855 YYXZ=             10.6177 ZZXY=            -33.5640
 N-N= 1.290405866033D+03 E-N=-4.276882284820D+03  KE= 7.286012996205D+02
 PrsmSu:  requested number of processors reduced to:  10 ShMem   1 Linda.
 Calling FoFJK, ICntrl=      2127 FMM=F ISym2X=0 I1Cent= 0 IOpClX= 0 NMat=1 NMatS=1 NMatT=0.
 ***** Axes restored to original set *****
 -------------------------------------------------------------------
 Center     Atomic                   Forces (Hartrees/Bohr)
 Number     Number              X              Y              Z
 -------------------------------------------------------------------
      1        6           0.001829852    0.022385448   -0.006189180
      2        1           0.001640381   -0.023087467    0.010759411
      3        6           0.012153197    0.005484542   -0.003372408
      4        6          -0.001900344    0.005342094   -0.002133258
      5        6          -0.006925814   -0.008751016    0.005911130
      6        6           0.011366955    0.006540150   -0.003818535
      7        1           0.003245335   -0.016681007    0.005426713
      8        6           0.000510725   -0.011823765    0.004047119
      9        1           0.025130207    0.011998710   -0.010847298
     10        6           0.013401609   -0.002402211   -0.000945219
     11        1          -0.011991539   -0.010348745    0.005331421
     12        1          -0.003609882    0.015528640   -0.005112884
     13        1          -0.015965994    0.005302373    0.000233704
     14        6          -0.004768501    0.009413974    0.009794576
     15        6           0.000830379   -0.010658949   -0.003795072
     16        6           0.001663734    0.004997224   -0.002614375
     17        6          -0.001333660   -0.011936998    0.003269355
     18        1          -0.013079222    0.019657275    0.014348474
     19        6          -0.002927490    0.010297572    0.008486730
     20        1          -0.003571896   -0.015667957    0.007035535
     21        6          -0.005133984    0.001955285    0.012614743
     22        1           0.003577096    0.014647435   -0.007231439
     23        1           0.002606566   -0.014335805   -0.007900295
     24        1           0.006406663    0.000270788   -0.015534304
     25        6          -0.007341395   -0.006514273   -0.011382007
     26        6          -0.005024229    0.005354536    0.003847282
     27        6           0.011901441   -0.003061644   -0.000275887
     28        6          -0.011511996    0.005376701    0.001411883
     29        1           0.005144976   -0.012908390   -0.012099648
     30        6           0.000700922   -0.009004006   -0.009196924
     31        1          -0.021191223    0.006148078   -0.002179993
     32        6          -0.006686672   -0.007058041   -0.009817229
     33        1           0.015934318   -0.004727366    0.000227447
     34        1          -0.005590940    0.011563207    0.010679594
     35        1           0.010510425    0.006703607    0.011020841
 -------------------------------------------------------------------
 Cartesian Forces:  Max     0.025130207 RMS     0.009562737

 GradGradGradGradGradGradGradGradGradGradGradGradGradGradGradGradGradGrad
 Berny optimization.
 Internal  Forces:  Max     0.029057686 RMS     0.007797115
 Search for a local minimum.
 Step number   1 out of a maximum of  197
 All quantities printed in internal units (Hartrees-Bohrs-Radians)
 Mixed Optimization -- RFO/linear search
 Second derivative matrix not updated -- first step.
     Eigenvalues ---    0.00634   0.00648   0.00659   0.01533   0.01538
     Eigenvalues ---    0.01538   0.02136   0.02141   0.02147   0.02170
     Eigenvalues ---    0.02172   0.02173   0.02181   0.02185   0.02185
     Eigenvalues ---    0.02201   0.02202   0.02203   0.02211   0.02212
     Eigenvalues ---    0.02212   0.02215   0.02215   0.02215   0.02216
     Eigenvalues ---    0.02217   0.02219   0.02219   0.02220   0.02227
     Eigenvalues ---    0.04548   0.06382   0.06650   0.15997   0.15999
     Eigenvalues ---    0.16000   0.16000   0.16000   0.16000   0.16000
     Eigenvalues ---    0.16000   0.16000   0.16000   0.16000   0.16000
     Eigenvalues ---    0.16000   0.16000   0.16000   0.18865   0.19360
     Eigenvalues ---    0.22000   0.22000   0.22000   0.22000   0.22000
     Eigenvalues ---    0.22000   0.23469   0.23477   0.23478   0.24976
     Eigenvalues ---    0.24999   0.25000   0.31247   0.31354   0.31457
     Eigenvalues ---    0.31540   0.33492   0.33620   0.33966   0.34065
     Eigenvalues ---    0.34073   0.34093   0.34251   0.34253   0.34258
     Eigenvalues ---    0.34266   0.34266   0.34266   0.34278   0.34281
     Eigenvalues ---    0.34290   0.42373   0.42456   0.42494   0.42556
     Eigenvalues ---    0.42578   0.42632   0.46308   0.46381   0.46445
     Eigenvalues ---    0.46728   0.46764   0.46830   0.47206   0.47213
     Eigenvalues ---    0.47217   0.47337   0.47339   0.474661000.00000
     Eigenvalues --- 1000.000001000.000001000.000001000.000001000.00000
     Eigenvalues --- 1000.000001000.000001000.000001000.000001000.00000
     Eigenvalues --- 1000.000001000.000001000.000001000.000001000.00000
     Eigenvalues --- 1000.000001000.000001000.000001000.000001000.00000
     Eigenvalues --- 1000.000001000.000001000.000001000.000001000.00000
     Eigenvalues --- 1000.000001000.000001000.000001000.000001000.00000
     Eigenvalues --- 1000.000001000.000001000.000001000.000001000.00000
     Eigenvalues --- 1000.000001000.000001000.000001000.000001000.00000
     Eigenvalues --- 1000.000001000.000001000.000001000.000001000.00000
     Eigenvalues --- 1000.000001000.000001000.000001000.000001000.00000
     Eigenvalues --- 1000.000001000.000001000.000001000.000001000.00000
     Eigenvalues --- 1000.000001000.000001000.000001000.000001000.00000
     Eigenvalues --- 1000.000001000.000001000.000001000.000001000.00000
     Eigenvalues --- 1000.000001000.000001000.000001000.000001000.00000
     Eigenvalues --- 1000.000001000.000001000.000001000.000001000.00000
     Eigenvalues --- 1000.000001000.000001000.000001000.000001000.00000
     Eigenvalues --- 1000.000001000.000001000.000001000.000001000.00000
     Eigenvalues --- 1000.000001000.00000
 RFO step:  Lambda=-4.20282674D-02 EMin= 6.34122504D-03
 Linear search not attempted -- first point.
 Maximum step size (   0.300) exceeded in Quadratic search.
    -- Step size scaled by   0.589
 Iteration  1 RMS(Cart)=  0.12558994 RMS(Int)=  0.00302607
 Iteration  2 RMS(Cart)=  0.00610566 RMS(Int)=  0.00028098
 Iteration  3 RMS(Cart)=  0.00001064 RMS(Int)=  0.00028092
 Iteration  4 RMS(Cart)=  0.00000000 RMS(Int)=  0.00028092
 Variable       Old X    -DE/DX   Delta X   Delta X   Delta X     New X
                                 (Linear)    (Quad)   (Total)
    R1        2.12243  -0.02517   0.00000  -0.04182  -0.04182   2.08061
    R2        2.84993   0.02392   0.00000   0.03941   0.03941   2.88934
    R3        2.85342   0.02276   0.00000   0.03770   0.03770   2.89112
    R4        2.85149   0.02327   0.00000   0.03843   0.03843   2.88992
    R5        2.63978  -0.00426   0.00000  -0.00492  -0.00490   2.63488
    R6        2.63949   0.00086   0.00000   0.00116   0.00117   2.64066
    R7        2.62779  -0.00254   0.00000  -0.00299  -0.00299   2.62480
    R8        2.07207  -0.01783   0.00000  -0.02743  -0.02743   2.04464
    R9        2.62569  -0.00431   0.00000  -0.00484  -0.00484   2.62084
   R10        2.08196  -0.02906   0.00000  -0.04540  -0.04540   2.03656
   R11        2.62715  -0.00908   0.00000  -0.01054  -0.01055   2.61660
   R12        2.06905  -0.01671   0.00000  -0.02559  -0.02559   2.04346
   R13        2.62870  -0.00582   0.00000  -0.00674  -0.00676   2.62193
   R14        2.06897  -0.01674   0.00000  -0.02564  -0.02564   2.04333
   R15        2.06864  -0.01683   0.00000  -0.02575  -0.02575   2.04289
   R16        2.63848   0.00001   0.00000   0.00012   0.00014   2.63862
   R17        2.63884  -0.00424   0.00000  -0.00489  -0.00488   2.63397
   R18        2.62569  -0.00471   0.00000  -0.00533  -0.00532   2.62037
   R19        2.07976  -0.02622   0.00000  -0.04082  -0.04082   2.03894
   R20        2.62785  -0.00234   0.00000  -0.00273  -0.00274   2.62511
   R21        2.07174  -0.01753   0.00000  -0.02696  -0.02696   2.04478
   R22        2.62855  -0.00526   0.00000  -0.00609  -0.00611   2.62244
   R23        2.06883  -0.01672   0.00000  -0.02560  -0.02560   2.04323
   R24        2.62731  -0.00861   0.00000  -0.00995  -0.00997   2.61733
   R25        2.06883  -0.01657   0.00000  -0.02537  -0.02537   2.04346
   R26        2.06858  -0.01681   0.00000  -0.02572  -0.02572   2.04286
   R27        2.64461  -0.00228   0.00000  -0.00265  -0.00265   2.64197
   R28        2.63431  -0.00239   0.00000  -0.00264  -0.00263   2.63168
   R29        2.62346  -0.00502   0.00000  -0.00579  -0.00579   2.61768
   R30        2.07221  -0.01840   0.00000  -0.02832  -0.02832   2.04389
   R31        2.62949  -0.00112   0.00000  -0.00120  -0.00121   2.62828
   R32        2.07388  -0.02209   0.00000  -0.03408  -0.03408   2.03980
   R33        2.62986  -0.00475   0.00000  -0.00559  -0.00559   2.62427
   R34        2.06884  -0.01662   0.00000  -0.02545  -0.02545   2.04339
   R35        2.62530  -0.00766   0.00000  -0.00877  -0.00877   2.61653
   R36        2.06908  -0.01670   0.00000  -0.02558  -0.02558   2.04350
   R37        2.06844  -0.01664   0.00000  -0.02546  -0.02546   2.04298
    A1        1.87372  -0.01008   0.00000  -0.05125  -0.05033   1.82340
    A2        1.88253  -0.00832   0.00000  -0.04672  -0.04591   1.83661
    A3        1.83034   0.00351   0.00000  -0.00134  -0.00110   1.82924
    A4        1.93301   0.01539   0.00000   0.05437   0.05323   1.98623
    A5        1.99590   0.00129   0.00000   0.02246   0.02059   2.01649
    A6        1.94085  -0.00369   0.00000   0.01093   0.00874   1.94959
    A7        2.07807  -0.01139   0.00000  -0.02295  -0.02297   2.05510
    A8        2.12662   0.02336   0.00000   0.04714   0.04711   2.17374
    A9        2.07847  -0.01196   0.00000  -0.02416  -0.02413   2.05435
   A10        2.10059   0.00819   0.00000   0.01790   0.01793   2.11852
   A11        2.09451  -0.00475   0.00000  -0.01085  -0.01086   2.08365
   A12        2.08809  -0.00345   0.00000  -0.00706  -0.00707   2.08101
   A13        2.10251   0.00456   0.00000   0.01027   0.01026   2.11277
   A14        2.07860   0.00441   0.00000   0.01441   0.01438   2.09298
   A15        2.10199  -0.00895   0.00000  -0.02454  -0.02456   2.07743
   A16        2.09778  -0.00017   0.00000  -0.00132  -0.00133   2.09645
   A17        2.09116   0.00024   0.00000   0.00110   0.00110   2.09227
   A18        2.09424  -0.00006   0.00000   0.00022   0.00023   2.09447
   A19        2.09650   0.00239   0.00000   0.00495   0.00492   2.10143
   A20        2.09117  -0.00109   0.00000  -0.00216  -0.00215   2.08902
   A21        2.09551  -0.00130   0.00000  -0.00278  -0.00277   2.09274
   A22        2.09051  -0.00300   0.00000  -0.00763  -0.00767   2.08284
   A23        2.09639   0.00149   0.00000   0.00378   0.00380   2.10019
   A24        2.09628   0.00151   0.00000   0.00386   0.00387   2.10015
   A25        2.11821   0.01807   0.00000   0.03645   0.03639   2.15460
   A26        2.08425  -0.00750   0.00000  -0.01510  -0.01516   2.06910
   A27        2.08071  -0.01058   0.00000  -0.02144  -0.02143   2.05927
   A28        2.10163   0.00413   0.00000   0.00925   0.00919   2.11082
   A29        2.07787   0.00369   0.00000   0.01230   0.01218   2.09006
   A30        2.10352  -0.00777   0.00000  -0.02112  -0.02123   2.08230
   A31        2.09902   0.00728   0.00000   0.01597   0.01598   2.11499
   A32        2.09518  -0.00432   0.00000  -0.00997  -0.00998   2.08520
   A33        2.08898  -0.00296   0.00000  -0.00600  -0.00601   2.08297
   A34        2.09603   0.00221   0.00000   0.00454   0.00454   2.10057
   A35        2.09178  -0.00102   0.00000  -0.00203  -0.00203   2.08975
   A36        2.09537  -0.00119   0.00000  -0.00251  -0.00252   2.09286
   A37        2.09789  -0.00030   0.00000  -0.00139  -0.00141   2.09649
   A38        2.09105   0.00035   0.00000   0.00128   0.00129   2.09234
   A39        2.09424  -0.00005   0.00000   0.00011   0.00012   2.09436
   A40        2.09108  -0.00273   0.00000  -0.00687  -0.00691   2.08417
   A41        2.09590   0.00140   0.00000   0.00354   0.00355   2.09945
   A42        2.09621   0.00133   0.00000   0.00334   0.00334   2.09955
   A43        2.06415   0.00004   0.00000   0.00002   0.00001   2.06416
   A44        2.14147   0.00782   0.00000   0.01572   0.01571   2.15719
   A45        2.07677  -0.00788   0.00000  -0.01592  -0.01591   2.06086
   A46        2.10360   0.00479   0.00000   0.01038   0.01039   2.11399
   A47        2.08427  -0.00145   0.00000  -0.00244  -0.00245   2.08183
   A48        2.09530  -0.00334   0.00000  -0.00795  -0.00795   2.08735
   A49        2.10119   0.00342   0.00000   0.00782   0.00783   2.10902
   A50        2.09332  -0.00004   0.00000   0.00095   0.00095   2.09426
   A51        2.08868  -0.00338   0.00000  -0.00878  -0.00878   2.07990
   A52        2.09636   0.00078   0.00000   0.00104   0.00103   2.09739
   A53        2.09209  -0.00039   0.00000  -0.00051  -0.00051   2.09158
   A54        2.09474  -0.00039   0.00000  -0.00053  -0.00052   2.09421
   A55        2.09943   0.00112   0.00000   0.00232   0.00231   2.10174
   A56        2.08875  -0.00049   0.00000  -0.00096  -0.00096   2.08780
   A57        2.09500  -0.00063   0.00000  -0.00136  -0.00135   2.09364
[...]
 0.00013276,-0.00026249,0.00027210,0.00038782,0.00023913,0.00027072,-0.
 00038056,0.00032112,-0.00000991,-0.00035262,0.00023556,0.00001669,0.00
 000653,-0.00020314,-0.00004786,0.00023562,0.00000409,-0.00017267,-0.00
 001862,-0.00000171,0.00000195,-0.00001973,-0.00022999,0.00020788,-0.00
 001343,-0.00000175,-0.00001631,0.00000933,-0.00001246,0.00001812,0.000
 02182,-0.00000611,0.00000241,-0.00020074,0.00089087,0.00024840,-0.0001
 6017,0.00000990,-0.00015345,-0.00031038,0.00003292,0.00040145,0.000092
 36,0.00021596,0.00033066,0.00024451,0.00018310,-0.00016404,0.00017794,
 0.00020609,-0.00007771,0.00003805,0.00002731,0.00002295,-0.00009519,-0
 .00019967,-0.00005479,-0.00002478,0.00000551,-0.00000084,0.00001741,-0
 .00001488,0.00002863,-0.00000159,0.00001670,0.00001841,0.02980832,-0.0
 6885743,-0.01437330,-0.04902395,0.00304945,-0.03875609,-0.13183305,-0.
 05818307,-0.21692969,0.02248375,0.03924902,0.05194091,-0.00033521,0.00
 074914,-0.00074646,0.19687826,0.22096111,0.46492668,-0.00170069,-0.001
 42120,0.00144988,-0.00013610,-0.00009965,-0.00013687,-0.00041654,-0.00
 198646,-0.00110835,0.00027453,-0.00018342,-0.00051001,-0.00055177,-0.0
 0070621,-0.00071688,-0.00015525,0.00008810,0.00006704,0.00002255,0.000
 03100,0.00003701,0.00016217,-0.00002879,-0.00023263,0.00005336,0.00007
 741,0.00026880,-0.00011145,-0.00004414,0.00025475,-0.00001124,-0.00000
 010,-0.00000897,0.00001766,0.00000329,0.00001644,0.00000313,-0.0000017
 8,0.00000739,0.00041849,0.00045426,0.00015747,0.00026378,0.00019918,0.
 00023771,-0.00006571,-0.00008256,0.00018990,-0.00002746,-0.00010897,-0
 .00001501,-0.00031792,-0.00000117,-0.00006499,0.00000279,0.00002623,-0
 .00002288,-0.00000897,-0.00001740,-0.00001108,-0.00001530,-0.00000898,
 -0.00000431,-0.00001461,0.00000348,0.00001884,-0.00001245,-0.00000449,
 0.00000701,-0.00000532,-0.00000789,-0.00001606,-0.00243600,0.00183941,
 -0.00425685,0.00322066,0.00241336,-0.00191813,-0.27777708,0.12760498,-
 0.07777526,0.00034773,-0.00084108,0.00038540,-0.00021749,0.00007510,-0
 .00013235,-0.01075090,0.01293067,-0.00314952,0.28996179,-0.00040743,-0
 .00038431,0.00217326,-0.00011919,0.00008742,-0.00008700,-0.00013348,-0
 .00042473,-0.00069836,-0.00038866,-0.00010860,0.00059857,-0.00020770,0
 .00051463,-0.00015258,-0.00004018,-0.00011193,0.00015626,0.00003827,-0
 .00003882,-0.00006860,-0.00033291,0.00009286,-0.00000443,0.00000771,-0
 .00004306,-0.00001072,0.00009523,0.00006260,-0.00024046,0.00002756,0.0
 0000129,-0.00003368,0.00004967,-0.00002637,0.00005378,0.00005360,-0.00
 000095,0.00000187,0.00011610,0.00029808,0.00008883,0.00000087,0.000089
 25,0.00003631,-0.00004341,-0.00003617,0.00006850,-0.00002630,-0.000005
 53,-0.00005195,0.00003023,-0.00004505,0.00000196,-0.00002116,-0.000007
 77,0.00000046,0.00001530,-0.00003500,0.00000367,0.00000921,0.00001079,
 0.00002029,-0.00000728,-0.00001025,0.00001594,-0.00000120,-0.00000085,
 0.00000695,0.00000308,-0.00000783,0.00000364,0.02789565,-0.00861607,0.
 01039397,0.00268068,-0.00309216,-0.00581311,0.12561235,-0.13602615,0.0
 3164725,-0.00087859,-0.00078890,-0.00048139,0.00127759,-0.00070943,0.0
 0056295,-0.01507645,0.01190166,-0.00644589,-0.13807706,0.13622802,0.00
 156312,0.00207744,-0.00204708,0.00015697,0.00036096,0.00052527,-0.0007
 4877,-0.00117029,-0.00067740,-0.00025591,-0.00021681,-0.00016492,-0.00
 030286,-0.00049702,-0.00024664,0.00039983,-0.00016940,-0.00010276,0.00
 001072,0.00018361,0.00001272,-0.00036679,0.00009208,0.00009610,-0.0000
 2146,-0.00004453,-0.00029038,0.00004813,0.00017220,-0.00020637,0.00004
 236,0.00003922,-0.00000468,-0.00000250,-0.00000078,0.00000982,0.000039
 94,0.00002659,-0.00000312,-0.00032869,-0.00046753,-0.00033647,-0.00016
 227,-0.00015012,-0.00007965,0.00005845,0.00006215,-0.00016369,0.000031
 46,0.00007974,-0.00001921,0.00023355,0.00001088,0.00008295,-0.00000757
 ,-0.00004790,0.00003120,0.00000158,0.00001492,-0.00000137,0.00001497,0
 .00002305,0.00001181,0.00000210,-0.00000873,-0.00000270,0.00001106,0.0
 0000755,-0.00000027,-0.00000093,0.00000735,0.00001874,0.01331107,-0.00
 770654,0.00986511,-0.00239921,-0.00563369,0.00318949,-0.07732744,0.031
 90974,-0.08332057,0.00050804,-0.00032033,-0.00085956,0.00071056,-0.000
 39927,0.00017689,-0.02220139,0.01365408,-0.00146112,0.09012875,-0.0292
 6178,0.07742017,-0.00005343,0.00070484,0.00157684,-0.00015442,-0.00071
 663,0.00010960,0.00027688,0.00022865,-0.00038345,-0.00036169,-0.000059
 64,-0.00009707,0.00022062,-0.00024076,0.00002610,0.00030045,-0.0001665
 6,0.00003983,0.00000137,0.00005533,0.00000588,-0.00022926,-0.00003307,
 0.00014920,0.00001738,-0.00001405,0.00002739,-0.00003162,0.00023048,-0
 .00019540,-0.00001938,-0.00001919,0.00000947,-0.00001867,0.00001776,-0
 .00000667,-0.00002104,0.00000149,-0.00000217,0.00055056,-0.00019390,0.
 00046837,0.00015016,-0.00011244,0.00000889,0.00024011,-0.00007497,-0.0
 0029571,-0.00001856,-0.00016619,-0.00030418,-0.00031858,-0.00024467,-0
 .00006848,-0.00017758,-0.00013238,0.00012641,0.00000241,0.00000303,0.0
 0001614,0.00011807,0.00021077,0.00002463,0.00002707,0.00000930,-0.0000
 4157,-0.00002084,0.00001750,-0.00002487,0.00000271,-0.00000715,-0.0000
 1661,-0.04564821,0.05264994,0.00643930,0.06695719,-0.02082496,0.026244
 59,-0.03896381,-0.04208849,-0.06223599,-0.15248971,0.02887518,-0.03139
 164,0.00006548,-0.00013671,-0.00653893,-0.28510770,0.13141089,-0.05975
 556,0.00145825,-0.00014989,-0.00535519,0.62534850,0.00046563,-0.001461
 08,-0.00161085,-0.00026446,0.00090665,-0.00052549,-0.00020235,-0.00052
 541,0.00019528,0.00035073,0.00016162,0.00013341,-0.00040866,0.00020488
 ,0.00002791,-0.00033907,0.00023928,-0.00001846,0.00001735,-0.00009133,
 -0.00003693,0.00029967,0.00001288,-0.00016529,-0.00001325,-0.00000259,
 -0.00001775,-0.00004965,-0.00022507,0.00024037,-0.00001066,0.00000419,
 -0.00000744,-0.00000853,-0.00000707,-0.00000711,0.00000373,-0.00000684
 ,0.00000070,-0.00132035,0.00025318,-0.00027006,-0.00020721,-0.00003859
 ,-0.00040012,-0.00020704,0.00036221,0.00020852,-0.00002016,0.00020659,
 0.00044065,0.00022832,0.00005978,-0.00005289,0.00029087,0.00014974,-0.
 00020131,-0.00001087,0.00000913,0.00001229,-0.00012731,-0.00031882,-0.
 00016867,-0.00000929,0.00004466,-0.00004484,0.00004443,-0.00002778,-0.
 00001277,0.00000957,0.00000548,-0.00000205,0.05350200,-0.07005536,-0.0
 0100276,-0.07248544,-0.01563015,-0.06760329,0.00886114,0.07742643,0.05
 022204,0.09288610,-0.30043693,-0.07394140,0.00040831,0.00261806,-0.003
 91691,0.06772142,-0.19048277,-0.02157430,-0.00045048,0.00130296,-0.005
 55922,-0.11126596,0.63022983,0.00096110,0.00002946,-0.00068878,-0.0001
 2007,0.00016919,-0.00009175,0.00008007,-0.00014693,-0.00006598,-0.0000
 3410,0.00006006,-0.00006387,-0.00003993,-0.00008719,0.00005273,0.00002
 927,0.00002966,0.00000175,0.00004739,0.,-0.00003380,0.00000594,-0.0000
 1757,0.00001611,0.00000382,-0.00000523,-0.00000750,-0.00005505,0.00003
 839,0.00000574,-0.00003831,-0.00001868,0.00000373,-0.00001952,0.000006
 86,-0.00000989,-0.00001643,0.00000013,-0.00000443,-0.00071973,-0.00016
 018,0.00006214,0.00002629,-0.00014732,-0.00009126,0.00008173,0.0001335
 1,-0.00019514,0.00002714,0.00006783,0.00002272,0.00000165,0.00000886,0
 .00000369,0.00003057,-0.00004539,-0.00000304,-0.00001579,0.00001078,0.
 00002263,0.00000717,-0.00001221,-0.00005049,0.00000887,0.00001614,-0.0
 0003074,0.00001459,-0.00000600,-0.00003086,0.00000737,0.00000703,-0.00
 000473,0.00683164,-0.00272651,-0.00359397,-0.00589009,-0.03187708,-0.0
 1507108,-0.02960927,0.01409438,-0.00229749,0.01043945,-0.12086419,-0.1
 5525323,-0.00627698,-0.00441434,0.00168683,-0.10225212,0.02533582,-0.1
 4169525,-0.00535770,-0.00522647,0.00146436,0.25504076,0.21747450,0.503
 24963,-0.00061691,0.00072759,0.00013881,-0.00001169,-0.00006713,-0.000
 01683,0.00006976,-0.00021428,-0.00020637,-0.00004989,0.00005395,-0.000
 03481,-0.00010305,-0.00000469,0.00003721,-0.00000132,0.00002438,-0.000
 01091,0.00001685,0.00000093,-0.00000865,0.00002839,0.00000331,0.000010
 43,0.00000625,-0.00000244,0.00000547,-0.00002928,-0.00000809,0.0000161
 3,-0.00002092,-0.00000172,0.00001336,-0.00001306,0.00001058,-0.0000058
 1,-0.00001450,0.00000252,0.00000074,-0.00012877,-0.00006013,0.00012435
 ,0.00004066,0.00003332,-0.00003066,0.00006430,0.00001100,-0.00007703,-
 0.00001244,-0.00001528,0.00000162,-0.00002157,-0.00003441,0.00002417,0
 .00000669,-0.00001637,-0.00001187,-0.00001149,0.00000609,0.00001054,0.
 00000946,-0.00000903,-0.00002180,0.00000418,0.00001282,-0.00000940,-0.
 00000466,-0.00000570,-0.00002161,0.00000242,0.00000034,-0.00001652,0.0
 0172584,-0.00041151,-0.00566701,-0.01132719,0.01372614,-0.00341608,0.0
 0036589,-0.00091245,0.00034131,-0.27142131,0.12434642,-0.08145887,-0.0
 0049866,-0.00206276,0.00207962,0.00346192,0.00292865,-0.00189237,-0.00
 040465,-0.00024450,0.00046539,-0.00155671,0.00016636,-0.00503717,0.281
 24738,-0.00063450,0.00036792,-0.00009106,0.00002519,-0.00003253,0.0000
 5281,-0.00000725,-0.00011625,-0.00005715,0.00000587,0.00003143,0.00000
 092,-0.00002909,0.00003669,0.00000861,-0.00002750,0.00001512,0.0000086
 3,-0.00000411,-0.00001830,-0.00000259,0.00002029,0.00001633,-0.0000027
 1,-0.00000253,-0.00000651,-0.00000977,-0.00001200,-0.00001522,0.000020
 53,-0.00000404,0.00000049,-0.00000145,-0.00000180,-0.00000450,-0.00000
 218,0.00000184,-0.00000381,-0.00000176,0.00006227,0.00002295,0.0000740
 9,-0.00000952,-0.00000832,0.00001421,0.00001556,-0.00004016,-0.0000065
 0,0.00000301,0.00002344,-0.00001976,0.00002307,-0.00000476,-0.00001796
 ,-0.00001343,-0.00000884,0.00000752,-0.00000371,-0.00000156,-0.0000028
 0,0.00000025,0.00001383,0.00001573,0.00000135,-0.00001248,0.00000886,-
 0.00000304,0.00000274,0.00000169,0.00000125,0.,0.00000686,-0.00010498,
 0.00130331,-0.00528405,-0.01464040,0.01179798,-0.00674253,-0.00088266,
 -0.00067680,-0.00046215,0.12453728,-0.13645370,0.03391803,-0.00110629,
 -0.00015929,0.00247323,0.00252402,-0.00314400,-0.00585916,-0.00025272,
 -0.00024479,0.00048219,0.02836425,-0.00805316,0.01191694,-0.13710611,0
 .13610759,-0.00076834,0.00075786,-0.00005522,0.00003793,0.00001669,0.0
 0007101,-0.00004715,-0.00014004,-0.00038840,-0.00007536,-0.00001398,0.
 00001726,-0.00004370,-0.00000699,0.00002908,0.00005646,-0.00000120,0.0
 0000650,0.00000807,0.00000385,-0.00000236,-0.00003223,0.00001364,0.000
 03775,0.00000069,-0.00000757,-0.00001331,-0.00002867,0.00003798,-0.000
 03500,-0.00000600,-0.00000425,0.00000530,-0.00001205,0.00001027,-0.000
 00329,-0.00000825,0.00000073,-0.00000137,-0.00015302,-0.00005586,0.000
 05646,0.00004406,0.00000342,-0.00004545,0.00002619,0.00002048,-0.00006
 803,0.00001434,-0.00002235,-0.00000241,-0.00004699,0.00000063,0.000011
 70,0.00001500,-0.00001468,-0.00000156,-0.00000772,0.00001477,0.0000070
 7,0.00002352,-0.00000283,-0.00003474,-0.00000090,0.00002117,-0.0000199
 0,-0.00000217,0.00000001,-0.00001321,-0.00000466,0.00000384,-0.0000116
 5,-0.00515743,-0.00551511,0.00156300,-0.02203545,0.01414806,-0.0012601
 8,0.00046978,-0.00047683,-0.00089051,-0.08139553,0.03377061,-0.0861219
 4,0.00271105,0.00183668,-0.00198402,-0.00218417,-0.00559305,0.00340573
 ,0.00040828,0.00051418,-0.00061317,0.01346895,-0.00881595,0.00952557,0
 .09224523,-0.03260193,0.07853942,0.00046963,-0.00078595,-0.00006553,-0
 .00009018,-0.00015026,-0.00011774,0.00010971,0.00001811,0.00004160,-0.
 00003886,0.00001020,0.00000677,0.00002626,0.00002352,0.00000904,0.0000
 1273,-0.00000240,0.00001861,0.00000216,-0.00001290,-0.00000934,-0.0000
 2692,0.00001525,0.00001345,0.00000365,-0.00000917,-0.00000744,-0.00003
 174,0.00002744,0.00000041,-0.00001090,-0.00000867,-0.00000160,-0.00000
 609,-0.00000454,-0.00000685,-0.00000467,-0.00000477,-0.00000565,-0.000
 08770,-0.00004070,-0.00002759,0.00001725,0.00002826,0.00001593,-0.0000
 0589,0.00000224,-0.00003690,0.00001080,0.00000539,-0.00000346,0.000007
 55,0.00001361,-0.00001478,0.00001029,-0.00000695,-0.00000843,-0.000004
 08,0.00000538,0.00000238,-0.00000138,-0.00000429,-0.00000483,-0.000001
 94,-0.00000011,0.00000521,0.00000221,-0.00000313,-0.00000380,-0.000001
 26,0.00000173,-0.00000124,-0.00005629,0.00007319,-0.00634597,-0.001148
 16,-0.00042696,-0.00038364,0.01023391,-0.02075139,-0.01025810,-0.00232
 138,0.00427714,-0.00538028,-0.00026972,-0.00029465,0.00051945,-0.08550
 629,0.07224987,0.02116281,-0.00032695,-0.00108822,0.00266447,-0.000942
 78,0.02827329,0.01396057,-0.00032748,0.00128267,0.00063849,0.08073088,
 0.00056217,-0.00042542,0.00022330,-0.00007692,-0.00011784,-0.00013256,
 0.00014101,-0.00003179,-0.00007890,-0.00007578,0.00001514,-0.00000140,
 -0.00002218,-0.00002468,0.00003135,0.00003867,0.00000931,0.00001029,0.
 00002242,-0.00000244,-0.00002141,-0.00001962,0.00000708,0.00002636,0.0
 0001150,-0.00001289,0.00000340,-0.00004602,0.00004671,-0.00000407,-0.0
 0002651,-0.00001986,0.00000540,-0.00001695,0.00000488,-0.00001279,-0.0
 0002066,-0.00000234,-0.00000707,-0.00019087,-0.00007014,0.00000990,0.0
 0002618,0.00004048,-0.00004629,0.00002585,0.00004598,-0.00007653,-0.00
 002094,-0.00001930,0.00001192,-0.00000566,-0.00004470,0.00002068,0.000
 01526,-0.00000573,-0.00001539,-0.00000056,0.00000481,0.00001320,-0.000
 00021,-0.00001106,-0.00002380,0.00001336,0.00000774,-0.00000847,0.0000
 0378,-0.00000953,-0.00001678,0.00000461,-0.00000136,-0.00001498,-0.000
 21431,0.00244950,-0.00426078,-0.00054554,0.00065474,0.00066762,0.00745
 221,-0.00720463,-0.00298918,0.00465501,0.00215216,-0.00110666,-0.00028
 931,-0.00038964,0.00037293,0.07202773,-0.29990939,-0.11356733,-0.00188
 486,-0.00014637,0.00184457,0.00004708,-0.00874366,-0.00947280,0.000068
 08,-0.00067962,-0.00033700,-0.08062652,0.31263099,0.00049674,-0.000814
 24,-0.00019289,-0.00018007,-0.00015066,-0.00027678,0.00027188,-0.00000
 758,0.00002130,-0.00000712,0.00000987,0.00003626,-0.00009250,0.0000446
 2,0.00003082,-0.00001601,0.00001613,-0.00001307,0.00000692,0.00001930,
 -0.00001542,0.00002439,0.00001705,-0.00000782,0.00000881,-0.00001431,-
 0.00001831,-0.00003417,-0.00000019,0.00002604,-0.00000459,0.00000006,0
 .00000257,-0.00002081,0.00000464,-0.00001732,-0.00001070,-0.00000153,-
 0.00000192,-0.00015082,-0.00014008,0.00011602,-0.00002372,-0.00000834,
 -0.00011215,0.00006126,0.00003629,-0.00010797,-0.00001043,-0.00000081,
 0.00000729,0.00000305,-0.00004855,0.00003826,-0.00000255,-0.00000621,-
 0.00000348,0.00001164,0.00001682,0.00001401,0.00001096,0.00000424,-0.0
 0002318,0.00001776,0.00000923,-0.00002433,0.00000255,-0.00000069,-0.00
 001354,0.00000579,-0.00000057,-0.00000711,-0.00630282,-0.00370787,0.00
 159883,-0.00034177,0.00071291,-0.00073344,0.00834193,-0.02362264,-0.00
 402865,-0.00517631,-0.00141805,0.00424450,0.00053329,0.00036494,-0.000
 62715,0.02123300,-0.11365560,-0.10831581,0.00194314,0.00245862,-0.0019
 6490,-0.00481820,0.01119209,0.00951759,-0.00012499,0.00052580,0.000161
 32,-0.01833350,0.12648832,0.10268497,-0.00020034,-0.00024233,0.0005241
 5,0.00000193,-0.00014504,-0.00005708,0.00004924,-0.00003539,-0.0000348
 3,-0.00000034,0.00002636,-0.00003170,-0.00005078,-0.00004059,0.0000030
 2,0.00000473,0.00001574,-0.00001129,0.00001393,0.00000297,-0.00000281,
 0.00003132,-0.00002157,-0.00000288,0.00000589,0.00000463,0.00002355,-0
 .00000511,-0.00000194,0.00001377,-0.00001436,-0.00000806,0.00000743,-0
 .00000563,0.00000912,-0.00000301,-0.00001383,0.00000197,0.00000013,0.0
 0001092,0.00003690,0.00007628,0.00002626,0.00003777,-0.00000553,0.0000
 0390,0.00000873,-0.00000139,-0.00001574,-0.00002039,0.00000268,-0.0000
 2195,-0.00001983,0.00001268,0.00000487,0.00000495,-0.00000484,-0.00000
 199,-0.00000035,0.00000427,-0.00000084,-0.00000497,-0.00000870,0.00000
 501,0.00000350,-0.00000020,-0.00000180,-0.00000525,-0.00000729,0.00000
 258,-0.00000161,-0.00000973,-0.00051113,0.00065148,0.00076707,0.002622
 90,0.00391589,-0.00187673,-0.00151775,0.00572044,-0.00388133,0.0099372
 8,0.00669279,0.00797569,0.00021257,0.00020848,0.00034980,-0.01068510,-
 0.01577090,-0.02200869,-0.00074303,-0.00066950,-0.00092152,-0.16960323
 ,-0.06612820,-0.13212312,-0.00047442,-0.00202249,0.00184174,-0.0004263
 7,-0.00103150,0.00267798,0.17136043,-0.00030293,-0.00016136,0.00041553
 ,0.00007139,-0.00001349,-0.00000638,0.00005416,0.00000064,-0.00004668,
 -0.00002871,0.00001404,0.00002907,-0.00004043,0.00003199,0.00001224,0.
 00000596,0.00000318,0.00000123,0.00001264,-0.00000017,-0.00001126,-0.0
 0001512,0.00000638,0.00000202,0.00000247,-0.00000835,-0.00000096,-0.00
 000842,0.00000359,-0.00000681,-0.00000808,-0.00000330,0.00000248,-0.00
 000377,0.00000320,-0.00000045,-0.00000459,0.00000135,-0.00000072,-0.00
 001259,0.00006045,0.00006888,-0.00001219,0.00001623,-0.00001627,-0.000
 00992,0.00001538,0.00001512,-0.00000849,-0.00000418,0.00001092,0.00001
 540,-0.00001567,-0.00000006,0.00000553,0.00001265,-0.00000057,0.000005
 25,-0.00000143,0.00000593,0.,-0.00000964,-0.00000527,0.00000266,0.0000
 0392,-0.00000015,-0.00000064,-0.00000521,-0.00000461,0.00000241,-0.000
 00008,-0.00000714,0.00063926,-0.00093251,0.00051217,0.00441888,-0.0030
 9124,-0.00445343,0.00519749,0.00076237,-0.00168347,-0.02157406,-0.0062
 4186,-0.02323075,-0.00097036,-0.00062440,-0.00103308,0.01248616,0.0120
 1885,0.01358922,0.00046295,0.00032149,0.00060563,-0.06617886,-0.118090
 92,-0.09417144,-0.00094590,-0.00005521,0.00243476,-0.00208571,-0.00019
 713,0.00167701,0.06882817,0.11618041,0.00036741,0.00034110,-0.00059818
 ,-0.00002326,0.00012312,0.00001751,0.00001415,-0.00001636,-0.00005926,
 -0.00002089,-0.00002069,-0.00003451,-0.00002536,-0.00004171,0.00001677
 ,0.00001647,0.00000665,-0.00002023,0.00000805,0.00001810,-0.00000128,0
 .00001696,-0.00001132,0.00000695,0.00000630,0.00000682,0.00000804,-0.0
 0001299,0.00000657,0.00000498,-0.00000438,-0.00000082,0.00000843,-0.00
 000884,0.00000763,-0.00000730,-0.00001091,0.00000343,0.00000129,-0.000
 13506,-0.00010915,-0.00002325,0.00002505,0.00001013,-0.00004610,0.0000
 3995,0.00003342,-0.00006021,-0.00001782,-0.00002943,0.00002174,-0.0000
 3742,-0.00003147,0.00003669,0.00001027,-0.00000358,-0.00001097,0.00000
 181,0.00000723,0.00000813,0.00000431,-0.00000916,-0.00002183,0.0000074
 1,0.00001567,-0.00001787,0.00000082,-0.00000385,-0.00001266,0.00000144
 ,-0.00000074,-0.00001370,0.00086750,0.00060920,0.00010278,-0.00157936,
 -0.00478407,0.00439124,-0.00423680,-0.00136815,0.00499851,-0.01059685,
 -0.00239999,-0.00428474,-0.00038367,-0.00016635,-0.00045719,-0.0031279
 1,-0.00716063,-0.00180634,-0.00014002,-0.00023083,-0.00033858,-0.13225
 066,-0.09419187,-0.20635194,0.00255440,0.00162886,-0.00187143,0.001957
 49,0.00246497,-0.00199452,0.14671241,0.10529725,0.20840902||-0.0000018
 2,0.00000365,0.00000873,0.00000139,-0.00000458,0.00000106,0.00000272,0
 .00001497,-0.00002282,-0.00002091,0.00000197,0.00001438,0.00001740,-0.
 00001069,0.00001015,0.00001660,-0.00001577,0.00000150,0.00000196,-0.00
 000101,-0.00000042,-0.00002023,-0.00000530,0.00000841,-0.00000151,0.00
 000113,-0.00000112,0.00000452,0.00001668,-0.00001352,-0.00000241,0.000
 00046,0.00000114,0.00000143,0.00000109,-0.00000191,-0.00000124,-0.0000
 0118,0.00000176,0.00000183,0.00000364,-0.00000267,0.00000029,-0.000001
 08,-0.00000194,0.00000034,0.00000213,0.00000228,-0.00000344,-0.0000005
 0,-0.00000032,0.00000102,-0.00000004,0.00000010,-0.00000072,0.00000441
 ,-0.00000173,0.00000004,-0.00000143,0.00000035,0.00000077,-0.00000354,
 0.00000097,0.00000106,0.00000073,-0.00000028,0.00000020,-0.00000142,-0
 .00000092,0.00000067,-0.00000013,-0.00000155,-0.00000572,0.00001382,-0
 .00001025,0.00001621,-0.00000424,0.00002124,-0.00001007,-0.00002087,-0
 .00000991,-0.00000725,-0.00001830,-0.00001778,-0.00000091,0.00000030,-
 0.00000161,0.00002259,0.,0.00001464,0.00000099,0.00000207,0.00000097,-
 0.00001728,0.00002252,-0.00000184,0.00000182,0.00000170,0.00000191,-0.
 00000230,0.00000136,-0.00000063,0.00000195,-0.00000253,0.00000164|||@


 A MAN THINKING OR WORKING IS ALWAYS ALONE, 
 LET HIM BE WHERE HE WILL.

                                    -- THOREAU
 Job cpu time:  0 days  0 hours  6 minutes 24.0 seconds.
 File lengths (MBytes):  RWF=    350 Int=      0 D2E=      0 Chk=      7 Scr=      1
 Normal termination of Gaussian 09 at Tue Sep 07 06:03:33 2021.
