 Entering Link 1 = b:\programy\g09w\l1.exe PID=     18196.
  
 Copyright (c) 1988,1990,1992,1993,1995,1998,2003,2009, Gaussian, Inc.
                  All Rights Reserved.
  
 This is part of the Gaussian(R) 09 program.  It is based on
 the Gaussian(R) 03 system (copyright 2003, Gaussian, Inc.),
 the Gaussian(R) 98 system (copyright 1998, Gaussian, Inc.),
 the Gaussian(R) 94 system (copyright 1995, Gaussian, Inc.),
 the Gaussian 92(TM) system (copyright 1992, Gaussian, Inc.),
 the Gaussian 90(TM) system (copyright 1990, Gaussian, Inc.),
 the Gaussian 88(TM) system (copyright 1988, Gaussian, Inc.),
 the Gaussian 86(TM) system (copyright 1986, Carnegie Mellon
 University), and the Gaussian 82(TM) system (copyright 1983,
 Carnegie Mellon University). Gaussian is a federally registered
 trademark of Gaussian, Inc.
  
 This software contains proprietary and confidential information,
 including trade secrets, belonging to Gaussian, Inc.
  
 This software is provided under written license and may be
 used, copied, transmitted, or stored only in accord with that
 written license.
  
 The following legend is applicable only to US Government
 contracts under FAR:
  
                    RESTRICTED RIGHTS LEGEND
  
 Use, reproduction and disclosure by the US Government is
 subject to restrictions as set forth in subparagraphs (a)
 and (c) of the Commercial Computer Software - Restricted
 Rights clause in FAR 52.227-19.
  
 Gaussian, Inc.
 340 Quinnipiac St., Bldg. 40, Wallingford CT 06492
  
  
 ---------------------------------------------------------------
 Warning -- This program may not be used in any manner that
 competes with the business of Gaussian, Inc. or will provide
 assistance to any competitor of Gaussian, Inc.  The licensee
 of this program is prohibited from giving any competitor of
 Gaussian, Inc. access to this program.  By using this program,
 the user acknowledges that Gaussian, Inc. is engaged in the
 business of creating and licensing software in the field of
 computational chemistry and represents and warrants to the
 licensee that it is not a competitor of Gaussian, Inc. and that
 it will not use this program in any manner prohibited above.
 ---------------------------------------------------------------
  

 Cite this work as:
 Gaussian 09, Revision A.02,
 M. J. Frisch, G. W. Trucks, H. B. Schlegel, G. E. Scuseria, 
 M. A. Robb, J. R. Cheeseman, G. Scalmani, V. Barone, B. Mennucci, 
 G. A. Petersson, H. Nakatsuji, M. Caricato, X. Li, H. P. Hratchian, 
 A. F. Izmaylov, J. Bloino, G. Zheng, J. L. Sonnenberg, M. Hada, 
 M. Ehara, K. Toyota, R. Fukuda, J. Hasegawa, M. Ishida, T. Nakajima, 
 Y. Honda, O. Kitao, H. Nakai, T. Vreven, J. A. Montgomery, Jr., 
 J. E. Peralta, F. Ogliaro, M. Bearpark, J. J. Heyd, E. Brothers, 
 K. N. Kudin, V. N. Staroverov, R. Kobayashi, J. Normand, 
 K. Raghavachari, A. Rendell, J. C. Burant, S. S. Iyengar, J. Tomasi, 
 M. Cossi, N. Rega, J. M. Millam, M. Klene, J. E. Knox, J. B. Cross, 
 V. Bakken, C. Adamo, J. Jaramillo, R. Gomperts, R. E. Stratmann, 
 O. Yazyev, A. J. Austin, R. Cammi, C. Pomelli, J. W. Ochterski, 
 R. L. Martin, K. Morokuma, V. G. Zakrzewski, G. A. Voth, 
 P. Salvador, J. J. Dannenberg, S. Dapprich, A. D. Daniels, 
 O. Farkas, J. B. Foresman, J. V. Ortiz, J. Cioslowski, 
 and D. J. Fox, Gaussian, Inc., Wallingford CT, 2009.
 
 ******************************************
 Gaussian 09:  IA32W-G09RevA.02 11-Jun-2009
                06-Sep-2021 
 ******************************************
 %nprocshared=12
 Will use up to   12 processors via shared memory.
 ----------------------------------------------
 # opt freq=noraman hf/6-311g geom=connectivity
 ----------------------------------------------
 1/18=20,19=15,38=1,57=2/1,3;
 2/9=110,12=2,17=6,18=5,40=1/2;
 3/5=4,6=6,11=9,16=1,25=1,30=1,71=1/1,2,3;
 4//1;
 5/5=2,38=5/2;
 6/7=2,8=2,9=2,10=2,28=1/1;
 7//1,2,3,16;
 1/18=20,19=15/3(2);
 2/9=110/2;
 99//99;
 2/9=110/2;
 3/5=4,6=6,11=9,16=1,25=1,30=1,71=1/1,2,3;
 4/5=5,16=3/1;
 5/5=2,38=5/2;
 7//1,2,3,16;
 1/18=20,19=15/3(-5);
 2/9=110/2;
 6/7=2,8=2,9=2,10=2,19=2,28=1/1;
 99/9=1/99;
 -----
 M0001
 -----
 Symbolic Z-matrix:
 Charge =  0 Multiplicity = 1
 C                     0.04336   0.74965   0.16749 
 H                     0.0432    1.85028   0.39513 
 C                     1.49049   0.32681   0.11901 
 C                     1.89121  -1.00601   0.22566 
 C                     2.46637   1.31494  -0.04359 
 C                     3.23871  -1.34458   0.17546 
 H                     1.13056  -1.79224   0.35824 
 C                     3.8128    0.9745   -0.09674 
 H                     2.17092   2.36724  -0.13127 
 C                     4.20245  -0.35592   0.01355 
 H                     3.53909  -2.3936    0.2645 
 H                     4.56775   1.75696  -0.22504 
 H                     5.2632   -0.62311  -0.02626 
 C                    -0.73695   0.07082   1.26646 
 C                    -1.05213  -1.28796   1.21475 
 C                    -1.17454   0.82815   2.35571 
 C                    -1.79968  -1.87801   2.22656 
 H                    -0.68073  -1.88906   0.37087 
 C                    -1.91945   0.23579   3.36914 
 H                    -0.93169   1.89568   2.41425 
 C                    -2.23677  -1.11649   3.30494 
 H                    -2.04303  -2.94386   2.1732 
 H                    -2.25806   0.83759   4.21894 
 H                    -2.82703  -1.58037   4.10159 
 C                    -0.66589   0.58607  -1.15542 
 C                    -1.67844   1.49419  -1.48203 
 C                    -0.35651  -0.4346   -2.05376 
 C                    -2.36647   1.37952  -2.68342 
 H                    -1.9355    2.30056  -0.78504 
 C                    -1.0451   -0.54611  -3.25725 
 H                     0.44107  -1.14992  -1.81555 
 C                    -2.05106   0.35882  -3.57453 
 H                    -3.15842   2.09484  -2.92849 
 H                    -0.79106  -1.35034  -3.95551 
 H                    -2.59264   0.26978  -4.52154 
 

 GradGradGradGradGradGradGradGradGradGradGradGradGradGradGradGradGradGrad
 Berny optimization.
 Initialization pass.
                           ----------------------------
                           !    Initial Parameters    !
                           ! (Angstroms and Degrees)  !
 --------------------------                            --------------------------
 ! Name  Definition              Value          Derivative Info.                !
 --------------------------------------------------------------------------------
 ! R1    R(1,2)                  1.1239         estimate D2E/DX2                !
 ! R2    R(1,3)                  1.5084         estimate D2E/DX2                !
 ! R3    R(1,14)                 1.5091         estimate D2E/DX2                !
 ! R4    R(1,25)                 1.5099         estimate D2E/DX2                !
 ! R5    R(3,4)                  1.3958         estimate D2E/DX2                !
 ! R6    R(3,5)                  1.3983         estimate D2E/DX2                !
 ! R7    R(4,6)                  1.3903         estimate D2E/DX2                !
 ! R8    R(4,7)                  1.102          estimate D2E/DX2                !
 ! R9    R(5,8)                  1.3898         estimate D2E/DX2                !
 ! R10   R(5,9)                  1.0965         estimate D2E/DX2                !
 ! R11   R(6,10)                 1.3901         estimate D2E/DX2                !
 ! R12   R(6,11)                 1.0948         estimate D2E/DX2                !
 ! R13   R(8,10)                 1.3907         estimate D2E/DX2                !
 ! R14   R(8,12)                 1.0948         estimate D2E/DX2                !
 ! R15   R(10,13)                1.0946         estimate D2E/DX2                !
 ! R16   R(14,15)                1.3958         estimate D2E/DX2                !
 ! R17   R(14,16)                1.397          estimate D2E/DX2                !
 ! R18   R(15,17)                1.3895         estimate D2E/DX2                !
 ! R19   R(15,18)                1.1006         estimate D2E/DX2                !
 ! R20   R(16,19)                1.3903         estimate D2E/DX2                !
 ! R21   R(16,20)                1.0964         estimate D2E/DX2                !
 ! R22   R(17,21)                1.3906         estimate D2E/DX2                !
 ! R23   R(17,22)                1.0946         estimate D2E/DX2                !
 ! R24   R(19,21)                1.3905         estimate D2E/DX2                !
 ! R25   R(19,23)                1.095          estimate D2E/DX2                !
 ! R26   R(21,24)                1.0946         estimate D2E/DX2                !
 ! R27   R(25,26)                1.3988         estimate D2E/DX2                !
 ! R28   R(25,27)                1.3944         estimate D2E/DX2                !
 ! R29   R(26,28)                1.3892         estimate D2E/DX2                !
 ! R30   R(26,29)                1.0964         estimate D2E/DX2                !
 ! R31   R(27,30)                1.391          estimate D2E/DX2                !
 ! R32   R(27,31)                1.0975         estimate D2E/DX2                !
 ! R33   R(28,32)                1.3912         estimate D2E/DX2                !
 ! R34   R(28,33)                1.095          estimate D2E/DX2                !
 ! R35   R(30,32)                1.3898         estimate D2E/DX2                !
 ! R36   R(30,34)                1.0949         estimate D2E/DX2                !
 ! R37   R(32,35)                1.0946         estimate D2E/DX2                !
 ! A1    A(2,1,3)              106.3293         estimate D2E/DX2                !
 ! A2    A(2,1,14)             107.0333         estimate D2E/DX2                !
 ! A3    A(2,1,25)             106.4681         estimate D2E/DX2                !
 ! A4    A(3,1,14)             113.1639         estimate D2E/DX2                !
 ! A5    A(3,1,25)             113.0857         estimate D2E/DX2                !
 ! A6    A(14,1,25)            110.2684         estimate D2E/DX2                !
 ! A7    A(1,3,4)              122.7267         estimate D2E/DX2                !
 ! A8    A(1,3,5)              118.3722         estimate D2E/DX2                !
 ! A9    A(4,3,5)              118.9008         estimate D2E/DX2                !
 ! A10   A(3,4,6)              120.5324         estimate D2E/DX2                !
 ! A11   A(3,4,7)              119.4912         estimate D2E/DX2                !
 ! A12   A(6,4,7)              119.9748         estimate D2E/DX2                !
 ! A13   A(3,5,8)              120.4956         estimate D2E/DX2                !
 ! A14   A(3,5,9)              119.963          estimate D2E/DX2                !
 ! A15   A(8,5,9)              119.5414         estimate D2E/DX2                !
 ! A16   A(4,6,10)             120.1951         estimate D2E/DX2                !
 ! A17   A(4,6,11)             119.7579         estimate D2E/DX2                !
 ! A18   A(10,6,11)            120.047          estimate D2E/DX2                !
 ! A19   A(5,8,10)             120.1814         estimate D2E/DX2                !
 ! A20   A(5,8,12)             119.8311         estimate D2E/DX2                !
 ! A21   A(10,8,12)            119.9874         estimate D2E/DX2                !
 ! A22   A(6,10,8)             119.6943         estimate D2E/DX2                !
 ! A23   A(6,10,13)            120.1635         estimate D2E/DX2                !
 ! A24   A(8,10,13)            120.1422         estimate D2E/DX2                !
 ! A25   A(1,14,15)            121.8477         estimate D2E/DX2                !
 ! A26   A(1,14,16)            119.0729         estimate D2E/DX2                !
 ! A27   A(15,14,16)           119.0713         estimate D2E/DX2                !
 ! A28   A(14,15,17)           120.523          estimate D2E/DX2                !
 ! A29   A(14,15,18)           118.9374         estimate D2E/DX2                !
 ! A30   A(17,15,18)           120.5266         estimate D2E/DX2                !
 ! A31   A(14,16,19)           120.3468         estimate D2E/DX2                !
 ! A32   A(14,16,20)           120.0078         estimate D2E/DX2                !
 ! A33   A(19,16,20)           119.6454         estimate D2E/DX2                !
 ! A34   A(15,17,21)           120.0814         estimate D2E/DX2                !
 ! A35   A(15,17,22)           119.842          estimate D2E/DX2                !
 ! A36   A(21,17,22)           120.0766         estimate D2E/DX2                !
 ! A37   A(16,19,21)           120.1979         estimate D2E/DX2                !
 ! A38   A(16,19,23)           119.8179         estimate D2E/DX2                !
 ! A39   A(21,19,23)           119.9841         estimate D2E/DX2                !
 ! A40   A(17,21,19)           119.7773         estimate D2E/DX2                !
 ! A41   A(17,21,24)           120.1181         estimate D2E/DX2                !
 ! A42   A(19,21,24)           120.1045         estimate D2E/DX2                !
 ! A43   A(1,25,26)            118.3111         estimate D2E/DX2                !
 ! A44   A(1,25,27)            122.6506         estimate D2E/DX2                !
 ! A45   A(26,25,27)           119.0372         estimate D2E/DX2                !
 ! A46   A(25,26,28)           120.4544         estimate D2E/DX2                !
 ! A47   A(25,26,29)           119.9182         estimate D2E/DX2                !
 ! A48   A(28,26,29)           119.627          estimate D2E/DX2                !
 ! A49   A(25,27,30)           120.412          estimate D2E/DX2                !
 ! A50   A(25,27,31)           119.8983         estimate D2E/DX2                !
 ! A51   A(30,27,31)           119.6874         estimate D2E/DX2                !
 ! A52   A(26,28,32)           120.1469         estimate D2E/DX2                !
 ! A53   A(26,28,33)           119.8579         estimate D2E/DX2                !
 ! A54   A(32,28,33)           119.9953         estimate D2E/DX2                !
 ! A55   A(27,30,32)           120.2401         estimate D2E/DX2                !
 ! A56   A(27,30,34)           119.7204         estimate D2E/DX2                !
 ! A57   A(32,30,34)           120.0395         estimate D2E/DX2                !
 ! A58   A(28,32,30)           119.7093         estimate D2E/DX2                !
 ! A59   A(28,32,35)           120.1124         estimate D2E/DX2                !
 ! A60   A(30,32,35)           120.1783         estimate D2E/DX2                !
 ! D1    D(2,1,3,4)            161.9571         estimate D2E/DX2                !
 ! D2    D(2,1,3,5)            -18.2344         estimate D2E/DX2                !
 ! D3    D(14,1,3,4)            44.7404         estimate D2E/DX2                !
 ! D4    D(14,1,3,5)          -135.4511         estimate D2E/DX2                !
 ! D5    D(25,1,3,4)           -81.5562         estimate D2E/DX2                !
 ! D6    D(25,1,3,5)            98.2523         estimate D2E/DX2                !
 ! D7    D(2,1,14,15)          173.0335         estimate D2E/DX2                !
 ! D8    D(2,1,14,16)           -5.922          estimate D2E/DX2                !
 ! D9    D(3,1,14,15)          -70.1637         estimate D2E/DX2                !
 ! D10   D(3,1,14,16)          110.8808         estimate D2E/DX2                !
 ! D11   D(25,1,14,15)          57.617          estimate D2E/DX2                !
 ! D12   D(25,1,14,16)        -121.3384         estimate D2E/DX2                !
 ! D13   D(2,1,25,26)          -31.0873         estimate D2E/DX2                !
 ! D14   D(2,1,25,27)          149.3109         estimate D2E/DX2                !
 ! D15   D(3,1,25,26)         -147.4919         estimate D2E/DX2                !
 ! D16   D(3,1,25,27)           32.9063         estimate D2E/DX2                !
 ! D17   D(14,1,25,26)          84.6843         estimate D2E/DX2                !
 ! D18   D(14,1,25,27)         -94.9175         estimate D2E/DX2                !
 ! D19   D(1,3,4,6)           -179.9812         estimate D2E/DX2                !
 ! D20   D(1,3,4,7)             -0.4447         estimate D2E/DX2                !
 ! D21   D(5,3,4,6)              0.2112         estimate D2E/DX2                !
 ! D22   D(5,3,4,7)            179.7478         estimate D2E/DX2                !
 ! D23   D(1,3,5,8)           -179.8746         estimate D2E/DX2                !
 ! D24   D(1,3,5,9)              0.0579         estimate D2E/DX2                !
 ! D25   D(4,3,5,8)             -0.0586         estimate D2E/DX2                !
 ! D26   D(4,3,5,9)            179.8739         estimate D2E/DX2                !
 ! D27   D(3,4,6,10)            -0.2161         estimate D2E/DX2                !
 ! D28   D(3,4,6,11)           179.7511         estimate D2E/DX2                !
 ! D29   D(7,4,6,10)          -179.7504         estimate D2E/DX2                !
 ! D30   D(7,4,6,11)             0.2168         estimate D2E/DX2                !
 ! D31   D(3,5,8,10)            -0.09           estimate D2E/DX2                !
 ! D32   D(3,5,8,12)           179.9577         estimate D2E/DX2                !
 ! D33   D(9,5,8,10)           179.9772         estimate D2E/DX2                !
 ! D34   D(9,5,8,12)             0.025          estimate D2E/DX2                !
 ! D35   D(4,6,10,8)             0.065          estimate D2E/DX2                !
 ! D36   D(4,6,10,13)         -179.9781         estimate D2E/DX2                !
 ! D37   D(11,6,10,8)         -179.9021         estimate D2E/DX2                !
 ! D38   D(11,6,10,13)           0.0548         estimate D2E/DX2                !
 ! D39   D(5,8,10,6)             0.0872         estimate D2E/DX2                !
 ! D40   D(5,8,10,13)         -179.8698         estimate D2E/DX2                !
 ! D41   D(12,8,10,6)         -179.9607         estimate D2E/DX2                !
 ! D42   D(12,8,10,13)           0.0824         estimate D2E/DX2                !
 ! D43   D(1,14,15,17)        -178.4471         estimate D2E/DX2                !
 ! D44   D(1,14,15,18)           2.8568         estimate D2E/DX2                !
 ! D45   D(16,14,15,17)          0.5083         estimate D2E/DX2                !
 ! D46   D(16,14,15,18)       -178.1877         estimate D2E/DX2                !
 ! D47   D(1,14,16,19)         178.6459         estimate D2E/DX2                !
 ! D48   D(1,14,16,20)          -1.3003         estimate D2E/DX2                !
 ! D49   D(15,14,16,19)         -0.3389         estimate D2E/DX2                !
 ! D50   D(15,14,16,20)        179.7149         estimate D2E/DX2                !
 ! D51   D(14,15,17,21)         -0.2361         estimate D2E/DX2                !
 ! D52   D(14,15,17,22)        179.8133         estimate D2E/DX2                !
 ! D53   D(18,15,17,21)        178.4391         estimate D2E/DX2                !
 ! D54   D(18,15,17,22)         -1.5114         estimate D2E/DX2                !
 ! D55   D(14,16,19,21)         -0.1027         estimate D2E/DX2                !
 ! D56   D(14,16,19,23)       -179.9965         estimate D2E/DX2                !
 ! D57   D(20,16,19,21)        179.8437         estimate D2E/DX2                !
 ! D58   D(20,16,19,23)         -0.0501         estimate D2E/DX2                !
 ! D59   D(15,17,21,19)         -0.2108         estimate D2E/DX2                !
 ! D60   D(15,17,21,24)        179.9058         estimate D2E/DX2                !
 ! D61   D(22,17,21,19)        179.7396         estimate D2E/DX2                !
 ! D62   D(22,17,21,24)         -0.1437         estimate D2E/DX2                !
 ! D63   D(16,19,21,17)          0.3795         estimate D2E/DX2                !
 ! D64   D(16,19,21,24)       -179.7372         estimate D2E/DX2                !
 ! D65   D(23,19,21,17)       -179.7269         estimate D2E/DX2                !
 ! D66   D(23,19,21,24)          0.1565         estimate D2E/DX2                !
 ! D67   D(1,25,26,28)        -179.5471         estimate D2E/DX2                !
 ! D68   D(1,25,26,29)           0.2081         estimate D2E/DX2                !
 ! D69   D(27,25,26,28)          0.0695         estimate D2E/DX2                !
 ! D70   D(27,25,26,29)        179.8246         estimate D2E/DX2                !
 ! D71   D(1,25,27,30)         179.646          estimate D2E/DX2                !
 ! D72   D(1,25,27,31)          -0.9083         estimate D2E/DX2                !
 ! D73   D(26,25,27,30)          0.0469         estimate D2E/DX2                !
 ! D74   D(26,25,27,31)        179.4927         estimate D2E/DX2                !
 ! D75   D(25,26,28,32)         -0.1115         estimate D2E/DX2                !
 ! D76   D(25,26,28,33)        179.9036         estimate D2E/DX2                !
 ! D77   D(29,26,28,32)       -179.8674         estimate D2E/DX2                !
 ! D78   D(29,26,28,33)          0.1477         estimate D2E/DX2                !
 ! D79   D(25,27,30,32)         -0.1218         estimate D2E/DX2                !
 ! D80   D(25,27,30,34)        179.8364         estimate D2E/DX2                !
 ! D81   D(31,27,30,32)       -179.5687         estimate D2E/DX2                !
 ! D82   D(31,27,30,34)          0.3895         estimate D2E/DX2                !
 ! D83   D(26,28,32,30)          0.0365         estimate D2E/DX2                !
 ! D84   D(26,28,32,35)       -179.9203         estimate D2E/DX2                !
 ! D85   D(33,28,32,30)       -179.9786         estimate D2E/DX2                !
 ! D86   D(33,28,32,35)          0.0646         estimate D2E/DX2                !
 ! D87   D(27,30,32,28)          0.0797         estimate D2E/DX2                !
 ! D88   D(27,30,32,35)       -179.9636         estimate D2E/DX2                !
 ! D89   D(34,30,32,28)       -179.8784         estimate D2E/DX2                !
 ! D90   D(34,30,32,35)          0.0784         estimate D2E/DX2                !
 --------------------------------------------------------------------------------
 Trust Radius=3.00D-01 FncErr=1.00D-07 GrdErr=1.00D-07
 Number of steps in this run= 197 maximum allowed number of steps= 210.
 GradGradGradGradGradGradGradGradGradGradGradGradGradGradGradGradGradGrad

                          Input orientation:                          
 ---------------------------------------------------------------------
 Center     Atomic      Atomic             Coordinates (Angstroms)
 Number     Number       Type             X           Y           Z
 ---------------------------------------------------------------------
      1          6           0        0.043356    0.749650    0.167486
      2          1           0        0.043198    1.850279    0.395128
      3          6           0        1.490488    0.326807    0.119006
      4          6           0        1.891215   -1.006009    0.225658
      5          6           0        2.466367    1.314938   -0.043588
      6          6           0        3.238707   -1.344581    0.175464
      7          1           0        1.130561   -1.792235    0.358243
      8          6           0        3.812802    0.974499   -0.096740
      9          1           0        2.170921    2.367236   -0.131273
     10          6           0        4.202450   -0.355922    0.013552
     11          1           0        3.539093   -2.393601    0.264495
     12          1           0        4.567746    1.756961   -0.225041
     13          1           0        5.263195   -0.623106   -0.026258
     14          6           0       -0.736952    0.070818    1.266459
     15          6           0       -1.052131   -1.287964    1.214751
     16          6           0       -1.174542    0.828149    2.355709
     17          6           0       -1.799682   -1.878014    2.226558
     18          1           0       -0.680731   -1.889058    0.370870
     19          6           0       -1.919453    0.235787    3.369142
     20          1           0       -0.931694    1.895685    2.414250
     21          6           0       -2.236774   -1.116494    3.304942
     22          1           0       -2.043032   -2.943861    2.173197
     23          1           0       -2.258064    0.837594    4.218944
     24          1           0       -2.827026   -1.580368    4.101588
     25          6           0       -0.665888    0.586068   -1.155423
     26          6           0       -1.678439    1.494192   -1.482033
     27          6           0       -0.356514   -0.434604   -2.053755
     28          6           0       -2.366473    1.379517   -2.683420
     29          1           0       -1.935504    2.300563   -0.785038
     30          6           0       -1.045100   -0.546112   -3.257245
     31          1           0        0.441074   -1.149917   -1.815552
     32          6           0       -2.051057    0.358823   -3.574531
     33          1           0       -3.158416    2.094839   -2.928493
     34          1           0       -0.791057   -1.350336   -3.955510
     35          1           0       -2.592642    0.269778   -4.521543
 ---------------------------------------------------------------------
                    Distance matrix (angstroms):
                    1          2          3          4          5
     1  C    0.000000
     2  H    1.123924   0.000000
     3  C    1.508422   2.119401   0.000000
     4  C    2.549569   3.406210   1.395835   0.000000
     5  C    2.497015   2.520082   1.398278   2.406260   0.000000
     6  C    3.820489   4.524010   2.419296   1.390283   2.778045
     7  H    2.771206   3.801530   2.162665   1.101964   3.405932
     8  C    3.785379   3.901133   2.420577   2.778282   1.389823
     9  H    2.689307   2.252010   2.165405   3.403589   1.096498
    10  C    4.306279   4.723590   2.798566   2.410272   2.410190
    11  H    4.702086   5.499897   3.408602   2.154628   3.872843
    12  H    4.651758   4.567806   3.410751   3.873106   2.155018
    13  H    5.400807   5.791681   3.893167   3.402988   3.402728
    14  C    1.509118   2.129397   2.518664   3.024910   3.677677
    15  C    2.539434   3.423462   3.205160   3.117866   4.553937
    16  C    2.505546   2.524187   3.515192   4.159341   4.387461
    17  C    3.813291   4.544283   4.486449   4.287973   5.792036
    18  H    2.743802   3.808845   3.112505   2.723191   4.510166
    19  C    3.790419   3.911948   4.711621   5.093598   5.660982
    20  H    2.704084   2.242617   3.687343   4.602019   4.233800
    21  C    4.304082   4.739940   5.111340   5.151164   6.264507
    22  H    4.692325   5.522468   5.234762   4.798590   6.586819
    23  H    4.660320   4.576342   5.578713   6.046629   6.381010
    24  H    5.398633   5.809076   6.175695   6.133068   7.320198
    25  C    1.509925   2.122555   2.518203   3.313740   3.402713
    26  C    2.497966   2.571880   3.737408   4.680774   4.390977
    27  C    2.548778   3.373054   2.951619   3.251848   3.882052
    28  C    3.785720   3.937714   4.882412   5.681670   5.507198
    29  H    2.688591   2.347511   4.055913   5.157393   4.571398
    30  C    3.820016   4.501879   4.311643   4.578653   5.110920
    31  H    2.774702   3.747878   2.650377   2.508019   3.649271
    32  C    4.306043   4.729539   5.117204   5.643200   5.812817
    33  H    4.652523   4.621321   5.833139   6.712876   6.369389
    34  H    4.701625   5.465160   4.961848   4.979489   5.746097
    35  H    5.400533   5.798215   6.181416   6.653460   6.836521
                    6          7          8          9         10
     6  C    0.000000
     7  H    2.162888   0.000000
     8  C    2.404540   3.880238   0.000000
     9  H    3.874511   4.315458   2.153295   0.000000
    10  C    1.390131   3.408564   1.390687   3.400540   0.000000
    11  H    1.094806   2.484242   3.398457   4.969315   2.157580
    12  H    3.397986   4.975063   1.094828   2.475075   2.157462
    13  H    2.158650   4.312003   2.158923   4.302944   1.094602
    14  C    4.358840   2.789879   4.834791   3.960166   5.113665
    15  C    4.415270   2.398340   5.523252   5.055722   5.470119
    16  C    5.380613   4.021166   5.559634   4.443647   5.983291
    17  C    5.465977   3.476245   6.710776   6.272735   6.575693
    18  H    3.961898   1.813922   5.348875   5.147825   5.130657
    19  C    6.269271   4.741410   6.739197   5.790263   7.006269
    20  H    5.736178   4.699022   5.446457   4.040826   6.098567
    21  C    6.310828   4.525329   7.248521   6.585721   7.271542
    22  H    5.869020   3.833013   7.402496   7.160707   7.097009
    23  H    7.164224   5.770943   7.449784   6.393755   7.800515
    24  H    7.229327   5.451606   8.260788   7.647233   8.223432
    25  C    4.554616   3.342864   4.618480   3.502703   5.094562
    26  C    5.914749   4.698692   5.687077   4.171850   6.343860
    27  C    4.327019   3.142020   4.816501   4.234876   5.006406
    28  C    6.856528   5.616135   6.711065   5.298772   7.310004
    29  H    6.401726   5.240118   5.939295   4.158675   6.735661
    30  C    5.547256   4.399782   5.991683   5.348092   6.186362
    31  H    3.439301   2.369251   4.340048   4.266091   4.257229
    32  C    6.704152   5.496950   6.845358   5.806448   7.245105
    33  H    7.898566   6.656374   7.607357   6.024988   8.297241
    34  H    5.770960   4.743033   6.441311   6.100692   6.455806
    35  H    7.659809   6.475064   7.816984   6.809209   8.193404
                   11         12         13         14         15
    11  H    0.000000
    12  H    4.304061   0.000000
    13  H    2.488316   2.487545   0.000000
    14  C    5.036055   5.762592   6.176925   0.000000
    15  C    4.817131   6.551914   6.470354   1.395815   0.000000
    16  C    6.080395   6.363712   7.016008   1.396961   2.407218
    17  C    5.711220   7.730945   7.518923   2.418498   1.389512
    18  H    4.251211   6.418339   6.090206   2.155540   1.100631
    19  C    6.807954   7.570725   7.991050   2.418016   2.777672
    20  H    6.557999   6.101552   7.118781   2.164599   3.404250
    21  C    6.651012   8.186514   8.221305   2.795459   2.408668
    22  H    5.925035   8.458821   7.975240   3.408270   2.154646
    23  H    7.725627   8.196702   8.759265   3.408650   3.872653
    24  H    7.477439   9.194571   9.132751   3.890088   3.401408
    25  C    5.345696   5.443118   6.155578   2.477104   3.046129
    26  C    6.737057   6.376826   7.401927   3.235213   3.924959
    27  C    4.938391   5.691704   5.977241   3.379942   3.448948
    28  C    7.602785   7.366783   8.323632   4.468733   4.902927
    29  H    7.287517   6.549913   7.806718   3.258363   4.202027
    30  C    6.068830   6.782511   7.088004   4.575965   4.533117
    31  H    3.933328   5.292362   5.170296   3.518058   3.381043
    32  C    7.318725   7.548670   8.188571   5.024441   5.162072
    33  H    8.671673   8.192460   9.313095   5.249551   5.748589
    34  H    6.135719   7.231076   7.254092   5.412168   5.177224
    35  H    8.221796   8.481910   9.094999   6.081459   6.140424
                   16         17         18         19         20
    16  C    0.000000
    17  C    2.780431   0.000000
    18  H    3.400978   2.166968   0.000000
    19  C    1.390263   2.405826   3.878019   0.000000
    20  H    1.096374   3.876781   4.308441   2.154703   0.000000
    21  C    2.410605   1.390638   3.409825   1.390495   3.401439
    22  H    3.875002   1.094576   2.493362   3.399369   4.971356
    23  H    2.155401   3.399153   4.972955   1.094985   2.477041
    24  H    3.402903   2.158649   4.315105   2.158376   4.303758
    25  C    3.556034   4.335318   2.907927   4.708057   3.811602
    26  C    3.927568   5.013993   3.984351   5.017527   3.987462
    27  C    4.659087   4.742072   2.845937   5.683310   5.071898
    28  C    5.207449   5.919513   4.780585   6.175876   5.320833
    29  H    3.551248   5.152539   4.523660   4.639048   3.377426
    30  C    5.780191   5.693457   3.885806   6.729403   6.175848
    31  H    4.891051   4.678649   2.566167   5.862876   5.389936
    32  C    6.013011   6.222480   4.743095   6.946010   6.283345
    33  H    5.784726   6.648629   5.735517   6.682164   5.791620
    34  H    6.687626   6.285995   4.361187   7.578891   7.150544
    35  H    7.044103   7.125915   5.679056   7.919422   7.314885
                   21         22         23         24         25
    21  C    0.000000
    22  H    2.158159   0.000000
    23  H    2.157385   4.304732   0.000000
    24  H    1.094633   2.488463   2.486771   0.000000
    25  C    5.026057   5.043474   5.610892   6.082772   0.000000
    26  C    5.481109   5.761072   5.767862   6.476805   1.398794
    27  C    5.719789   5.196906   6.676911   6.730858   1.394448
    28  C    6.489019   6.510218   6.924454   7.416829   2.419985
    29  H    5.338069   6.022183   5.223424   6.303614   2.165318
    30  C    6.693857   6.019532   7.699307   7.641817   2.417290
    31  H    5.778533   5.029824   6.902948   6.773353   2.162124
    32  C    7.038338   6.629040   7.810911   7.955212   2.796859
    33  H    7.072327   7.256709   7.312808   7.939711   3.410699
    34  H    7.406683   6.455061   8.588413   8.313538   3.406731
    35  H    7.956272   7.446415   8.765299   8.822492   3.891425
                   26         27         28         29         30
    26  C    0.000000
    27  C    2.407199   0.000000
    28  C    1.389198   2.779829   0.000000
    29  H    1.096411   3.403526   2.153581   0.000000
    30  C    2.777650   1.391033   2.404860   3.874040   0.000000
    31  H    3.405126   1.097524   3.877312   4.314614   2.156797
    32  C    2.409659   2.411174   1.391181   3.400732   1.389793
    33  H    2.154845   3.874778   1.094952   2.476335   3.398353
    34  H    3.872580   2.155009   3.398860   4.968975   1.094937
    35  H    3.401996   3.403880   2.159021   4.303183   2.158475
                   31         32         33         34         35
    31  H    0.000000
    32  C    3.403089   0.000000
    33  H    4.972264   2.158092   0.000000
    34  H    2.477445   2.157306   4.304461   0.000000
    35  H    4.305967   1.094566   2.487721   2.488146   0.000000
 Stoichiometry    C19H16
 Framework group  C1[X(C19H16)]
 Deg. of freedom    99
 Full point group                 C1      NOp   1
 Largest Abelian subgroup         C1      NOp   1
 Largest concise Abelian subgroup C1      NOp   1
                         Standard orientation:                         
 ---------------------------------------------------------------------
 Center     Atomic      Atomic             Coordinates (Angstroms)
 Number     Number       Type             X           Y           Z
 ---------------------------------------------------------------------
      1          6           0       -0.023764   -0.013160   -0.754863
      2          1           0       -0.000991   -0.007317   -1.878541
      3          6           0       -1.459464   -0.256050   -0.361026
      4          6           0       -1.829452   -0.689574    0.913148
      5          6           0       -2.457099   -0.032230   -1.314866
      6          6           0       -3.167495   -0.899506    1.226925
      7          1           0       -1.050874   -0.872993    1.671104
      8          6           0       -3.794496   -0.239533   -0.998636
      9          1           0       -2.186202    0.310485   -2.320585
     10          6           0       -4.153023   -0.674536    0.272679
     11          1           0       -3.443119   -1.243543    2.229058
     12          1           0       -4.566783   -0.060237   -1.753668
     13          1           0       -5.206366   -0.839642    0.520391
     14          6           0        0.910035   -1.107725   -0.299469
     15          6           0        1.226552   -1.292833    1.047324
     16          6           0        1.490694   -1.945635   -1.254584
     17          6           0        2.114822   -2.289311    1.433007
     18          1           0        0.744765   -0.651167    1.800672
     19          6           0        2.376600   -2.944534   -0.867027
     20          1           0        1.249281   -1.816887   -2.316271
     21          6           0        2.693413   -3.115906    0.476007
     22          1           0        2.357450   -2.422659    2.491990
     23          1           0        2.826761   -3.596384   -1.622962
     24          1           0        3.394437   -3.900105    0.779022
     25          6           0        0.492614    1.333936   -0.309262
     26          6           0        1.440835    1.978961   -1.110164
     27          6           0        0.068178    1.950766    0.867114
     28          6           0        1.952981    3.215440   -0.737744
     29          1           0        1.786876    1.505737   -2.036680
     30          6           0        0.580545    3.190011    1.236876
     31          1           0       -0.681435    1.461151    1.501872
     32          6           0        1.523584    3.824425    0.437050
     33          1           0        2.696033    3.710920   -1.371220
     34          1           0        0.237296    3.665331    2.161614
     35          1           0        1.926519    4.799269    0.729279
 ---------------------------------------------------------------------
 Rotational constants (GHZ):      0.4005712      0.3718316      0.2368855
 Standard basis: 6-311G (5D, 7F)
 There are   295 symmetry adapted basis functions of A   symmetry.
 Integral buffers will be    262144 words long.
 Raffenetti 1 integral format.
 Two-electron integral symmetry is turned on.
   295 basis functions,   574 primitive gaussians,   295 cartesian basis functions
    65 alpha electrons       65 beta electrons
       nuclear repulsion energy      1288.4472895740 Hartrees.
 NAtoms=   35 NActive=   35 NUniq=   35 SFac= 7.50D-01 NAtFMM=   80 NAOKFM=F Big=F
 One-electron integrals computed using PRISM.
 PrsmSu:  requested number of processors reduced to:  10 ShMem   1 Linda.
 NBasis=   295 RedAO= T  NBF=   295
 NBsUse=   295 1.00D-06 NBFU=   295
 Harris functional with IExCor=  205 diagonalized for initial guess.
 ExpMin= 1.03D-01 ExpMax= 4.56D+03 ExpMxC= 6.82D+02 IAcc=1 IRadAn=         1 AccDes= 0.00D+00
 HarFok:  IExCor=  205 AccDes= 0.00D+00 IRadAn=         1 IDoV= 1
 ScaDFX=  1.000000  1.000000  1.000000  1.000000
 FoFCou: FMM=F IPFlag=           0 FMFlag=      100000 FMFlg1=           0
         NFxFlg=           0 DoJE=T BraDBF=F KetDBF=T FulRan=T
         Omega=  0.000000  0.000000  1.000000  0.000000  0.000000 ICntrl=     500 IOpCl=  0
         NMat0=    1 NMatS0=    1 NMatT0=    0 NMatD0=    1 NMtDS0=    0 NMtDT0=    0
         I1Cent=           4 NGrid=           0.
 Petite list used in FoFCou.
 Initial guess orbital symmetries:
       Occupied  (A) (A) (A) (A) (A) (A) (A) (A) (A) (A) (A) (A)
                 (A) (A) (A) (A) (A) (A) (A) (A) (A) (A) (A) (A)
                 (A) (A) (A) (A) (A) (A) (A) (A) (A) (A) (A) (A)
                 (A) (A) (A) (A) (A) (A) (A) (A) (A) (A) (A) (A)
                 (A) (A) (A) (A) (A) (A) (A) (A) (A) (A) (A) (A)
                 (A) (A) (A) (A) (A)
       Virtual   (A) (A) (A) (A) (A) (A) (A) (A) (A) (A) (A) (A)
                 (A) (A) (A) (A) (A) (A) (A) (A) (A) (A) (A) (A)
                 (A) (A) (A) (A) (A) (A) (A) (A) (A) (A) (A) (A)
                 (A) (A) (A) (A) (A) (A) (A) (A) (A) (A) (A) (A)
                 (A) (A) (A) (A) (A) (A) (A) (A) (A) (A) (A) (A)
                 (A) (A) (A) (A) (A) (A) (A) (A) (A) (A) (A) (A)
                 (A) (A) (A) (A) (A) (A) (A) (A) (A) (A) (A) (A)
                 (A) (A) (A) (A) (A) (A) (A) (A) (A) (A) (A) (A)
                 (A) (A) (A) (A) (A) (A) (A) (A) (A) (A) (A) (A)
                 (A) (A) (A) (A) (A) (A) (A) (A) (A) (A) (A) (A)
                 (A) (A) (A) (A) (A) (A) (A) (A) (A) (A) (A) (A)
                 (A) (A) (A) (A) (A) (A) (A) (A) (A) (A) (A) (A)
                 (A) (A) (A) (A) (A) (A) (A) (A) (A) (A) (A) (A)
                 (A) (A) (A) (A) (A) (A) (A) (A) (A) (A) (A) (A)
                 (A) (A) (A) (A) (A) (A) (A) (A) (A) (A) (A) (A)
                 (A) (A) (A) (A) (A) (A) (A) (A) (A) (A) (A) (A)
                 (A) (A) (A) (A) (A) (A) (A) (A) (A) (A) (A) (A)
                 (A) (A) (A) (A) (A) (A) (A) (A) (A) (A) (A) (A)
                 (A) (A) (A) (A) (A) (A) (A) (A) (A) (A) (A) (A)
                 (A) (A)
 The electronic state of the initial guess is 1-A.
 Requested convergence on RMS density matrix=1.00D-08 within 128 cycles.
 Requested convergence on MAX density matrix=1.00D-06.
 Requested convergence on             energy=1.00D-06.
 No special actions if energy rises.
 Integral accuracy reduced to 1.0D-05 until final iterations.
 Initial convergence to 1.0D-05 achieved.  Increase integral accuracy.
 SCF Done:  E(RHF) =  -728.671724673     A.U. after   14 cycles
             Convg  =    0.6161D-08             -V/T =  2.0001

 **********************************************************************

            Population analysis using the SCF density.

 **********************************************************************

 Orbital symmetries:
       Occupied  (A) (A) (A) (A) (A) (A) (A) (A) (A) (A) (A) (A)
                 (A) (A) (A) (A) (A) (A) (A) (A) (A) (A) (A) (A)
                 (A) (A) (A) (A) (A) (A) (A) (A) (A) (A) (A) (A)
                 (A) (A) (A) (A) (A) (A) (A) (A) (A) (A) (A) (A)
                 (A) (A) (A) (A) (A) (A) (A) (A) (A) (A) (A) (A)
                 (A) (A) (A) (A) (A)
       Virtual   (A) (A) (A) (A) (A) (A) (A) (A) (A) (A) (A) (A)
                 (A) (A) (A) (A) (A) (A) (A) (A) (A) (A) (A) (A)
                 (A) (A) (A) (A) (A) (A) (A) (A) (A) (A) (A) (A)
                 (A) (A) (A) (A) (A) (A) (A) (A) (A) (A) (A) (A)
                 (A) (A) (A) (A) (A) (A) (A) (A) (A) (A) (A) (A)
                 (A) (A) (A) (A) (A) (A) (A) (A) (A) (A) (A) (A)
                 (A) (A) (A) (A) (A) (A) (A) (A) (A) (A) (A) (A)
                 (A) (A) (A) (A) (A) (A) (A) (A) (A) (A) (A) (A)
                 (A) (A) (A) (A) (A) (A) (A) (A) (A) (A) (A) (A)
                 (A) (A) (A) (A) (A) (A) (A) (A) (A) (A) (A) (A)
                 (A) (A) (A) (A) (A) (A) (A) (A) (A) (A) (A) (A)
                 (A) (A) (A) (A) (A) (A) (A) (A) (A) (A) (A) (A)
                 (A) (A) (A) (A) (A) (A) (A) (A) (A) (A) (A) (A)
                 (A) (A) (A) (A) (A) (A) (A) (A) (A) (A) (A) (A)
                 (A) (A) (A) (A) (A) (A) (A) (A) (A) (A) (A) (A)
                 (A) (A) (A) (A) (A) (A) (A) (A) (A) (A) (A) (A)
                 (A) (A) (A) (A) (A) (A) (A) (A) (A) (A) (A) (A)
                 (A) (A) (A) (A) (A) (A) (A) (A) (A) (A) (A) (A)
                 (A) (A) (A) (A) (A) (A) (A) (A) (A) (A) (A) (A)
                 (A) (A)
 The electronic state is 1-A.
 Alpha  occ. eigenvalues --  -11.25829 -11.25273 -11.25259 -11.25129 -11.24442
 Alpha  occ. eigenvalues --  -11.24434 -11.24358 -11.24348 -11.24210 -11.24190
 Alpha  occ. eigenvalues --  -11.24123 -11.24120 -11.24108 -11.24056 -11.24028
 Alpha  occ. eigenvalues --  -11.24016 -11.23914 -11.23833 -11.23732  -1.18593
 Alpha  occ. eigenvalues --   -1.15828  -1.15677  -1.09038  -1.02411  -1.02116
 Alpha  occ. eigenvalues --   -1.01888  -1.01495  -1.01387  -0.92962  -0.84534
 Alpha  occ. eigenvalues --   -0.82946  -0.82541  -0.81707  -0.81559  -0.77731
 Alpha  occ. eigenvalues --   -0.70732  -0.70449  -0.69105  -0.65995  -0.63622
 Alpha  occ. eigenvalues --   -0.63504  -0.62369  -0.62027  -0.61898  -0.59569
 Alpha  occ. eigenvalues --   -0.58775  -0.58515  -0.58429  -0.57611  -0.53929
 Alpha  occ. eigenvalues --   -0.51740  -0.51082  -0.50843  -0.49674  -0.49171
 Alpha  occ. eigenvalues --   -0.48680  -0.47788  -0.47476  -0.46757  -0.34697
 Alpha  occ. eigenvalues --   -0.34244  -0.33701  -0.33583  -0.33276  -0.31179
 Alpha virt. eigenvalues --    0.11649   0.12017   0.13575   0.13749   0.14063
 Alpha virt. eigenvalues --    0.14930   0.15134   0.16273   0.16376   0.16885
 Alpha virt. eigenvalues --    0.18811   0.19131   0.19284   0.21283   0.21420
 Alpha virt. eigenvalues --    0.21510   0.23634   0.24250   0.24980   0.27123
 Alpha virt. eigenvalues --    0.28517   0.29483   0.34028   0.34193   0.35867
 Alpha virt. eigenvalues --    0.37478   0.38507   0.39685   0.40969   0.43678
 Alpha virt. eigenvalues --    0.44098   0.44376   0.45021   0.45393   0.45579
 Alpha virt. eigenvalues --    0.45866   0.46408   0.48404   0.49874   0.50375
 Alpha virt. eigenvalues --    0.50808   0.51026   0.51444   0.54965   0.55781
 Alpha virt. eigenvalues --    0.56806   0.57909   0.58954   0.59043   0.59614
 Alpha virt. eigenvalues --    0.59691   0.60668   0.61080   0.61500   0.61701
 Alpha virt. eigenvalues --    0.61850   0.62382   0.62464   0.63293   0.63468
 Alpha virt. eigenvalues --    0.64148   0.64999   0.65168   0.65415   0.66905
 Alpha virt. eigenvalues --    0.67407   0.68235   0.68439   0.70113   0.71427
 Alpha virt. eigenvalues --    0.72351   0.73793   0.74463   0.75062   0.76228
 Alpha virt. eigenvalues --    0.77301   0.78321   0.78581   0.80472   0.81175
 Alpha virt. eigenvalues --    0.81854   0.82199   0.82341   0.82826   0.82921
 Alpha virt. eigenvalues --    0.83508   0.83937   0.84057   0.84787   0.85603
 Alpha virt. eigenvalues --    0.86033   0.86382   0.86894   0.87451   0.88071
 Alpha virt. eigenvalues --    0.89705   0.90539   0.91278   0.92977   0.94384
 Alpha virt. eigenvalues --    0.96099   0.96849   0.97690   0.98170   0.98962
 Alpha virt. eigenvalues --    0.99330   1.00321   1.02800   1.05744   1.06217
 Alpha virt. eigenvalues --    1.06791   1.07143   1.08028   1.08361   1.10536
 Alpha virt. eigenvalues --    1.11109   1.12216   1.12490   1.13016   1.14255
 Alpha virt. eigenvalues --    1.14633   1.15401   1.18587   1.19457   1.21714
 Alpha virt. eigenvalues --    1.25319   1.26766   1.27716   1.28190   1.28804
 Alpha virt. eigenvalues --    1.30330   1.35104   1.39443   1.45251   1.46643
 Alpha virt. eigenvalues --    1.51699   1.52282   1.56532   2.54616   2.55622
 Alpha virt. eigenvalues --    2.56180   2.59169   2.61971   2.62493   2.64454
 Alpha virt. eigenvalues --    2.66979   2.67740   2.68471   2.72301   2.76750
 Alpha virt. eigenvalues --    2.77750   2.83505   2.87941   2.88583   2.94135
 Alpha virt. eigenvalues --    2.94281   2.94429   2.97084   2.97457   2.98030
 Alpha virt. eigenvalues --    3.00387   3.00792   3.04041   3.05744   3.07162
 Alpha virt. eigenvalues --    3.08137   3.08425   3.08949   3.09980   3.14328
 Alpha virt. eigenvalues --    3.14801   3.16345   3.16834   3.17563   3.18860
 Alpha virt. eigenvalues --    3.22644   3.25644   3.25820   3.28296   3.28862
 Alpha virt. eigenvalues --    3.30927   3.33379   3.34272   3.35168   3.42628
 Alpha virt. eigenvalues --    3.43063   3.44410   3.46905   3.49505   3.52268
 Alpha virt. eigenvalues --    3.53412   3.54473   3.59190   3.60641   3.60679
 Alpha virt. eigenvalues --    3.63106   3.63544   3.63786   3.65959   3.66667
 Alpha virt. eigenvalues --    3.68345   3.70263   3.70481   3.71421   3.73466
 Alpha virt. eigenvalues --    3.74195   3.75542   3.80866   3.85848   3.86667
 Alpha virt. eigenvalues --    3.92990  24.24856  24.30698  24.31563  24.50534
 Alpha virt. eigenvalues --   24.50837  24.51124  24.54007  24.54663  24.56123
 Alpha virt. eigenvalues --   24.77296  24.78590  24.79155  24.79616  24.80636
 Alpha virt. eigenvalues --   24.81834  24.83268  25.05553  25.05815  25.06120
          Condensed to atoms (all electrons):
              1          2          3          4          5          6
     1  C    5.831564   0.464091   0.170277  -0.045991  -0.045215   0.003560
     2  H    0.464091   0.512452  -0.073912   0.005105   0.002862  -0.000275
     3  C    0.170277  -0.073912   5.366607   0.450137   0.495350  -0.064545
     4  C   -0.045991   0.005105   0.450137   5.122261  -0.061437   0.473346
     5  C   -0.045215   0.002862   0.495350  -0.061437   5.040665  -0.036118
     6  C    0.003560  -0.000275  -0.064545   0.473346  -0.036118   5.056539
     7  H   -0.000287  -0.000140  -0.053047   0.386658   0.004511  -0.025350
     8  C    0.008267   0.001514  -0.071610  -0.031245   0.471784  -0.075104
     9  H   -0.000732   0.002688  -0.045659   0.004759   0.394465  -0.000403
    10  C    0.001144  -0.000016  -0.017708  -0.094833  -0.086766   0.495759
    11  H   -0.000295   0.000014   0.006029  -0.036767  -0.000391   0.395579
    12  H   -0.000389  -0.000029   0.007146  -0.000598  -0.039664   0.006228
    13  H   -0.000019  -0.000001  -0.001594   0.008118   0.007486  -0.042537
    14  C    0.185063  -0.074351  -0.112181  -0.004658   0.001925   0.001543
    15  C   -0.054411   0.005562  -0.006307  -0.017199   0.000225  -0.000015
    16  C   -0.026157   0.002022  -0.000323   0.001486   0.000198   0.000042
    17  C    0.001398  -0.000282   0.001776  -0.001729   0.000028  -0.000089
    18  H    0.003084   0.000067  -0.003181   0.000295  -0.000195   0.000859
    19  C    0.007665   0.001757  -0.000599   0.000125  -0.000009   0.000000
    20  H   -0.000479   0.002404   0.000560   0.000003   0.000136   0.000003
    21  C    0.001273  -0.000013  -0.000035   0.000044  -0.000001   0.000003
    22  H   -0.000319   0.000012   0.000009   0.000016   0.000000   0.000001
    23  H   -0.000367  -0.000037   0.000020  -0.000001   0.000000   0.000000
    24  H   -0.000013  -0.000001  -0.000001   0.000001   0.000000   0.000000
    25  C    0.156980  -0.059802  -0.103335  -0.005667  -0.001509   0.000886
    26  C   -0.050611  -0.003352   0.006497  -0.000172   0.000435   0.000023
    27  C   -0.039794   0.004901  -0.014492  -0.007447   0.001907  -0.001488
    28  C    0.006241   0.001540  -0.000761   0.000024  -0.000016   0.000000
    29  H    0.001802   0.001038   0.000698  -0.000038   0.000013   0.000000
    30  C    0.004902  -0.000248   0.000502   0.000013  -0.000091  -0.000031
    31  H   -0.001744  -0.000070  -0.003202   0.000986  -0.000905   0.000971
    32  C    0.000986   0.000009   0.000046  -0.000019  -0.000013   0.000000
    33  H   -0.000351  -0.000026   0.000011   0.000000   0.000001   0.000000
    34  H   -0.000326   0.000013   0.000037   0.000029   0.000007  -0.000001
    35  H   -0.000012  -0.000002  -0.000001   0.000001   0.000000   0.000000
              7          8          9         10         11         12
     1  C   -0.000287   0.008267  -0.000732   0.001144  -0.000295  -0.000389
     2  H   -0.000140   0.001514   0.002688  -0.000016   0.000014  -0.000029
     3  C   -0.053047  -0.071610  -0.045659  -0.017708   0.006029   0.007146
     4  C    0.386658  -0.031245   0.004759  -0.094833  -0.036767  -0.000598
     5  C    0.004511   0.471784   0.394465  -0.086766  -0.000391  -0.039664
     6  C   -0.025350  -0.075104  -0.000403   0.495759   0.395579   0.006228
     7  H    0.498355  -0.000213  -0.000243   0.004796  -0.003440   0.000020
     8  C   -0.000213   5.044535  -0.034684   0.494631   0.005897   0.396655
     9  H   -0.000243  -0.034684   0.507642   0.005351   0.000022  -0.004215
    10  C    0.004796   0.494631   0.005351   5.030385  -0.039658  -0.041064
    11  H   -0.003440   0.005897   0.000022  -0.039658   0.515469  -0.000212
    12  H    0.000020   0.396655  -0.004215  -0.041064  -0.000212   0.517930
    13  H   -0.000183  -0.042949  -0.000183   0.399171  -0.004352  -0.004548
    14  C   -0.003019  -0.000680   0.000357   0.000021   0.000011   0.000014
    15  C    0.002881   0.000029  -0.000025  -0.000005   0.000031   0.000000
    16  C   -0.000256  -0.000004  -0.000021  -0.000011   0.000002   0.000001
    17  C    0.001158  -0.000001   0.000002   0.000001   0.000000   0.000000
    18  H    0.003452   0.000016  -0.000007  -0.000011  -0.000053   0.000000
    19  C   -0.000139   0.000001   0.000001   0.000000   0.000000   0.000000
    20  H   -0.000004   0.000003  -0.000025  -0.000001   0.000000   0.000000
    21  C    0.000079   0.000000   0.000000   0.000000  -0.000001   0.000000
    22  H   -0.000105   0.000000   0.000000   0.000000   0.000001   0.000000
    23  H    0.000000   0.000000   0.000000   0.000000   0.000000   0.000000
    24  H    0.000000   0.000000   0.000000   0.000000   0.000000   0.000000
    25  C   -0.000488  -0.000715   0.000478   0.000022  -0.000007   0.000022
    26  C   -0.000027   0.000003   0.000112  -0.000001  -0.000001   0.000000
    27  C    0.000356   0.000229   0.000189   0.000080   0.000014  -0.000001
    28  C    0.000006   0.000001  -0.000008   0.000000   0.000000   0.000000
    29  H    0.000007   0.000001   0.000003   0.000000   0.000000   0.000000
    30  C    0.000050  -0.000004   0.000009   0.000004   0.000001   0.000000
    31  H    0.000131  -0.000135  -0.000036   0.000047  -0.000002   0.000001
    32  C    0.000001   0.000000  -0.000004   0.000000   0.000000   0.000000
    33  H    0.000000   0.000000   0.000000   0.000000   0.000000   0.000000
    34  H   -0.000017   0.000001   0.000000  -0.000001   0.000000   0.000000
    35  H    0.000000   0.000000   0.000000   0.000000   0.000000   0.000000
             13         14         15         16         17         18
     1  C   -0.000019   0.185063  -0.054411  -0.026157   0.001398   0.003084
     2  H   -0.000001  -0.074351   0.005562   0.002022  -0.000282   0.000067
     3  C   -0.001594  -0.112181  -0.006307  -0.000323   0.001776  -0.003181
     4  C    0.008118  -0.004658  -0.017199   0.001486  -0.001729   0.000295
     5  C    0.007486   0.001925   0.000225   0.000198   0.000028  -0.000195
     6  C   -0.042537   0.001543  -0.000015   0.000042  -0.000089   0.000859
     7  H   -0.000183  -0.003019   0.002881  -0.000256   0.001158   0.003452
     8  C   -0.042949  -0.000680   0.000029  -0.000004  -0.000001   0.000016
     9  H   -0.000183   0.000357  -0.000025  -0.000021   0.000002  -0.000007
    10  C    0.399171   0.000021  -0.000005  -0.000011   0.000001  -0.000011
    11  H   -0.004352   0.000011   0.000031   0.000002   0.000000  -0.000053
    12  H   -0.004548   0.000014   0.000000   0.000001   0.000000   0.000000
    13  H    0.517617  -0.000002   0.000001   0.000000   0.000000   0.000000
    14  C   -0.000002   5.374430   0.439091   0.503567  -0.061727  -0.048370
    15  C    0.000001   0.439091   5.095308  -0.065522   0.479345   0.388577
    16  C    0.000000   0.503567  -0.065522   5.070484  -0.033385   0.004047
    17  C    0.000000  -0.061727   0.479345  -0.033385   5.035593  -0.027242
    18  H    0.000000  -0.048370   0.388577   0.004047  -0.027242   0.495057
    19  C    0.000000  -0.072682  -0.029619   0.459540  -0.076825  -0.000169
    20  H    0.000000  -0.046698   0.004626   0.395826  -0.000240  -0.000260
    21  C    0.000000  -0.017875  -0.092061  -0.086358   0.494345   0.004557
    22  H    0.000000   0.006075  -0.039077  -0.000450   0.396713  -0.003433
    23  H    0.000000   0.007056  -0.000618  -0.039710   0.006221   0.000021
    24  H    0.000000  -0.001593   0.008015   0.007539  -0.042920  -0.000169
    25  C    0.000001  -0.154162  -0.007824  -0.005695   0.000720  -0.001853
    26  C    0.000000   0.000717   0.000767   0.002056  -0.000070  -0.000271
    27  C   -0.000001  -0.014043  -0.000013  -0.000324  -0.000029   0.004674
    28  C    0.000000  -0.000427   0.000195  -0.000036   0.000002  -0.000100
    29  H    0.000000   0.000572  -0.000050   0.001456  -0.000018  -0.000038
    30  C    0.000000   0.000614  -0.000652   0.000027  -0.000016   0.000442
    31  H    0.000001  -0.000995   0.000487  -0.000080   0.000059   0.000983
    32  C    0.000000   0.000076   0.000030  -0.000003   0.000003  -0.000012
    33  H    0.000000   0.000012   0.000004  -0.000001   0.000000   0.000001
    34  H    0.000000   0.000005   0.000014   0.000000   0.000000   0.000000
    35  H    0.000000  -0.000001  -0.000001   0.000000   0.000000  -0.000001
             19         20         21         22         23         24
     1  C    0.007665  -0.000479   0.001273  -0.000319  -0.000367  -0.000013
     2  H    0.001757   0.002404  -0.000013   0.000012  -0.000037  -0.000001
     3  C   -0.000599   0.000560  -0.000035   0.000009   0.000020  -0.000001
     4  C    0.000125   0.000003   0.000044   0.000016  -0.000001   0.000001
     5  C   -0.000009   0.000136  -0.000001   0.000000   0.000000   0.000000
     6  C    0.000000   0.000003   0.000003   0.000001   0.000000   0.000000
     7  H   -0.000139  -0.000004   0.000079  -0.000105   0.000000   0.000000
     8  C    0.000001   0.000003   0.000000   0.000000   0.000000   0.000000
     9  H    0.000001  -0.000025   0.000000   0.000000   0.000000   0.000000
    10  C    0.000000  -0.000001   0.000000   0.000000   0.000000   0.000000
    11  H    0.000000   0.000000  -0.000001   0.000001   0.000000   0.000000
    12  H    0.000000   0.000000   0.000000   0.000000   0.000000   0.000000
    13  H    0.000000   0.000000   0.000000   0.000000   0.000000   0.000000
    14  C   -0.072682  -0.046698  -0.017875   0.006075   0.007056  -0.001593
    15  C   -0.029619   0.004626  -0.092061  -0.039077  -0.000618   0.008015
    16  C    0.459540   0.395826  -0.086358  -0.000450  -0.039710   0.007539
    17  C   -0.076825  -0.000240   0.494345   0.396713   0.006221  -0.042920
    18  H   -0.000169  -0.000260   0.004557  -0.003433   0.000021  -0.000169
    19  C    5.055187  -0.035070   0.496963   0.006002   0.396779  -0.042758
    20  H   -0.035070   0.510853   0.005169   0.000024  -0.004177  -0.000186
    21  C    0.496963   0.005169   5.031073  -0.039567  -0.040763   0.399630
    22  H    0.006002   0.000024  -0.039567   0.515376  -0.000211  -0.004458
    23  H    0.396779  -0.004177  -0.040763  -0.000211   0.518274  -0.004583
    24  H   -0.042758  -0.000186   0.399630  -0.004458  -0.004583   0.517504
    25  C   -0.000460   0.000152   0.000097   0.000018   0.000011  -0.000002
    26  C   -0.000101   0.000254  -0.000013   0.000006   0.000003   0.000000
    27  C    0.000048  -0.000048  -0.000004  -0.000002   0.000000   0.000000
    28  C    0.000007  -0.000006   0.000000   0.000001   0.000000   0.000000
    29  H    0.000031   0.000257  -0.000012   0.000000  -0.000003   0.000000
    30  C   -0.000001   0.000000   0.000000  -0.000001   0.000000   0.000000
    31  H    0.000002   0.000000   0.000002  -0.000008   0.000000   0.000000
    32  C    0.000000   0.000000   0.000000   0.000000   0.000000   0.000000
    33  H    0.000000  -0.000001   0.000000   0.000000   0.000000   0.000000
    34  H    0.000000   0.000000   0.000000   0.000000   0.000000   0.000000
    35  H    0.000000   0.000000   0.000000   0.000000   0.000000   0.000000
             25         26         27         28         29         30
     1  C    0.156980  -0.050611  -0.039794   0.006241   0.001802   0.004902
     2  H   -0.059802  -0.003352   0.004901   0.001540   0.001038  -0.000248
     3  C   -0.103335   0.006497  -0.014492  -0.000761   0.000698   0.000502
     4  C   -0.005667  -0.000172  -0.007447   0.000024  -0.000038   0.000013
     5  C   -0.001509   0.000435   0.001907  -0.000016   0.000013  -0.000091
     6  C    0.000886   0.000023  -0.001488   0.000000   0.000000  -0.000031
     7  H   -0.000488  -0.000027   0.000356   0.000006   0.000007   0.000050
     8  C   -0.000715   0.000003   0.000229   0.000001   0.000001  -0.000004
     9  H    0.000478   0.000112   0.000189  -0.000008   0.000003   0.000009
    10  C    0.000022  -0.000001   0.000080   0.000000   0.000000   0.000004
    11  H   -0.000007  -0.000001   0.000014   0.000000   0.000000   0.000001
    12  H    0.000022   0.000000  -0.000001   0.000000   0.000000   0.000000
    13  H    0.000001   0.000000  -0.000001   0.000000   0.000000   0.000000
    14  C   -0.154162   0.000717  -0.014043  -0.000427   0.000572   0.000614
    15  C   -0.007824   0.000767  -0.000013   0.000195  -0.000050  -0.000652
    16  C   -0.005695   0.002056  -0.000324  -0.000036   0.001456   0.000027
    17  C    0.000720  -0.000070  -0.000029   0.000002  -0.000018  -0.000016
    18  H   -0.001853  -0.000271   0.004674  -0.000100  -0.000038   0.000442
    19  C   -0.000460  -0.000101   0.000048   0.000007   0.000031  -0.000001
    20  H    0.000152   0.000254  -0.000048  -0.000006   0.000257   0.000000
    21  C    0.000097  -0.000013  -0.000004   0.000000  -0.000012   0.000000
    22  H    0.000018   0.000006  -0.000002   0.000001   0.000000  -0.000001
    23  H    0.000011   0.000003   0.000000   0.000000  -0.000003   0.000000
    24  H   -0.000002   0.000000   0.000000   0.000000   0.000000   0.000000
    25  C    5.366096   0.472774   0.486507  -0.065142  -0.050660  -0.064696
    26  C    0.472774   5.071895  -0.072085   0.466359   0.399598  -0.031559
    27  C    0.486507  -0.072085   5.087997  -0.027882   0.004137   0.471256
    28  C   -0.065142   0.466359  -0.027882   5.050308  -0.035587  -0.076866
    29  H   -0.050660   0.399598   0.004137  -0.035587   0.509834  -0.000337
    30  C   -0.064696  -0.031559   0.471256  -0.076866  -0.000337   5.050818
    31  H   -0.042518   0.004188   0.390230  -0.000182  -0.000248  -0.029992
    32  C   -0.018510  -0.086113  -0.093474   0.488703   0.005344   0.499351
    33  H    0.006695  -0.039628  -0.000522   0.397080  -0.004286   0.006120
    34  H    0.006185  -0.000423  -0.037567   0.005995   0.000024   0.395882
    35  H   -0.001479   0.007373   0.007821  -0.042962  -0.000185  -0.042198
             31         32         33         34         35
     1  C   -0.001744   0.000986  -0.000351  -0.000326  -0.000012
     2  H   -0.000070   0.000009  -0.000026   0.000013  -0.000002
     3  C   -0.003202   0.000046   0.000011   0.000037  -0.000001
     4  C    0.000986  -0.000019   0.000000   0.000029   0.000001
     5  C   -0.000905  -0.000013   0.000001   0.000007   0.000000
     6  C    0.000971   0.000000   0.000000  -0.000001   0.000000
     7  H    0.000131   0.000001   0.000000  -0.000017   0.000000
     8  C   -0.000135   0.000000   0.000000   0.000001   0.000000
     9  H   -0.000036  -0.000004   0.000000   0.000000   0.000000
    10  C    0.000047   0.000000   0.000000  -0.000001   0.000000
    11  H   -0.000002   0.000000   0.000000   0.000000   0.000000
    12  H    0.000001   0.000000   0.000000   0.000000   0.000000
    13  H    0.000001   0.000000   0.000000   0.000000   0.000000
    14  C   -0.000995   0.000076   0.000012   0.000005  -0.000001
    15  C    0.000487   0.000030   0.000004   0.000014  -0.000001
    16  C   -0.000080  -0.000003  -0.000001   0.000000   0.000000
    17  C    0.000059   0.000003   0.000000   0.000000   0.000000
    18  H    0.000983  -0.000012   0.000001   0.000000  -0.000001
    19  C    0.000002   0.000000   0.000000   0.000000   0.000000
    20  H    0.000000   0.000000  -0.000001   0.000000   0.000000
    21  C    0.000002   0.000000   0.000000   0.000000   0.000000
    22  H   -0.000008   0.000000   0.000000   0.000000   0.000000
    23  H    0.000000   0.000000   0.000000   0.000000   0.000000
    24  H    0.000000   0.000000   0.000000   0.000000   0.000000
    25  C   -0.042518  -0.018510   0.006695   0.006185  -0.001479
    26  C    0.004188  -0.086113  -0.039628  -0.000423   0.007373
    27  C    0.390230  -0.093474  -0.000522  -0.037567   0.007821
    28  C   -0.000182   0.488703   0.397080   0.005995  -0.042962
    29  H   -0.000248   0.005344  -0.004286   0.000024  -0.000185
    30  C   -0.029992   0.499351   0.006120   0.395882  -0.042198
    31  H    0.481186   0.004707   0.000020  -0.003329  -0.000182
    32  C    0.004707   5.033510  -0.040721  -0.040260   0.399196
    33  H    0.000020  -0.040721   0.518560  -0.000213  -0.004485
    34  H   -0.003329  -0.040260  -0.000213   0.516830  -0.004440
    35  H   -0.000182   0.399196  -0.004485  -0.004440   0.518536
 Mulliken atomic charges:
              1
     1  C   -0.580786
     2  H    0.204505
     3  C    0.066790
     4  C   -0.145607
     5  C   -0.149666
     6  C   -0.189386
     7  H    0.184500
     8  C   -0.166223
     9  H    0.170166
    10  C   -0.151340
    11  H    0.162107
    12  H    0.162704
    13  H    0.163975
    14  C    0.092313
    15  C   -0.111790
    16  C   -0.189956
    17  C   -0.172792
    18  H    0.179232
    19  C   -0.165676
    20  H    0.166926
    21  C   -0.156531
    22  H    0.163379
    23  H    0.162084
    24  H    0.163997
    25  C    0.086878
    26  C   -0.148634
    27  C   -0.151131
    28  C   -0.166489
    29  H    0.166650
    30  C   -0.183302
    31  H    0.199628
    32  C   -0.152831
    33  H    0.161731
    34  H    0.161555
    35  H    0.163021
 Sum of Mulliken atomic charges =   0.00000
 Mulliken charges with hydrogens summed into heavy atoms:
              1
     1  C   -0.376281
     3  C    0.066790
     4  C    0.038892
     5  C    0.020500
     6  C   -0.027279
     8  C   -0.003520
    10  C    0.012636
    14  C    0.092313
    15  C    0.067443
    16  C   -0.023031
    17  C   -0.009414
    19  C   -0.003592
    21  C    0.007466
    25  C    0.086878
    26  C    0.018016
    27  C    0.048497
    28  C   -0.004758
    30  C   -0.021747
    32  C    0.010189
 Sum of Mulliken charges with hydrogens summed into heavy atoms =   0.00000
 Electronic spatial extent (au):  <R**2>=           4939.0513
 Charge=              0.0000 electrons
 Dipole moment (field-independent basis, Debye):
    X=              0.0124    Y=             -0.0675    Z=             -0.0416  Tot=              0.0803
 Quadrupole moment (field-independent basis, Debye-Ang):
   XX=           -110.5473   YY=           -114.0905   ZZ=           -102.8940
   XY=             -0.8169   XZ=             -2.2876   YZ=             -0.1040
 Traceless Quadrupole moment (field-independent basis, Debye-Ang):
   XX=             -1.3700   YY=             -4.9132   ZZ=              6.2833
   XY=             -0.8169   XZ=             -2.2876   YZ=             -0.1040
 Octapole moment (field-independent basis, Debye-Ang**2):
  XXX=            -39.8815  YYY=             17.7986  ZZZ=             -0.1836  XYY=             44.7262
  XXY=            -13.7112  XXZ=             -6.5057  XZZ=             -0.8162  YZZ=             -4.9553
  YYZ=             10.4653  XYZ=             -0.1131
 Hexadecapole moment (field-independent basis, Debye-Ang**3):
 XXXX=          -3094.2110 YYYY=          -2905.4175 ZZZZ=           -785.8254 XXXY=              6.9036
 XXXZ=             -1.6883 YYYX=             -3.5305 YYYZ=             59.5676 ZZZX=             -6.1517
 ZZZY=             -3.9612 XXYY=           -972.8465 XXZZ=           -631.6030 YYZZ=           -601.0076
 XXYZ=            -50.0258 YYXZ=            -21.7817 ZZXY=            -15.8830
 N-N= 1.288447289574D+03 E-N=-4.272904924252D+03  KE= 7.285915746026D+02
 PrsmSu:  requested number of processors reduced to:  10 ShMem   1 Linda.
 Calling FoFJK, ICntrl=      2127 FMM=F ISym2X=0 I1Cent= 0 IOpClX= 0 NMat=1 NMatS=1 NMatT=0.
 ***** Axes restored to original set *****
 -------------------------------------------------------------------
 Center     Atomic                   Forces (Hartrees/Bohr)
 Number     Number              X              Y              Z
 -------------------------------------------------------------------
      1        6           0.000878089    0.023240473    0.005804742
      2        1          -0.000462194   -0.027007202   -0.004840447
      3        6           0.012682522    0.004085001    0.001662617
      4        6          -0.007188226   -0.011015828    0.002929665
      5        6          -0.000833068    0.006156497   -0.000861678
      6        6           0.002915181   -0.011732972    0.000437755
      7        1           0.025156187    0.017184839   -0.001940070
      8        6           0.009592275    0.008615656   -0.001882823
      9        1           0.004109762   -0.017179358    0.001583300
     10        6           0.013175138   -0.002589859   -0.000594361
     11        1          -0.004522236    0.016003993   -0.001362574
     12        1          -0.011442296   -0.011946247    0.002115979
     13        1          -0.016254032    0.004110252    0.000745934
     14        6          -0.006456509    0.002983327    0.012270211
     15        6           0.002418771   -0.007829329   -0.008377137
     16        6           0.001286130    0.005928687    0.000475043
     17        6          -0.001123979   -0.012119635   -0.002264898
     18        1          -0.017364087    0.010736304    0.017876256
     19        6          -0.004974838    0.005626915    0.011133895
     20        1          -0.003628164   -0.017240280   -0.001450425
     21        6          -0.007338868   -0.004075808    0.010778645
     22        1           0.003684583    0.016147554    0.000909761
     23        1           0.005055355   -0.009306615   -0.012969545
     24        1           0.009022477    0.007125715   -0.012281178
     25        6          -0.005520748    0.004606280   -0.012804989
     26        6          -0.002755524    0.005070274    0.002869741
     27        6           0.008154860   -0.007488293    0.001410148
     28        6          -0.009464632    0.008365054   -0.002147616
     29        1           0.004623943   -0.012936793   -0.010785759
     30        6           0.001308535   -0.009069394   -0.007928664
     31        1          -0.015127427    0.014254557   -0.007265478
     32        6          -0.006317993   -0.001672134   -0.011848334
     33        1           0.012201896   -0.010848135    0.003615938
     34        1          -0.003899104    0.012370853    0.010606616
     35        1           0.008408223    0.001445652    0.014379732
 -------------------------------------------------------------------
 Cartesian Forces:  Max     0.027007202 RMS     0.009561406

 GradGradGradGradGradGradGradGradGradGradGradGradGradGradGradGradGradGrad
 Berny optimization.
 Internal  Forces:  Max     0.029859003 RMS     0.007843336
 Search for a local minimum.
 Step number   1 out of a maximum of  197
 All quantities printed in internal units (Hartrees-Bohrs-Radians)
 Mixed Optimization -- RFO/linear search
 Second derivative matrix not updated -- first step.
     Eigenvalues ---    0.00635   0.00645   0.00655   0.01530   0.01533
     Eigenvalues ---    0.01536   0.02137   0.02139   0.02146   0.02167
     Eigenvalues ---    0.02170   0.02172   0.02181   0.02185   0.02187
     Eigenvalues ---    0.02201   0.02202   0.02203   0.02212   0.02214
     Eigenvalues ---    0.02215   0.02216   0.02216   0.02216   0.02217
     Eigenvalues ---    0.02217   0.02218   0.02219   0.02221   0.02221
     Eigenvalues ---    0.04522   0.06370   0.06677   0.15996   0.15999
     Eigenvalues ---    0.16000   0.16000   0.16000   0.16000   0.16000
     Eigenvalues ---    0.16000   0.16000   0.16000   0.16000   0.16000
     Eigenvalues ---    0.16000   0.16000   0.16000   0.18932   0.19365
     Eigenvalues ---    0.22000   0.22000   0.22000   0.22000   0.22000
     Eigenvalues ---    0.22000   0.23476   0.23476   0.23477   0.24996
     Eigenvalues ---    0.24999   0.25000   0.31169   0.31358   0.31439
     Eigenvalues ---    0.31510   0.33466   0.33612   0.33957   0.34072
     Eigenvalues ---    0.34082   0.34086   0.34243   0.34247   0.34248
     Eigenvalues ---    0.34261   0.34263   0.34283   0.34286   0.34289
     Eigenvalues ---    0.34290   0.42402   0.42424   0.42489   0.42569
     Eigenvalues ---    0.42590   0.42617   0.46337   0.46342   0.46436
     Eigenvalues ---    0.46766   0.46778   0.46830   0.47209   0.47236
     Eigenvalues ---    0.47257   0.47316   0.47349   0.473621000.00000
     Eigenvalues --- 1000.000001000.000001000.000001000.000001000.00000
     Eigenvalues --- 1000.000001000.000001000.000001000.000001000.00000
     Eigenvalues --- 1000.000001000.000001000.000001000.000001000.00000
     Eigenvalues --- 1000.000001000.000001000.000001000.000001000.00000
     Eigenvalues --- 1000.000001000.000001000.000001000.000001000.00000
     Eigenvalues --- 1000.000001000.000001000.000001000.000001000.00000
     Eigenvalues --- 1000.000001000.000001000.000001000.000001000.00000
     Eigenvalues --- 1000.000001000.000001000.000001000.000001000.00000
     Eigenvalues --- 1000.000001000.000001000.000001000.000001000.00000
     Eigenvalues --- 1000.000001000.000001000.000001000.000001000.00000
     Eigenvalues --- 1000.000001000.000001000.000001000.000001000.00000
     Eigenvalues --- 1000.000001000.000001000.000001000.000001000.00000
     Eigenvalues --- 1000.000001000.000001000.000001000.000001000.00000
     Eigenvalues --- 1000.000001000.000001000.000001000.000001000.00000
     Eigenvalues --- 1000.000001000.000001000.000001000.000001000.00000
     Eigenvalues --- 1000.000001000.000001000.000001000.000001000.00000
     Eigenvalues --- 1000.000001000.000001000.000001000.000001000.00000
     Eigenvalues --- 1000.000001000.00000
 RFO step:  Lambda=-4.29695257D-02 EMin= 6.34658547D-03
 Linear search not attempted -- first point.
 Maximum step size (   0.300) exceeded in Quadratic search.
    -- Step size scaled by   0.575
 Iteration  1 RMS(Cart)=  0.12599240 RMS(Int)=  0.00284692
 Iteration  2 RMS(Cart)=  0.00585816 RMS(Int)=  0.00028902
 Iteration  3 RMS(Cart)=  0.00000908 RMS(Int)=  0.00028897
 Iteration  4 RMS(Cart)=  0.00000000 RMS(Int)=  0.00028897
 Variable       Old X    -DE/DX   Delta X   Delta X   Delta X     New X
                                 (Linear)    (Quad)   (Total)
    R1        2.12391  -0.02743   0.00000  -0.04444  -0.04444   2.07947
    R2        2.85051   0.02571   0.00000   0.04127   0.04127   2.89177
    R3        2.85182   0.02268   0.00000   0.03646   0.03646   2.88828
    R4        2.85334   0.02093   0.00000   0.03373   0.03373   2.88708
    R5        2.63775   0.00079   0.00000   0.00108   0.00110   2.63884
    R6        2.64236  -0.00360   0.00000  -0.00405  -0.00403   2.63833
    R7        2.62725  -0.00325   0.00000  -0.00351  -0.00351   2.62374
    R8        2.08241  -0.02986   0.00000  -0.04544  -0.04544   2.03697
    R9        2.62639  -0.00367   0.00000  -0.00420  -0.00419   2.62219
   R10        2.07208  -0.01772   0.00000  -0.02654  -0.02654   2.04554
   R11        2.62697  -0.00678   0.00000  -0.00761  -0.00763   2.61934
   R12        2.06888  -0.01669   0.00000  -0.02487  -0.02487   2.04402
   R13        2.62802  -0.00839   0.00000  -0.00955  -0.00956   2.61845
   R14        2.06892  -0.01668   0.00000  -0.02485  -0.02485   2.04407
   R15        2.06850  -0.01678   0.00000  -0.02500  -0.02500   2.04350
   R16        2.63771   0.00076   0.00000   0.00101   0.00103   2.63874
   R17        2.63987  -0.00422   0.00000  -0.00473  -0.00472   2.63515
   R18        2.62580  -0.00447   0.00000  -0.00490  -0.00489   2.62090
   R19        2.07989  -0.02543   0.00000  -0.03855  -0.03855   2.04134
   R20        2.62722  -0.00272   0.00000  -0.00310  -0.00311   2.62411
   R21        2.07185  -0.01767   0.00000  -0.02645  -0.02645   2.04539
   R22        2.62793  -0.00545   0.00000  -0.00615  -0.00616   2.62176
   R23        2.06845  -0.01659   0.00000  -0.02470  -0.02470   2.04374
   R24        2.62766  -0.00833   0.00000  -0.00944  -0.00946   2.61820
   R25        2.06922  -0.01674   0.00000  -0.02497  -0.02497   2.04426
   R26        2.06856  -0.01682   0.00000  -0.02506  -0.02506   2.04350
   R27        2.64334  -0.00438   0.00000  -0.00504  -0.00503   2.63831
   R28        2.63513  -0.00248   0.00000  -0.00274  -0.00273   2.63239
   R29        2.62520  -0.00420   0.00000  -0.00474  -0.00473   2.62047
   R30        2.07192  -0.01746   0.00000  -0.02614  -0.02614   2.04578
   R31        2.62867  -0.00274   0.00000  -0.00298  -0.00298   2.62569
   R32        2.07402  -0.02186   0.00000  -0.03284  -0.03284   2.04118
   R33        2.62895  -0.00598   0.00000  -0.00674  -0.00675   2.62220
   R34        2.06916  -0.01672   0.00000  -0.02493  -0.02493   2.04423
   R35        2.62633  -0.00643   0.00000  -0.00714  -0.00715   2.61918
   R36        2.06913  -0.01676   0.00000  -0.02498  -0.02498   2.04415
   R37        2.06843  -0.01672   0.00000  -0.02490  -0.02490   2.04353
    A1        1.85580  -0.00925   0.00000  -0.04556  -0.04462   1.81118
    A2        1.86808  -0.00594   0.00000  -0.03548  -0.03473   1.83336
    A3        1.85822  -0.00027   0.00000  -0.01889  -0.01872   1.83950
    A4        1.97508   0.01472   0.00000   0.05368   0.05250   2.02759
    A5        1.97372   0.00304   0.00000   0.02548   0.02357   1.99729
    A6        1.92455  -0.00403   0.00000   0.00965   0.00731   1.93186
    A7        2.14199   0.02513   0.00000   0.04927   0.04925   2.19123
    A8        2.06598  -0.01301   0.00000  -0.02554  -0.02556   2.04043
    A9        2.07521  -0.01211   0.00000  -0.02372  -0.02369   2.05153
   A10        2.10369   0.00440   0.00000   0.00978   0.00978   2.11347
   A11        2.08552   0.00422   0.00000   0.01328   0.01328   2.09879
   A12        2.09395  -0.00863   0.00000  -0.02308  -0.02309   2.07087
   A13        2.10305   0.00830   0.00000   0.01757   0.01759   2.12064
   A14        2.09375  -0.00487   0.00000  -0.01084  -0.01085   2.08290
   A15        2.08639  -0.00342   0.00000  -0.00673  -0.00675   2.07964
   A16        2.09780   0.00242   0.00000   0.00496   0.00493   2.10273
   A17        2.09017  -0.00115   0.00000  -0.00231  -0.00230   2.08787
   A18        2.09522  -0.00127   0.00000  -0.00265  -0.00264   2.09258
   A19        2.09756   0.00003   0.00000  -0.00099  -0.00099   2.09657
   A20        2.09145   0.00005   0.00000   0.00068   0.00068   2.09213
   A21        2.09418  -0.00008   0.00000   0.00030   0.00031   2.09448
   A22        2.08906  -0.00304   0.00000  -0.00760  -0.00763   2.08143
   A23        2.09725   0.00152   0.00000   0.00380   0.00381   2.10106
   A24        2.09688   0.00152   0.00000   0.00380   0.00381   2.10069
   A25        2.12664   0.01653   0.00000   0.03233   0.03224   2.15889
   A26        2.07821  -0.00634   0.00000  -0.01255  -0.01262   2.06560
   A27        2.07819  -0.01022   0.00000  -0.02007  -0.02008   2.05811
   A28        2.10352   0.00380   0.00000   0.00845   0.00838   2.11191
   A29        2.07585   0.00412   0.00000   0.01300   0.01288   2.08873
   A30        2.10359  -0.00786   0.00000  -0.02093  -0.02105   2.08254
   A31        2.10045   0.00695   0.00000   0.01483   0.01483   2.11528
   A32        2.09453  -0.00408   0.00000  -0.00912  -0.00913   2.08540
   A33        2.08821  -0.00287   0.00000  -0.00570  -0.00571   2.08249
   A34        2.09582   0.00211   0.00000   0.00425   0.00424   2.10006
   A35        2.09164  -0.00097   0.00000  -0.00186  -0.00187   2.08976
   A36        2.09573  -0.00115   0.00000  -0.00238  -0.00239   2.09334
   A37        2.09785  -0.00008   0.00000  -0.00095  -0.00098   2.09687
   A38        2.09122   0.00019   0.00000   0.00091   0.00092   2.09214
   A39        2.09412  -0.00012   0.00000   0.00004   0.00005   2.09417
   A40        2.09051  -0.00255   0.00000  -0.00638  -0.00641   2.08410
   A41        2.09646   0.00126   0.00000   0.00314   0.00314   2.09960
   A42        2.09622   0.00130   0.00000   0.00325   0.00325   2.09947
   A43        2.06492  -0.00209   0.00000  -0.00402  -0.00402   2.06090
   A44        2.14066   0.00967   0.00000   0.01906   0.01905   2.15971
   A45        2.07759  -0.00758   0.00000  -0.01505  -0.01504   2.06255
   A46        2.10233   0.00529   0.00000   0.01110   0.01110   2.11343
   A47        2.09297  -0.00327   0.00000  -0.00731  -0.00732   2.08565
   A48        2.08788  -0.00202   0.00000  -0.00379  -0.00379   2.08409
   A49        2.10159   0.00316   0.00000   0.00688   0.00688   2.10847
   A50        2.09262   0.00056   0.00000   0.00261   0.00261   2.09523
   A51        2.08894  -0.00372   0.00000  -0.00953  -0.00953   2.07941
   A52        2.09696   0.00012   0.00000  -0.00029  -0.00029   2.09667
   A53        2.09191   0.00000   0.00000   0.00031   0.00031   2.09223
   A54        2.09431  -0.00012   0.00000  -0.00003  -0.00002   2.09429
   A55        2.09859   0.00131   0.00000   0.00276   0.00275   2.10134
   A56        2.08952  -0.00057   0.00000  -0.00115  -0.00115   2.08837
   A57        2.09508  -0.00074   0.00000  -0.00161  -0.00161   2.09347
[...]
 0040755,-0.00041502,0.00037500,0.00007965,0.00032593,0.00008478,0.0004
 2539,0.00025878,0.00009545,-0.00011343,-0.00002220,0.00001467,-0.00004
 465,-0.00038474,0.00021820,0.00003962,0.00001350,-0.00017739,-0.000134
 47,-0.00005704,-0.00031353,0.00008635,0.00000789,-0.00002611,0.0000136
 8,-0.00000344,0.00001912,-0.00001342,0.00003583,-0.00000750,0.00000716
 ,-0.00065202,0.00046692,-0.00002271,-0.00025765,0.00000511,-0.00033757
 ,-0.00031482,0.00001874,0.00024655,0.00004100,0.00011078,0.00050456,0.
 00035686,0.00027995,-0.00001588,0.00021925,0.00021128,0.00002358,0.000
 03379,0.00003370,0.00004802,-0.00009413,-0.00018819,-0.00016154,-0.000
 02290,0.00001383,-0.00001250,0.00002460,-0.00002162,0.00001933,-0.0000
 0570,0.00001079,0.00003666,0.03650258,-0.06399999,-0.05031559,-0.04832
 522,0.01931898,-0.04559381,-0.12971999,-0.00681594,-0.30475166,0.02469
 168,0.01225908,0.07269518,-0.00060353,0.00097902,-0.00018762,0.1033614
 5,0.19073698,0.69886639,-0.00208669,-0.00218848,0.00052219,-0.00011226
 ,-0.00005589,-0.00028266,-0.00006199,-0.00121993,-0.00160668,-0.000349
 88,-0.00030800,-0.00092586,0.00040549,0.00005865,-0.00045522,0.0002676
 1,0.00004771,-0.00020168,0.00000239,-0.00004715,0.00032383,-0.00022819
 ,0.00008354,0.00008121,0.00001283,-0.00001278,0.00003766,-0.00016306,-
 0.00017966,0.00021596,0.00001346,-0.00000142,0.00001564,-0.00001731,-0
 .00000263,-0.00001168,-0.00000623,-0.00000836,0.00000376,0.00040250,0.
 00037404,0.00046354,0.00023504,0.00009313,0.00035447,-0.00010165,-0.00
 016442,0.00014321,-0.00002456,-0.00010536,-0.00006150,-0.00033519,0.00
 003967,-0.00012732,0.00000778,0.00004188,-0.00001074,-0.00000712,-0.00
 001214,-0.00001862,-0.00001600,-0.00000863,-0.00001429,-0.00001742,-0.
 00000214,0.00001638,-0.00001467,-0.00000740,0.00000156,-0.00000180,-0.
 00000025,-0.00002143,-0.00465420,0.00569863,-0.00513701,0.00362906,0.0
 0388215,-0.00006598,-0.25747350,0.14890660,-0.05137017,0.00023515,-0.0
 0090778,0.00023390,-0.00034892,0.00023337,-0.00015805,-0.00638219,0.01
 051981,0.00059878,0.26612625,-0.00133282,-0.00211849,0.00189563,-0.000
 11805,0.00006264,-0.00030842,0.00023348,0.00025097,-0.00022363,-0.0000
 7846,0.00064240,0.00024414,-0.00035702,-0.00024983,0.00052271,-0.00015
 695,0.00006423,-0.00003952,-0.00000074,-0.00006136,0.00008106,-0.00021
 709,-0.00010063,0.00011889,0.00004505,-0.00007403,-0.00010104,0.000093
 48,0.00004590,-0.00012349,0.00003915,-0.00004109,0.00003853,0.00001374
 ,-0.00000203,-0.00003031,0.00003275,-0.00001246,0.00000328,0.00017181,
 0.00031911,0.00040447,0.00004248,0.00009984,0.00011580,-0.00007767,-0.
 00009808,0.00007876,-0.00002778,-0.00001409,-0.00005502,-0.00004896,-0
 .00002860,-0.00005363,-0.00001497,0.00001520,-0.00000840,0.00001425,-0
 .00003650,-0.00000888,0.00000067,-0.00000470,0.00001361,-0.00000919,-0
 .00001136,0.00001015,-0.00000595,-0.00000569,0.00000340,0.00000427,-0.
 00000771,-0.00000668,0.01936994,-0.00734713,0.00651860,0.00434289,0.00
 189973,-0.00564525,0.14696054,-0.15938735,0.02696581,-0.00096446,-0.00
 045161,-0.00049138,0.00083111,-0.00065747,0.00035465,-0.00399100,0.006
 90763,-0.00345976,-0.16425242,0.15769088,0.00102857,0.00164498,0.00006
 932,-0.00000801,0.00014775,0.00052647,-0.00055566,-0.00096812,-0.00170
 300,-0.00035947,-0.00015752,-0.00057112,-0.00032789,-0.00023995,-0.000
 15542,-0.00044374,0.00009912,0.00001852,0.00002949,0.00004775,-0.00022
 051,0.00032662,-0.00016947,-0.00003910,0.00002361,0.00014579,0.0000573
 9,0.00009421,0.00025313,-0.00013897,0.00001516,-0.00002336,0.00002864,
 0.00004841,0.00003918,0.00000468,0.00005624,0.00002017,0.00001773,-0.0
 0013358,-0.00011009,-0.00034184,-0.00009667,-0.00005194,-0.00006118,0.
 00003793,0.00006144,-0.00006634,0.00001784,0.00006369,-0.00001355,0.00
 015955,-0.00003834,0.00008338,-0.00001690,-0.00004812,0.00000322,0.000
 00634,-0.00000248,-0.00000170,0.00001075,0.00001416,0.00002809,-0.0000
 0397,-0.00001311,0.00000119,0.00000662,0.00000362,0.00000679,-0.000003
 07,-0.00000419,0.00001510,0.02081811,-0.01481069,0.01081902,-0.0003962
 0,-0.00552857,-0.00220271,-0.05174301,0.02755554,-0.08025564,0.0003373
 3,-0.00032172,-0.00108386,0.00106536,-0.00075334,0.00025640,-0.0274352
 9,0.02009583,-0.00084374,0.06056108,-0.02612950,0.07977935,-0.00052366
 ,0.00000409,0.00182046,-0.00011479,-0.00075796,-0.00019614,0.00031350,
 0.00038852,-0.00018915,0.00024280,-0.00022589,-0.00003831,-0.00034275,
 -0.00002211,-0.00017043,-0.00025821,-0.00008107,0.00008596,0.00001273,
 -0.00002364,0.00002371,0.00030124,-0.00018787,0.00001429,-0.00001111,0
 .00004866,0.00003329,0.00000309,0.00029207,-0.00009566,-0.00001467,0.0
 0001762,-0.00000006,-0.00001326,-0.00001802,-0.00000025,-0.00001786,0.
 00000267,-0.00000355,0.00063210,-0.00036555,0.00046264,0.00014678,-0.0
 0009861,0.00002474,0.00027574,0.00000028,-0.00024863,0.00003644,-0.000
 03917,-0.00036550,-0.00029896,-0.00018922,-0.00020922,-0.00020479,-0.0
 0016578,0.00003794,0.00000334,-0.00000399,0.00001196,0.00010385,0.0001
 8469,0.00014258,0.00003057,0.00001746,-0.00002503,-0.00002196,0.000026
 01,-0.00001359,0.00000392,-0.00000154,-0.00001718,-0.05072517,0.049095
 84,0.02037640,0.06448135,-0.02790503,0.03323018,-0.02180788,-0.0168499
 8,-0.08091126,-0.15524379,0.06002013,-0.00476585,0.00206323,0.00301351
 ,-0.00558428,-0.26361142,0.14386479,-0.02261545,0.00309275,0.00262090,
 -0.00416907,0.55348259,0.00029776,-0.00076158,-0.00166522,-0.00014615,
 0.00090315,-0.00012372,-0.00023991,-0.00047405,-0.00001143,-0.00036941
 ,0.00021934,0.00003565,0.00031237,0.00004611,0.00024156,0.00030019,0.0
 0007470,-0.00009374,-0.00001174,0.00000597,-0.00001500,-0.00033184,0.0
 0021159,0.00001395,0.00000373,-0.00007021,-0.00005282,-0.00004916,-0.0
 0029752,0.00010813,0.00000123,-0.00000798,-0.00000594,0.00000686,0.000
 01408,-0.00000210,0.00001028,-0.00000712,0.00000139,-0.00089452,0.0004
 1743,-0.00029085,-0.00015009,0.00016139,-0.00032137,-0.00028126,0.0001
 5415,0.00032520,-0.00009896,-0.00000655,0.00042656,0.00022025,0.000066
 61,0.00001496,0.00027986,0.00021297,-0.00006387,-0.00000419,0.00000306
 ,0.00000259,-0.00008850,-0.00021180,-0.00025865,-0.00000955,0.00004279
 ,-0.00001347,0.00003579,-0.00002317,-0.00000247,0.00000549,0.00000189,
 0.00000233,0.04942889,-0.06079955,-0.01768722,-0.05608680,0.02346726,-
 0.06235072,0.01042733,0.04110874,0.07386261,0.09370886,-0.20958824,-0.
 08134187,0.00332085,0.00535729,-0.00157231,0.11072657,-0.19141447,-0.0
 2230716,0.00240420,0.00515190,-0.00342444,-0.23609143,0.46314438,0.001
 20946,-0.00003011,-0.00091709,-0.00020645,0.00047938,-0.00012759,0.000
 05527,-0.00026267,-0.00015425,-0.00016876,-0.00005376,0.00001638,0.000
 04833,0.00010632,0.00003276,0.00009079,-0.00000660,-0.00001658,0.00000
 276,-0.00000367,-0.00001151,-0.00006246,0.00008837,0.00002855,0.000057
 48,-0.00000874,-0.00004277,-0.00008380,-0.00004116,0.00004339,-0.00002
 190,0.00001150,-0.00001297,-0.00004102,-0.00001642,-0.00001226,-0.0000
 1580,-0.00000007,-0.00000729,-0.00107287,-0.00004858,-0.00018369,0.000
 01078,-0.00005667,-0.00028819,0.00004286,0.00028689,-0.00002280,-0.000
 01430,0.00004822,0.00018069,0.00004509,0.00000352,-0.00002217,0.000122
 89,0.00001873,-0.00003898,-0.00002296,0.00000213,0.00002780,-0.0000034
 1,-0.00005101,-0.00014322,0.00001559,0.00005155,-0.00003240,0.00003351
 ,0.00000143,-0.00003439,0.00001168,0.00000955,-0.00000232,0.02102003,-
 0.01950982,-0.00776711,-0.01574938,-0.02011816,-0.05169524,-0.03176531
 ,0.03137220,0.01686070,0.05770450,-0.13621034,-0.24299532,-0.00514025,
 -0.00213954,-0.00304085,-0.08556506,0.03247546,-0.16261631,-0.00428064
 ,-0.00304669,-0.00402894,0.17438070,0.15322294,0.74220442,-0.00050232,
 0.00048871,0.00029175,-0.00001089,-0.00004961,-0.00005681,0.00010502,-
 0.00011582,-0.00018721,-0.00009728,-0.00001450,0.00001170,-0.00003309,
 0.00006548,-0.00001804,0.00003119,-0.00000219,0.00000941,0.00000485,-0
 .00000419,0.00000769,-0.00000811,0.00002678,-0.00000312,0.00001654,0.0
 0000373,-0.00000439,-0.00002631,-0.00001988,0.00000953,-0.00001030,0.0
 0001057,-0.00000283,-0.00002119,-0.00000532,0.00000764,-0.00001314,0.0
 0000226,-0.00000019,-0.00011927,-0.00008823,0.00006289,0.00003549,0.00
 003836,-0.00000294,0.00006784,0.00003254,-0.00004556,-0.00001443,-0.00
 001204,-0.00000480,-0.00001678,-0.00003964,0.00000468,0.00000705,-0.00
 000780,-0.00001522,-0.00001146,-0.00000004,0.00000834,0.00000848,-0.00
 000181,-0.00001765,0.00000480,0.00001139,-0.00000127,-0.00000079,0.000
 00253,-0.00002036,0.00000539,0.00000551,-0.00001289,0.00337773,0.00255
 689,-0.00452159,-0.00696340,0.01130282,0.00052116,0.00026773,-0.000938
 17,0.00018450,-0.24994811,0.14678097,-0.05465329,-0.00114387,-0.003009
 53,0.00099235,0.00381149,0.00433860,0.00016565,-0.00052196,-0.00048854
 ,0.00028882,-0.00367091,0.00461602,-0.00629657,0.25689643,-0.00024586,
 0.00004775,-0.00009500,0.00000628,-0.00004015,0.00000633,-0.00000536,-
 0.00008432,0.00008129,-0.00000700,0.00003564,0.00000919,0.00003581,0.0
 0003113,0.00001440,0.00003269,0.00001490,-0.00000740,-0.00000203,-0.00
 000108,-0.00000505,-0.00004843,0.00001162,0.00000286,-0.00000646,-0.00
 001618,-0.00000956,-0.00000279,-0.00003932,0.00001797,0.00000388,-0.00
 000770,-0.00000327,-0.00000020,0.00000354,-0.00000270,0.00000564,-0.00
 000326,-0.00000165,0.00011164,0.00002107,0.00007544,-0.00003178,-0.000
 02104,0.00002050,0.00000003,-0.00005086,0.00000339,-0.00000102,0.00003
 520,-0.00000373,0.00004354,0.00000419,-0.00001464,-0.00001940,-0.00000
 425,0.00000341,0.00000119,-0.00000460,-0.00000810,-0.00001440,0.000001
 68,0.00003015,-0.00000036,-0.00002508,0.00000693,-0.00000305,-0.000000
 45,0.00000748,0.00000114,-0.00000602,0.00001016,0.00259629,0.00517457,
 -0.00314179,-0.00358254,0.00675383,-0.00384424,-0.00096483,-0.00031053
 ,-0.00039357,0.14691191,-0.16164224,0.02965499,-0.00249751,-0.00188480
 ,0.00205161,0.00413073,0.00188000,-0.00582745,-0.00046825,-0.00064344,
 0.00037889,0.01941100,-0.00705369,0.00837829,-0.16341819,0.16016300,-0
 .00105783,0.00092412,0.00015064,0.00002905,-0.00004195,0.00007788,0.00
 003892,-0.00002692,-0.00045553,-0.00007283,-0.00000548,0.00002430,-0.0
 0007468,0.00000573,0.00000082,-0.00002253,0.00000443,0.00003640,0.0000
 0339,-0.00000306,-0.00001737,0.00003780,0.00000399,0.00001667,0.000009
 14,-0.00000172,-0.00000418,-0.00003263,0.00003403,-0.00001390,-0.00001
 313,0.00001072,-0.00000288,-0.00001111,-0.00000584,0.00000254,-0.00000
 864,0.00000056,-0.00000327,-0.00014647,-0.00008297,0.00004888,0.000048
 27,0.00001962,-0.00002754,0.00005165,0.00003327,-0.00006085,0.00001404
 ,-0.00000874,-0.00001216,-0.00003721,-0.00000818,-0.00000203,0.0000099
 9,-0.00001791,-0.00000652,-0.00001179,0.00001009,0.00001009,0.00002707
 ,0.00001209,-0.00002164,0.00000231,0.00002124,-0.00000792,-0.00000152,
 0.00000614,-0.00001389,-0.00000175,0.00000749,-0.00000860,-0.00393781,
 -0.00339658,-0.00395215,-0.02723331,0.02056720,-0.00057241,0.00031149,
 -0.00040878,-0.00115840,-0.05452726,0.02948113,-0.08240636,0.00193335,
 0.00129483,0.00038133,-0.00025487,-0.00551191,-0.00197724,0.00023390,0
 .00040952,-0.00009712,0.02129627,-0.01585383,0.01063243,0.06161383,-0.
 02887875,0.07883603,0.00038841,-0.00057129,-0.00022991,-0.00004146,-0.
 00008157,-0.00011759,0.00005161,0.00000078,0.00005447,0.00003969,0.000
 01338,0.00001591,-0.00003430,0.00000786,-0.00000152,-0.00003187,0.0000
 0649,0.00001218,0.00000270,-0.00000401,-0.00000631,0.00001045,-0.00001
 319,0.00001823,0.00000173,-0.00001206,-0.00001157,-0.00002421,0.000025
 31,0.00000289,-0.00000126,-0.00000350,-0.00000563,-0.00000825,-0.00000
 603,-0.00000653,-0.00000112,-0.00000197,-0.00000659,-0.00004643,0.0000
 0597,-0.00005636,0.00001283,0.00001076,0.00004614,-0.00001353,0.000002
 04,-0.00001953,0.00001352,0.00000732,-0.00000001,0.00000962,0.00002931
 ,-0.00000915,0.00001118,-0.00000263,-0.00000711,-0.00000580,0.00000257
 ,-0.00000032,-0.00000285,-0.00000394,-0.00000240,-0.00000660,-0.000005
 29,0.00000685,0.00000186,-0.00000206,-0.00000164,-0.00000245,0.0000015
 7,0.00000079,0.00192800,0.00301858,-0.00535965,-0.00097531,-0.00036854
 ,-0.00065052,0.01048487,-0.01159715,-0.01361669,-0.00083931,0.00641173
 ,-0.00390478,-0.00041763,-0.00053429,0.00035334,-0.09988832,0.07820083
 ,0.06379523,-0.00095102,-0.00246131,0.00192393,-0.00317987,0.01924243,
 0.02186857,-0.00044621,0.00087067,0.00098757,0.09501370,0.00025701,-0.
 00016207,0.00028751,0.00000646,-0.00003712,-0.00002429,0.00003206,0.00
 000780,-0.00008169,0.00001443,-0.00004455,0.00000094,-0.00006254,0.000
 01697,-0.00002106,-0.00003085,-0.00001061,0.00001971,0.00000539,-0.000
 00979,0.00000838,0.00003859,-0.00000474,0.00002027,0.00002000,-0.00000
 396,-0.00001289,-0.00002674,0.00004504,-0.00000055,-0.00000637,0.00000
 458,-0.00000425,-0.00002182,-0.00001747,-0.00000711,-0.00001343,0.0000
 0133,-0.00000791,-0.00010496,0.00001070,-0.00005378,0.00003069,0.00003
 475,0.00002256,0.00000266,0.00003582,-0.00001281,-0.00001576,-0.000018
 87,-0.00000211,-0.00000635,-0.00002171,-0.00000605,0.00001658,0.000002
 17,-0.00000994,-0.00000589,-0.00000465,0.00000407,-0.00000201,-0.00000
 563,-0.00001663,0.00000476,0.00000230,0.00000379,0.00000425,-0.0000038
 1,-0.00001189,0.00000371,0.00000329,-0.00000994,0.00282784,0.00507628,
 -0.00209287,-0.00048427,-0.00005259,0.00090483,0.00318678,0.00333779,0
 .00109272,0.00662227,0.00304884,-0.00031651,-0.00053611,-0.00066890,0.
 00024931,0.07795710,-0.18992707,-0.13809285,-0.00279573,-0.00186975,0.
 00133448,0.00451496,-0.00711420,-0.01658065,0.00021554,-0.00064482,-0.
 00067913,-0.08922798,0.19085424,0.00079191,-0.00092914,-0.00037557,-0.
 00014583,-0.00005609,-0.00040654,0.00031643,-0.00002207,0.00003991,-0.
 00009495,0.00001742,0.00003712,-0.00004802,0.00000311,0.00002983,0.000
 00810,0.00001646,0.00001482,0.00001627,-0.00001173,-0.00002046,0.00000
 293,0.00001822,0.00000324,0.00001854,0.00002230,-0.00001344,-0.0000578
 7,0.00001368,0.00002013,-0.00002288,0.00001435,-0.00002183,-0.00001651
 ,-0.00000968,-0.00000250,-0.00001738,-0.00000014,-0.00000914,-0.000233
 46,-0.00018256,-0.00000596,0.00000999,0.00005883,-0.00010208,0.0000831
 0,0.00009853,-0.00009009,-0.00001721,-0.00001073,0.00000418,-0.0000024
 3,-0.00007065,0.00001321,0.00000738,-0.00000416,-0.00001229,0.00000591
 ,0.00000894,0.00002522,0.00001448,0.00001098,-0.00002713,0.00002422,0.
 00001961,-0.00001423,0.00000739,0.00000314,-0.00001890,0.00000879,0.00
 000409,-0.00001056,-0.00541764,-0.00150025,-0.00302032,-0.00066026,0.0
 0096952,-0.00019890,0.01406439,-0.02303681,-0.01482733,-0.00357556,-0.
 00067542,0.00187509,0.00036767,0.00024122,-0.00020002,0.06376931,-0.13
 814574,-0.20392428,0.00096294,0.00203892,0.00038805,-0.00598396,0.0075
 8139,0.01013271,-0.00017097,0.00033631,0.00024515,-0.06597098,0.152020
 33,0.21018429,-0.00032501,-0.00049364,0.00038544,0.00001834,-0.0001253
 6,-0.00011723,0.00004872,-0.00002169,-0.00002666,-0.00004252,-0.000030
 45,-0.00002094,0.00000713,0.00003692,-0.00001224,0.00002972,-0.0000172
 8,-0.00000677,0.00000103,-0.00000538,0.00002211,0.00000254,0.00001628,
 -0.00000125,0.00001219,0.00000061,0.,-0.00000460,-0.00000791,0.0000101
 3,-0.00000397,0.00000785,0.00000076,-0.00001363,-0.00000903,0.00000016
 ,-0.00001163,0.00000159,-0.00000140,0.00001802,0.00001584,0.00009466,0
 .00002037,0.00003052,0.00001976,-0.00000337,-0.00000044,0.00000761,-0.
 00001143,-0.00001319,-0.00000918,-0.00001663,-0.00001506,-0.00000213,0
 .00000321,0.00000566,-0.00000029,-0.00000279,-0.00000233,0.00000147,-0
 .00000059,-0.00000082,-0.00000592,0.00000317,-0.00000040,0.00000331,-0
 .00000089,-0.00000196,-0.00000657,0.00000339,0.00000144,-0.00000670,-0
 .00079479,0.00026553,0.00077417,0.00282707,0.00521740,0.00016288,-0.00
 050106,0.00719157,-0.00197248,0.01036859,0.00252068,0.01338079,0.00022
 117,0.00004417,0.00056453,-0.00631655,-0.00462047,-0.02742559,-0.00055
 451,-0.00021314,-0.00116345,-0.12516498,-0.00049544,-0.12620932,-0.001
 06022,-0.00284297,0.00079733,-0.00105236,-0.00242027,0.00195616,0.1222
 9687,-0.00049800,-0.00048211,0.00036848,0.00007759,-0.00005006,-0.0000
 2078,0.00004461,0.00001356,-0.00000640,-0.00002784,0.00004216,0.000018
 54,-0.00002501,0.00000276,0.00004244,-0.00002141,0.00001099,0.00000011
 ,0.00000076,-0.00000773,-0.00000851,-0.00000275,-0.00000383,0.00000830
 ,0.00000975,-0.00000317,-0.00001047,-0.00000106,0.00000411,-0.00000785
 ,-0.00000018,-0.00000136,0.00000222,-0.00000489,-0.00000161,-0.0000029
 9,0.00000071,0.00000028,-0.00000105,0.00002630,0.00006053,0.00010905,-
 0.00002254,0.00000817,0.00000361,-0.00003080,-0.00001382,0.00003036,-0
 .00000078,0.00000724,0.00000446,0.00003166,0.00000392,-0.00000928,-0.0
 0000031,0.00001019,0.00000886,0.00000393,-0.00000478,0.00000089,-0.000
 00211,-0.00000620,0.00000143,-0.00000164,-0.00000527,0.00000512,-0.000
 00090,-0.00000322,-0.00000045,0.00000167,0.00000053,-0.00000039,0.0002
 3058,-0.00119263,-0.00003353,0.00549930,0.00120434,-0.00489197,0.00691
 244,0.00216660,-0.00161846,-0.01229965,0.00378450,-0.02243823,-0.00059
 045,-0.00014035,-0.00102388,0.01008474,0.00727390,0.02025790,0.0003654
 4,0.00007299,0.00088941,-0.00049632,-0.06293464,-0.02837178,-0.0022832
 0,-0.00169429,0.00208554,-0.00296081,-0.00185955,0.00115783,-0.0040188
 4,0.05373787,0.00021566,0.00029893,-0.00015280,0.00000374,0.00007383,0
 .00003779,0.00005477,0.00001120,-0.00007141,-0.00004848,-0.00003577,-0
 .00000154,-0.00002564,0.00000247,-0.00003074,0.00001350,-0.00001327,0.
 00000389,0.00000568,-0.00000115,0.00001227,0.00002051,0.00001626,-0.00
 001096,0.00001465,0.00001741,0.00000349,-0.00001659,0.00000534,0.00000
 384,-0.00000946,0.00001201,-0.00000441,-0.00001077,-0.00000670,0.00000
 600,-0.00001401,0.00000365,0.00000015,-0.00012387,-0.00006681,-0.00003
 067,0.00002871,0.00003873,-0.00003213,0.00003861,0.00005298,-0.0000236
 5,-0.00002437,-0.00003801,0.00000601,-0.00003497,-0.00004778,0.0000117
 1,0.00001374,0.00000638,-0.00000687,0.00000148,0.00000120,0.00001228,0
 .00000790,-0.00000271,-0.00002549,0.00001039,0.00002115,-0.00000683,0.
 00000274,-0.00000012,-0.00001555,0.00000534,0.00000572,-0.00001511,0.0
 0086501,0.00006757,0.00064655,0.00062655,-0.00528745,-0.00011755,-0.00
 249765,-0.00123708,0.00258652,-0.01430034,0.00189269,-0.01475063,-0.00
 055223,-0.00000951,-0.00094997,0.00052716,-0.00398859,-0.00142199,-0.0
 0002047,-0.00008629,-0.00027858,-0.12633855,-0.02838105,-0.30594557,0.
 00185575,0.00114734,0.00035879,0.00089867,0.00207599,0.00028860,0.1388
 0684,0.03345146,0.31991457||0.00005087,-0.00001867,-0.00002133,0.00000
 383,-0.00001506,0.00000508,-0.00005464,-0.00008563,0.00009865,-0.00007
 470,0.00007671,-0.00004470,0.00010150,0.00002850,-0.00003490,0.0000976
 6,0.00001958,-0.00002249,0.00002081,-0.00000884,0.00000315,-0.00007161
 ,0.00005444,-0.00002629,-0.00000539,-0.00000337,0.00000086,-0.00000895
 ,-0.00007809,0.00005091,-0.00001152,0.00000149,0.00000089,0.00000161,-
 0.00000358,0.00000322,0.00000044,0.00000491,-0.00000453,-0.00005054,0.
 00000072,-0.00003700,0.00005031,0.00002765,-0.00000803,-0.00001548,-0.
 00001233,0.00004334,-0.00002552,0.00000514,0.00003560,-0.00001789,-0.0
 0000689,0.00000662,0.00001282,0.00003188,-0.00001300,0.00000497,-0.000
 00373,-0.00000192,-0.00000885,-0.00003568,-0.00001322,0.00000654,0.000
 00122,-0.00000652,-0.00000237,-0.00000037,-0.00000198,0.00000511,0.000
 00183,0.00000204,0.00009541,-0.00001366,-0.00006191,-0.00009498,0.0000
 1307,-0.00005500,-0.00001628,0.00001805,0.00012117,-0.00001028,0.00002
 556,0.00010664,0.00000944,-0.00000099,0.00000128,-0.00008624,0.0000165
 4,-0.00007045,0.00000149,0.00000406,-0.00001273,0.00009413,-0.00004703
 ,-0.00004622,0.00000475,-0.00000062,-0.00001198,0.00000605,0.00000147,
 0.00000752,-0.00001249,0.00000171,0.00000724|||@



 IN THIS SHORT LIFE

 THAT ONLY LASTS AN HOUR

 HOW MUCH, HOW LITTLE, IS WITHIN OUR POWER....


 EMILY DICKINSON BOLTS OF MELODY NO. 521
 Job cpu time:  0 days  0 hours  6 minutes 37.0 seconds.
 File lengths (MBytes):  RWF=    350 Int=      0 D2E=      0 Chk=      7 Scr=      1
 Normal termination of Gaussian 09 at Mon Sep 06 18:39:09 2021.
