 Entering Link 1 = b:\programy\g09w\l1.exe PID=     15968.
  
 Copyright (c) 1988,1990,1992,1993,1995,1998,2003,2009, Gaussian, Inc.
                  All Rights Reserved.
  
 This is part of the Gaussian(R) 09 program.  It is based on
 the Gaussian(R) 03 system (copyright 2003, Gaussian, Inc.),
 the Gaussian(R) 98 system (copyright 1998, Gaussian, Inc.),
 the Gaussian(R) 94 system (copyright 1995, Gaussian, Inc.),
 the Gaussian 92(TM) system (copyright 1992, Gaussian, Inc.),
 the Gaussian 90(TM) system (copyright 1990, Gaussian, Inc.),
 the Gaussian 88(TM) system (copyright 1988, Gaussian, Inc.),
 the Gaussian 86(TM) system (copyright 1986, Carnegie Mellon
 University), and the Gaussian 82(TM) system (copyright 1983,
 Carnegie Mellon University). Gaussian is a federally registered
 trademark of Gaussian, Inc.
  
 This software contains proprietary and confidential information,
 including trade secrets, belonging to Gaussian, Inc.
  
 This software is provided under written license and may be
 used, copied, transmitted, or stored only in accord with that
 written license.
  
 The following legend is applicable only to US Government
 contracts under FAR:
  
                    RESTRICTED RIGHTS LEGEND
  
 Use, reproduction and disclosure by the US Government is
 subject to restrictions as set forth in subparagraphs (a)
 and (c) of the Commercial Computer Software - Restricted
 Rights clause in FAR 52.227-19.
  
 Gaussian, Inc.
 340 Quinnipiac St., Bldg. 40, Wallingford CT 06492
  
  
 ---------------------------------------------------------------
 Warning -- This program may not be used in any manner that
 competes with the business of Gaussian, Inc. or will provide
 assistance to any competitor of Gaussian, Inc.  The licensee
 of this program is prohibited from giving any competitor of
 Gaussian, Inc. access to this program.  By using this program,
 the user acknowledges that Gaussian, Inc. is engaged in the
 business of creating and licensing software in the field of
 computational chemistry and represents and warrants to the
 licensee that it is not a competitor of Gaussian, Inc. and that
 it will not use this program in any manner prohibited above.
 ---------------------------------------------------------------
  

 Cite this work as:
 Gaussian 09, Revision A.02,
 M. J. Frisch, G. W. Trucks, H. B. Schlegel, G. E. Scuseria, 
 M. A. Robb, J. R. Cheeseman, G. Scalmani, V. Barone, B. Mennucci, 
 G. A. Petersson, H. Nakatsuji, M. Caricato, X. Li, H. P. Hratchian, 
 A. F. Izmaylov, J. Bloino, G. Zheng, J. L. Sonnenberg, M. Hada, 
 M. Ehara, K. Toyota, R. Fukuda, J. Hasegawa, M. Ishida, T. Nakajima, 
 Y. Honda, O. Kitao, H. Nakai, T. Vreven, J. A. Montgomery, Jr., 
 J. E. Peralta, F. Ogliaro, M. Bearpark, J. J. Heyd, E. Brothers, 
 K. N. Kudin, V. N. Staroverov, R. Kobayashi, J. Normand, 
 K. Raghavachari, A. Rendell, J. C. Burant, S. S. Iyengar, J. Tomasi, 
 M. Cossi, N. Rega, J. M. Millam, M. Klene, J. E. Knox, J. B. Cross, 
 V. Bakken, C. Adamo, J. Jaramillo, R. Gomperts, R. E. Stratmann, 
 O. Yazyev, A. J. Austin, R. Cammi, C. Pomelli, J. W. Ochterski, 
 R. L. Martin, K. Morokuma, V. G. Zakrzewski, G. A. Voth, 
 P. Salvador, J. J. Dannenberg, S. Dapprich, A. D. Daniels, 
 O. Farkas, J. B. Foresman, J. V. Ortiz, J. Cioslowski, 
 and D. J. Fox, Gaussian, Inc., Wallingford CT, 2009.
 
 ******************************************
 Gaussian 09:  IA32W-G09RevA.02 11-Jun-2009
                07-Sep-2021 
 ******************************************
 %nprocshared=12
 Will use up to   12 processors via shared memory.
 ----------------------------------------------
 # opt freq=noraman hf/6-311g geom=connectivity
 ----------------------------------------------
 1/18=20,19=15,38=1,57=2/1,3;
 2/9=110,12=2,17=6,18=5,40=1/2;
 3/5=4,6=6,11=9,16=1,25=1,30=1,71=1/1,2,3;
 4//1;
 5/5=2,38=5/2;
 6/7=2,8=2,9=2,10=2,28=1/1;
 7//1,2,3,16;
 1/18=20,19=15/3(2);
 2/9=110/2;
 99//99;
 2/9=110/2;
 3/5=4,6=6,11=9,16=1,25=1,30=1,71=1/1,2,3;
 4/5=5,16=3/1;
 5/5=2,38=5/2;
 7//1,2,3,16;
 1/18=20,19=15/3(-5);
 2/9=110/2;
 6/7=2,8=2,9=2,10=2,19=2,28=1/1;
 99/9=1/99;
 -----
 M0001
 -----
 Symbolic Z-matrix:
 Charge =  0 Multiplicity = 1
 C                     0.1285   -0.75657   0.1628 
 H                     0.2825   -1.8455    0.38785 
 C                    -1.34158  -0.55596  -0.11145 
 C                    -2.07914  -1.61129  -0.65422 
 C                    -1.97831   0.65763   0.1524 
 C                    -3.4321   -1.45223  -0.92919 
 H                    -1.58933  -2.56825  -0.8682 
 C                    -3.33279   0.81245  -0.12197 
 H                    -1.40635   1.48586   0.589 
 C                    -4.06136  -0.24062  -0.66351 
 H                    -4.00262  -2.28351  -1.35606 
 H                    -3.82524   1.76685   0.09074 
 H                    -5.12741  -0.11743  -0.8795 
 C                     0.58191  -0.01984   1.3988 
 C                     0.06662  -0.42176   2.63622 
 C                     1.51103   1.0188    1.35771 
 C                     0.47266   0.20729   3.80567 
 H                    -0.6672   -1.23482   2.67908 
 C                     1.92227   1.64218   2.53174 
 H                     1.92446   1.34432   0.39436 
 C                     1.40436   1.2399    3.75644 
 H                     0.0591   -0.11114   4.7681 
 H                     2.65829   2.45156   2.48682 
 H                     1.72779   1.73204   4.67912 
 C                     0.94053  -0.42691  -1.06523 
 C                     0.72297   0.74509  -1.79275 
 C                     1.92819  -1.31889  -1.48959 
 C                     1.48289   1.02178  -2.92319 
 H                    -0.06003   1.44305  -1.46952 
 C                     2.68659  -1.03943  -2.62094 
 H                     2.10909  -2.24413  -0.92996 
 C                     2.46653   0.13084  -3.33887 
 H                     1.30414   1.94324  -3.48668 
 H                     3.45857  -1.74418  -2.94669 
 H                     3.06446   0.34956  -4.22932 
 

 GradGradGradGradGradGradGradGradGradGradGradGradGradGradGradGradGradGrad
 Berny optimization.
 Initialization pass.
                           ----------------------------
                           !    Initial Parameters    !
                           ! (Angstroms and Degrees)  !
 --------------------------                            --------------------------
 ! Name  Definition              Value          Derivative Info.                !
 --------------------------------------------------------------------------------
 ! R1    R(1,2)                  1.1226         estimate D2E/DX2                !
 ! R2    R(1,3)                  1.5088         estimate D2E/DX2                !
 ! R3    R(1,14)                 1.5087         estimate D2E/DX2                !
 ! R4    R(1,25)                 1.5087         estimate D2E/DX2                !
 ! R5    R(3,4)                  1.3972         estimate D2E/DX2                !
 ! R6    R(3,5)                  1.3957         estimate D2E/DX2                !
 ! R7    R(4,6)                  1.3898         estimate D2E/DX2                !
 ! R8    R(4,7)                  1.0961         estimate D2E/DX2                !
 ! R9    R(5,8)                  1.3906         estimate D2E/DX2                !
 ! R10   R(5,9)                  1.0971         estimate D2E/DX2                !
 ! R11   R(6,10)                 1.3909         estimate D2E/DX2                !
 ! R12   R(6,11)                 1.0949         estimate D2E/DX2                !
 ! R13   R(8,10)                 1.3903         estimate D2E/DX2                !
 ! R14   R(8,12)                 1.0948         estimate D2E/DX2                !
 ! R15   R(10,13)                1.0947         estimate D2E/DX2                !
 ! R16   R(14,15)                1.3994         estimate D2E/DX2                !
 ! R17   R(14,16)                1.3942         estimate D2E/DX2                !
 ! R18   R(15,17)                1.3886         estimate D2E/DX2                !
 ! R19   R(15,18)                1.0961         estimate D2E/DX2                !
 ! R20   R(16,19)                1.3914         estimate D2E/DX2                !
 ! R21   R(16,20)                1.0977         estimate D2E/DX2                !
 ! R22   R(17,21)                1.3917         estimate D2E/DX2                !
 ! R23   R(17,22)                1.0948         estimate D2E/DX2                !
 ! R24   R(19,21)                1.3892         estimate D2E/DX2                !
 ! R25   R(19,23)                1.0949         estimate D2E/DX2                !
 ! R26   R(21,24)                1.0946         estimate D2E/DX2                !
 ! R27   R(25,26)                1.3965         estimate D2E/DX2                !
 ! R28   R(25,27)                1.3968         estimate D2E/DX2                !
 ! R29   R(26,28)                1.3899         estimate D2E/DX2                !
 ! R30   R(26,29)                1.0976         estimate D2E/DX2                !
 ! R31   R(27,30)                1.3904         estimate D2E/DX2                !
 ! R32   R(27,31)                1.0963         estimate D2E/DX2                !
 ! R33   R(28,32)                1.3907         estimate D2E/DX2                !
 ! R34   R(28,33)                1.0948         estimate D2E/DX2                !
 ! R35   R(30,32)                1.3905         estimate D2E/DX2                !
 ! R36   R(30,34)                1.0949         estimate D2E/DX2                !
 ! R37   R(32,35)                1.0947         estimate D2E/DX2                !
 ! A1    A(2,1,3)              107.402          estimate D2E/DX2                !
 ! A2    A(2,1,14)             105.5593         estimate D2E/DX2                !
 ! A3    A(2,1,25)             107.5364         estimate D2E/DX2                !
 ! A4    A(3,1,14)             112.1361         estimate D2E/DX2                !
 ! A5    A(3,1,25)             110.3287         estimate D2E/DX2                !
 ! A6    A(14,1,25)            113.4779         estimate D2E/DX2                !
 ! A7    A(1,3,4)              118.9792         estimate D2E/DX2                !
 ! A8    A(1,3,5)              121.7189         estimate D2E/DX2                !
 ! A9    A(4,3,5)              119.2997         estimate D2E/DX2                !
 ! A10   A(3,4,6)              120.2853         estimate D2E/DX2                !
 ! A11   A(3,4,7)              119.9573         estimate D2E/DX2                !
 ! A12   A(6,4,7)              119.7569         estimate D2E/DX2                !
 ! A13   A(3,5,8)              120.2565         estimate D2E/DX2                !
 ! A14   A(3,5,9)              119.5917         estimate D2E/DX2                !
 ! A15   A(8,5,9)              120.1478         estimate D2E/DX2                !
 ! A16   A(4,6,10)             120.1555         estimate D2E/DX2                !
 ! A17   A(4,6,11)             119.8368         estimate D2E/DX2                !
 ! A18   A(10,6,11)            120.0076         estimate D2E/DX2                !
 ! A19   A(5,8,10)             120.1933         estimate D2E/DX2                !
 ! A20   A(5,8,12)             119.79           estimate D2E/DX2                !
 ! A21   A(10,8,12)            120.0166         estimate D2E/DX2                !
 ! A22   A(6,10,8)             119.8095         estimate D2E/DX2                !
 ! A23   A(6,10,13)            120.0626         estimate D2E/DX2                !
 ! A24   A(8,10,13)            120.1279         estimate D2E/DX2                !
 ! A25   A(1,14,15)            118.2633         estimate D2E/DX2                !
 ! A26   A(1,14,16)            122.6798         estimate D2E/DX2                !
 ! A27   A(15,14,16)           119.0408         estimate D2E/DX2                !
 ! A28   A(14,15,17)           120.4592         estimate D2E/DX2                !
 ! A29   A(14,15,18)           119.6136         estimate D2E/DX2                !
 ! A30   A(17,15,18)           119.9261         estimate D2E/DX2                !
 ! A31   A(14,16,19)           120.3884         estimate D2E/DX2                !
 ! A32   A(14,16,20)           119.8545         estimate D2E/DX2                !
 ! A33   A(19,16,20)           119.7565         estimate D2E/DX2                !
 ! A34   A(15,17,21)           120.1391         estimate D2E/DX2                !
 ! A35   A(15,17,22)           119.8753         estimate D2E/DX2                !
 ! A36   A(21,17,22)           119.9856         estimate D2E/DX2                !
 ! A37   A(16,19,21)           120.2594         estimate D2E/DX2                !
 ! A38   A(16,19,23)           119.6856         estimate D2E/DX2                !
 ! A39   A(21,19,23)           120.0549         estimate D2E/DX2                !
 ! A40   A(17,21,19)           119.7114         estimate D2E/DX2                !
 ! A41   A(17,21,24)           120.1058         estimate D2E/DX2                !
 ! A42   A(19,21,24)           120.1827         estimate D2E/DX2                !
 ! A43   A(1,25,26)            121.5731         estimate D2E/DX2                !
 ! A44   A(1,25,27)            119.2299         estimate D2E/DX2                !
 ! A45   A(26,25,27)           119.1959         estimate D2E/DX2                !
 ! A46   A(25,26,28)           120.371          estimate D2E/DX2                !
 ! A47   A(25,26,29)           119.4318         estimate D2E/DX2                !
 ! A48   A(28,26,29)           120.1951         estimate D2E/DX2                !
 ! A49   A(25,27,30)           120.2993         estimate D2E/DX2                !
 ! A50   A(25,27,31)           120.0332         estimate D2E/DX2                !
 ! A51   A(30,27,31)           119.6674         estimate D2E/DX2                !
 ! A52   A(26,28,32)           120.1491         estimate D2E/DX2                !
 ! A53   A(26,28,33)           119.7947         estimate D2E/DX2                !
 ! A54   A(32,28,33)           120.0561         estimate D2E/DX2                !
 ! A55   A(27,30,32)           120.1961         estimate D2E/DX2                !
 ! A56   A(27,30,34)           119.8216         estimate D2E/DX2                !
 ! A57   A(32,30,34)           119.9823         estimate D2E/DX2                !
 ! A58   A(28,32,30)           119.7883         estimate D2E/DX2                !
 ! A59   A(28,32,35)           120.0976         estimate D2E/DX2                !
 ! A60   A(30,32,35)           120.114          estimate D2E/DX2                !
 ! D1    D(2,1,3,4)            -29.397          estimate D2E/DX2                !
 ! D2    D(2,1,3,5)            151.1491         estimate D2E/DX2                !
 ! D3    D(14,1,3,4)          -144.9258         estimate D2E/DX2                !
 ! D4    D(14,1,3,5)            35.6202         estimate D2E/DX2                !
 ! D5    D(25,1,3,4)            87.53           estimate D2E/DX2                !
 ! D6    D(25,1,3,5)           -91.924          estimate D2E/DX2                !
 ! D7    D(2,1,14,15)          -51.1388         estimate D2E/DX2                !
 ! D8    D(2,1,14,16)          127.3847         estimate D2E/DX2                !
 ! D9    D(3,1,14,15)           65.5036         estimate D2E/DX2                !
 ! D10   D(3,1,14,16)         -115.9728         estimate D2E/DX2                !
 ! D11   D(25,1,14,15)        -168.6515         estimate D2E/DX2                !
 ! D12   D(25,1,14,16)           9.872          estimate D2E/DX2                !
 ! D13   D(2,1,25,26)          164.3219         estimate D2E/DX2                !
 ! D14   D(2,1,25,27)          -15.2867         estimate D2E/DX2                !
 ! D15   D(3,1,25,26)           47.4784         estimate D2E/DX2                !
 ! D16   D(3,1,25,27)         -132.1302         estimate D2E/DX2                !
 ! D17   D(14,1,25,26)         -79.3217         estimate D2E/DX2                !
 ! D18   D(14,1,25,27)         101.0698         estimate D2E/DX2                !
 ! D19   D(1,3,4,6)           -179.4015         estimate D2E/DX2                !
 ! D20   D(1,3,4,7)              0.3692         estimate D2E/DX2                !
 ! D21   D(5,3,4,6)              0.0659         estimate D2E/DX2                !
 ! D22   D(5,3,4,7)            179.8366         estimate D2E/DX2                !
 ! D23   D(1,3,5,8)            179.4936         estimate D2E/DX2                !
 ! D24   D(1,3,5,9)             -1.2284         estimate D2E/DX2                !
 ! D25   D(4,3,5,8)              0.0413         estimate D2E/DX2                !
 ! D26   D(4,3,5,9)            179.3193         estimate D2E/DX2                !
 ! D27   D(3,4,6,10)            -0.0973         estimate D2E/DX2                !
 ! D28   D(3,4,6,11)           179.896          estimate D2E/DX2                !
 ! D29   D(7,4,6,10)          -179.8685         estimate D2E/DX2                !
 ! D30   D(7,4,6,11)             0.1248         estimate D2E/DX2                !
 ! D31   D(3,5,8,10)            -0.1176         estimate D2E/DX2                !
 ! D32   D(3,5,8,12)           179.8217         estimate D2E/DX2                !
 ! D33   D(9,5,8,10)          -179.3916         estimate D2E/DX2                !
 ! D34   D(9,5,8,12)             0.5477         estimate D2E/DX2                !
 ! D35   D(4,6,10,8)             0.021          estimate D2E/DX2                !
 ! D36   D(4,6,10,13)         -179.9215         estimate D2E/DX2                !
 ! D37   D(11,6,10,8)         -179.9723         estimate D2E/DX2                !
 ! D38   D(11,6,10,13)           0.0852         estimate D2E/DX2                !
 ! D39   D(5,8,10,6)             0.0863         estimate D2E/DX2                !
 ! D40   D(5,8,10,13)         -179.9713         estimate D2E/DX2                !
 ! D41   D(12,8,10,6)         -179.8529         estimate D2E/DX2                !
 ! D42   D(12,8,10,13)           0.0896         estimate D2E/DX2                !
 ! D43   D(1,14,15,17)         178.7345         estimate D2E/DX2                !
 ! D44   D(1,14,15,18)          -1.6505         estimate D2E/DX2                !
 ! D45   D(16,14,15,17)          0.1559         estimate D2E/DX2                !
 ! D46   D(16,14,15,18)        179.7709         estimate D2E/DX2                !
 ! D47   D(1,14,16,19)        -178.2841         estimate D2E/DX2                !
 ! D48   D(1,14,16,20)           1.4413         estimate D2E/DX2                !
 ! D49   D(15,14,16,19)          0.2284         estimate D2E/DX2                !
 ! D50   D(15,14,16,20)        179.9538         estimate D2E/DX2                !
 ! D51   D(14,15,17,21)         -0.4013         estimate D2E/DX2                !
 ! D52   D(14,15,17,22)        179.6571         estimate D2E/DX2                !
 ! D53   D(18,15,17,21)        179.9849         estimate D2E/DX2                !
 ! D54   D(18,15,17,22)          0.0433         estimate D2E/DX2                !
 ! D55   D(14,16,19,21)         -0.3696         estimate D2E/DX2                !
 ! D56   D(14,16,19,23)        179.5337         estimate D2E/DX2                !
 ! D57   D(20,16,19,21)        179.9048         estimate D2E/DX2                !
 ! D58   D(20,16,19,23)         -0.192          estimate D2E/DX2                !
 ! D59   D(15,17,21,19)          0.2603         estimate D2E/DX2                !
 ! D60   D(15,17,21,24)       -179.6953         estimate D2E/DX2                !
 ! D61   D(22,17,21,19)       -179.7982         estimate D2E/DX2                !
 ! D62   D(22,17,21,24)          0.2462         estimate D2E/DX2                !
 ! D63   D(16,19,21,17)          0.1236         estimate D2E/DX2                !
 ! D64   D(16,19,21,24)       -179.9209         estimate D2E/DX2                !
 ! D65   D(23,19,21,17)       -179.7793         estimate D2E/DX2                !
 ! D66   D(23,19,21,24)          0.1763         estimate D2E/DX2                !
 ! D67   D(1,25,26,28)        -179.785          estimate D2E/DX2                !
 ! D68   D(1,25,26,29)          -0.3183         estimate D2E/DX2                !
 ! D69   D(27,25,26,28)         -0.1763         estimate D2E/DX2                !
 ! D70   D(27,25,26,29)        179.2904         estimate D2E/DX2                !
 ! D71   D(1,25,27,30)         179.7837         estimate D2E/DX2                !
 ! D72   D(1,25,27,31)          -0.2512         estimate D2E/DX2                !
 ! D73   D(26,25,27,30)          0.1657         estimate D2E/DX2                !
 ! D74   D(26,25,27,31)       -179.8692         estimate D2E/DX2                !
 ! D75   D(25,26,28,32)          0.0485         estimate D2E/DX2                !
 ! D76   D(25,26,28,33)        179.9795         estimate D2E/DX2                !
 ! D77   D(29,26,28,32)       -179.4141         estimate D2E/DX2                !
 ! D78   D(29,26,28,33)          0.5169         estimate D2E/DX2                !
 ! D79   D(25,27,30,32)         -0.0275         estimate D2E/DX2                !
 ! D80   D(25,27,30,34)       -179.9872         estimate D2E/DX2                !
 ! D81   D(31,27,30,32)       -179.9926         estimate D2E/DX2                !
 ! D82   D(31,27,30,34)          0.0476         estimate D2E/DX2                !
 ! D83   D(26,28,32,30)          0.0915         estimate D2E/DX2                !
 ! D84   D(26,28,32,35)        179.995          estimate D2E/DX2                !
 ! D85   D(33,28,32,30)       -179.8392         estimate D2E/DX2                !
 ! D86   D(33,28,32,35)          0.0642         estimate D2E/DX2                !
 ! D87   D(27,30,32,28)         -0.102          estimate D2E/DX2                !
 ! D88   D(27,30,32,35)        179.9945         estimate D2E/DX2                !
 ! D89   D(34,30,32,28)        179.8577         estimate D2E/DX2                !
 ! D90   D(34,30,32,35)         -0.0458         estimate D2E/DX2                !
 --------------------------------------------------------------------------------
 Trust Radius=3.00D-01 FncErr=1.00D-07 GrdErr=1.00D-07
 Number of steps in this run= 197 maximum allowed number of steps= 210.
 GradGradGradGradGradGradGradGradGradGradGradGradGradGradGradGradGradGrad

                          Input orientation:                          
 ---------------------------------------------------------------------
 Center     Atomic      Atomic             Coordinates (Angstroms)
 Number     Number       Type             X           Y           Z
 ---------------------------------------------------------------------
      1          6           0        0.128500   -0.756574    0.162801
      2          1           0        0.282497   -1.845502    0.387846
      3          6           0       -1.341583   -0.555964   -0.111454
      4          6           0       -2.079139   -1.611285   -0.654222
      5          6           0       -1.978309    0.657629    0.152395
      6          6           0       -3.432102   -1.452228   -0.929193
      7          1           0       -1.589333   -2.568253   -0.868196
      8          6           0       -3.332794    0.812453   -0.121968
      9          1           0       -1.406347    1.485859    0.588996
     10          6           0       -4.061365   -0.240624   -0.663513
     11          1           0       -4.002618   -2.283510   -1.356056
     12          1           0       -3.825236    1.766849    0.090743
     13          1           0       -5.127407   -0.117425   -0.879498
     14          6           0        0.581915   -0.019839    1.398804
     15          6           0        0.066619   -0.421756    2.636224
     16          6           0        1.511034    1.018796    1.357709
     17          6           0        0.472664    0.207288    3.805670
     18          1           0       -0.667196   -1.234818    2.679077
     19          6           0        1.922272    1.642180    2.531739
     20          1           0        1.924464    1.344324    0.394360
     21          6           0        1.404360    1.239900    3.756436
     22          1           0        0.059102   -0.111137    4.768098
     23          1           0        2.658287    2.451557    2.486818
     24          1           0        1.727786    1.732042    4.679116
     25          6           0        0.940529   -0.426908   -1.065229
     26          6           0        0.722975    0.745090   -1.792751
     27          6           0        1.928186   -1.318890   -1.489586
     28          6           0        1.482890    1.021785   -2.923190
     29          1           0       -0.060029    1.443052   -1.469516
     30          6           0        2.686592   -1.039428   -2.620944
     31          1           0        2.109087   -2.244126   -0.929960
     32          6           0        2.466534    0.130844   -3.338866
     33          1           0        1.304136    1.943243   -3.486681
     34          1           0        3.458567   -1.744183   -2.946687
     35          1           0        3.064464    0.349560   -4.229324
 ---------------------------------------------------------------------
                    Distance matrix (angstroms):
                    1          2          3          4          5
     1  C    0.000000
     2  H    1.122552   0.000000
     3  C    1.508842   2.133036   0.000000
     4  C    2.504342   2.591927   1.397244   0.000000
     5  C    2.537464   3.381175   1.395652   2.410140   0.000000
     6  C    3.788703   3.960744   2.417076   1.389754   2.781159
     7  H    2.701127   2.367225   2.164105   1.096122   3.405764
     8  C    3.810971   4.516078   2.416112   2.780189   1.390639
     9  H    2.750619   3.740404   2.159599   3.404489   1.097144
    10  C    4.301624   4.748697   2.793103   2.409983   2.410745
    11  H    4.658819   4.647069   3.408014   2.155047   3.876023
    12  H    4.690936   5.478213   3.406593   3.874999   2.155298
    13  H    5.396245   5.818889   3.887760   3.402103   3.403283
    14  C    1.508664   2.108253   2.503627   3.718713   2.926985
    15  C    2.496748   2.669992   3.090433   4.104423   3.393554
    16  C    2.547773   3.264068   3.574315   4.884111   3.709276
    17  C    3.783910   3.991445   4.383823   5.450647   4.422272
    18  H    2.682069   2.554328   2.950034   3.639532   3.418259
    19  C    3.818835   4.410109   4.740363   6.061903   4.673878
    20  H    2.773604   3.587630   3.812348   5.085665   3.970105
    21  C    4.304410   4.703794   5.072070   6.302216   4.977007
    22  H    4.650824   4.716411   5.096059   6.018644   5.103602
    23  H    4.700317   5.339923   5.638719   6.986846   5.492333
    24  H    5.398892   5.770848   6.132337   7.356291   5.948168
    25  C    1.508684   2.134675   2.476767   3.269567   3.343418
    26  C    2.536253   3.414702   2.963427   3.834136   3.329891
    27  C    2.507080   2.551541   3.629420   4.103899   4.675835
    28  C    3.810548   4.541502   4.286350   4.976879   4.644538
    29  H    2.745607   3.792321   2.735466   3.751065   2.631973
    30  C    3.791184   3.934748   4.770479   5.187216   5.686186
    31  H    2.707334   2.287344   3.927717   4.244733   5.128204
    32  C    4.302974   4.750194   5.038814   5.559270   5.676534
    33  H    4.689334   5.514553   4.963670   5.666044   5.066569
    34  H    4.661935   4.606170   5.700163   5.994936   6.703181
    35  H    5.397609   5.820300   6.098367   6.563758   6.687595
                    6          7          8          9         10
     6  C    0.000000
     7  H    2.155233   0.000000
     8  C    2.406294   3.876298   0.000000
     9  H    3.878265   4.311928   2.161053   0.000000
    10  C    1.390878   3.401572   1.390344   3.405679   0.000000
    11  H    1.094865   2.478514   3.399503   4.973127   2.157880
    12  H    3.399600   4.971110   1.094814   2.485606   2.157454
    13  H    2.158293   4.304028   2.158509   4.309674   1.094657
    14  C    4.856299   4.043268   4.281402   2.622232   5.085464
    15  C    5.100502   4.430641   4.548286   3.162241   5.287846
    16  C    5.980842   5.237733   5.068993   3.052896   6.059959
    17  C    6.357682   5.813819   5.502189   3.938581   6.382135
    18  H    4.550998   3.900196   4.375224   3.509539   4.866386
    19  C    7.086799   6.451253   5.945278   3.857251   7.039779
    20  H    6.185895   5.408241   5.309260   3.339493   6.281823
    21  C    7.252175   6.697122   6.137211   4.241844   7.183457
    22  H    6.815142   6.365734   6.022519   4.707742   6.818901
    23  H    8.000094   7.382200   6.736875   4.588632   7.894691
    24  H    8.259368   7.763278   7.036017   5.158728   8.120922
    25  C    4.493293   3.320298   4.548301   3.450067   5.021456
    26  C    4.778975   4.144854   4.386948   3.279553   5.013653
    27  C    5.391150   3.784174   5.838742   4.827652   6.141642
    28  C    5.852684   5.152662   5.575077   4.571489   6.118708
    29  H    4.477217   4.334850   3.595071   2.460056   4.415325
    30  C    6.361669   4.867542   6.775496   5.782122   7.071389
    31  H    5.597488   3.713109   6.293615   5.345866   6.493034
    32  C    6.565558   5.462545   6.666726   5.680086   7.064628
    33  H    6.364112   5.965084   5.839615   4.916000   6.444234
    34  H    7.185878   5.520916   7.787041   6.826538   8.001435
    35  H    7.506175   6.439615   7.616400   6.670497   7.990042
                   11         12         13         14         15
    11  H    0.000000
    12  H    4.304660   0.000000
    13  H    2.486801   2.487470   0.000000
    14  C    5.807874   4.932165   6.147889   0.000000
    15  C    5.996925   5.139650   6.279397   1.399384   0.000000
    16  C    6.976396   5.535392   7.096830   1.394172   2.407515
    17  C    7.271564   5.891083   7.308697   2.420027   1.388588
    18  H    5.339203   5.067809   5.814251   2.162302   1.096079
    19  C    8.101253   6.245626   8.026875   2.417107   2.777444
    20  H    7.166270   5.773193   7.313571   2.161547   3.405375
    21  C    8.233310   6.408093   8.123928   2.796746   2.409466
    22  H    7.663030   6.363377   7.667807   3.410837   2.154397
    23  H    9.030846   6.945939   8.862775   3.406302   3.872337
    24  H    9.240427   7.203501   9.017339   3.891344   3.401725
    25  C    5.288312   5.372276   6.078661   2.523047   3.803222
    26  C    5.629773   5.027699   5.983722   3.284971   4.626894
    27  C    6.010221   6.717223   7.183114   3.441333   4.614389
    28  C    6.593305   6.149400   7.012168   4.536118   5.915803
    29  H    5.426246   4.088525   5.334935   3.283199   4.511169
    30  C    6.920492   7.591597   8.058617   4.650548   5.906233
    31  H    6.126667   7.235049   7.542695   3.564105   4.495595
    32  C    7.184050   7.350177   7.986118   5.100981   6.462713
    33  H    7.111022   6.256160   7.239372   5.314438   6.679419
    34  H    7.647893   8.637541   8.979898   5.489243   6.665060
    35  H    8.070463   8.254675   8.862627   6.162413   7.531119
                   16         17         18         19         20
    16  C    0.000000
    17  C    2.780157   0.000000
    18  H    3.401393   2.155960   0.000000
    19  C    1.391427   2.404824   3.873521   0.000000
    20  H    1.097694   3.877836   4.311450   2.158033   0.000000
    21  C    2.411257   1.391678   3.402392   1.389225   3.403670
    22  H    3.874998   1.094849   2.480761   3.398062   4.972677
    23  H    2.154966   3.398979   4.968416   1.094909   2.478475
    24  H    3.404034   2.159424   4.305619   2.158039   4.306755
    25  C    2.878569   4.934244   4.154193   4.264167   2.497157
    26  C    3.259041   5.629761   5.084275   4.576493   2.566342
    27  C    3.707543   5.699781   4.911296   4.993898   3.262204
    28  C    4.280993   6.852848   6.410969   5.507649   3.362315
    29  H    3.262120   5.444122   4.974983   4.469810   2.724333
    30  C    4.631187   6.910654   6.275053   5.858783   3.918567
    31  H    4.029610   5.577948   4.663861   5.207843   3.829475
    32  C    4.874346   7.417935   6.921050   6.086407   3.962745
    33  H    4.936144   7.542100   7.211296   6.057566   3.975675
    34  H    5.473095   7.636635   6.995041   6.621239   4.801557
    35  H    5.837462   8.443862   8.010090   6.977638   4.864937
                   21         22         23         24         25
    21  C    0.000000
    22  H    2.158351   0.000000
    23  H    2.156937   4.304346   0.000000
    24  H    1.094599   2.487917   2.487911   0.000000
    25  C    5.122679   5.907988   4.883983   6.186949   0.000000
    26  C    5.612718   6.649706   4.997216   6.623351   1.396495
    27  C    5.860251   6.641592   5.528210   6.884855   1.396845
    28  C    6.683648   7.903582   5.717867   7.639339   2.417620
    29  H    5.431048   6.429426   4.904987   6.409795   2.159007
    30  C    6.892781   7.897048   6.186841   7.867098   2.417471
    31  H    5.881954   6.420276   5.833132   6.886003   2.164741
    32  C    7.259582   8.460327   6.273840   8.209605   2.794496
    33  H    7.277876   8.597207   6.146121   8.179507   3.407823
    34  H    7.619474   8.587264   6.911415   8.557606   3.408169
    35  H    8.204939   9.497265   7.049109   9.113631   3.889152
                   26         27         28         29         30
    26  C    0.000000
    27  C    2.409244   0.000000
    28  C    1.389937   2.780695   0.000000
    29  H    1.097600   3.403193   2.161304   0.000000
    30  C    2.779604   1.390413   2.406003   3.877166   0.000000
    31  H    3.406043   1.096343   3.877017   4.311782   2.155049
    32  C    2.409931   2.410681   1.390725   3.405860   1.390458
    33  H    2.154697   3.875479   1.094788   2.485979   3.399561
    34  H    3.874470   2.155478   3.399181   4.972024   1.094867
    35  H    3.402338   3.403089   2.158529   4.309840   2.158463
                   31         32         33         34         35
    31  H    0.000000
    32  C    3.401629   0.000000
    33  H    4.971803   2.158196   0.000000
    34  H    2.477545   2.157234   4.304681   0.000000
    35  H    4.304155   1.094656   2.487991   2.486812   0.000000
 Stoichiometry    C19H16
 Framework group  C1[X(C19H16)]
 Deg. of freedom    99
 Full point group                 C1      NOp   1
 Largest Abelian subgroup         C1      NOp   1
 Largest concise Abelian subgroup C1      NOp   1
                         Standard orientation:                         
 ---------------------------------------------------------------------
 Center     Atomic      Atomic             Coordinates (Angstroms)
 Number     Number       Type             X           Y           Z
 ---------------------------------------------------------------------
      1          6           0       -0.007965   -0.015352   -0.769371
      2          1           0       -0.019083   -0.007816   -1.891842
      3          6           0       -0.158780    1.412958   -0.307000
      4          6           0        0.325587    2.441977   -1.118665
      5          6           0       -0.758245    1.729911    0.912848
      6          6           0        0.212151    3.766540   -0.713597
      7          1           0        0.800741    2.205129   -2.077630
      8          6           0       -0.872021    3.056591    1.313913
      9          1           0       -1.150311    0.926444    1.548812
     10          6           0       -0.386822    4.076325    0.502876
     11          1           0        0.595762    4.566962   -1.354609
     12          1           0       -1.346271    3.296732    2.271011
     13          1           0       -0.476524    5.120239    0.819849
     14          6           0       -1.179632   -0.872502   -0.358813
     15          6           0       -2.433604   -0.589584   -0.911795
     16          6           0       -1.054760   -1.946683    0.521104
     17          6           0       -3.537936   -1.365778   -0.585991
     18          1           0       -2.543233    0.255032   -1.601719
     19          6           0       -2.161264   -2.727817    0.839773
     20          1           0       -0.077233   -2.181039    0.962069
     21          6           0       -3.403726   -2.439403    0.289272
     22          1           0       -4.515686   -1.132431   -1.019869
     23          1           0       -2.048538   -3.573358    1.526198
     24          1           0       -4.273610   -3.053943    0.541837
     25          6           0        1.325063   -0.569962   -0.331681
     26          6           0        1.786470   -0.416814    0.977459
     27          6           0        2.120601   -1.245838   -1.259845
     28          6           0        3.020812   -0.934127    1.352572
     29          1           0        1.169738    0.123794    1.706919
     30          6           0        3.355011   -1.762024   -0.881650
     31          1           0        1.772761   -1.372086   -2.291851
     32          6           0        3.806868   -1.608371    0.424332
     33          1           0        3.373463   -0.808322    2.381343
     34          1           0        3.972287   -2.290241   -1.615607
     35          1           0        4.778886   -2.015375    0.720647
 ---------------------------------------------------------------------
 Rotational constants (GHZ):      0.4004556      0.3868341      0.2328768
 Standard basis: 6-311G (5D, 7F)
 There are   295 symmetry adapted basis functions of A   symmetry.
 Integral buffers will be    262144 words long.
 Raffenetti 1 integral format.
 Two-electron integral symmetry is turned on.
   295 basis functions,   574 primitive gaussians,   295 cartesian basis functions
    65 alpha electrons       65 beta electrons
       nuclear repulsion energy      1290.8358302715 Hartrees.
 NAtoms=   35 NActive=   35 NUniq=   35 SFac= 7.50D-01 NAtFMM=   80 NAOKFM=F Big=F
 One-electron integrals computed using PRISM.
 PrsmSu:  requested number of processors reduced to:  10 ShMem   1 Linda.
 NBasis=   295 RedAO= T  NBF=   295
 NBsUse=   295 1.00D-06 NBFU=   295
 Harris functional with IExCor=  205 diagonalized for initial guess.
 ExpMin= 1.03D-01 ExpMax= 4.56D+03 ExpMxC= 6.82D+02 IAcc=1 IRadAn=         1 AccDes= 0.00D+00
 HarFok:  IExCor=  205 AccDes= 0.00D+00 IRadAn=         1 IDoV= 1
 ScaDFX=  1.000000  1.000000  1.000000  1.000000
 FoFCou: FMM=F IPFlag=           0 FMFlag=      100000 FMFlg1=           0
         NFxFlg=           0 DoJE=T BraDBF=F KetDBF=T FulRan=T
         Omega=  0.000000  0.000000  1.000000  0.000000  0.000000 ICntrl=     500 IOpCl=  0
         NMat0=    1 NMatS0=    1 NMatT0=    0 NMatD0=    1 NMtDS0=    0 NMtDT0=    0
         I1Cent=           4 NGrid=           0.
 Petite list used in FoFCou.
 Initial guess orbital symmetries:
       Occupied  (A) (A) (A) (A) (A) (A) (A) (A) (A) (A) (A) (A)
                 (A) (A) (A) (A) (A) (A) (A) (A) (A) (A) (A) (A)
                 (A) (A) (A) (A) (A) (A) (A) (A) (A) (A) (A) (A)
                 (A) (A) (A) (A) (A) (A) (A) (A) (A) (A) (A) (A)
                 (A) (A) (A) (A) (A) (A) (A) (A) (A) (A) (A) (A)
                 (A) (A) (A) (A) (A)
       Virtual   (A) (A) (A) (A) (A) (A) (A) (A) (A) (A) (A) (A)
                 (A) (A) (A) (A) (A) (A) (A) (A) (A) (A) (A) (A)
                 (A) (A) (A) (A) (A) (A) (A) (A) (A) (A) (A) (A)
                 (A) (A) (A) (A) (A) (A) (A) (A) (A) (A) (A) (A)
                 (A) (A) (A) (A) (A) (A) (A) (A) (A) (A) (A) (A)
                 (A) (A) (A) (A) (A) (A) (A) (A) (A) (A) (A) (A)
                 (A) (A) (A) (A) (A) (A) (A) (A) (A) (A) (A) (A)
                 (A) (A) (A) (A) (A) (A) (A) (A) (A) (A) (A) (A)
                 (A) (A) (A) (A) (A) (A) (A) (A) (A) (A) (A) (A)
                 (A) (A) (A) (A) (A) (A) (A) (A) (A) (A) (A) (A)
                 (A) (A) (A) (A) (A) (A) (A) (A) (A) (A) (A) (A)
                 (A) (A) (A) (A) (A) (A) (A) (A) (A) (A) (A) (A)
                 (A) (A) (A) (A) (A) (A) (A) (A) (A) (A) (A) (A)
                 (A) (A) (A) (A) (A) (A) (A) (A) (A) (A) (A) (A)
                 (A) (A) (A) (A) (A) (A) (A) (A) (A) (A) (A) (A)
                 (A) (A) (A) (A) (A) (A) (A) (A) (A) (A) (A) (A)
                 (A) (A) (A) (A) (A) (A) (A) (A) (A) (A) (A) (A)
                 (A) (A) (A) (A) (A) (A) (A) (A) (A) (A) (A) (A)
                 (A) (A) (A) (A) (A) (A) (A) (A) (A) (A) (A) (A)
                 (A) (A)
 The electronic state of the initial guess is 1-A.
 Requested convergence on RMS density matrix=1.00D-08 within 128 cycles.
 Requested convergence on MAX density matrix=1.00D-06.
 Requested convergence on             energy=1.00D-06.
 No special actions if energy rises.
 Integral accuracy reduced to 1.0D-05 until final iterations.
 Initial convergence to 1.0D-05 achieved.  Increase integral accuracy.
 SCF Done:  E(RHF) =  -728.678779395     A.U. after   14 cycles
             Convg  =    0.7161D-08             -V/T =  2.0001

 **********************************************************************

            Population analysis using the SCF density.

 **********************************************************************

 Orbital symmetries:
       Occupied  (A) (A) (A) (A) (A) (A) (A) (A) (A) (A) (A) (A)
                 (A) (A) (A) (A) (A) (A) (A) (A) (A) (A) (A) (A)
                 (A) (A) (A) (A) (A) (A) (A) (A) (A) (A) (A) (A)
                 (A) (A) (A) (A) (A) (A) (A) (A) (A) (A) (A) (A)
                 (A) (A) (A) (A) (A) (A) (A) (A) (A) (A) (A) (A)
                 (A) (A) (A) (A) (A)
       Virtual   (A) (A) (A) (A) (A) (A) (A) (A) (A) (A) (A) (A)
                 (A) (A) (A) (A) (A) (A) (A) (A) (A) (A) (A) (A)
                 (A) (A) (A) (A) (A) (A) (A) (A) (A) (A) (A) (A)
                 (A) (A) (A) (A) (A) (A) (A) (A) (A) (A) (A) (A)
                 (A) (A) (A) (A) (A) (A) (A) (A) (A) (A) (A) (A)
                 (A) (A) (A) (A) (A) (A) (A) (A) (A) (A) (A) (A)
                 (A) (A) (A) (A) (A) (A) (A) (A) (A) (A) (A) (A)
                 (A) (A) (A) (A) (A) (A) (A) (A) (A) (A) (A) (A)
                 (A) (A) (A) (A) (A) (A) (A) (A) (A) (A) (A) (A)
                 (A) (A) (A) (A) (A) (A) (A) (A) (A) (A) (A) (A)
                 (A) (A) (A) (A) (A) (A) (A) (A) (A) (A) (A) (A)
                 (A) (A) (A) (A) (A) (A) (A) (A) (A) (A) (A) (A)
                 (A) (A) (A) (A) (A) (A) (A) (A) (A) (A) (A) (A)
                 (A) (A) (A) (A) (A) (A) (A) (A) (A) (A) (A) (A)
                 (A) (A) (A) (A) (A) (A) (A) (A) (A) (A) (A) (A)
                 (A) (A) (A) (A) (A) (A) (A) (A) (A) (A) (A) (A)
                 (A) (A) (A) (A) (A) (A) (A) (A) (A) (A) (A) (A)
                 (A) (A) (A) (A) (A) (A) (A) (A) (A) (A) (A) (A)
                 (A) (A) (A) (A) (A) (A) (A) (A) (A) (A) (A) (A)
                 (A) (A)
 The electronic state is 1-A.
 Alpha  occ. eigenvalues --  -11.25706 -11.25132 -11.25061 -11.24976 -11.24414
 Alpha  occ. eigenvalues --  -11.24378 -11.24290 -11.24267 -11.24198 -11.24152
 Alpha  occ. eigenvalues --  -11.24114 -11.24090 -11.23991 -11.23956 -11.23940
 Alpha  occ. eigenvalues --  -11.23882 -11.23852 -11.23846 -11.23620  -1.18575
 Alpha  occ. eigenvalues --   -1.15776  -1.15637  -1.09011  -1.02224  -1.02122
 Alpha  occ. eigenvalues --   -1.01983  -1.01400  -1.01201  -0.92868  -0.83854
 Alpha  occ. eigenvalues --   -0.83381  -0.82819  -0.81564  -0.81237  -0.77452
 Alpha  occ. eigenvalues --   -0.70722  -0.70550  -0.68729  -0.65460  -0.64027
 Alpha  occ. eigenvalues --   -0.63692  -0.62136  -0.61875  -0.61486  -0.59151
 Alpha  occ. eigenvalues --   -0.58802  -0.58644  -0.58312  -0.57432  -0.54793
 Alpha  occ. eigenvalues --   -0.51268  -0.50821  -0.50390  -0.49718  -0.49296
 Alpha  occ. eigenvalues --   -0.48982  -0.47637  -0.47234  -0.46815  -0.34761
 Alpha  occ. eigenvalues --   -0.34303  -0.34125  -0.33248  -0.32896  -0.31266
 Alpha virt. eigenvalues --    0.11803   0.12223   0.12666   0.13829   0.14646
 Alpha virt. eigenvalues --    0.15001   0.15350   0.16267   0.16387   0.17294
 Alpha virt. eigenvalues --    0.18996   0.19084   0.19228   0.21057   0.21332
 Alpha virt. eigenvalues --    0.21558   0.23486   0.23849   0.24422   0.25522
 Alpha virt. eigenvalues --    0.27000   0.27966   0.33577   0.33986   0.35197
 Alpha virt. eigenvalues --    0.38266   0.39744   0.40970   0.41571   0.43425
 Alpha virt. eigenvalues --    0.43895   0.44102   0.44667   0.45087   0.45587
 Alpha virt. eigenvalues --    0.45826   0.46033   0.47170   0.48824   0.49222
 Alpha virt. eigenvalues --    0.51016   0.51302   0.51498   0.55003   0.56114
 Alpha virt. eigenvalues --    0.57131   0.58441   0.58484   0.59078   0.59673
 Alpha virt. eigenvalues --    0.59918   0.60255   0.61336   0.61416   0.61536
 Alpha virt. eigenvalues --    0.61724   0.62274   0.62483   0.63356   0.63798
 Alpha virt. eigenvalues --    0.64194   0.64898   0.65472   0.65740   0.66675
 Alpha virt. eigenvalues --    0.67683   0.67796   0.69014   0.71200   0.71460
 Alpha virt. eigenvalues --    0.73005   0.73149   0.74077   0.74573   0.75935
 Alpha virt. eigenvalues --    0.76691   0.78013   0.79456   0.80570   0.81275
 Alpha virt. eigenvalues --    0.81798   0.82086   0.82941   0.83046   0.83180
 Alpha virt. eigenvalues --    0.83831   0.84345   0.84509   0.85084   0.85722
 Alpha virt. eigenvalues --    0.85802   0.86079   0.86850   0.87576   0.87903
 Alpha virt. eigenvalues --    0.89714   0.90966   0.91117   0.92663   0.92891
 Alpha virt. eigenvalues --    0.95319   0.96550   0.97485   0.98143   0.99074
 Alpha virt. eigenvalues --    0.99342   1.01842   1.02764   1.04613   1.06369
 Alpha virt. eigenvalues --    1.06700   1.07020   1.09022   1.09317   1.10371
 Alpha virt. eigenvalues --    1.11275   1.12362   1.12669   1.13724   1.14213
 Alpha virt. eigenvalues --    1.14762   1.16234   1.18912   1.19687   1.22394
 Alpha virt. eigenvalues --    1.25433   1.26177   1.27406   1.28355   1.29224
 Alpha virt. eigenvalues --    1.30665   1.32662   1.42103   1.45642   1.47770
 Alpha virt. eigenvalues --    1.51989   1.52175   1.57047   2.55578   2.55924
 Alpha virt. eigenvalues --    2.56751   2.61093   2.61808   2.62027   2.65697
 Alpha virt. eigenvalues --    2.67471   2.68587   2.68809   2.70814   2.71969
 Alpha virt. eigenvalues --    2.76961   2.84588   2.86573   2.88260   2.94442
 Alpha virt. eigenvalues --    2.94859   2.94966   2.96713   2.97608   2.98154
 Alpha virt. eigenvalues --    3.01695   3.02531   3.03860   3.05741   3.06789
 Alpha virt. eigenvalues --    3.07947   3.08420   3.09319   3.09835   3.13497
 Alpha virt. eigenvalues --    3.15596   3.16402   3.17389   3.18793   3.20188
 Alpha virt. eigenvalues --    3.22511   3.24058   3.25934   3.27349   3.28251
 Alpha virt. eigenvalues --    3.29609   3.33959   3.34270   3.35500   3.40598
 Alpha virt. eigenvalues --    3.42197   3.43526   3.48115   3.50750   3.51774
 Alpha virt. eigenvalues --    3.54072   3.55440   3.56969   3.58052   3.60517
 Alpha virt. eigenvalues --    3.62845   3.64325   3.64865   3.65901   3.66307
 Alpha virt. eigenvalues --    3.68982   3.70013   3.70899   3.72833   3.73788
 Alpha virt. eigenvalues --    3.75682   3.76734   3.82427   3.86878   3.87061
 Alpha virt. eigenvalues --    3.90852  24.26306  24.30900  24.32162  24.50466
 Alpha virt. eigenvalues --   24.50628  24.51276  24.54468  24.55335  24.56370
 Alpha virt. eigenvalues --   24.77142  24.77723  24.79023  24.80123  24.80968
 Alpha virt. eigenvalues --   24.81831  24.86242  25.05297  25.05749  25.06525
          Condensed to atoms (all electrons):
              1          2          3          4          5          6
     1  C    6.033311   0.490535   0.139067  -0.054164  -0.038527   0.006761
     2  H    0.490535   0.510104  -0.066617  -0.004006   0.006280   0.001367
     3  C    0.139067  -0.066617   5.368086   0.456026   0.478796  -0.061878
     4  C   -0.054164  -0.004006   0.456026   5.093282  -0.079247   0.458316
     5  C   -0.038527   0.006280   0.478796  -0.079247   5.116237  -0.027043
     6  C    0.006761   0.001367  -0.061878   0.458316  -0.027043   5.057357
     7  H    0.001013   0.001035  -0.052578   0.402543   0.004173  -0.035928
     8  C    0.005051  -0.000272  -0.064086  -0.029296   0.465905  -0.077295
     9  H   -0.002924   0.000097  -0.043440   0.003990   0.396663  -0.000202
    10  C    0.001018  -0.000006  -0.018500  -0.086136  -0.091696   0.488685
    11  H   -0.000346  -0.000026   0.006615  -0.039468  -0.000541   0.397317
    12  H   -0.000335   0.000013   0.006090  -0.000452  -0.038366   0.006009
    13  H   -0.000013  -0.000001  -0.001477   0.007378   0.007635  -0.042681
    14  C    0.045690  -0.071331  -0.067167   0.008476  -0.024341  -0.000829
    15  C   -0.086265  -0.002749  -0.002064   0.002057  -0.011228  -0.000036
    16  C   -0.030361   0.002600  -0.001004  -0.000411   0.000641   0.000016
    17  C    0.008046   0.001161  -0.001012  -0.000006   0.000029   0.000004
    18  H   -0.000261   0.000117   0.003260   0.000759   0.000308  -0.000011
    19  C    0.010378  -0.000244  -0.000461   0.000011  -0.000003   0.000000
    20  H   -0.009384  -0.000277   0.000250  -0.000002   0.000122   0.000001
    21  C    0.000741  -0.000008   0.000047   0.000000   0.000150   0.000000
    22  H   -0.000374  -0.000009   0.000023  -0.000002   0.000013   0.000000
    23  H   -0.000351   0.000017   0.000006   0.000000  -0.000001   0.000000
    24  H   -0.000020  -0.000001   0.000001   0.000000  -0.000001   0.000000
    25  C    0.112005  -0.083284  -0.116985   0.001584  -0.012117  -0.000637
    26  C   -0.056770   0.004819  -0.012158   0.000241  -0.003839   0.000332
    27  C   -0.040636   0.004140   0.000035   0.001457  -0.000134  -0.000015
    28  C    0.002628  -0.000169   0.000811  -0.000082   0.000004  -0.000002
    29  H    0.000352  -0.000110  -0.001788  -0.000168   0.002961  -0.000197
    30  C    0.008148   0.001564  -0.000711  -0.000045   0.000036   0.000004
    31  H   -0.001500   0.002032   0.000250   0.000125  -0.000035  -0.000002
    32  C    0.001586  -0.000010   0.000068  -0.000012  -0.000010   0.000000
    33  H   -0.000376   0.000013   0.000027   0.000006   0.000011   0.000001
    34  H   -0.000406  -0.000029   0.000013   0.000001   0.000000   0.000000
    35  H   -0.000022  -0.000002  -0.000001   0.000000   0.000000   0.000000
              7          8          9         10         11         12
     1  C    0.001013   0.005051  -0.002924   0.001018  -0.000346  -0.000335
     2  H    0.001035  -0.000272   0.000097  -0.000006  -0.000026   0.000013
     3  C   -0.052578  -0.064086  -0.043440  -0.018500   0.006615   0.006090
     4  C    0.402543  -0.029296   0.003990  -0.086136  -0.039468  -0.000452
     5  C    0.004173   0.465905   0.396663  -0.091696  -0.000541  -0.038366
     6  C   -0.035928  -0.077295  -0.000202   0.488685   0.397317   0.006009
     7  H    0.508476  -0.000404  -0.000248   0.005452  -0.004293   0.000022
     8  C   -0.000404   5.056982  -0.031845   0.495094   0.006064   0.396864
     9  H   -0.000248  -0.031845   0.479829   0.004718   0.000020  -0.003485
    10  C    0.005452   0.495094   0.004718   5.035910  -0.040600  -0.040323
    11  H   -0.004293   0.006064   0.000020  -0.040600   0.517964  -0.000211
    12  H    0.000022   0.396864  -0.003485  -0.040323  -0.000211   0.515687
    13  H   -0.000180  -0.042420  -0.000173   0.399631  -0.004492  -0.004455
    14  C    0.000538  -0.001404   0.002106   0.000144   0.000010   0.000021
    15  C    0.000077  -0.000734  -0.001001   0.000032   0.000000   0.000022
    16  C   -0.000029   0.000003   0.001022  -0.000003   0.000000  -0.000004
    17  C    0.000001  -0.000020  -0.000276   0.000001   0.000000   0.000003
    18  H    0.000028  -0.000112   0.000039  -0.000051  -0.000001   0.000001
    19  C    0.000000   0.000010   0.000206   0.000000   0.000000   0.000000
    20  H    0.000002  -0.000004   0.000055   0.000000   0.000000   0.000000
    21  C    0.000000   0.000004  -0.000037   0.000000   0.000000  -0.000001
    22  H    0.000000   0.000001   0.000009   0.000000   0.000000   0.000000
    23  H    0.000000   0.000000   0.000011   0.000000   0.000000   0.000000
    24  H    0.000000   0.000000   0.000004   0.000000   0.000000   0.000000
    25  C    0.001100   0.000818  -0.001064   0.000039   0.000023   0.000003
    26  C    0.000102  -0.001163   0.000922   0.000078   0.000003   0.000018
    27  C    0.000645   0.000024  -0.000031  -0.000003   0.000000   0.000000
    28  C   -0.000008  -0.000035   0.000052   0.000004   0.000000   0.000001
    29  H   -0.000027   0.000678   0.001277   0.000030   0.000001  -0.000027
    30  C    0.000004   0.000000   0.000003   0.000000   0.000000   0.000000
    31  H    0.000065   0.000001  -0.000002   0.000000   0.000000   0.000000
    32  C   -0.000012   0.000000   0.000001   0.000000   0.000000   0.000000
    33  H    0.000000   0.000000  -0.000006  -0.000001   0.000000   0.000000
    34  H   -0.000001   0.000000   0.000000   0.000000   0.000000   0.000000
    35  H    0.000000   0.000000   0.000000   0.000000   0.000000   0.000000
             13         14         15         16         17         18
     1  C   -0.000013   0.045690  -0.086265  -0.030361   0.008046  -0.000261
     2  H   -0.000001  -0.071331  -0.002749   0.002600   0.001161   0.000117
     3  C   -0.001477  -0.067167  -0.002064  -0.001004  -0.001012   0.003260
     4  C    0.007378   0.008476   0.002057  -0.000411  -0.000006   0.000759
     5  C    0.007635  -0.024341  -0.011228   0.000641   0.000029   0.000308
     6  C   -0.042681  -0.000829  -0.000036   0.000016   0.000004  -0.000011
     7  H   -0.000180   0.000538   0.000077  -0.000029   0.000001   0.000028
     8  C   -0.042420  -0.001404  -0.000734   0.000003  -0.000020  -0.000112
     9  H   -0.000173   0.002106  -0.001001   0.001022  -0.000276   0.000039
    10  C    0.399631   0.000144   0.000032  -0.000003   0.000001  -0.000051
    11  H   -0.004492   0.000010   0.000000   0.000000   0.000000  -0.000001
    12  H   -0.004455   0.000021   0.000022  -0.000004   0.000003   0.000001
    13  H    0.517729   0.000001   0.000001   0.000000   0.000000   0.000000
    14  C    0.000001   5.372051   0.472212   0.506528  -0.061034  -0.048581
    15  C    0.000001   0.472212   5.096504  -0.073376   0.462987   0.401811
    16  C    0.000000   0.506528  -0.073376   5.079549  -0.030400   0.004330
    17  C    0.000000  -0.061034   0.462987  -0.030400   5.063909  -0.036377
    18  H    0.000000  -0.048581   0.401811   0.004330  -0.036377   0.500387
    19  C    0.000000  -0.071163  -0.034301   0.453343  -0.074282  -0.000482
    20  H    0.000000  -0.035136   0.004797   0.393001  -0.000353  -0.000214
    21  C    0.000000  -0.017159  -0.085683  -0.093313   0.481450   0.005320
    22  H    0.000000   0.006213  -0.039116  -0.000449   0.397134  -0.004153
    23  H    0.000000   0.006217  -0.000386  -0.036276   0.005945   0.000020
    24  H    0.000000  -0.001553   0.007477   0.007859  -0.043474  -0.000171
    25  C   -0.000001  -0.060966   0.011035  -0.016743  -0.000905   0.000739
    26  C    0.000000   0.000671   0.000141  -0.011169   0.000006  -0.000025
    27  C    0.000000  -0.001591   0.000097  -0.000991  -0.000002  -0.000009
    28  C    0.000000   0.000717   0.000014  -0.000957   0.000000   0.000000
    29  H    0.000000   0.000865   0.000135   0.000519  -0.000004   0.000005
    30  C    0.000000  -0.000741   0.000006   0.000484   0.000000   0.000001
    31  H    0.000000   0.000699  -0.000007   0.000312  -0.000006  -0.000006
    32  C    0.000000  -0.000026   0.000000   0.000059   0.000000   0.000000
    33  H    0.000000   0.000008  -0.000001   0.000013   0.000000   0.000000
    34  H    0.000000   0.000029   0.000000  -0.000003   0.000000   0.000000
    35  H    0.000000   0.000001   0.000000  -0.000004   0.000000   0.000000
             19         20         21         22         23         24
     1  C    0.010378  -0.009384   0.000741  -0.000374  -0.000351  -0.000020
     2  H   -0.000244  -0.000277  -0.000008  -0.000009   0.000017  -0.000001
     3  C   -0.000461   0.000250   0.000047   0.000023   0.000006   0.000001
     4  C    0.000011  -0.000002   0.000000  -0.000002   0.000000   0.000000
     5  C   -0.000003   0.000122   0.000150   0.000013  -0.000001  -0.000001
     6  C    0.000000   0.000001   0.000000   0.000000   0.000000   0.000000
     7  H    0.000000   0.000002   0.000000   0.000000   0.000000   0.000000
     8  C    0.000010  -0.000004   0.000004   0.000001   0.000000   0.000000
     9  H    0.000206   0.000055  -0.000037   0.000009   0.000011   0.000004
    10  C    0.000000   0.000000   0.000000   0.000000   0.000000   0.000000
    11  H    0.000000   0.000000   0.000000   0.000000   0.000000   0.000000
    12  H    0.000000   0.000000  -0.000001   0.000000   0.000000   0.000000
    13  H    0.000000   0.000000   0.000000   0.000000   0.000000   0.000000
    14  C   -0.071163  -0.035136  -0.017159   0.006213   0.006217  -0.001553
    15  C   -0.034301   0.004797  -0.085683  -0.039116  -0.000386   0.007477
    16  C    0.453343   0.393001  -0.093313  -0.000449  -0.036276   0.007859
    17  C   -0.074282  -0.000353   0.481450   0.397134   0.005945  -0.043474
    18  H   -0.000482  -0.000214   0.005320  -0.004153   0.000020  -0.000171
    19  C    5.078942  -0.035250   0.498978   0.006046   0.395222  -0.042157
    20  H   -0.035250   0.474729   0.004901   0.000018  -0.003347  -0.000170
    21  C    0.498978   0.004901   5.039025  -0.040771  -0.041000   0.399616
    22  H    0.006046   0.000018  -0.040771   0.517463  -0.000211  -0.004417
    23  H    0.395222  -0.003347  -0.041000  -0.000211   0.516436  -0.004430
    24  H   -0.042157  -0.000170   0.399616  -0.004417  -0.004430   0.518699
    25  C   -0.001192   0.000025   0.000138   0.000012   0.000042   0.000000
    26  C   -0.000461  -0.001277  -0.000025   0.000000   0.000028   0.000001
    27  C   -0.000196  -0.001566  -0.000004   0.000000   0.000004   0.000000
    28  C   -0.000028   0.000974   0.000000   0.000000   0.000001   0.000000
    29  H   -0.000010  -0.000195  -0.000004   0.000000  -0.000003   0.000000
    30  C   -0.000005  -0.000133   0.000000   0.000000   0.000001   0.000000
    31  H    0.000017   0.000054  -0.000001   0.000000   0.000000   0.000000
    32  C    0.000006   0.000046   0.000000   0.000000  -0.000001   0.000000
    33  H   -0.000001   0.000046   0.000000   0.000000   0.000000   0.000000
    34  H   -0.000001   0.000011   0.000000   0.000000   0.000000   0.000000
    35  H    0.000000   0.000006   0.000000   0.000000   0.000000   0.000000
             25         26         27         28         29         30
     1  C    0.112005  -0.056770  -0.040636   0.002628   0.000352   0.008148
     2  H   -0.083284   0.004819   0.004140  -0.000169  -0.000110   0.001564
     3  C   -0.116985  -0.012158   0.000035   0.000811  -0.001788  -0.000711
     4  C    0.001584   0.000241   0.001457  -0.000082  -0.000168  -0.000045
     5  C   -0.012117  -0.003839  -0.000134   0.000004   0.002961   0.000036
     6  C   -0.000637   0.000332  -0.000015  -0.000002  -0.000197   0.000004
     7  H    0.001100   0.000102   0.000645  -0.000008  -0.000027   0.000004
     8  C    0.000818  -0.001163   0.000024  -0.000035   0.000678   0.000000
     9  H   -0.001064   0.000922  -0.000031   0.000052   0.001277   0.000003
    10  C    0.000039   0.000078  -0.000003   0.000004   0.000030   0.000000
    11  H    0.000023   0.000003   0.000000   0.000000   0.000001   0.000000
    12  H    0.000003   0.000018   0.000000   0.000001  -0.000027   0.000000
    13  H   -0.000001   0.000000   0.000000   0.000000   0.000000   0.000000
    14  C   -0.060966   0.000671  -0.001591   0.000717   0.000865  -0.000741
    15  C    0.011035   0.000141   0.000097   0.000014   0.000135   0.000006
    16  C   -0.016743  -0.011169  -0.000991  -0.000957   0.000519   0.000484
    17  C   -0.000905   0.000006  -0.000002   0.000000  -0.000004   0.000000
    18  H    0.000739  -0.000025  -0.000009   0.000000   0.000005   0.000001
    19  C   -0.001192  -0.000461  -0.000196  -0.000028  -0.000010  -0.000005
    20  H    0.000025  -0.001277  -0.001566   0.000974  -0.000195  -0.000133
    21  C    0.000138  -0.000025  -0.000004   0.000000  -0.000004   0.000000
    22  H    0.000012   0.000000   0.000000   0.000000   0.000000   0.000000
    23  H    0.000042   0.000028   0.000004   0.000001  -0.000003   0.000001
    24  H    0.000000   0.000001   0.000000   0.000000   0.000000   0.000000
    25  C    5.390416   0.466898   0.500735  -0.070056  -0.042282  -0.072467
    26  C    0.466898   5.093146  -0.064205   0.479869   0.390380  -0.029772
    27  C    0.500735  -0.064205   5.053245  -0.032034   0.004582   0.462357
    28  C   -0.070056   0.479869  -0.032034   5.040294  -0.029345  -0.076545
    29  H   -0.042282   0.390380   0.004582  -0.029345   0.477756  -0.000290
    30  C   -0.072467  -0.029772   0.462357  -0.076545  -0.000290   5.056586
    31  H   -0.046034   0.004611   0.396733  -0.000361  -0.000246  -0.035361
    32  C   -0.014669  -0.093494  -0.089354   0.492331   0.004704   0.495153
    33  H    0.006150  -0.038712  -0.000350   0.396942  -0.003501   0.005943
    34  H    0.006729  -0.000528  -0.039486   0.006125   0.000018   0.396599
    35  H   -0.001591   0.007739   0.007482  -0.042524  -0.000170  -0.042636
             31         32         33         34         35
     1  C   -0.001500   0.001586  -0.000376  -0.000406  -0.000022
     2  H    0.002032  -0.000010   0.000013  -0.000029  -0.000002
     3  C    0.000250   0.000068   0.000027   0.000013  -0.000001
     4  C    0.000125  -0.000012   0.000006   0.000001   0.000000
     5  C   -0.000035  -0.000010   0.000011   0.000000   0.000000
     6  C   -0.000002   0.000000   0.000001   0.000000   0.000000
     7  H    0.000065  -0.000012   0.000000  -0.000001   0.000000
     8  C    0.000001   0.000000   0.000000   0.000000   0.000000
     9  H   -0.000002   0.000001  -0.000006   0.000000   0.000000
    10  C    0.000000   0.000000  -0.000001   0.000000   0.000000
    11  H    0.000000   0.000000   0.000000   0.000000   0.000000
    12  H    0.000000   0.000000   0.000000   0.000000   0.000000
    13  H    0.000000   0.000000   0.000000   0.000000   0.000000
    14  C    0.000699  -0.000026   0.000008   0.000029   0.000001
    15  C   -0.000007   0.000000  -0.000001   0.000000   0.000000
    16  C    0.000312   0.000059   0.000013  -0.000003  -0.000004
    17  C   -0.000006   0.000000   0.000000   0.000000   0.000000
    18  H   -0.000006   0.000000   0.000000   0.000000   0.000000
    19  C    0.000017   0.000006  -0.000001  -0.000001   0.000000
    20  H    0.000054   0.000046   0.000046   0.000011   0.000006
    21  C   -0.000001   0.000000   0.000000   0.000000   0.000000
    22  H    0.000000   0.000000   0.000000   0.000000   0.000000
    23  H    0.000000  -0.000001   0.000000   0.000000   0.000000
    24  H    0.000000   0.000000   0.000000   0.000000   0.000000
    25  C   -0.046034  -0.014669   0.006150   0.006729  -0.001591
    26  C    0.004611  -0.093494  -0.038712  -0.000528   0.007739
    27  C    0.396733  -0.089354  -0.000350  -0.039486   0.007482
    28  C   -0.000361   0.492331   0.396942   0.006125  -0.042524
    29  H   -0.000246   0.004704  -0.003501   0.000018  -0.000170
    30  C   -0.035361   0.495153   0.005943   0.396599  -0.042636
    31  H    0.506056   0.005155   0.000023  -0.004110  -0.000177
    32  C    0.005155   5.034445  -0.040450  -0.040603   0.399478
    33  H    0.000023  -0.040450   0.515118  -0.000210  -0.004359
    34  H   -0.004110  -0.040603  -0.000210   0.517792  -0.004503
    35  H   -0.000177   0.399478  -0.004359  -0.004503   0.517062
 Mulliken atomic charges:
              1
     1  C   -0.543295
     2  H    0.203257
     3  C    0.052456
     4  C   -0.142753
     5  C   -0.152834
     6  C   -0.169413
     7  H    0.168431
     8  C   -0.178406
     9  H    0.193708
    10  C   -0.153516
    11  H    0.161961
    12  H    0.162904
    13  H    0.163519
    14  C    0.039825
    15  C   -0.122455
    16  C   -0.154789
    17  C   -0.172525
    18  H    0.173328
    19  C   -0.182919
    20  H    0.208273
    21  C   -0.152366
    22  H    0.162570
    23  H    0.162059
    24  H    0.162737
    25  C    0.042499
    26  C   -0.136404
    27  C   -0.160931
    28  C   -0.168620
    29  H    0.194106
    30  C   -0.168181
    31  H    0.171714
    32  C   -0.154390
    33  H    0.163667
    34  H    0.162563
    35  H    0.164222
 Sum of Mulliken atomic charges =   0.00000
 Mulliken charges with hydrogens summed into heavy atoms:
              1
     1  C   -0.340038
     3  C    0.052456
     4  C    0.025678
     5  C    0.040874
     6  C   -0.007453
     8  C   -0.015502
    10  C    0.010003
    14  C    0.039825
    15  C    0.050873
    16  C    0.053484
    17  C   -0.009955
    19  C   -0.020861
    21  C    0.010370
    25  C    0.042499
    26  C    0.057702
    27  C    0.010783
    28  C   -0.004953
    30  C   -0.005618
    32  C    0.009832
 Sum of Mulliken charges with hydrogens summed into heavy atoms =   0.00000
 Electronic spatial extent (au):  <R**2>=           4924.1198
 Charge=              0.0000 electrons
 Dipole moment (field-independent basis, Debye):
    X=              0.0871    Y=              0.0311    Z=             -0.0083  Tot=              0.0929
 Quadrupole moment (field-independent basis, Debye-Ang):
   XX=           -109.9139   YY=           -110.8245   ZZ=           -107.0131
   XY=             -1.8764   XZ=             -1.0366   YZ=             -1.8160
 Traceless Quadrupole moment (field-independent basis, Debye-Ang):
   XX=             -0.6634   YY=             -1.5740   ZZ=              2.2374
   XY=             -1.8764   XZ=             -1.0366   YZ=             -1.8160
 Octapole moment (field-independent basis, Debye-Ang**2):
  XXX=             -4.8895  YYY=             34.3064  ZZZ=             -0.4534  XYY=             -1.4172
  XXY=            -35.6138  XXZ=              0.0378  XZZ=             10.4593  YZZ=              4.7058
  YYZ=             10.4616  XYZ=              0.8649
 Hexadecapole moment (field-independent basis, Debye-Ang**3):
 XXXX=          -3018.8359 YYYY=          -2935.8763 ZZZZ=           -683.3243 XXXY=            -33.2681
 XXXZ=             55.0031 YYYX=             33.0108 YYYZ=            -31.5449 ZZZX=             -7.6019
 ZZZY=              5.9782 XXYY=          -1031.9847 XXZZ=           -631.1683 YYZZ=           -609.6816
 XXYZ=             -5.8986 YYXZ=            -76.5833 ZZXY=            -26.7680
 N-N= 1.290835830272D+03 E-N=-4.277795165158D+03  KE= 7.285967630267D+02
 PrsmSu:  requested number of processors reduced to:  10 ShMem   1 Linda.
 Calling FoFJK, ICntrl=      2127 FMM=F ISym2X=0 I1Cent= 0 IOpClX= 0 NMat=1 NMatS=1 NMatT=0.
 ***** Axes restored to original set *****
 -------------------------------------------------------------------
 Center     Atomic                   Forces (Hartrees/Bohr)
 Number     Number              X              Y              Z
 -------------------------------------------------------------------
      1        6           0.003306035   -0.021914319    0.003970717
      2        1          -0.003959173    0.023404931   -0.007561502
      3        6          -0.012736475   -0.004879060    0.001040639
      4        6           0.001552907   -0.005522576   -0.001797026
      5        6           0.003725700    0.006883488    0.004806892
      6        6          -0.006699581   -0.009813035   -0.005571673
      7        1          -0.007214144    0.015259792    0.003743023
      8        6          -0.005305886    0.011197940    0.001488286
      9        1          -0.011559833   -0.014392368   -0.006686998
     10        6          -0.013289946    0.001502694   -0.002819391
     11        1           0.008500118    0.012674579    0.006676927
     12        1           0.007414000   -0.014561460   -0.003233622
     13        1           0.016282256   -0.001897558    0.003505714
     14        6           0.007407089    0.004124369    0.011031990
     15        6          -0.004405968   -0.004844814    0.003027414
     16        6           0.004670619    0.002937583   -0.010795203
     17        6          -0.006416368   -0.005492333    0.010120186
     18        1           0.011597791    0.012817462   -0.000655593
     19        6           0.007641241    0.010042327    0.002939568
     20        1          -0.006540982   -0.006158764    0.020385464
     21        6           0.005446691    0.007735127    0.010094279
     22        1           0.006498780    0.004655880   -0.014606751
     23        1          -0.011356859   -0.012271833    0.000771476
     24        1          -0.004888046   -0.007534865   -0.014055977
     25        6           0.007680251   -0.006545160   -0.009383455
     26        6          -0.007763485    0.006506165    0.000997066
     27        6           0.001329770   -0.004868031    0.003242098
     28        6          -0.002678396    0.011110342   -0.004934336
     29        1           0.015144212   -0.012239070   -0.008210623
     30        6           0.010105619   -0.007529773   -0.005093695
     31        1          -0.003387094    0.015017234   -0.008454888
     32        6           0.008228128    0.001469638   -0.010792104
     33        1           0.002724875   -0.014129435    0.008481469
     34        1          -0.011780719    0.010757214    0.004790571
     35        1          -0.009273129   -0.003502310    0.013539057
 -------------------------------------------------------------------
 Cartesian Forces:  Max     0.023404931 RMS     0.008984497

 GradGradGradGradGradGradGradGradGradGradGradGradGradGradGradGradGradGrad
 Berny optimization.
 Internal  Forces:  Max     0.024762903 RMS     0.006386429
 Search for a local minimum.
 Step number   1 out of a maximum of  197
 All quantities printed in internal units (Hartrees-Bohrs-Radians)
 Mixed Optimization -- RFO/linear search
 Second derivative matrix not updated -- first step.
     Eigenvalues ---    0.00649   0.00651   0.00651   0.01537   0.01537
     Eigenvalues ---    0.01539   0.02136   0.02143   0.02145   0.02170
     Eigenvalues ---    0.02171   0.02173   0.02180   0.02181   0.02184
     Eigenvalues ---    0.02200   0.02201   0.02202   0.02211   0.02212
     Eigenvalues ---    0.02213   0.02214   0.02215   0.02215   0.02215
     Eigenvalues ---    0.02217   0.02217   0.02218   0.02219   0.02225
     Eigenvalues ---    0.04602   0.06415   0.06601   0.15999   0.15999
     Eigenvalues ---    0.16000   0.16000   0.16000   0.16000   0.16000
     Eigenvalues ---    0.16000   0.16000   0.16000   0.16000   0.16000
     Eigenvalues ---    0.16000   0.16000   0.16000   0.18862   0.19256
     Eigenvalues ---    0.22000   0.22000   0.22000   0.22000   0.22000
     Eigenvalues ---    0.22000   0.23474   0.23478   0.23479   0.24991
     Eigenvalues ---    0.24999   0.24999   0.31306   0.31467   0.31483
     Eigenvalues ---    0.31485   0.33938   0.33949   0.34000   0.34090
     Eigenvalues ---    0.34115   0.34119   0.34251   0.34256   0.34256
     Eigenvalues ---    0.34258   0.34262   0.34265   0.34280   0.34280
     Eigenvalues ---    0.34287   0.42379   0.42468   0.42469   0.42554
     Eigenvalues ---    0.42575   0.42617   0.46309   0.46398   0.46415
     Eigenvalues ---    0.46748   0.46772   0.46817   0.47207   0.47213
     Eigenvalues ---    0.47226   0.47295   0.47303   0.474331000.00000
     Eigenvalues --- 1000.000001000.000001000.000001000.000001000.00000
     Eigenvalues --- 1000.000001000.000001000.000001000.000001000.00000
     Eigenvalues --- 1000.000001000.000001000.000001000.000001000.00000
     Eigenvalues --- 1000.000001000.000001000.000001000.000001000.00000
     Eigenvalues --- 1000.000001000.000001000.000001000.000001000.00000
     Eigenvalues --- 1000.000001000.000001000.000001000.000001000.00000
     Eigenvalues --- 1000.000001000.000001000.000001000.000001000.00000
     Eigenvalues --- 1000.000001000.000001000.000001000.000001000.00000
     Eigenvalues --- 1000.000001000.000001000.000001000.000001000.00000
     Eigenvalues --- 1000.000001000.000001000.000001000.000001000.00000
     Eigenvalues --- 1000.000001000.000001000.000001000.000001000.00000
     Eigenvalues --- 1000.000001000.000001000.000001000.000001000.00000
     Eigenvalues --- 1000.000001000.000001000.000001000.000001000.00000
     Eigenvalues --- 1000.000001000.000001000.000001000.000001000.00000
     Eigenvalues --- 1000.000001000.000001000.000001000.000001000.00000
     Eigenvalues --- 1000.000001000.000001000.000001000.000001000.00000
     Eigenvalues --- 1000.000001000.000001000.000001000.000001000.00000
     Eigenvalues --- 1000.000001000.00000
 RFO step:  Lambda=-2.44871861D-02 EMin= 6.48990663D-03
 Linear search not attempted -- first point.
 Maximum step size (   0.300) exceeded in Quadratic search.
    -- Step size scaled by   0.877
 Iteration  1 RMS(Cart)=  0.09594923 RMS(Int)=  0.00137710
 Iteration  2 RMS(Cart)=  0.00369131 RMS(Int)=  0.00028644
 Iteration  3 RMS(Cart)=  0.00000333 RMS(Int)=  0.00028644
 Iteration  4 RMS(Cart)=  0.00000000 RMS(Int)=  0.00028644
 Variable       Old X    -DE/DX   Delta X   Delta X   Delta X     New X
                                 (Linear)    (Quad)   (Total)
    R1        2.12132  -0.02476   0.00000  -0.06437  -0.06437   2.05695
    R2        2.85130   0.01815   0.00000   0.04696   0.04696   2.89826
    R3        2.85096   0.02079   0.00000   0.05376   0.05376   2.90473
    R4        2.85100   0.01757   0.00000   0.04544   0.04544   2.89644
    R5        2.64041  -0.00466   0.00000  -0.00850  -0.00849   2.63192
    R6        2.63740  -0.00328   0.00000  -0.00591  -0.00590   2.63150
    R7        2.62625  -0.00346   0.00000  -0.00615  -0.00615   2.62011
    R8        2.07137  -0.01728   0.00000  -0.04146  -0.04146   2.02991
    R9        2.62793  -0.00337   0.00000  -0.00591  -0.00591   2.62201
   R10        2.07330  -0.01955   0.00000  -0.04707  -0.04707   2.02624
   R11        2.62838  -0.00584   0.00000  -0.01030  -0.01031   2.61807
   R12        2.06900  -0.01666   0.00000  -0.03981  -0.03981   2.02918
   R13        2.62737  -0.00556   0.00000  -0.00973  -0.00975   2.61762
   R14        2.06890  -0.01666   0.00000  -0.03981  -0.03981   2.02909
   R15        2.06860  -0.01676   0.00000  -0.04004  -0.04004   2.02856
   R16        2.64445  -0.00309   0.00000  -0.00567  -0.00565   2.63880
   R17        2.63460  -0.00291   0.00000  -0.00505  -0.00504   2.62956
   R18        2.62405  -0.00524   0.00000  -0.00937  -0.00937   2.61468
   R19        2.07129  -0.01730   0.00000  -0.04150  -0.04150   2.02979
   R20        2.62942  -0.00095   0.00000  -0.00151  -0.00151   2.62790
   R21        2.07434  -0.02218   0.00000  -0.05348  -0.05348   2.02086
   R22        2.62989  -0.00464   0.00000  -0.00837  -0.00838   2.62151
   R23        2.06897  -0.01665   0.00000  -0.03980  -0.03980   2.02917
   R24        2.62526  -0.00728   0.00000  -0.01277  -0.01279   2.61247
   R25        2.06908  -0.01674   0.00000  -0.04001  -0.04001   2.02906
   R26        2.06849  -0.01668   0.00000  -0.03984  -0.03984   2.02865
   R27        2.63899  -0.00248   0.00000  -0.00446  -0.00445   2.63455
   R28        2.63966  -0.00506   0.00000  -0.00919  -0.00917   2.63048
   R29        2.62660  -0.00406   0.00000  -0.00710  -0.00710   2.61950
   R30        2.07416  -0.02100   0.00000  -0.05063  -0.05063   2.02353
   R31        2.62750  -0.00264   0.00000  -0.00473  -0.00472   2.62278
   R32        2.07179  -0.01755   0.00000  -0.04214  -0.04214   2.02965
   R33        2.62809  -0.00473   0.00000  -0.00831  -0.00832   2.61977
   R34        2.06885  -0.01670   0.00000  -0.03992  -0.03992   2.02893
   R35        2.62759  -0.00710   0.00000  -0.01254  -0.01255   2.61504
   R36        2.06900  -0.01666   0.00000  -0.03981  -0.03981   2.02918
   R37        2.06860  -0.01678   0.00000  -0.04008  -0.04008   2.02852
    A1        1.87452  -0.00259   0.00000  -0.03621  -0.03574   1.83878
    A2        1.84236  -0.00081   0.00000  -0.01986  -0.01921   1.82315
    A3        1.87686  -0.00497   0.00000  -0.04769  -0.04691   1.82995
    A4        1.95714  -0.00092   0.00000   0.01812   0.01583   1.97298
    A5        1.92560   0.00394   0.00000   0.03529   0.03342   1.95902
    A6        1.98056   0.00444   0.00000   0.03934   0.03766   2.01822
    A7        2.07658   0.00095   0.00000   0.00333   0.00333   2.07991
    A8        2.12440   0.00596   0.00000   0.01932   0.01932   2.14371
    A9        2.08217  -0.00691   0.00000  -0.02266  -0.02265   2.05953
   A10        2.09938   0.00476   0.00000   0.01636   0.01637   2.11574
   A11        2.09365  -0.00303   0.00000  -0.01127  -0.01128   2.08237
   A12        2.09015  -0.00173   0.00000  -0.00509  -0.00510   2.08505
   A13        2.09887   0.00344   0.00000   0.01194   0.01194   2.11081
   A14        2.08727  -0.00034   0.00000   0.00056   0.00056   2.08783
   A15        2.09698  -0.00309   0.00000  -0.01253  -0.01253   2.08445
   A16        2.09711  -0.00003   0.00000  -0.00065  -0.00066   2.09645
   A17        2.09155   0.00018   0.00000   0.00113   0.00113   2.09268
   A18        2.09453  -0.00015   0.00000  -0.00047  -0.00047   2.09406
   A19        2.09777   0.00089   0.00000   0.00298   0.00295   2.10072
   A20        2.09073  -0.00036   0.00000  -0.00109  -0.00108   2.08965
   A21        2.09469  -0.00053   0.00000  -0.00190  -0.00189   2.09280
   A22        2.09107  -0.00214   0.00000  -0.00796  -0.00799   2.08308
   A23        2.09549   0.00113   0.00000   0.00425   0.00426   2.09974
   A24        2.09663   0.00101   0.00000   0.00371   0.00372   2.10035
   A25        2.06408  -0.00271   0.00000  -0.00856  -0.00857   2.05551
   A26        2.14117   0.01011   0.00000   0.03245   0.03244   2.17360
   A27        2.07765  -0.00740   0.00000  -0.02392  -0.02390   2.05376
   A28        2.10241   0.00516   0.00000   0.01760   0.01761   2.12002
   A29        2.08765  -0.00256   0.00000  -0.00871  -0.00872   2.07894
   A30        2.09310  -0.00260   0.00000  -0.00890  -0.00891   2.08419
   A31        2.10117   0.00296   0.00000   0.01082   0.01081   2.11199
   A32        2.09186   0.00031   0.00000   0.00309   0.00309   2.09495
   A33        2.09015  -0.00327   0.00000  -0.01391  -0.01391   2.07623
   A34        2.09682   0.00029   0.00000  -0.00008  -0.00010   2.09673
   A35        2.09222  -0.00015   0.00000   0.00005   0.00006   2.09227
   A36        2.09414  -0.00015   0.00000   0.00004   0.00004   2.09419
   A37        2.09892   0.00117   0.00000   0.00415   0.00412   2.10304
   A38        2.08891  -0.00048   0.00000  -0.00159  -0.00158   2.08733
   A39        2.09535  -0.00069   0.00000  -0.00256  -0.00255   2.09280
   A40        2.08936  -0.00218   0.00000  -0.00852  -0.00855   2.08080
   A41        2.09624   0.00109   0.00000   0.00426   0.00428   2.10052
   A42        2.09758   0.00109   0.00000   0.00425   0.00427   2.10185
   A43        2.12185   0.00819   0.00000   0.02645   0.02643   2.14829
   A44        2.08095  -0.00076   0.00000  -0.00218  -0.00219   2.07876
   A45        2.08036  -0.00743   0.00000  -0.02427  -0.02425   2.05612
   A46        2.10087   0.00328   0.00000   0.01143   0.01143   2.11230
   A47        2.08448   0.00070   0.00000   0.00543   0.00543   2.08991
   A48        2.09780  -0.00399   0.00000  -0.01687  -0.01687   2.08093
   A49        2.09962   0.00539   0.00000   0.01862   0.01864   2.11826
   A50        2.09498  -0.00345   0.00000  -0.01291  -0.01292   2.08205
   A51        2.08859  -0.00194   0.00000  -0.00571  -0.00572   2.08287
   A52        2.09700   0.00130   0.00000   0.00439   0.00436   2.10135
   A53        2.09081  -0.00055   0.00000  -0.00175  -0.00174   2.08907
   A54        2.09537  -0.00074   0.00000  -0.00264  -0.00263   2.09275
   A55        2.09782  -0.00034   0.00000  -0.00187  -0.00187   2.09594
   A56        2.09128   0.00032   0.00000   0.00162   0.00162   2.09291
   A57        2.09409   0.00003   0.00000   0.00025   0.00025   2.09433
[...]
 ,0.00190376,0.00625211,-0.00053503,0.00138302,-0.00029725,-0.00023016,
 -0.00067290,-0.00047454,0.00047686,0.00002590,-0.00020186,-0.00035970,
 0.00033772,-0.00011304,-0.00046674,0.00026838,-0.00005154,0.00002875,-
 0.00006460,0.00007244,0.00034663,0.00010309,0.00018801,-0.00002015,0.0
 0001757,0.00002653,0.00000522,-0.00039903,-0.00016836,0.00001063,0.000
 01985,0.00000067,0.00001018,-0.00001687,0.00001319,0.00001683,-0.00000
 210,-0.00000041,-0.00173246,0.00022540,0.00046054,-0.00020819,0.000270
 74,-0.00028791,-0.00018040,0.00027102,0.00024432,0.00031455,0.00021870
 ,0.00022584,-0.00003677,0.00000641,-0.00000418,-0.00003096,0.00001523,
 -0.00052870,0.00030761,0.00003231,0.00006626,-0.00014878,-0.00028752,0
 .00026941,0.00004664,-0.00002215,0.00002099,-0.00002613,0.00004018,0.0
 0000478,0.00000450,0.00000516,-0.00000076,0.07676379,-0.06704815,0.030
 85580,0.01758611,0.04242765,-0.08167121,0.08277179,0.07614143,-0.27227
 480,-0.08449282,0.02532817,0.05384248,-0.00004528,0.00033323,-0.001123
 53,-0.14544960,-0.19966945,0.59666859,0.00035708,-0.00016330,-0.002502
 54,-0.00051593,-0.00107749,0.00067128,-0.00007440,-0.00039271,0.000008
 66,-0.00000109,0.00008567,0.00005616,0.00015646,-0.00005417,0.00009916
 ,0.00000873,-0.00002489,-0.00000507,-0.00002818,-0.00001800,-0.0000453
 4,0.00003723,-0.00003564,-0.00003730,-0.00000532,-0.00000460,-0.000017
 10,0.00002141,-0.00000135,0.00000667,0.00000639,0.00000649,0.00000065,
 0.00002209,-0.00000760,-0.00000855,0.00001111,-0.00000461,-0.00000196,
 0.00025323,0.00010038,0.00014440,-0.00006123,0.00001678,-0.00003929,0.
 00000303,0.00012736,-0.00013222,0.00003280,0.00000177,0.00006486,-0.00
 004148,-0.00001645,0.00004196,-0.00005466,-0.00001516,-0.00002428,-0.0
 0000152,-0.00007984,0.00003224,-0.00005319,-0.00004414,-0.00001873,0.0
 0000317,-0.00000240,-0.00001669,-0.00001008,-0.00003014,-0.00001516,0.
 00000033,-0.00001669,-0.00000934,-0.00289999,0.02151529,-0.02256343,-0
 .00333977,0.00549055,0.00304089,-0.08853940,0.06085014,-0.04955677,-0.
 00098494,-0.00035103,0.00051538,-0.00024878,0.00095852,-0.00116177,0.0
 1073822,-0.01583192,0.01790929,0.08577065,-0.00221373,-0.00157307,-0.0
 0152549,0.00048267,0.00017222,-0.00018667,-0.00004141,0.00030192,0.000
 21790,-0.00004866,0.00008803,-0.00003696,-0.00014539,0.00002675,-0.000
 05205,-0.00000443,-0.00003531,-0.00003009,0.00000552,-0.00003241,0.000
 02228,-0.00003115,0.00003924,-0.00001122,0.00000383,-0.00003572,0.0000
 2229,-0.00001056,0.00000714,0.00000449,-0.00001543,-0.00000416,0.00000
 193,-0.00001270,-0.00000078,0.00000063,-0.00000312,-0.00000415,0.00000
 355,0.00031509,0.00030121,-0.00041170,-0.00015432,0.00002485,-0.000403
 18,-0.00023657,-0.00004940,0.00013288,0.00007324,0.00013352,-0.0000435
 7,0.00002832,-0.00002926,0.00001352,-0.00012595,-0.00004447,-0.0001821
 2,0.00013787,-0.00003793,0.00012405,-0.00003086,-0.00008424,0.00005372
 ,0.00000122,-0.00001837,0.00000543,0.00002374,-0.00000164,0.00000007,0
 .00001390,0.00000082,0.00001326,0.00203098,-0.00686200,0.01562935,0.00
 564760,0.00339450,0.00135367,0.06123587,-0.19132699,0.14507383,-0.0002
 8963,-0.00008381,-0.00099770,0.00012348,-0.00059918,0.00066683,0.00446
 997,0.00148274,0.00178151,-0.07022831,0.19234044,-0.00009659,-0.001690
 10,-0.00093646,0.00006679,-0.00069839,0.00072312,-0.00010591,-0.000209
 17,0.00019372,-0.00009141,0.00013095,0.00004548,0.00002252,-0.00004070
 ,0.00004607,0.00002509,-0.00001236,-0.00001371,-0.00000945,-0.00002500
 ,-0.00001129,0.00000935,-0.00003256,-0.00004141,0.00000317,-0.00000735
 ,-0.00000434,-0.00002667,0.00000867,0.00000568,-0.00001463,-0.00000289
 ,-0.00000817,0.00000015,0.00000631,-0.00000655,-0.00000308,-0.00000242
 ,-0.00000225,0.00007237,-0.00014950,-0.00003659,-0.00003880,0.00004666
 ,-0.00005128,0.00002451,0.00005169,-0.00003794,0.00001470,-0.00000422,
 -0.00003413,-0.00000151,0.00000031,-0.00000131,-0.00002464,-0.00003747
 ,0.00001849,-0.00001314,0.00000122,0.00003554,0.00001853,-0.00000091,0
 .00001324,-0.00000069,-0.00000345,0.00001138,-0.00000076,0.00000795,-0
 .00000403,-0.00000041,0.00000547,0.00001131,0.00382474,-0.00296021,0.0
 0603501,0.00278237,0.00177957,0.00291140,-0.04969797,0.14602070,-0.209
 31580,0.00044047,-0.00090411,-0.00008623,0.00010122,-0.00022214,0.0000
 9804,-0.01113700,0.02044112,-0.01341103,0.04968096,-0.16225482,0.21622
 786,-0.00001079,0.00012748,-0.00177717,-0.00011609,-0.00074598,0.00014
 778,0.00026470,0.00038038,0.00028314,-0.00037565,-0.00003919,0.0001130
 6,0.00024396,-0.00023233,0.00006981,0.00032084,-0.00016215,0.00003063,
 0.00000046,0.00005241,-0.00002677,-0.00023285,-0.00009896,-0.00013707,
 0.00001942,-0.00002241,-0.00002054,-0.00004724,0.00029512,0.00010287,-
 0.00001915,-0.00002308,-0.00000237,-0.00001987,0.00001853,-0.00000061,
 -0.00002184,0.00000145,0.00000118,0.00059705,-0.00034014,-0.00036267,0
 .00024275,0.00004449,0.00032378,0.00016356,-0.00010878,0.00002474,-0.0
 0017735,-0.00018658,-0.00007808,0.00000274,-0.00000293,-0.00001639,-0.
 00002098,-0.00004582,0.00035925,-0.00031952,-0.00022025,0.00014404,0.0
 0011558,0.00020224,-0.00010502,-0.00002352,0.00002520,0.00001670,0.000
 02604,0.00002353,0.00003571,0.00000224,-0.00000047,0.00001813,-0.04913
 508,0.04685300,-0.02663875,-0.04071138,-0.02028064,0.07507606,0.071037
 68,-0.02672873,-0.01738377,-0.29779477,0.13900641,0.00393208,0.0011308
 0,0.00153960,0.00490696,-0.15769254,0.03834852,0.01580429,-0.00036198,
 0.00190862,0.00603643,0.65029659,0.00009502,-0.00082254,0.00158416,-0.
 00025416,0.00085242,0.00014763,-0.00018255,-0.00047378,-0.00002476,0.0
 0032135,0.00008127,-0.00017262,-0.00036314,0.00017665,-0.00009023,-0.0
 0031986,0.00018159,-0.00006444,0.00000142,-0.00006889,0.00005024,0.000
 26004,0.00008296,0.00014118,-0.00001329,0.00000289,0.00001194,-0.00001
 293,-0.00027581,-0.00012203,0.00000229,0.00001200,0.00000386,-0.000001
 62,-0.00000652,0.00000608,0.00000870,-0.00000629,0.00000044,-0.0009628
 7,0.00031221,0.00011565,-0.00021283,0.00016697,-0.00034065,-0.00020735
 ,0.00012469,0.00030959,0.00023982,0.00021596,0.00011923,-0.00000440,0.
 00000276,-0.00000557,-0.00002255,0.00000863,-0.00042003,0.00019364,0.0
 0006591,0.00003972,-0.00010974,-0.00021947,0.00022843,0.00003593,-0.00
 001904,0.00001075,-0.00001304,0.00004509,0.00001724,0.00000632,0.00000
 270,0.00000027,0.04753693,-0.05574433,0.02249478,0.01612946,0.04543197
 ,-0.06485665,-0.06397110,0.01350802,0.05290330,0.09407601,-0.17421433,
 0.04050563,0.00125422,0.00508960,0.00447323,0.08381964,-0.21039960,0.0
 9973975,0.00233184,0.00551160,0.00285624,-0.18342586,0.44978113,-0.001
 03996,-0.00002008,-0.00137134,0.00023264,-0.00055409,-0.00007592,-0.00
 000925,0.00031376,-0.00010443,-0.00009639,-0.00011576,0.00003062,0.000
 18625,0.00003294,0.00005705,0.00010476,-0.00010631,0.00003865,-0.00005
 001,0.00001315,-0.00005502,-0.00011643,-0.00001212,-0.00005025,0.00000
 179,0.00000021,-0.00001493,0.00006351,0.00008370,0.00007245,0.00003856
 ,0.00001654,-0.00000433,0.00002143,-0.00000651,-0.00000923,0.00001362,
 0.00000147,-0.00000419,0.00115461,0.00008705,-0.00004306,0.00001560,-0
 .00027530,-0.00000235,0.00005506,0.00005872,-0.00026685,-0.00013315,-0
 .00004719,-0.00006987,0.00001828,-0.00000244,0.00002866,-0.00001930,-0
 .00006532,0.00022302,-0.00008760,-0.00004079,-0.00000314,0.00004008,0.
 00008419,-0.00014711,-0.00002944,0.00000165,-0.00003700,-0.00000178,-0
 .00004493,-0.00003002,-0.00000980,-0.00001027,-0.00000161,-0.02739498,
 0.02417372,-0.01441524,0.02466250,-0.03171898,0.03144269,0.03280723,0.
 02017216,-0.04828952,0.06862880,-0.00259968,-0.14537303,0.00503293,0.0
 0415183,-0.00199727,-0.04838708,0.14287286,-0.23999568,0.00557314,0.00
 332473,-0.00077686,-0.18845222,-0.21620745,0.65874732,0.00049129,-0.00
 069159,0.00037043,-0.00009159,-0.00010106,0.00016632,0.00011419,0.0000
 0677,-0.00004694,-0.00003627,0.00000468,-0.00001177,0.00002327,0.00002
 210,-0.00001724,0.00001138,-0.00000793,-0.00001557,0.00000169,-0.00000
 797,0.00001285,-0.00002547,0.00000894,-0.00001743,0.00000358,-0.000005
 43,0.00001101,-0.00003200,0.00002194,-0.00001117,-0.00000980,-0.000007
 22,0.00000427,-0.00000622,-0.00000203,0.00000802,-0.00000426,-0.000002
 65,0.00000671,-0.00008480,-0.00003529,0.00003639,-0.00000611,0.0000149
 9,0.00003442,0.00001498,0.00002030,-0.00002209,0.00000959,-0.00000317,
 0.00001012,-0.00000378,0.00000435,-0.00000434,0.00001086,0.00000750,0.
 00000141,0.00000680,0.00001819,0.00000850,-0.00000103,-0.00000183,0.00
 000573,0.00000214,-0.00000120,0.00000443,-0.00000168,-0.00000184,-0.00
 000437,-0.00000132,0.00000191,0.00000020,-0.00046414,0.00205320,0.0057
 5860,0.01065718,-0.01564070,0.01742513,-0.00113538,-0.00029549,0.00053
 670,-0.08949193,0.06219390,-0.05048723,-0.00006700,-0.00184625,-0.0019
 9863,-0.00299371,0.00560090,0.00329715,-0.00021385,-0.00043427,-0.0003
 5906,-0.00168939,0.02167093,-0.02408594,0.08553373,0.00038153,-0.00021
 253,-0.00019843,-0.00000980,-0.00004837,0.00005007,0.00003721,0.000005
 93,0.00008401,-0.00007064,0.00001210,0.00000778,0.00001582,-0.00004132
 ,-0.00000338,0.00004270,-0.00000090,-0.00001439,0.00001833,-0.00000295
 ,0.00001772,-0.00002735,-0.00001027,-0.00002704,0.00000830,-0.00000983
 ,-0.00000599,-0.00003415,0.00004503,-0.00000454,-0.00002270,-0.0000201
 9,0.00000265,-0.00000889,0.00000425,0.00000449,-0.00001575,-0.00000024
 ,0.00000613,-0.00012822,-0.00000962,0.00003533,-0.00000044,0.00004031,
 0.00002123,0.00003213,0.00004143,-0.00001254,0.00001526,0.00000237,0.0
 0001412,-0.00000460,-0.00000410,-0.00000650,-0.00001432,-0.00001994,-0
 .00000177,-0.00000502,-0.00002400,0.00000381,-0.00000425,-0.00000637,0
 .00001738,0.00000266,-0.00000413,0.00001343,0.00000587,0.00000351,-0.0
 0000231,0.00000180,0.00000330,0.00001109,0.00175994,0.00520897,0.00325
 013,0.00433248,0.00160467,0.00149125,-0.00042235,-0.00002111,-0.000937
 48,0.06196280,-0.19299596,0.14730101,-0.00234042,-0.00202997,-0.002036
 94,0.00588550,0.00382882,0.00175210,-0.00043420,-0.00071054,-0.0003825
 7,0.00174089,-0.00585738,0.01475057,-0.07100640,0.19384445,-0.00068687
 ,0.00077093,-0.00042744,0.00019730,0.00006804,-0.00034460,-0.00030235,
 0.00000009,-0.00002090,0.00003270,-0.00000005,0.00003670,0.00009447,-0
 .00001130,0.00005055,0.00000218,-0.00002029,-0.00000153,-0.00001310,-0
 .00002472,-0.00001445,-0.00001554,-0.00001697,0.00000810,-0.00001243,0
 .00001040,-0.00002132,0.00004766,-0.00000464,0.00002796,0.00001322,0.0
 0000867,0.00000182,0.00002631,-0.00001199,-0.00001657,0.00001739,0.000
 00132,-0.00000443,0.00019814,0.00019478,0.00005247,-0.00006034,-0.0000
 9588,-0.00010215,0.00001735,-0.00004899,-0.00011072,-0.00000288,0.0000
 0399,-0.00001091,-0.00001068,-0.00001023,0.00002262,0.00001678,0.00001
 211,0.00000787,-0.00000443,0.00007297,0.00001823,-0.00000914,-0.000011
 33,-0.00002824,-0.00000321,-0.00000310,-0.00001888,-0.00002010,-0.0000
 2088,-0.00002036,-0.00000671,-0.00000366,-0.00001172,0.00584806,0.0027
 0604,-0.00075522,-0.01101444,0.02044776,-0.01326304,0.00054240,-0.0009
 8044,-0.00007039,-0.05047723,0.14739518,-0.21123559,-0.00101151,-0.002
 59620,-0.00033980,0.00295661,0.00204282,0.00324269,-0.00037423,-0.0003
 7528,-0.00036215,0.00453022,-0.00423115,0.00737968,0.05143059,-0.16318
 191,0.21666055,-0.00064034,0.00060915,-0.00040814,-0.00000948,-0.00005
 550,0.00003863,0.00006881,-0.00011884,0.00028093,-0.00005565,0.0000585
 9,0.00001214,-0.00010163,-0.00002427,-0.00003483,0.00000035,0.00002617
 ,0.00000168,0.00001687,0.00000549,0.00000773,0.00002677,-0.00000010,-0
 .00001165,0.00000663,-0.00000391,-0.00000404,-0.00002902,-0.00001230,-
 0.00001149,-0.00002040,-0.00000761,-0.00001236,-0.00001397,0.00001180,
 0.00000120,-0.00001488,0.00000154,-0.00000194,-0.00012943,-0.00010917,
 -0.00009494,0.00006129,0.00004362,0.00007015,0.00004010,0.00004514,0.0
 0001909,0.00000785,-0.00001066,0.00001746,-0.00001145,0.00000175,-0.00
 001275,-0.00001133,-0.00001713,0.00000376,-0.00002191,-0.00004200,-0.0
 0001164,0.00000979,-0.00000005,0.00002560,-0.00000515,0.00000232,0.000
 02261,0.00000322,0.00001697,0.00000473,0.00000161,0.00000670,0.0000158
 6,0.00139208,0.00141475,0.00530644,0.00045859,-0.00093925,0.00002697,-
 0.01211930,0.01342336,-0.00217711,0.00312542,0.00337204,0.00048209,-0.
 00035781,-0.00037378,-0.00032579,-0.28588619,0.13919552,0.02771064,-0.
 00022551,-0.00256317,-0.00107722,-0.00233557,0.00190654,0.00470550,-0.
 00036060,0.00010970,0.00009367,0.29735105,-0.00034951,0.00010267,0.000
 01051,0.00001151,-0.00004461,-0.00000696,0.00001845,-0.00009045,-0.000
 04671,0.00002856,0.00003825,-0.00000622,-0.00001759,0.00003347,-0.0000
 1283,-0.00004634,0.00001060,-0.00001131,-0.00000532,-0.00001669,0.0000
 0837,0.00003088,0.00001686,0.00001135,-0.00000231,-0.00000186,0.000004
 99,-0.00000013,-0.00003808,-0.00002014,-0.00000275,0.00000259,0.000001
 71,0.00000227,-0.00000639,0.00000375,0.00000410,-0.00000286,0.00000244
 ,0.00010720,0.00002136,-0.00006287,0.00001023,-0.00004624,0.00000234,-
 0.00002153,-0.00001801,-0.00002412,-0.00001719,-0.00000682,-0.00000551
 ,-0.00000115,-0.00000443,0.00000666,-0.00000456,0.00003331,0.00000576,
 0.00003692,0.00000298,0.00002145,-0.00000736,0.00000282,-0.00002937,-0
 .00000218,0.00000012,-0.00000581,0.00000295,-0.00002267,-0.00000723,0.
 00000333,-0.00000465,-0.00000859,0.00152088,0.00511540,0.00425401,-0.0
 0095750,-0.00048004,0.00025188,-0.00670009,0.00797162,0.00311086,0.003
 09513,0.00185781,0.00665883,-0.00036148,-0.00066284,-0.00049924,0.1393
 5395,-0.13926140,-0.00425719,-0.00188718,-0.00205935,-0.00261681,0.021
 91002,-0.00570104,-0.00499426,0.00098294,-0.00058298,-0.00019669,-0.15
 428434,0.13569657,0.00096683,-0.00075749,0.00023373,-0.00004733,0.0000
 2391,0.00008085,0.00005424,0.00002334,-0.00041348,0.00006655,0.0000117
 5,0.00001616,0.00004851,0.00000658,0.00003089,-0.00004290,-0.00000224,
 0.00000939,-0.00000575,0.00000149,-0.00000398,0.00002279,-0.00000394,0
 .00003886,0.00000057,0.00000298,-0.00001833,0.00003246,-0.00003582,-0.
 00001242,0.00000639,0.00000531,0.00000266,0.00001205,-0.00000804,-0.00
 000049,0.00000680,0.00000031,-0.00000194,0.00011352,0.00007296,0.00005
 874,-0.00002647,-0.00002858,-0.00005898,-0.00003570,-0.00001445,-0.000
 03513,-0.00000967,0.00001554,-0.00000476,0.00000860,-0.00000990,0.0000
 0991,-0.00001479,0.00000724,-0.00001339,0.00003496,0.00000351,0.000004
 23,-0.00002084,-0.00001280,-0.00002407,0.00000344,-0.00000495,-0.00001
 010,0.00000149,-0.00001945,-0.00000877,0.00000434,-0.00000605,-0.00000
 618,0.00471062,0.00445576,-0.00191317,-0.00010402,0.00026040,-0.001179
 82,0.02635080,-0.01609741,0.00335937,0.00091204,0.00641753,-0.00126219
 ,-0.00026807,-0.00052883,-0.00024184,0.02757587,-0.00411897,-0.0688408
 3,-0.00203944,-0.00203708,-0.00035846,-0.02364877,0.01406685,0.0079500
 4,-0.00109489,0.00059534,0.00009780,-0.03270390,0.00030808,0.06283940,
 -0.00015116,-0.00039266,-0.00037709,0.00000178,-0.00011059,0.00010290,
 0.00004775,-0.00001872,0.00004648,-0.00000205,0.00003561,0.00002255,-0
 .00004831,-0.00004366,0.00001180,0.00000405,0.00001930,0.00000556,0.00
 001347,0.00000483,0.00000122,0.00003313,-0.00001819,0.00001112,0.00000
 660,-0.00000349,-0.00002401,-0.00000467,-0.00000708,-0.00001265,-0.000
 01362,-0.00001081,-0.00000448,-0.00000622,0.00000951,-0.00000042,-0.00
 001407,0.00000117,-0.00000117,0.00000802,0.00000297,-0.00007892,0.0000
 0514,0.00001036,0.00000049,0.00002591,0.00003850,-0.00000691,0.0000046
 7,0.00000615,0.00000337,-0.00000197,-0.00000169,-0.00000406,-0.0000150
 9,-0.00002156,0.00000451,-0.00002250,-0.00002497,-0.00000611,-0.000000
 83,-0.00000130,0.00001038,-0.00000181,-0.00000220,0.00000887,0.0000049
 8,0.00000415,-0.00000056,0.00000226,0.00000216,0.00000988,-0.00050531,
 0.00036465,-0.00096346,-0.00218398,0.00647805,0.00133291,0.00220060,0.
 00427407,0.00010491,-0.01137907,-0.00775065,0.02675115,-0.00076976,-0.
 00033471,0.00112430,0.01039567,0.00373711,-0.01037681,0.00023939,0.000
 08776,-0.00042445,-0.17335884,-0.01981282,0.14655701,-0.00016036,-0.00
 180344,-0.00203986,-0.00022083,-0.00245077,-0.00087034,0.17586703,-0.0
 0039136,-0.00051014,-0.00048980,0.00007674,-0.00005048,0.00003829,0.00
 004668,0.00001515,0.00002131,-0.00001882,0.00000570,-0.00004363,-0.000
 03224,0.00003656,-0.00002118,0.00000010,-0.00000164,-0.00000783,0.0000
 0941,-0.00000198,0.00001200,-0.00001908,0.00000777,-0.00000291,0.00000
 059,-0.00000835,0.00000612,-0.00000369,0.00000340,0.00000661,-0.000006
 51,-0.00000312,0.00000136,-0.00000055,-0.00000015,-0.00000217,-0.00000
 105,0.00000046,0.00000099,0.00003621,0.00006516,-0.00010537,-0.0000223
 1,-0.00001134,-0.00003473,-0.00001953,0.00001111,-0.00000620,0.0000013
 4,0.00001137,-0.00000772,0.00000438,-0.00000449,-0.00000111,-0.0000023
 9,0.00000432,-0.00000447,0.00002646,0.00000182,0.00001381,-0.00000129,
 -0.00000653,-0.00000022,-0.00000084,-0.00000348,0.00000141,0.00000033,
 -0.00000393,-0.00000520,0.00000177,0.00000098,0.00000204,0.00031545,-0
 .00114446,-0.00005864,0.00611242,0.00294275,0.00289330,0.00464191,0.00
 140326,0.00586438,0.01217360,0.00831233,-0.01592718,0.00045499,0.00011
 733,-0.00071789,-0.01630877,0.00202173,0.01979170,-0.00076299,-0.00023
 218,0.00090028,-0.01981360,-0.06784800,0.04668225,-0.00254122,-0.00203
 243,-0.00188937,-0.00168908,-0.00185503,-0.00259290,0.01773295,0.05875
 652,-0.00021276,-0.00040759,-0.00029844,-0.00000036,-0.00009974,0.0000
 5456,-0.00002988,-0.00001379,-0.00007243,0.00002993,0.00000745,-0.0000
 2450,0.00003563,0.00003375,0.00000970,-0.00001650,-0.00001395,-0.00001
 474,-0.00001100,-0.00001802,0.00000098,-0.00001035,0.00000949,0.000003
 75,-0.00000676,-0.00000093,0.00000734,0.00001525,-0.00000553,0.0000047
 8,0.00000638,0.00000510,0.00000751,0.00001002,-0.00000960,-0.00000335,
 0.00001166,-0.00000252,0.00000240,0.00012742,0.00008194,-0.00002504,-0
 .00003053,-0.00005383,-0.00003472,-0.00001624,-0.00003197,-0.00004055,
 -0.00001106,-0.00000531,-0.00000946,-0.00000371,-0.00000251,0.00001117
 ,0.00001753,0.00003621,0.00001259,0.00002649,0.00004586,0.00001972,-0.
 00000372,0.00000299,-0.00002497,-0.00000031,0.00000019,-0.00001439,-0.
 00000663,-0.00002123,-0.00000999,-0.00000168,-0.00000490,-0.00001444,-
 0.00104824,-0.00015869,0.00030894,0.00186679,0.00260931,0.00348686,-0.
 00036882,0.00616624,0.00031656,-0.00197464,0.00313420,0.00259634,-0.00
 005026,0.00004997,-0.00010761,0.01806905,0.00063831,-0.01300902,0.0007
 2351,0.00010203,-0.00087635,0.14669336,0.04670940,-0.25283191,-0.00095
 234,-0.00261382,-0.00042666,-0.00195912,-0.00185114,-0.00032369,-0.160
 91810,-0.05431736,0.26131903||-0.00000866,0.00000816,-0.00000232,0.000
 00154,-0.00000239,-0.00000088,0.00000281,-0.00001770,-0.00000845,0.000
 01155,0.00000472,0.00000921,-0.00000980,0.00000827,0.00000151,-0.00001
 092,0.00000903,0.00000099,-0.00000052,-0.00000227,-0.00000077,0.000011
 49,0.00000415,0.00000417,0.00000187,0.00000037,0.00000164,0.00000152,-
 0.00001209,-0.00000587,0.00000002,-0.00000200,-0.00000101,-0.00000176,
 0.00000115,0.00000038,-0.00000181,0.00000109,0.00000027,-0.00000941,-0
 .00001901,0.00001879,-0.00000145,0.00000137,-0.00002792,0.00001261,0.0
 0001616,0.00000983,0.00001100,0.00001933,0.00001127,-0.00000123,-0.000
 00199,0.00000286,-0.00000389,-0.00000106,-0.00002159,0.00000015,-0.000
 00011,-0.00000181,-0.00000831,-0.00001794,0.00001120,-0.00000183,-0.00
 000284,0.00000031,0.00000105,0.00000192,0.00000104,0.00000149,0.000001
 90,0.00000043,0.00000248,0.00000309,-0.00000405,-0.00000368,-0.0000035
 9,0.00000260,0.00000130,0.00000150,0.00000056,0.00000608,0.00000010,-0
 .00000086,0.00000026,0.00000102,-0.00000116,-0.00000100,0.00000022,0.0
 0000344,0.00000031,-0.00000160,0.00000132,-0.00000541,0.00000045,-0.00
 000228,-0.00000106,0.00000122,-0.00000146,0.00000151,-0.00000109,-0.00
 000042,0.00000170,0.00000045,-0.00000098|||@


 MUD THROWN IS GROUND LOST -- FROM A TEA BAG
 Job cpu time:  0 days  0 hours  6 minutes 25.0 seconds.
 File lengths (MBytes):  RWF=    350 Int=      0 D2E=      0 Chk=      7 Scr=      1
 Normal termination of Gaussian 09 at Tue Sep 07 09:35:26 2021.
