 Entering Link 1 = b:\programy\g09w\l1.exe PID=     12752.
  
 Copyright (c) 1988,1990,1992,1993,1995,1998,2003,2009, Gaussian, Inc.
                  All Rights Reserved.
  
 This is part of the Gaussian(R) 09 program.  It is based on
 the Gaussian(R) 03 system (copyright 2003, Gaussian, Inc.),
 the Gaussian(R) 98 system (copyright 1998, Gaussian, Inc.),
 the Gaussian(R) 94 system (copyright 1995, Gaussian, Inc.),
 the Gaussian 92(TM) system (copyright 1992, Gaussian, Inc.),
 the Gaussian 90(TM) system (copyright 1990, Gaussian, Inc.),
 the Gaussian 88(TM) system (copyright 1988, Gaussian, Inc.),
 the Gaussian 86(TM) system (copyright 1986, Carnegie Mellon
 University), and the Gaussian 82(TM) system (copyright 1983,
 Carnegie Mellon University). Gaussian is a federally registered
 trademark of Gaussian, Inc.
  
 This software contains proprietary and confidential information,
 including trade secrets, belonging to Gaussian, Inc.
  
 This software is provided under written license and may be
 used, copied, transmitted, or stored only in accord with that
 written license.
  
 The following legend is applicable only to US Government
 contracts under FAR:
  
                    RESTRICTED RIGHTS LEGEND
  
 Use, reproduction and disclosure by the US Government is
 subject to restrictions as set forth in subparagraphs (a)
 and (c) of the Commercial Computer Software - Restricted
 Rights clause in FAR 52.227-19.
  
 Gaussian, Inc.
 340 Quinnipiac St., Bldg. 40, Wallingford CT 06492
  
  
 ---------------------------------------------------------------
 Warning -- This program may not be used in any manner that
 competes with the business of Gaussian, Inc. or will provide
 assistance to any competitor of Gaussian, Inc.  The licensee
 of this program is prohibited from giving any competitor of
 Gaussian, Inc. access to this program.  By using this program,
 the user acknowledges that Gaussian, Inc. is engaged in the
 business of creating and licensing software in the field of
 computational chemistry and represents and warrants to the
 licensee that it is not a competitor of Gaussian, Inc. and that
 it will not use this program in any manner prohibited above.
 ---------------------------------------------------------------
  

 Cite this work as:
 Gaussian 09, Revision A.02,
 M. J. Frisch, G. W. Trucks, H. B. Schlegel, G. E. Scuseria, 
 M. A. Robb, J. R. Cheeseman, G. Scalmani, V. Barone, B. Mennucci, 
 G. A. Petersson, H. Nakatsuji, M. Caricato, X. Li, H. P. Hratchian, 
 A. F. Izmaylov, J. Bloino, G. Zheng, J. L. Sonnenberg, M. Hada, 
 M. Ehara, K. Toyota, R. Fukuda, J. Hasegawa, M. Ishida, T. Nakajima, 
 Y. Honda, O. Kitao, H. Nakai, T. Vreven, J. A. Montgomery, Jr., 
 J. E. Peralta, F. Ogliaro, M. Bearpark, J. J. Heyd, E. Brothers, 
 K. N. Kudin, V. N. Staroverov, R. Kobayashi, J. Normand, 
 K. Raghavachari, A. Rendell, J. C. Burant, S. S. Iyengar, J. Tomasi, 
 M. Cossi, N. Rega, J. M. Millam, M. Klene, J. E. Knox, J. B. Cross, 
 V. Bakken, C. Adamo, J. Jaramillo, R. Gomperts, R. E. Stratmann, 
 O. Yazyev, A. J. Austin, R. Cammi, C. Pomelli, J. W. Ochterski, 
 R. L. Martin, K. Morokuma, V. G. Zakrzewski, G. A. Voth, 
 P. Salvador, J. J. Dannenberg, S. Dapprich, A. D. Daniels, 
 O. Farkas, J. B. Foresman, J. V. Ortiz, J. Cioslowski, 
 and D. J. Fox, Gaussian, Inc., Wallingford CT, 2009.
 
 ******************************************
 Gaussian 09:  IA32W-G09RevA.02 11-Jun-2009
                06-Sep-2021 
 ******************************************
 %nprocshared=12
 Will use up to   12 processors via shared memory.
 ----------------------------------------------
 # opt freq=noraman hf/6-311g geom=connectivity
 ----------------------------------------------
 1/18=20,19=15,38=1,57=2/1,3;
 2/9=110,12=2,17=6,18=5,40=1/2;
 3/5=4,6=6,11=9,16=1,25=1,30=1,71=1/1,2,3;
 4//1;
 5/5=2,38=5/2;
 6/7=2,8=2,9=2,10=2,28=1/1;
 7//1,2,3,16;
 1/18=20,19=15/3(2);
 2/9=110/2;
 99//99;
 2/9=110/2;
 3/5=4,6=6,11=9,16=1,25=1,30=1,71=1/1,2,3;
 4/5=5,16=3/1;
 5/5=2,38=5/2;
 7//1,2,3,16;
 1/18=20,19=15/3(-5);
 2/9=110/2;
 6/7=2,8=2,9=2,10=2,19=2,28=1/1;
 99/9=1/99;
 -----
 M0001
 -----
 Symbolic Z-matrix:
 Charge =  0 Multiplicity = 1
 C                    -0.24139  -0.07827   0.72545 
 H                    -0.56558  -0.25011   1.78783 
 C                    -0.45529   1.38915   0.44886 
 C                    -0.58912   2.25745   1.53665 
 C                    -0.52098   1.91194  -0.84375 
 C                    -0.78582   3.61804   1.33293 
 H                    -0.53781   1.86577   2.55951 
 C                    -0.72135   3.27278  -1.0458 
 H                    -0.42044   1.23578  -1.70812 
 C                    -0.85366   4.12901   0.04134 
 H                    -0.88824   4.28819   2.19262 
 H                    -0.77534   3.66864  -2.06517 
 H                    -1.01101   5.20044  -0.11829 
 C                     1.20956  -0.48909   0.64881 
 C                     1.65535  -1.51038   1.49392 
 C                     2.11353   0.10291  -0.23254 
 C                     2.97933  -1.9292    1.45463 
 H                     0.95621  -1.98796   2.19022 
 C                     3.43938  -0.31639  -0.26845 
 H                     1.78068   0.91106  -0.89623 
 C                     3.87508  -1.3326    0.57324 
 H                     3.31755  -2.73058   2.11947 
 H                     4.14033   0.15821  -0.96267 
 H                     4.91855  -1.66203   0.54396 
 C                    -1.08665  -0.9758   -0.14489 
 C                    -0.84553  -1.1159   -1.51259 
 C                    -2.12686  -1.70296   0.43893 
 C                    -1.62197  -1.97401  -2.28193 
 H                    -0.04473  -0.51977  -1.97609 
 C                    -2.90556  -2.55803  -0.3327 
 H                    -2.33202  -1.60171   1.51131 
 C                    -2.65277  -2.69818  -1.69291 
 H                    -1.42063  -2.07812  -3.35296 
 H                    -3.71876  -3.1233    0.13372 
 H                    -3.26403  -3.37496  -2.29829 
 

 GradGradGradGradGradGradGradGradGradGradGradGradGradGradGradGradGradGrad
 Berny optimization.
 Initialization pass.
                           ----------------------------
                           !    Initial Parameters    !
                           ! (Angstroms and Degrees)  !
 --------------------------                            --------------------------
 ! Name  Definition              Value          Derivative Info.                !
 --------------------------------------------------------------------------------
 ! R1    R(1,2)                  1.124          estimate D2E/DX2                !
 ! R2    R(1,3)                  1.5085         estimate D2E/DX2                !
 ! R3    R(1,14)                 1.5099         estimate D2E/DX2                !
 ! R4    R(1,25)                 1.5091         estimate D2E/DX2                !
 ! R5    R(3,4)                  1.3983         estimate D2E/DX2                !
 ! R6    R(3,5)                  1.3959         estimate D2E/DX2                !
 ! R7    R(4,6)                  1.3898         estimate D2E/DX2                !
 ! R8    R(4,7)                  1.0965         estimate D2E/DX2                !
 ! R9    R(5,8)                  1.3903         estimate D2E/DX2                !
 ! R10   R(5,9)                  1.102          estimate D2E/DX2                !
 ! R11   R(6,10)                 1.3906         estimate D2E/DX2                !
 ! R12   R(6,11)                 1.0948         estimate D2E/DX2                !
 ! R13   R(8,10)                 1.3901         estimate D2E/DX2                !
 ! R14   R(8,12)                 1.0949         estimate D2E/DX2                !
 ! R15   R(10,13)                1.0946         estimate D2E/DX2                !
 ! R16   R(14,15)                1.3986         estimate D2E/DX2                !
 ! R17   R(14,16)                1.3944         estimate D2E/DX2                !
 ! R18   R(15,17)                1.3892         estimate D2E/DX2                !
 ! R19   R(15,18)                1.0962         estimate D2E/DX2                !
 ! R20   R(16,19)                1.391          estimate D2E/DX2                !
 ! R21   R(16,20)                1.0974         estimate D2E/DX2                !
 ! R22   R(17,21)                1.3911         estimate D2E/DX2                !
 ! R23   R(17,22)                1.0948         estimate D2E/DX2                !
 ! R24   R(19,21)                1.3896         estimate D2E/DX2                !
 ! R25   R(19,23)                1.0948         estimate D2E/DX2                !
 ! R26   R(21,24)                1.0946         estimate D2E/DX2                !
 ! R27   R(25,26)                1.3958         estimate D2E/DX2                !
 ! R28   R(25,27)                1.397          estimate D2E/DX2                !
 ! R29   R(26,28)                1.3896         estimate D2E/DX2                !
 ! R30   R(26,29)                1.1007         estimate D2E/DX2                !
 ! R31   R(27,30)                1.3903         estimate D2E/DX2                !
 ! R32   R(27,31)                1.0965         estimate D2E/DX2                !
 ! R33   R(28,32)                1.3906         estimate D2E/DX2                !
 ! R34   R(28,33)                1.0948         estimate D2E/DX2                !
 ! R35   R(30,32)                1.3906         estimate D2E/DX2                !
 ! R36   R(30,34)                1.0947         estimate D2E/DX2                !
 ! R37   R(32,35)                1.0946         estimate D2E/DX2                !
 ! A1    A(2,1,3)              106.3275         estimate D2E/DX2                !
 ! A2    A(2,1,14)             106.4717         estimate D2E/DX2                !
 ! A3    A(2,1,25)             107.0166         estimate D2E/DX2                !
 ! A4    A(3,1,14)             113.0551         estimate D2E/DX2                !
 ! A5    A(3,1,25)             113.1645         estimate D2E/DX2                !
 ! A6    A(14,1,25)            110.3118         estimate D2E/DX2                !
 ! A7    A(1,3,4)              118.3598         estimate D2E/DX2                !
 ! A8    A(1,3,5)              122.7369         estimate D2E/DX2                !
 ! A9    A(4,3,5)              118.903          estimate D2E/DX2                !
 ! A10   A(3,4,6)              120.4954         estimate D2E/DX2                !
 ! A11   A(3,4,7)              119.9612         estimate D2E/DX2                !
 ! A12   A(6,4,7)              119.5434         estimate D2E/DX2                !
 ! A13   A(3,5,8)              120.5274         estimate D2E/DX2                !
 ! A14   A(3,5,9)              119.4884         estimate D2E/DX2                !
 ! A15   A(8,5,9)              119.9825         estimate D2E/DX2                !
 ! A16   A(4,6,10)             120.1833         estimate D2E/DX2                !
 ! A17   A(4,6,11)             119.8285         estimate D2E/DX2                !
 ! A18   A(10,6,11)            119.9882         estimate D2E/DX2                !
 ! A19   A(5,8,10)             120.1958         estimate D2E/DX2                !
 ! A20   A(5,8,12)             119.7565         estimate D2E/DX2                !
 ! A21   A(10,8,12)            120.0476         estimate D2E/DX2                !
 ! A22   A(6,10,8)             119.6945         estimate D2E/DX2                !
 ! A23   A(6,10,13)            120.1389         estimate D2E/DX2                !
 ! A24   A(8,10,13)            120.1666         estimate D2E/DX2                !
 ! A25   A(1,14,15)            118.3145         estimate D2E/DX2                !
 ! A26   A(1,14,16)            122.6512         estimate D2E/DX2                !
 ! A27   A(15,14,16)           119.0333         estimate D2E/DX2                !
 ! A28   A(14,15,17)           120.4546         estimate D2E/DX2                !
 ! A29   A(14,15,18)           119.9116         estimate D2E/DX2                !
 ! A30   A(17,15,18)           119.6334         estimate D2E/DX2                !
 ! A31   A(14,16,19)           120.4139         estimate D2E/DX2                !
 ! A32   A(14,16,20)           119.885          estimate D2E/DX2                !
 ! A33   A(19,16,20)           119.6987         estimate D2E/DX2                !
 ! A34   A(15,17,21)           120.1527         estimate D2E/DX2                !
 ! A35   A(15,17,22)           119.8636         estimate D2E/DX2                !
 ! A36   A(21,17,22)           119.9836         estimate D2E/DX2                !
 ! A37   A(16,19,21)           120.2419         estimate D2E/DX2                !
 ! A38   A(16,19,23)           119.7333         estimate D2E/DX2                !
 ! A39   A(21,19,23)           120.0248         estimate D2E/DX2                !
 ! A40   A(17,21,19)           119.7034         estimate D2E/DX2                !
 ! A41   A(17,21,24)           120.1126         estimate D2E/DX2                !
 ! A42   A(19,21,24)           120.184          estimate D2E/DX2                !
 ! A43   A(1,25,26)            121.8726         estimate D2E/DX2                !
 ! A44   A(1,25,27)            119.0514         estimate D2E/DX2                !
 ! A45   A(26,25,27)           119.0683         estimate D2E/DX2                !
 ! A46   A(25,26,28)           120.5259         estimate D2E/DX2                !
 ! A47   A(25,26,29)           118.9426         estimate D2E/DX2                !
 ! A48   A(28,26,29)           120.5186         estimate D2E/DX2                !
 ! A49   A(25,27,30)           120.3471         estimate D2E/DX2                !
 ! A50   A(25,27,31)           119.9971         estimate D2E/DX2                !
 ! A51   A(30,27,31)           119.6558         estimate D2E/DX2                !
 ! A52   A(26,28,32)           120.0812         estimate D2E/DX2                !
 ! A53   A(26,28,33)           119.8407         estimate D2E/DX2                !
 ! A54   A(32,28,33)           120.0781         estimate D2E/DX2                !
 ! A55   A(27,30,32)           120.2022         estimate D2E/DX2                !
 ! A56   A(27,30,34)           119.8135         estimate D2E/DX2                !
 ! A57   A(32,30,34)           119.9842         estimate D2E/DX2                !
 ! A58   A(28,32,30)           119.773          estimate D2E/DX2                !
 ! A59   A(28,32,35)           120.1091         estimate D2E/DX2                !
 ! A60   A(30,32,35)           120.1177         estimate D2E/DX2                !
 ! D1    D(2,1,3,4)             18.3518         estimate D2E/DX2                !
 ! D2    D(2,1,3,5)           -161.8213         estimate D2E/DX2                !
 ! D3    D(14,1,3,4)           -98.1217         estimate D2E/DX2                !
 ! D4    D(14,1,3,5)            81.7052         estimate D2E/DX2                !
 ! D5    D(25,1,3,4)           135.5474         estimate D2E/DX2                !
 ! D6    D(25,1,3,5)           -44.6257         estimate D2E/DX2                !
 ! D7    D(2,1,14,15)           30.7737         estimate D2E/DX2                !
 ! D8    D(2,1,14,16)         -149.5909         estimate D2E/DX2                !
 ! D9    D(3,1,14,15)          147.1618         estimate D2E/DX2                !
 ! D10   D(3,1,14,16)          -33.2028         estimate D2E/DX2                !
 ! D11   D(25,1,14,15)         -85.0022         estimate D2E/DX2                !
 ! D12   D(25,1,14,16)          94.6333         estimate D2E/DX2                !
 ! D13   D(2,1,25,26)         -173.0693         estimate D2E/DX2                !
 ! D14   D(2,1,25,27)            5.9173         estimate D2E/DX2                !
 ! D15   D(3,1,25,26)           70.1403         estimate D2E/DX2                !
 ! D16   D(3,1,25,27)         -110.8731         estimate D2E/DX2                !
 ! D17   D(14,1,25,26)         -57.6356         estimate D2E/DX2                !
 ! D18   D(14,1,25,27)         121.3511         estimate D2E/DX2                !
 ! D19   D(1,3,4,6)            179.9086         estimate D2E/DX2                !
 ! D20   D(1,3,4,7)             -0.0166         estimate D2E/DX2                !
 ! D21   D(5,3,4,6)              0.0749         estimate D2E/DX2                !
 ! D22   D(5,3,4,7)           -179.8502         estimate D2E/DX2                !
 ! D23   D(1,3,5,8)            179.928          estimate D2E/DX2                !
 ! D24   D(1,3,5,9)              0.3985         estimate D2E/DX2                !
 ! D25   D(4,3,5,8)             -0.246          estimate D2E/DX2                !
 ! D26   D(4,3,5,9)           -179.7755         estimate D2E/DX2                !
 ! D27   D(3,4,6,10)             0.1056         estimate D2E/DX2                !
 ! D28   D(3,4,6,11)          -179.94           estimate D2E/DX2                !
 ! D29   D(7,4,6,10)          -179.9689         estimate D2E/DX2                !
 ! D30   D(7,4,6,11)            -0.0145         estimate D2E/DX2                !
 ! D31   D(3,5,8,10)             0.2375         estimate D2E/DX2                !
 ! D32   D(3,5,8,12)          -179.7242         estimate D2E/DX2                !
 ! D33   D(9,5,8,10)           179.7647         estimate D2E/DX2                !
 ! D34   D(9,5,8,12)            -0.1971         estimate D2E/DX2                !
 ! D35   D(4,6,10,8)            -0.1165         estimate D2E/DX2                !
 ! D36   D(4,6,10,13)          179.8533         estimate D2E/DX2                !
 ! D37   D(11,6,10,8)          179.9292         estimate D2E/DX2                !
 ! D38   D(11,6,10,13)          -0.101          estimate D2E/DX2                !
 ! D39   D(5,8,10,6)            -0.0541         estimate D2E/DX2                !
 ! D40   D(5,8,10,13)          179.9761         estimate D2E/DX2                !
 ! D41   D(12,8,10,6)          179.9075         estimate D2E/DX2                !
 ! D42   D(12,8,10,13)          -0.0622         estimate D2E/DX2                !
 ! D43   D(1,14,15,17)         179.5982         estimate D2E/DX2                !
 ! D44   D(1,14,15,18)          -0.1595         estimate D2E/DX2                !
 ! D45   D(16,14,15,17)         -0.0508         estimate D2E/DX2                !
 ! D46   D(16,14,15,18)       -179.8084         estimate D2E/DX2                !
 ! D47   D(1,14,16,19)        -179.7001         estimate D2E/DX2                !
 ! D48   D(1,14,16,20)           0.8598         estimate D2E/DX2                !
 ! D49   D(15,14,16,19)         -0.0672         estimate D2E/DX2                !
 ! D50   D(15,14,16,20)       -179.5073         estimate D2E/DX2                !
 ! D51   D(14,15,17,21)          0.107          estimate D2E/DX2                !
 ! D52   D(14,15,17,22)       -179.9079         estimate D2E/DX2                !
 ! D53   D(18,15,17,21)        179.8653         estimate D2E/DX2                !
 ! D54   D(18,15,17,22)         -0.1495         estimate D2E/DX2                !
 ! D55   D(14,16,19,21)          0.1296         estimate D2E/DX2                !
 ! D56   D(14,16,19,23)       -179.8163         estimate D2E/DX2                !
 ! D57   D(20,16,19,21)        179.5708         estimate D2E/DX2                !
 ! D58   D(20,16,19,23)         -0.3751         estimate D2E/DX2                !
 ! D59   D(15,17,21,19)         -0.0447         estimate D2E/DX2                !
 ! D60   D(15,17,21,24)        179.9015         estimate D2E/DX2                !
 ! D61   D(22,17,21,19)        179.9702         estimate D2E/DX2                !
 ! D62   D(22,17,21,24)         -0.0837         estimate D2E/DX2                !
 ! D63   D(16,19,21,17)         -0.0731         estimate D2E/DX2                !
 ! D64   D(16,19,21,24)        179.9808         estimate D2E/DX2                !
 ! D65   D(23,19,21,17)        179.8726         estimate D2E/DX2                !
 ! D66   D(23,19,21,24)         -0.0735         estimate D2E/DX2                !
 ! D67   D(1,25,26,28)         178.4996         estimate D2E/DX2                !
 ! D68   D(1,25,26,29)          -2.7964         estimate D2E/DX2                !
 ! D69   D(27,25,26,28)         -0.4868         estimate D2E/DX2                !
 ! D70   D(27,25,26,29)        178.2172         estimate D2E/DX2                !
 ! D71   D(1,25,27,30)        -178.7279         estimate D2E/DX2                !
 ! D72   D(1,25,27,31)           1.208          estimate D2E/DX2                !
 ! D73   D(26,25,27,30)          0.2875         estimate D2E/DX2                !
 ! D74   D(26,25,27,31)       -179.7766         estimate D2E/DX2                !
 ! D75   D(25,26,28,32)          0.2678         estimate D2E/DX2                !
 ! D76   D(25,26,28,33)       -179.7704         estimate D2E/DX2                !
 ! D77   D(29,26,28,32)       -178.4157         estimate D2E/DX2                !
 ! D78   D(29,26,28,33)          1.5461         estimate D2E/DX2                !
 ! D79   D(25,27,30,32)          0.1309         estimate D2E/DX2                !
 ! D80   D(25,27,30,34)       -179.9716         estimate D2E/DX2                !
 ! D81   D(31,27,30,32)       -179.8053         estimate D2E/DX2                !
 ! D82   D(31,27,30,34)          0.0923         estimate D2E/DX2                !
 ! D83   D(26,28,32,30)          0.1557         estimate D2E/DX2                !
 ! D84   D(26,28,32,35)       -179.9415         estimate D2E/DX2                !
 ! D85   D(33,28,32,30)       -179.806          estimate D2E/DX2                !
 ! D86   D(33,28,32,35)          0.0968         estimate D2E/DX2                !
 ! D87   D(27,30,32,28)         -0.3542         estimate D2E/DX2                !
 ! D88   D(27,30,32,35)        179.7431         estimate D2E/DX2                !
 ! D89   D(34,30,32,28)        179.7485         estimate D2E/DX2                !
 ! D90   D(34,30,32,35)         -0.1543         estimate D2E/DX2                !
 --------------------------------------------------------------------------------
 Trust Radius=3.00D-01 FncErr=1.00D-07 GrdErr=1.00D-07
 Number of steps in this run= 197 maximum allowed number of steps= 210.
 GradGradGradGradGradGradGradGradGradGradGradGradGradGradGradGradGradGrad

                          Input orientation:                          
 ---------------------------------------------------------------------
 Center     Atomic      Atomic             Coordinates (Angstroms)
 Number     Number       Type             X           Y           Z
 ---------------------------------------------------------------------
      1          6           0       -0.241394   -0.078273    0.725448
      2          1           0       -0.565579   -0.250107    1.787834
      3          6           0       -0.455293    1.389149    0.448863
      4          6           0       -0.589120    2.257447    1.536647
      5          6           0       -0.520985    1.911935   -0.843753
      6          6           0       -0.785823    3.618043    1.332933
      7          1           0       -0.537810    1.865766    2.559509
      8          6           0       -0.721350    3.272781   -1.045797
      9          1           0       -0.420438    1.235784   -1.708122
     10          6           0       -0.853655    4.129009    0.041338
     11          1           0       -0.888242    4.288194    2.192615
     12          1           0       -0.775340    3.668637   -2.065166
     13          1           0       -1.011007    5.200443   -0.118290
     14          6           0        1.209561   -0.489090    0.648811
     15          6           0        1.655353   -1.510380    1.493915
     16          6           0        2.113530    0.102908   -0.232541
     17          6           0        2.979325   -1.929203    1.454626
     18          1           0        0.956207   -1.987961    2.190221
     19          6           0        3.439379   -0.316391   -0.268454
     20          1           0        1.780685    0.911059   -0.896227
     21          6           0        3.875079   -1.332601    0.573236
     22          1           0        3.317553   -2.730579    2.119471
     23          1           0        4.140325    0.158210   -0.962670
     24          1           0        4.918550   -1.662028    0.543962
     25          6           0       -1.086645   -0.975798   -0.144891
     26          6           0       -0.845533   -1.115899   -1.512589
     27          6           0       -2.126861   -1.702963    0.438925
     28          6           0       -1.621972   -1.974015   -2.281925
     29          1           0       -0.044725   -0.519770   -1.976094
     30          6           0       -2.905560   -2.558031   -0.332698
     31          1           0       -2.332019   -1.601713    1.511307
     32          6           0       -2.652772   -2.698182   -1.692912
     33          1           0       -1.420632   -2.078119   -3.352958
     34          1           0       -3.718758   -3.123296    0.133719
     35          1           0       -3.264035   -3.374965   -2.298293
 ---------------------------------------------------------------------
                    Distance matrix (angstroms):
                    1          2          3          4          5
     1  C    0.000000
     2  H    1.123960   0.000000
     3  C    1.508502   2.119473   0.000000
     4  C    2.496907   2.520214   1.398258   0.000000
     5  C    2.549803   3.406122   1.395879   2.406310   0.000000
     6  C    3.785259   3.901029   2.420495   1.389752   2.778292
     7  H    2.689038   2.252370   2.165363   1.096492   3.403617
     8  C    3.820632   4.523767   2.419269   2.778021   1.390276
     9  H    2.771473   3.801400   2.162711   3.405991   1.102008
    10  C    4.306285   4.723335   2.798501   2.410119   2.410285
    11  H    4.651561   4.567728   3.410657   2.154924   3.873115
    12  H    4.702336   5.499652   3.408642   3.872879   2.154657
    13  H    5.400837   5.791391   3.893128   3.402650   3.403043
    14  C    1.509939   2.122642   2.517836   3.401025   3.314734
    15  C    2.497824   2.570451   3.735536   4.385888   4.681174
    16  C    2.548772   3.374042   2.952555   3.882832   3.253741
    17  C    3.785588   3.936589   4.880535   5.501688   5.682347
    18  H    2.688255   2.344756   4.053335   4.564941   5.157159
    19  C    3.820030   4.502488   4.311830   5.109974   4.580490
    20  H    2.774421   3.749325   2.652816   3.653439   2.510416
    21  C    4.306026   4.729322   5.116201   5.809103   5.644489
    22  H    4.652326   4.619680   5.830734   6.362561   6.713272
    23  H    4.701610   5.466034   4.962595   5.746393   4.981717
    24  H    5.400578   5.797966   6.180365   6.832433   6.654886
    25  C    1.509136   2.129217   2.518754   3.678176   3.024464
    26  C    2.539776   3.423559   3.205440   4.554454   3.117764
    27  C    2.505333   2.523479   3.515024   4.387994   4.158316
    28  C    3.813676   4.544311   4.486559   5.792542   4.287321
    29  H    2.744436   3.809351   3.113351   4.510948   2.724373
    30  C    3.790337   3.911352   4.711143   5.661199   5.091952
    31  H    2.703545   2.241342   3.687295   4.234555   4.601291
    32  C    4.304315   4.739729   5.111006   6.264740   5.149638
    33  H    4.692908   5.522725   5.235233   6.587624   4.798542
    34  H    4.659868   4.575353   5.577784   6.380850   6.044400
    35  H    5.398846   5.808858   6.175165   7.320245   6.131176
                    6          7          8          9         10
     6  C    0.000000
     7  H    2.153247   0.000000
     8  C    2.404520   3.874482   0.000000
     9  H    3.880293   4.315475   2.163002   0.000000
    10  C    1.390649   3.400473   1.390142   3.408671   0.000000
    11  H    1.094827   2.474989   3.397974   4.975117   2.157436
    12  H    3.398492   4.969345   1.094866   2.484393   2.157646
    13  H    2.158876   4.302859   2.158715   4.312175   1.094628
    14  C    4.617155   3.499916   4.555412   3.344730   5.094382
    15  C    5.682075   4.164591   5.914176   4.701422   6.340964
    16  C    4.818000   4.234715   4.329667   3.143524   5.008861
    17  C    6.705452   5.290822   6.856220   5.619476   7.306919
    18  H    5.932696   4.149659   6.400110   5.242591   6.731317
    19  C    5.991372   5.345765   5.549602   4.402281   6.187706
    20  H    4.345558   4.269542   3.443875   2.368451   4.263095
    21  C    6.841784   5.800725   6.705070   5.500242   7.243827
    22  H    7.600088   6.015301   7.897594   6.659961   8.292863
    23  H    6.442606   6.099708   5.774370   4.745253   6.458725
    24  H    7.812905   6.802912   7.660818   6.478734   8.191892
    25  C    4.835063   3.960995   4.358382   2.789018   5.113514
    26  C    5.523655   5.056382   4.415181   2.397781   5.470267
    27  C    5.559742   4.444973   5.379395   4.019692   5.982560
    28  C    6.710995   6.273660   5.465162   3.475017   6.575315
    29  H    5.349802   5.148359   3.963170   1.815197   5.131817
    30  C    6.738805   5.791466   6.267188   4.739268   7.004764
    31  H    5.446870   4.042440   5.735305   4.697899   6.098160
    32  C    7.248167   6.586787   6.308847   4.523233   7.270144
    33  H    7.403163   7.161764   5.868911   3.832471   7.097264
    34  H    7.448884   6.394813   7.161391   5.768265   7.798287
    35  H    8.260114   7.648254   7.226791   5.449161   8.221522
                   11         12         13         14         15
    11  H    0.000000
    12  H    4.304103   0.000000
    13  H    2.487479   2.488432   0.000000
    14  C    5.441190   5.347167   6.155497   0.000000
    15  C    6.370363   6.737771   7.398907   1.398559   0.000000
    16  C    5.692858   4.941508   5.980020   1.394418   2.406923
    17  C    7.359261   7.604095   8.320377   2.419779   1.389193
    18  H    6.541568   7.287227   7.802070   2.164890   1.096235
    19  C    6.781398   6.072271   7.089707   2.417289   2.777463
    20  H    5.298033   3.937501   5.176634   2.161884   3.404681
    21  C    7.543536   7.321198   8.187350   2.796821   2.409655
    22  H    8.182740   8.672539   9.308336   3.410388   2.154789
    23  H    7.231810   6.140225   7.257638   3.406647   3.872220
    24  H    8.475967   8.224592   9.093499   3.891449   3.402038
    25  C    5.763064   5.035389   6.176761   2.477784   3.238830
    26  C    6.552448   4.816851   6.470520   3.047615   3.930536
    27  C    6.364241   6.078748   7.015172   3.556579   3.931315
    28  C    7.731438   5.709929   7.518473   4.337257   5.021234
    29  H    6.419203   4.252586   6.091467   2.909348   3.989052
    30  C    7.570837   6.805195   7.989319   4.709363   5.023546
    31  H    6.102432   6.556753   7.118286   3.811118   3.988456
    32  C    8.186595   6.648287   8.219678   5.028059   5.488778
    33  H    8.459714   5.924527   7.975483   5.045502   5.768552
    34  H    8.196405   7.721993   8.756715   5.611836   5.773448
    35  H    9.194381   7.473973   9.130507   6.084962   6.485206
                   16         17         18         19         20
    16  C    0.000000
    17  C    2.779498   0.000000
    18  H    3.403073   2.153500   0.000000
    19  C    1.391034   2.404540   3.873676   0.000000
    20  H    1.097439   3.876898   4.313959   2.156849   0.000000
    21  C    2.411020   1.391099   3.400581   1.389589   3.402913
    22  H    3.874311   1.094815   2.476377   3.397842   4.971713
    23  H    2.155005   3.398313   4.968438   1.094764   2.477721
    24  H    3.403835   2.159001   4.303088   2.158403   4.305940
    25  C    3.378226   4.472086   3.263505   4.575476   3.513732
    26  C    3.446748   4.908704   4.209223   4.532941   3.374238
    27  C    4.657569   5.211139   3.557185   5.779791   4.887193
    28  C    4.739996   5.927543   5.162102   5.693774   4.671390
    29  H    2.843549   4.785522   4.529418   3.885406   2.558418
    30  C    5.681716   6.182380   4.647940   6.729586   5.857733
    31  H    5.070468   5.321733   3.379725   6.174839   5.387446
    32  C    5.718079   6.497602   5.348631   6.694498   5.772076
    33  H    5.194631   6.518793   6.031942   6.019764   5.021866
    34  H    6.675188   6.930727   5.231968   7.699311   6.897875
    35  H    6.729126   7.426585   6.315138   7.642701   6.766460
                   21         22         23         24         25
    21  C    0.000000
    22  H    2.157781   0.000000
    23  H    2.156822   4.303678   0.000000
    24  H    1.094628   2.487412   2.487738   0.000000
    25  C    5.026104   5.253909   5.410726   6.083404   0.000000
    26  C    5.165444   5.755897   5.175380   6.144292   1.395837
    27  C    6.014856   5.789808   6.686259   7.046313   1.397018
    28  C    6.227434   6.659099   6.284178   7.131719   2.418662
    29  H    4.746014   5.741624   4.359052   5.682388   2.155658
    30  C    6.949782   6.691043   7.577555   7.923892   2.418095
    31  H    6.283348   5.793261   7.149065   7.315063   2.164652
    32  C    7.043655   7.083791   7.405295   7.962546   2.795662
    33  H    6.634407   7.267984   6.452821   7.452808   3.408571
    34  H    7.814482   7.321688   8.586941   8.769647   3.408430
    35  H    7.961399   7.952935   8.312146   8.829907   3.890265
                   26         27         28         29         30
    26  C    0.000000
    27  C    2.407250   0.000000
    28  C    1.389640   2.780541   0.000000
    29  H    1.100682   3.401110   2.167041   0.000000
    30  C    2.777697   1.390294   2.405860   3.878097   0.000000
    31  H    3.404351   1.096515   3.877034   4.308629   2.154959
    32  C    2.408785   2.410762   1.390649   3.409923   1.390585
    33  H    2.154894   3.875291   1.094754   2.493457   3.399603
    34  H    3.872389   2.155142   3.398926   4.972744   1.094697
    35  H    3.401449   3.403104   2.158541   4.315078   2.158576
                   31         32         33         34         35
    31  H    0.000000
    32  C    3.401786   0.000000
    33  H    4.971787   2.158333   0.000000
    34  H    2.477097   2.157228   4.304730   0.000000
    35  H    4.304199   1.094606   2.488426   2.486924   0.000000
 Stoichiometry    C19H16
 Framework group  C1[X(C19H16)]
 Deg. of freedom    99
 Full point group                 C1      NOp   1
 Largest Abelian subgroup         C1      NOp   1
 Largest concise Abelian subgroup C1      NOp   1
                         Standard orientation:                         
 ---------------------------------------------------------------------
 Center     Atomic      Atomic             Coordinates (Angstroms)
 Number     Number       Type             X           Y           Z
 ---------------------------------------------------------------------
      1          6           0        0.022586   -0.012638   -0.754170
      2          1           0       -0.000148   -0.006217   -1.877882
      3          6           0        1.457609   -0.260156   -0.360442
      4          6           0        2.455897   -0.036512   -1.313610
      5          6           0        1.826294   -0.698060    0.912660
      6          6           0        3.792611   -0.248575   -0.997959
      7          1           0        2.185998    0.309961   -2.318302
      8          6           0        3.163695   -0.913103    1.225683
      9          1           0        1.047105   -0.880919    1.670188
     10          6           0        4.149848   -0.688531    0.271972
     11          1           0        4.565423   -0.069074   -1.752404
     12          1           0        3.438322   -1.260965    2.226834
     13          1           0        5.202731   -0.857625    0.519067
     14          6           0       -0.488811    1.336148   -0.307891
     15          6           0       -1.429514    1.988041   -1.111681
     16          6           0       -0.066365    1.948255    0.871629
     17          6           0       -1.936067    3.226827   -0.739295
     18          1           0       -1.774036    1.518507   -2.040429
     19          6           0       -0.573113    3.189835    1.241311
     20          1           0        0.677308    1.452909    1.508775
     21          6           0       -1.508525    3.831218    0.438447
     22          1           0       -2.673244    3.727837   -1.375047
     23          1           0       -0.231412    3.661634    2.168217
     24          1           0       -1.906901    4.808078    0.730426
     25          6           0       -0.914532   -1.104775   -0.299708
     26          6           0       -1.231665   -1.290796    1.046837
     27          6           0       -1.497297   -1.940041   -1.255938
     28          6           0       -2.122257   -2.285849    1.431301
     29          1           0       -0.748708   -0.651020    1.801118
     30          6           0       -2.384992   -2.937856   -0.869573
     31          1           0       -1.256103   -1.809772   -2.317635
     32          6           0       -2.702052   -3.110493    0.473333
     33          1           0       -2.365867   -2.419428    2.490214
     34          1           0       -2.836211   -3.587729   -1.626161
     35          1           0       -3.404356   -3.893810    0.775571
 ---------------------------------------------------------------------
 Rotational constants (GHZ):      0.4000929      0.3720974      0.2368740
 Standard basis: 6-311G (5D, 7F)
 There are   295 symmetry adapted basis functions of A   symmetry.
 Integral buffers will be    262144 words long.
 Raffenetti 1 integral format.
 Two-electron integral symmetry is turned on.
   295 basis functions,   574 primitive gaussians,   295 cartesian basis functions
    65 alpha electrons       65 beta electrons
       nuclear repulsion energy      1288.3966685532 Hartrees.
 NAtoms=   35 NActive=   35 NUniq=   35 SFac= 7.50D-01 NAtFMM=   80 NAOKFM=F Big=F
 One-electron integrals computed using PRISM.
 PrsmSu:  requested number of processors reduced to:  10 ShMem   1 Linda.
 NBasis=   295 RedAO= T  NBF=   295
 NBsUse=   295 1.00D-06 NBFU=   295
 Harris functional with IExCor=  205 diagonalized for initial guess.
 ExpMin= 1.03D-01 ExpMax= 4.56D+03 ExpMxC= 6.82D+02 IAcc=1 IRadAn=         1 AccDes= 0.00D+00
 HarFok:  IExCor=  205 AccDes= 0.00D+00 IRadAn=         1 IDoV= 1
 ScaDFX=  1.000000  1.000000  1.000000  1.000000
 FoFCou: FMM=F IPFlag=           0 FMFlag=      100000 FMFlg1=           0
         NFxFlg=           0 DoJE=T BraDBF=F KetDBF=T FulRan=T
         Omega=  0.000000  0.000000  1.000000  0.000000  0.000000 ICntrl=     500 IOpCl=  0
         NMat0=    1 NMatS0=    1 NMatT0=    0 NMatD0=    1 NMtDS0=    0 NMtDT0=    0
         I1Cent=           4 NGrid=           0.
 Petite list used in FoFCou.
 Initial guess orbital symmetries:
       Occupied  (A) (A) (A) (A) (A) (A) (A) (A) (A) (A) (A) (A)
                 (A) (A) (A) (A) (A) (A) (A) (A) (A) (A) (A) (A)
                 (A) (A) (A) (A) (A) (A) (A) (A) (A) (A) (A) (A)
                 (A) (A) (A) (A) (A) (A) (A) (A) (A) (A) (A) (A)
                 (A) (A) (A) (A) (A) (A) (A) (A) (A) (A) (A) (A)
                 (A) (A) (A) (A) (A)
       Virtual   (A) (A) (A) (A) (A) (A) (A) (A) (A) (A) (A) (A)
                 (A) (A) (A) (A) (A) (A) (A) (A) (A) (A) (A) (A)
                 (A) (A) (A) (A) (A) (A) (A) (A) (A) (A) (A) (A)
                 (A) (A) (A) (A) (A) (A) (A) (A) (A) (A) (A) (A)
                 (A) (A) (A) (A) (A) (A) (A) (A) (A) (A) (A) (A)
                 (A) (A) (A) (A) (A) (A) (A) (A) (A) (A) (A) (A)
                 (A) (A) (A) (A) (A) (A) (A) (A) (A) (A) (A) (A)
                 (A) (A) (A) (A) (A) (A) (A) (A) (A) (A) (A) (A)
                 (A) (A) (A) (A) (A) (A) (A) (A) (A) (A) (A) (A)
                 (A) (A) (A) (A) (A) (A) (A) (A) (A) (A) (A) (A)
                 (A) (A) (A) (A) (A) (A) (A) (A) (A) (A) (A) (A)
                 (A) (A) (A) (A) (A) (A) (A) (A) (A) (A) (A) (A)
                 (A) (A) (A) (A) (A) (A) (A) (A) (A) (A) (A) (A)
                 (A) (A) (A) (A) (A) (A) (A) (A) (A) (A) (A) (A)
                 (A) (A) (A) (A) (A) (A) (A) (A) (A) (A) (A) (A)
                 (A) (A) (A) (A) (A) (A) (A) (A) (A) (A) (A) (A)
                 (A) (A) (A) (A) (A) (A) (A) (A) (A) (A) (A) (A)
                 (A) (A) (A) (A) (A) (A) (A) (A) (A) (A) (A) (A)
                 (A) (A) (A) (A) (A) (A) (A) (A) (A) (A) (A) (A)
                 (A) (A)
 The electronic state of the initial guess is 1-A.
 Requested convergence on RMS density matrix=1.00D-08 within 128 cycles.
 Requested convergence on MAX density matrix=1.00D-06.
 Requested convergence on             energy=1.00D-06.
 No special actions if energy rises.
 Integral accuracy reduced to 1.0D-05 until final iterations.
 Initial convergence to 1.0D-05 achieved.  Increase integral accuracy.
 SCF Done:  E(RHF) =  -728.671750842     A.U. after   14 cycles
             Convg  =    0.6160D-08             -V/T =  2.0001

 **********************************************************************

            Population analysis using the SCF density.

 **********************************************************************

 Orbital symmetries:
       Occupied  (A) (A) (A) (A) (A) (A) (A) (A) (A) (A) (A) (A)
                 (A) (A) (A) (A) (A) (A) (A) (A) (A) (A) (A) (A)
                 (A) (A) (A) (A) (A) (A) (A) (A) (A) (A) (A) (A)
                 (A) (A) (A) (A) (A) (A) (A) (A) (A) (A) (A) (A)
                 (A) (A) (A) (A) (A) (A) (A) (A) (A) (A) (A) (A)
                 (A) (A) (A) (A) (A)
       Virtual   (A) (A) (A) (A) (A) (A) (A) (A) (A) (A) (A) (A)
                 (A) (A) (A) (A) (A) (A) (A) (A) (A) (A) (A) (A)
                 (A) (A) (A) (A) (A) (A) (A) (A) (A) (A) (A) (A)
                 (A) (A) (A) (A) (A) (A) (A) (A) (A) (A) (A) (A)
                 (A) (A) (A) (A) (A) (A) (A) (A) (A) (A) (A) (A)
                 (A) (A) (A) (A) (A) (A) (A) (A) (A) (A) (A) (A)
                 (A) (A) (A) (A) (A) (A) (A) (A) (A) (A) (A) (A)
                 (A) (A) (A) (A) (A) (A) (A) (A) (A) (A) (A) (A)
                 (A) (A) (A) (A) (A) (A) (A) (A) (A) (A) (A) (A)
                 (A) (A) (A) (A) (A) (A) (A) (A) (A) (A) (A) (A)
                 (A) (A) (A) (A) (A) (A) (A) (A) (A) (A) (A) (A)
                 (A) (A) (A) (A) (A) (A) (A) (A) (A) (A) (A) (A)
                 (A) (A) (A) (A) (A) (A) (A) (A) (A) (A) (A) (A)
                 (A) (A) (A) (A) (A) (A) (A) (A) (A) (A) (A) (A)
                 (A) (A) (A) (A) (A) (A) (A) (A) (A) (A) (A) (A)
                 (A) (A) (A) (A) (A) (A) (A) (A) (A) (A) (A) (A)
                 (A) (A) (A) (A) (A) (A) (A) (A) (A) (A) (A) (A)
                 (A) (A) (A) (A) (A) (A) (A) (A) (A) (A) (A) (A)
                 (A) (A) (A) (A) (A) (A) (A) (A) (A) (A) (A) (A)
                 (A) (A)
 The electronic state is 1-A.
 Alpha  occ. eigenvalues --  -11.25831 -11.25272 -11.25262 -11.25127 -11.24447
 Alpha  occ. eigenvalues --  -11.24433 -11.24355 -11.24348 -11.24208 -11.24188
 Alpha  occ. eigenvalues --  -11.24128 -11.24116 -11.24111 -11.24054 -11.24027
 Alpha  occ. eigenvalues --  -11.24019 -11.23911 -11.23832 -11.23735  -1.18592
 Alpha  occ. eigenvalues --   -1.15826  -1.15683  -1.09038  -1.02410  -1.02114
 Alpha  occ. eigenvalues --   -1.01890  -1.01498  -1.01388  -0.92962  -0.84536
 Alpha  occ. eigenvalues --   -0.82945  -0.82543  -0.81706  -0.81563  -0.77732
 Alpha  occ. eigenvalues --   -0.70733  -0.70448  -0.69107  -0.65997  -0.63619
 Alpha  occ. eigenvalues --   -0.63503  -0.62370  -0.62032  -0.61900  -0.59568
 Alpha  occ. eigenvalues --   -0.58773  -0.58519  -0.58429  -0.57616  -0.53922
 Alpha  occ. eigenvalues --   -0.51741  -0.51079  -0.50852  -0.49676  -0.49167
 Alpha  occ. eigenvalues --   -0.48682  -0.47790  -0.47471  -0.46764  -0.34694
 Alpha  occ. eigenvalues --   -0.34243  -0.33699  -0.33586  -0.33278  -0.31181
 Alpha virt. eigenvalues --    0.11653   0.12015   0.13578   0.13746   0.14058
 Alpha virt. eigenvalues --    0.14931   0.15134   0.16274   0.16375   0.16883
 Alpha virt. eigenvalues --    0.18809   0.19132   0.19284   0.21284   0.21420
 Alpha virt. eigenvalues --    0.21511   0.23638   0.24242   0.24980   0.27152
 Alpha virt. eigenvalues --    0.28520   0.29476   0.34029   0.34194   0.35870
 Alpha virt. eigenvalues --    0.37471   0.38509   0.39681   0.40956   0.43681
 Alpha virt. eigenvalues --    0.44099   0.44375   0.45027   0.45396   0.45575
 Alpha virt. eigenvalues --    0.45870   0.46404   0.48411   0.49895   0.50381
 Alpha virt. eigenvalues --    0.50801   0.51020   0.51445   0.54974   0.55782
 Alpha virt. eigenvalues --    0.56803   0.57907   0.58955   0.59051   0.59614
 Alpha virt. eigenvalues --    0.59689   0.60669   0.61074   0.61495   0.61700
 Alpha virt. eigenvalues --    0.61850   0.62384   0.62467   0.63286   0.63467
 Alpha virt. eigenvalues --    0.64133   0.64997   0.65166   0.65422   0.66902
 Alpha virt. eigenvalues --    0.67410   0.68228   0.68433   0.70118   0.71404
 Alpha virt. eigenvalues --    0.72346   0.73796   0.74458   0.75067   0.76218
 Alpha virt. eigenvalues --    0.77291   0.78320   0.78607   0.80471   0.81176
 Alpha virt. eigenvalues --    0.81858   0.82196   0.82344   0.82822   0.82913
 Alpha virt. eigenvalues --    0.83516   0.83925   0.84059   0.84788   0.85605
 Alpha virt. eigenvalues --    0.86038   0.86385   0.86900   0.87457   0.88062
 Alpha virt. eigenvalues --    0.89672   0.90552   0.91266   0.92977   0.94399
 Alpha virt. eigenvalues --    0.96095   0.96853   0.97688   0.98147   0.98948
 Alpha virt. eigenvalues --    0.99331   1.00303   1.02795   1.05740   1.06224
 Alpha virt. eigenvalues --    1.06803   1.07138   1.08020   1.08379   1.10519
 Alpha virt. eigenvalues --    1.11089   1.12221   1.12492   1.12996   1.14263
 Alpha virt. eigenvalues --    1.14638   1.15387   1.18592   1.19483   1.21724
 Alpha virt. eigenvalues --    1.25355   1.26748   1.27703   1.28213   1.28827
 Alpha virt. eigenvalues --    1.30336   1.35122   1.39521   1.45231   1.46629
 Alpha virt. eigenvalues --    1.51682   1.52264   1.56510   2.54623   2.55624
 Alpha virt. eigenvalues --    2.56176   2.59200   2.61973   2.62498   2.64466
 Alpha virt. eigenvalues --    2.66998   2.67726   2.68456   2.72302   2.76742
 Alpha virt. eigenvalues --    2.77759   2.83504   2.87912   2.88619   2.94132
 Alpha virt. eigenvalues --    2.94277   2.94427   2.97081   2.97454   2.98027
 Alpha virt. eigenvalues --    3.00381   3.00780   3.04045   3.05740   3.07134
 Alpha virt. eigenvalues --    3.08134   3.08427   3.08971   3.09974   3.14335
 Alpha virt. eigenvalues --    3.14785   3.16345   3.16832   3.17566   3.18841
 Alpha virt. eigenvalues --    3.22643   3.25644   3.25819   3.28295   3.28893
 Alpha virt. eigenvalues --    3.30917   3.33377   3.34273   3.35156   3.42617
 Alpha virt. eigenvalues --    3.43063   3.44410   3.46939   3.49489   3.52252
 Alpha virt. eigenvalues --    3.53435   3.54458   3.59228   3.60656   3.60679
 Alpha virt. eigenvalues --    3.63129   3.63514   3.63781   3.65965   3.66666
 Alpha virt. eigenvalues --    3.68376   3.70278   3.70478   3.71425   3.73482
 Alpha virt. eigenvalues --    3.74204   3.75552   3.80871   3.85864   3.86665
 Alpha virt. eigenvalues --    3.93014  24.24843  24.30693  24.31560  24.50538
 Alpha virt. eigenvalues --   24.50841  24.51120  24.53996  24.54669  24.56109
 Alpha virt. eigenvalues --   24.77298  24.78598  24.79145  24.79615  24.80643
 Alpha virt. eigenvalues --   24.81839  24.83251  25.05548  25.05814  25.06130
          Condensed to atoms (all electrons):
              1          2          3          4          5          6
     1  C    5.830347   0.463983   0.170566  -0.045319  -0.045855   0.008261
     2  H    0.463983   0.512419  -0.073809   0.002818   0.005100   0.001515
     3  C    0.170566  -0.073809   5.366805   0.495178   0.450309  -0.071551
     4  C   -0.045319   0.002818   0.495178   5.040850  -0.061497   0.471720
     5  C   -0.045855   0.005100   0.450309  -0.061497   5.121752  -0.031230
     6  C    0.008261   0.001515  -0.071551   0.471720  -0.031230   5.044573
     7  H   -0.000717   0.002680  -0.045668   0.394484   0.004753  -0.034689
     8  C    0.003571  -0.000275  -0.064476  -0.036111   0.473382  -0.075109
     9  H   -0.000310  -0.000141  -0.053032   0.004509   0.386630  -0.000213
    10  C    0.001141  -0.000016  -0.017757  -0.086743  -0.094822   0.494604
    11  H   -0.000389  -0.000029   0.007148  -0.039671  -0.000598   0.396664
    12  H   -0.000295   0.000014   0.006032  -0.000392  -0.036767   0.005898
    13  H   -0.000019  -0.000001  -0.001594   0.007488   0.008118  -0.042958
    14  C    0.157371  -0.059892  -0.103777  -0.001470  -0.005792  -0.000716
    15  C   -0.050202  -0.003299   0.006406   0.000450  -0.000175   0.000003
    16  C   -0.039993   0.004910  -0.014466   0.001904  -0.007363   0.000227
    17  C    0.006258   0.001548  -0.000760  -0.000017   0.000025   0.000001
    18  H    0.001779   0.001054   0.000696   0.000013  -0.000038   0.000001
    19  C    0.004838  -0.000248   0.000511  -0.000090   0.000016  -0.000004
    20  H   -0.001672  -0.000068  -0.003167  -0.000891   0.001060  -0.000135
    21  C    0.000990   0.000009   0.000046  -0.000013  -0.000019   0.000000
    22  H   -0.000351  -0.000026   0.000011   0.000001   0.000000   0.000000
    23  H   -0.000325   0.000013   0.000037   0.000007   0.000028   0.000001
    24  H   -0.000012  -0.000002  -0.000001   0.000000   0.000001   0.000000
    25  C    0.185216  -0.074330  -0.112228   0.001972  -0.004666  -0.000680
    26  C   -0.054352   0.005552  -0.006312   0.000222  -0.017210   0.000029
    27  C   -0.026239   0.002055  -0.000331   0.000196   0.001497  -0.000004
    28  C    0.001399  -0.000282   0.001776   0.000028  -0.001739  -0.000001
    29  H    0.003099   0.000067  -0.003175  -0.000195   0.000311   0.000016
    30  C    0.007681   0.001758  -0.000602  -0.000009   0.000126   0.000001
    31  H   -0.000483   0.002413   0.000560   0.000135   0.000003   0.000003
    32  C    0.001273  -0.000013  -0.000035  -0.000001   0.000045   0.000000
    33  H   -0.000319   0.000012   0.000008   0.000000   0.000016   0.000000
    34  H   -0.000368  -0.000037   0.000020   0.000000  -0.000001   0.000000
    35  H   -0.000013  -0.000001  -0.000001   0.000000   0.000001   0.000000
              7          8          9         10         11         12
     1  C   -0.000717   0.003571  -0.000310   0.001141  -0.000389  -0.000295
     2  H    0.002680  -0.000275  -0.000141  -0.000016  -0.000029   0.000014
     3  C   -0.045668  -0.064476  -0.053032  -0.017757   0.007148   0.006032
     4  C    0.394484  -0.036111   0.004509  -0.086743  -0.039671  -0.000392
     5  C    0.004753   0.473382   0.386630  -0.094822  -0.000598  -0.036767
     6  C   -0.034689  -0.075109  -0.000213   0.494604   0.396664   0.005898
     7  H    0.507663  -0.000402  -0.000243   0.005351  -0.004217   0.000022
     8  C   -0.000402   5.056514  -0.025342   0.495802   0.006228   0.395571
     9  H   -0.000243  -0.025342   0.498358   0.004794   0.000020  -0.003440
    10  C    0.005351   0.495802   0.004794   5.030384  -0.041064  -0.039661
    11  H   -0.004217   0.006228   0.000020  -0.041064   0.517948  -0.000212
    12  H    0.000022   0.395571  -0.003440  -0.039661  -0.000212   0.515486
    13  H   -0.000183  -0.042536  -0.000183   0.399175  -0.004550  -0.004352
    14  C    0.000480   0.000879  -0.000494   0.000023   0.000022  -0.000007
    15  C    0.000117   0.000023  -0.000028  -0.000001   0.000000  -0.000001
    16  C    0.000188  -0.001484   0.000346   0.000081  -0.000001   0.000013
    17  C   -0.000008   0.000000   0.000006   0.000000   0.000000   0.000000
    18  H    0.000003   0.000000   0.000007   0.000000   0.000000   0.000000
    19  C    0.000009  -0.000031   0.000051   0.000004   0.000000   0.000001
    20  H   -0.000037   0.000959   0.000139   0.000046   0.000001  -0.000002
    21  C   -0.000004   0.000000   0.000001   0.000000   0.000000   0.000000
    22  H    0.000000   0.000000   0.000000   0.000000   0.000000   0.000000
    23  H    0.000000  -0.000001  -0.000017  -0.000001   0.000000   0.000000
    24  H    0.000000   0.000000   0.000000   0.000000   0.000000   0.000000
    25  C    0.000363   0.001542  -0.003020   0.000021   0.000014   0.000011
    26  C   -0.000026  -0.000013   0.002867  -0.000004   0.000000   0.000031
    27  C   -0.000022   0.000042  -0.000257  -0.000011   0.000001   0.000002
    28  C    0.000002  -0.000089   0.001156   0.000001   0.000000   0.000000
    29  H   -0.000007   0.000857   0.003451  -0.000011   0.000000  -0.000053
    30  C    0.000001   0.000000  -0.000139   0.000000   0.000000   0.000000
    31  H   -0.000025   0.000003  -0.000004  -0.000001   0.000000   0.000000
    32  C    0.000000   0.000003   0.000079   0.000000   0.000000  -0.000001
    33  H    0.000000   0.000001  -0.000105   0.000000   0.000000   0.000001
    34  H    0.000000   0.000000   0.000000   0.000000   0.000000   0.000000
    35  H    0.000000   0.000000   0.000000   0.000000   0.000000   0.000000
             13         14         15         16         17         18
     1  C   -0.000019   0.157371  -0.050202  -0.039993   0.006258   0.001779
     2  H   -0.000001  -0.059892  -0.003299   0.004910   0.001548   0.001054
     3  C   -0.001594  -0.103777   0.006406  -0.014466  -0.000760   0.000696
     4  C    0.007488  -0.001470   0.000450   0.001904  -0.000017   0.000013
     5  C    0.008118  -0.005792  -0.000175  -0.007363   0.000025  -0.000038
     6  C   -0.042958  -0.000716   0.000003   0.000227   0.000001   0.000001
     7  H   -0.000183   0.000480   0.000117   0.000188  -0.000008   0.000003
     8  C   -0.042536   0.000879   0.000023  -0.001484   0.000000   0.000000
     9  H   -0.000183  -0.000494  -0.000028   0.000346   0.000006   0.000007
    10  C    0.399175   0.000023  -0.000001   0.000081   0.000000   0.000000
    11  H   -0.004550   0.000022   0.000000  -0.000001   0.000000   0.000000
    12  H   -0.004352  -0.000007  -0.000001   0.000013   0.000000   0.000000
    13  H    0.517631   0.000001   0.000000  -0.000001   0.000000   0.000000
    14  C    0.000001   5.366383   0.473019   0.486063  -0.065252  -0.050650
    15  C    0.000000   0.473019   5.071728  -0.072040   0.466332   0.399594
    16  C   -0.000001   0.486063  -0.072040   5.087557  -0.027901   0.004146
    17  C    0.000000  -0.065252   0.466332  -0.027901   5.050237  -0.035582
    18  H    0.000000  -0.050650   0.399594   0.004146  -0.035582   0.509928
    19  C    0.000000  -0.064569  -0.031591   0.471535  -0.076924  -0.000336
    20  H    0.000001  -0.042632   0.004194   0.390211  -0.000182  -0.000249
    21  C    0.000000  -0.018543  -0.086084  -0.093450   0.488875   0.005342
    22  H    0.000000   0.006704  -0.039649  -0.000523   0.397098  -0.004288
    23  H    0.000000   0.006183  -0.000424  -0.037585   0.006005   0.000024
    24  H    0.000000  -0.001480   0.007373   0.007821  -0.042952  -0.000185
    25  C   -0.000002  -0.154094   0.000708  -0.014041  -0.000426   0.000565
    26  C    0.000001  -0.007726   0.000790  -0.000043   0.000193  -0.000050
    27  C    0.000000  -0.005685   0.002048  -0.000320  -0.000036   0.001438
    28  C    0.000000   0.000735  -0.000067  -0.000030   0.000002  -0.000018
    29  H    0.000000  -0.001867  -0.000268   0.004733  -0.000099  -0.000037
    30  C    0.000000  -0.000464  -0.000099   0.000048   0.000006   0.000030
    31  H    0.000000   0.000151   0.000252  -0.000048  -0.000006   0.000255
    32  C    0.000000   0.000097  -0.000014  -0.000004   0.000000  -0.000012
    33  H    0.000000   0.000017   0.000006  -0.000002   0.000001   0.000000
    34  H    0.000000   0.000011   0.000003   0.000000   0.000000  -0.000003
    35  H    0.000000  -0.000002   0.000000   0.000000   0.000000   0.000000
             19         20         21         22         23         24
     1  C    0.004838  -0.001672   0.000990  -0.000351  -0.000325  -0.000012
     2  H   -0.000248  -0.000068   0.000009  -0.000026   0.000013  -0.000002
     3  C    0.000511  -0.003167   0.000046   0.000011   0.000037  -0.000001
     4  C   -0.000090  -0.000891  -0.000013   0.000001   0.000007   0.000000
     5  C    0.000016   0.001060  -0.000019   0.000000   0.000028   0.000001
     6  C   -0.000004  -0.000135   0.000000   0.000000   0.000001   0.000000
     7  H    0.000009  -0.000037  -0.000004   0.000000   0.000000   0.000000
     8  C   -0.000031   0.000959   0.000000   0.000000  -0.000001   0.000000
     9  H    0.000051   0.000139   0.000001   0.000000  -0.000017   0.000000
    10  C    0.000004   0.000046   0.000000   0.000000  -0.000001   0.000000
    11  H    0.000000   0.000001   0.000000   0.000000   0.000000   0.000000
    12  H    0.000001  -0.000002   0.000000   0.000000   0.000000   0.000000
    13  H    0.000000   0.000001   0.000000   0.000000   0.000000   0.000000
    14  C   -0.064569  -0.042632  -0.018543   0.006704   0.006183  -0.001480
    15  C   -0.031591   0.004194  -0.086084  -0.039649  -0.000424   0.007373
    16  C    0.471535   0.390211  -0.093450  -0.000523  -0.037585   0.007821
    17  C   -0.076924  -0.000182   0.488875   0.397098   0.006005  -0.042952
    18  H   -0.000336  -0.000249   0.005342  -0.004288   0.000024  -0.000185
    19  C    5.050435  -0.029959   0.499270   0.006130   0.395920  -0.042198
    20  H   -0.029959   0.481458   0.004710   0.000020  -0.003332  -0.000182
    21  C    0.499270   0.004710   5.033492  -0.040735  -0.040275   0.399200
    22  H    0.006130   0.000020  -0.040735   0.518602  -0.000213  -0.004489
    23  H    0.395920  -0.003332  -0.040275  -0.000213   0.516831  -0.004447
    24  H   -0.042198  -0.000182   0.399200  -0.004489  -0.004447   0.518506
    25  C    0.000626  -0.001022   0.000075   0.000012   0.000005  -0.000001
    26  C   -0.000657   0.000494   0.000029   0.000003   0.000014  -0.000001
    27  C    0.000027  -0.000081  -0.000003  -0.000001   0.000000   0.000000
    28  C   -0.000016   0.000062   0.000003   0.000000   0.000000   0.000000
    29  H    0.000445   0.001015  -0.000012   0.000001  -0.000001  -0.000001
    30  C   -0.000001   0.000002   0.000000   0.000000   0.000000   0.000000
    31  H    0.000000   0.000000   0.000000  -0.000001   0.000000   0.000000
    32  C    0.000000   0.000002   0.000000   0.000000   0.000000   0.000000
    33  H   -0.000001  -0.000009   0.000000   0.000000   0.000000   0.000000
    34  H    0.000000   0.000000   0.000000   0.000000   0.000000   0.000000
    35  H    0.000000   0.000000   0.000000   0.000000   0.000000   0.000000
             25         26         27         28         29         30
     1  C    0.185216  -0.054352  -0.026239   0.001399   0.003099   0.007681
     2  H   -0.074330   0.005552   0.002055  -0.000282   0.000067   0.001758
     3  C   -0.112228  -0.006312  -0.000331   0.001776  -0.003175  -0.000602
     4  C    0.001972   0.000222   0.000196   0.000028  -0.000195  -0.000009
     5  C   -0.004666  -0.017210   0.001497  -0.001739   0.000311   0.000126
     6  C   -0.000680   0.000029  -0.000004  -0.000001   0.000016   0.000001
     7  H    0.000363  -0.000026  -0.000022   0.000002  -0.000007   0.000001
     8  C    0.001542  -0.000013   0.000042  -0.000089   0.000857   0.000000
     9  H   -0.003020   0.002867  -0.000257   0.001156   0.003451  -0.000139
    10  C    0.000021  -0.000004  -0.000011   0.000001  -0.000011   0.000000
    11  H    0.000014   0.000000   0.000001   0.000000   0.000000   0.000000
    12  H    0.000011   0.000031   0.000002   0.000000  -0.000053   0.000000
    13  H   -0.000002   0.000001   0.000000   0.000000   0.000000   0.000000
    14  C   -0.154094  -0.007726  -0.005685   0.000735  -0.001867  -0.000464
    15  C    0.000708   0.000790   0.002048  -0.000067  -0.000268  -0.000099
    16  C   -0.014041  -0.000043  -0.000320  -0.000030   0.004733   0.000048
    17  C   -0.000426   0.000193  -0.000036   0.000002  -0.000099   0.000006
    18  H    0.000565  -0.000050   0.001438  -0.000018  -0.000037   0.000030
    19  C    0.000626  -0.000657   0.000027  -0.000016   0.000445  -0.000001
    20  H   -0.001022   0.000494  -0.000081   0.000062   0.001015   0.000002
    21  C    0.000075   0.000029  -0.000003   0.000003  -0.000012   0.000000
    22  H    0.000012   0.000003  -0.000001   0.000000   0.000001   0.000000
    23  H    0.000005   0.000014   0.000000   0.000000  -0.000001   0.000000
    24  H   -0.000001  -0.000001   0.000000   0.000000  -0.000001   0.000000
    25  C    5.374448   0.439014   0.503536  -0.061706  -0.048454  -0.072735
    26  C    0.439014   5.095501  -0.065460   0.479261   0.388590  -0.029619
    27  C    0.503536  -0.065460   5.070207  -0.033425   0.004046   0.459717
    28  C   -0.061706   0.479261  -0.033425   5.035876  -0.027231  -0.076816
    29  H   -0.048454   0.388590   0.004046  -0.027231   0.495162  -0.000169
    30  C   -0.072735  -0.029619   0.459717  -0.076816  -0.000169   5.054938
    31  H   -0.046666   0.004629   0.395756  -0.000239  -0.000260  -0.035044
    32  C   -0.017864  -0.092107  -0.086334   0.494369   0.004557   0.496951
    33  H    0.006070  -0.039062  -0.000449   0.396676  -0.003434   0.005999
    34  H    0.007062  -0.000617  -0.039709   0.006223   0.000021   0.396794
    35  H   -0.001593   0.008018   0.007534  -0.042920  -0.000169  -0.042752
             31         32         33         34         35
     1  C   -0.000483   0.001273  -0.000319  -0.000368  -0.000013
     2  H    0.002413  -0.000013   0.000012  -0.000037  -0.000001
     3  C    0.000560  -0.000035   0.000008   0.000020  -0.000001
     4  C    0.000135  -0.000001   0.000000   0.000000   0.000000
     5  C    0.000003   0.000045   0.000016  -0.000001   0.000001
     6  C    0.000003   0.000000   0.000000   0.000000   0.000000
     7  H   -0.000025   0.000000   0.000000   0.000000   0.000000
     8  C    0.000003   0.000003   0.000001   0.000000   0.000000
     9  H   -0.000004   0.000079  -0.000105   0.000000   0.000000
    10  C   -0.000001   0.000000   0.000000   0.000000   0.000000
    11  H    0.000000   0.000000   0.000000   0.000000   0.000000
    12  H    0.000000  -0.000001   0.000001   0.000000   0.000000
    13  H    0.000000   0.000000   0.000000   0.000000   0.000000
    14  C    0.000151   0.000097   0.000017   0.000011  -0.000002
    15  C    0.000252  -0.000014   0.000006   0.000003   0.000000
    16  C   -0.000048  -0.000004  -0.000002   0.000000   0.000000
    17  C   -0.000006   0.000000   0.000001   0.000000   0.000000
    18  H    0.000255  -0.000012   0.000000  -0.000003   0.000000
    19  C    0.000000   0.000000  -0.000001   0.000000   0.000000
    20  H    0.000000   0.000002  -0.000009   0.000000   0.000000
    21  C    0.000000   0.000000   0.000000   0.000000   0.000000
    22  H   -0.000001   0.000000   0.000000   0.000000   0.000000
    23  H    0.000000   0.000000   0.000000   0.000000   0.000000
    24  H    0.000000   0.000000   0.000000   0.000000   0.000000
    25  C   -0.046666  -0.017864   0.006070   0.007062  -0.001593
    26  C    0.004629  -0.092107  -0.039062  -0.000617   0.008018
    27  C    0.395756  -0.086334  -0.000449  -0.039709   0.007534
    28  C   -0.000239   0.494369   0.396676   0.006223  -0.042920
    29  H   -0.000260   0.004557  -0.003434   0.000021  -0.000169
    30  C   -0.035044   0.496951   0.005999   0.396794  -0.042752
    31  H    0.510842   0.005163   0.000024  -0.004176  -0.000186
    32  C    0.005163   5.031011  -0.039550  -0.040778   0.399628
    33  H    0.000024  -0.039550   0.515366  -0.000211  -0.004455
    34  H   -0.004176  -0.040778  -0.000211   0.518278  -0.004580
    35  H   -0.000186   0.399628  -0.004455  -0.004580   0.517480
 Mulliken atomic charges:
              1
     1  C   -0.580539
     2  H    0.204546
     3  C    0.066632
     4  C   -0.149555
     5  C   -0.145398
     6  C   -0.166226
     7  H    0.170131
     8  C   -0.189510
     9  H    0.184555
    10  C   -0.151334
    11  H    0.162687
    12  H    0.162100
    13  H    0.163965
    14  C    0.086974
    15  C   -0.149106
    16  C   -0.150488
    17  C   -0.166444
    18  H    0.166571
    19  C   -0.183193
    20  H    0.199246
    21  C   -0.152905
    22  H    0.161695
    23  H    0.161554
    24  H    0.163049
    25  C    0.092267
    26  C   -0.111980
    27  C   -0.189736
    28  C   -0.172990
    29  H    0.179072
    30  C   -0.165604
    31  H    0.166949
    32  C   -0.156466
    33  H    0.163398
    34  H    0.162068
    35  H    0.164014
 Sum of Mulliken atomic charges =   0.00000
 Mulliken charges with hydrogens summed into heavy atoms:
              1
     1  C   -0.375993
     3  C    0.066632
     4  C    0.020577
     5  C    0.039156
     6  C   -0.003539
     8  C   -0.027410
    10  C    0.012631
    14  C    0.086974
    15  C    0.017465
    16  C    0.048757
    17  C   -0.004749
    19  C   -0.021639
    21  C    0.010144
    25  C    0.092267
    26  C    0.067093
    27  C   -0.022787
    28  C   -0.009592
    30  C   -0.003536
    32  C    0.007548
 Sum of Mulliken charges with hydrogens summed into heavy atoms =   0.00000
 Electronic spatial extent (au):  <R**2>=           4939.6603
 Charge=              0.0000 electrons
 Dipole moment (field-independent basis, Debye):
    X=             -0.0132    Y=             -0.0662    Z=             -0.0426  Tot=              0.0799
 Quadrupole moment (field-independent basis, Debye-Ang):
   XX=           -110.5965   YY=           -114.0568   ZZ=           -102.8734
   XY=              0.8041   XZ=              2.2757   YZ=             -0.1541
 Traceless Quadrupole moment (field-independent basis, Debye-Ang):
   XX=             -1.4209   YY=             -4.8812   ZZ=              6.3022
   XY=              0.8041   XZ=              2.2757   YZ=             -0.1541
 Octapole moment (field-independent basis, Debye-Ang**2):
  XXX=             39.9110  YYY=             18.2617  ZZZ=             -0.1856  XYY=            -44.6237
  XXY=            -14.1978  XXZ=             -6.4956  XZZ=              0.7138  YZZ=             -4.8542
  YYZ=             10.4048  XYZ=              0.0917
 Hexadecapole moment (field-independent basis, Debye-Ang**3):
 XXXX=          -3091.7525 YYYY=          -2907.9924 ZZZZ=           -786.3510 XXXY=             -6.3891
 XXXZ=              0.9860 YYYX=              2.9470 YYYZ=             58.8137 ZZZX=              6.2309
 ZZZY=             -4.0456 XXYY=           -972.9413 XXZZ=           -631.3011 YYZZ=           -601.4158
 XXYZ=            -50.0546 YYXZ=             22.3671 ZZXY=             15.7323
 N-N= 1.288396668553D+03 E-N=-4.272803900049D+03  KE= 7.285924413212D+02
 PrsmSu:  requested number of processors reduced to:  10 ShMem   1 Linda.
 Calling FoFJK, ICntrl=      2127 FMM=F ISym2X=0 I1Cent= 0 IOpClX= 0 NMat=1 NMatS=1 NMatT=0.
 ***** Axes restored to original set *****
 -------------------------------------------------------------------
 Center     Atomic                   Forces (Hartrees/Bohr)
 Number     Number              X              Y              Z
 -------------------------------------------------------------------
      1        6          -0.007955906   -0.002961517    0.022330834
      2        1           0.007361402    0.003634639   -0.026225973
      3        6          -0.004658147    0.011529829    0.005004944
      4        6           0.000471659   -0.001380821    0.006116574
      5        6          -0.000338518   -0.006375307   -0.011851513
      6        6          -0.000937683    0.008753418    0.009678561
      7        1          -0.000847818    0.005669164   -0.016777504
      8        6           0.000033793    0.004139475   -0.011417910
      9        1          -0.004935314    0.022903775    0.019597464
     10        6          -0.001903278    0.013270922   -0.001298325
     11        1           0.001376860   -0.010176912   -0.013136671
     12        1           0.000826922   -0.005988699    0.015593749
     13        1           0.002279859   -0.016464564    0.002439450
     14        6           0.013082502   -0.003323818    0.005479456
     15        6          -0.002602979   -0.003890564    0.004469702
     16        6          -0.002365012    0.008480588   -0.006861272
     17        6           0.003319224   -0.009746627    0.007673689
     18        1           0.010678861    0.008016193   -0.011081425
     19        6           0.008161078    0.003976906   -0.008042294
     20        1           0.008936124   -0.014791842    0.013532448
     21        6           0.013080464   -0.003740790   -0.000754219
     22        1          -0.005064776    0.012293373   -0.009987620
     23        1          -0.010615413   -0.007198760    0.010601614
     24        1          -0.015933033    0.005178870    0.000545291
     25        6          -0.010890088   -0.009055291    0.000940386
     26        6           0.008396404    0.004855330   -0.006587481
     27        6          -0.001270363    0.000457849    0.005938493
     28        6           0.003617195    0.000775056   -0.011857485
     29        1          -0.014839850   -0.021634078    0.006967274
     30        6          -0.010200261   -0.007568731    0.003741868
     31        1           0.003713000   -0.001249895   -0.017336071
     32        6          -0.008520704   -0.008748356   -0.005898966
     33        1          -0.003192379    0.001596176    0.016319546
     34        1           0.012312441    0.008427413   -0.007175585
     35        1           0.009423736    0.010337595    0.009318972
 -------------------------------------------------------------------
 Cartesian Forces:  Max     0.026225973 RMS     0.009554567

 GradGradGradGradGradGradGradGradGradGradGradGradGradGradGradGradGradGrad
 Berny optimization.
 Internal  Forces:  Max     0.029874608 RMS     0.007831623
 Search for a local minimum.
 Step number   1 out of a maximum of  197
 All quantities printed in internal units (Hartrees-Bohrs-Radians)
 Mixed Optimization -- RFO/linear search
 Second derivative matrix not updated -- first step.
     Eigenvalues ---    0.00634   0.00645   0.00653   0.01531   0.01533
     Eigenvalues ---    0.01536   0.02137   0.02141   0.02146   0.02167
     Eigenvalues ---    0.02171   0.02172   0.02181   0.02185   0.02186
     Eigenvalues ---    0.02201   0.02203   0.02203   0.02213   0.02213
     Eigenvalues ---    0.02215   0.02215   0.02216   0.02217   0.02217
     Eigenvalues ---    0.02218   0.02218   0.02219   0.02220   0.02222
     Eigenvalues ---    0.04520   0.06373   0.06674   0.15996   0.15999
     Eigenvalues ---    0.15999   0.16000   0.16000   0.16000   0.16000
     Eigenvalues ---    0.16000   0.16000   0.16000   0.16000   0.16000
     Eigenvalues ---    0.16000   0.16000   0.16000   0.18939   0.19363
     Eigenvalues ---    0.22000   0.22000   0.22000   0.22000   0.22000
     Eigenvalues ---    0.22000   0.23476   0.23476   0.23477   0.24996
     Eigenvalues ---    0.24999   0.25000   0.31166   0.31357   0.31437
     Eigenvalues ---    0.31501   0.33461   0.33607   0.33967   0.34070
     Eigenvalues ---    0.34073   0.34102   0.34256   0.34261   0.34262
     Eigenvalues ---    0.34268   0.34269   0.34275   0.34283   0.34283
     Eigenvalues ---    0.34286   0.42425   0.42425   0.42484   0.42571
     Eigenvalues ---    0.42580   0.42621   0.46337   0.46368   0.46428
     Eigenvalues ---    0.46765   0.46771   0.46842   0.47223   0.47228
     Eigenvalues ---    0.47258   0.47324   0.47333   0.473701000.00000
     Eigenvalues --- 1000.000001000.000001000.000001000.000001000.00000
     Eigenvalues --- 1000.000001000.000001000.000001000.000001000.00000
     Eigenvalues --- 1000.000001000.000001000.000001000.000001000.00000
     Eigenvalues --- 1000.000001000.000001000.000001000.000001000.00000
     Eigenvalues --- 1000.000001000.000001000.000001000.000001000.00000
     Eigenvalues --- 1000.000001000.000001000.000001000.000001000.00000
     Eigenvalues --- 1000.000001000.000001000.000001000.000001000.00000
     Eigenvalues --- 1000.000001000.000001000.000001000.000001000.00000
     Eigenvalues --- 1000.000001000.000001000.000001000.000001000.00000
     Eigenvalues --- 1000.000001000.000001000.000001000.000001000.00000
     Eigenvalues --- 1000.000001000.000001000.000001000.000001000.00000
     Eigenvalues --- 1000.000001000.000001000.000001000.000001000.00000
     Eigenvalues --- 1000.000001000.000001000.000001000.000001000.00000
     Eigenvalues --- 1000.000001000.000001000.000001000.000001000.00000
     Eigenvalues --- 1000.000001000.000001000.000001000.000001000.00000
     Eigenvalues --- 1000.000001000.000001000.000001000.000001000.00000
     Eigenvalues --- 1000.000001000.000001000.000001000.000001000.00000
     Eigenvalues --- 1000.000001000.00000
 RFO step:  Lambda=-4.28605235D-02 EMin= 6.34470759D-03
 Linear search not attempted -- first point.
 Maximum step size (   0.300) exceeded in Quadratic search.
    -- Step size scaled by   0.575
 Iteration  1 RMS(Cart)=  0.12584994 RMS(Int)=  0.00284063
 Iteration  2 RMS(Cart)=  0.00584429 RMS(Int)=  0.00028894
 Iteration  3 RMS(Cart)=  0.00000906 RMS(Int)=  0.00028889
 Iteration  4 RMS(Cart)=  0.00000000 RMS(Int)=  0.00028889
 Variable       Old X    -DE/DX   Delta X   Delta X   Delta X     New X
                                 (Linear)    (Quad)   (Total)
    R1        2.12398  -0.02747   0.00000  -0.04455  -0.04455   2.07943
    R2        2.85066   0.02568   0.00000   0.04125   0.04125   2.89190
    R3        2.85337   0.02088   0.00000   0.03368   0.03368   2.88705
    R4        2.85185   0.02263   0.00000   0.03642   0.03642   2.88827
    R5        2.64232  -0.00357   0.00000  -0.00402  -0.00401   2.63832
    R6        2.63783   0.00073   0.00000   0.00102   0.00103   2.63886
    R7        2.62625  -0.00361   0.00000  -0.00413  -0.00413   2.62213
    R8        2.07207  -0.01772   0.00000  -0.02655  -0.02655   2.04552
    R9        2.62724  -0.00324   0.00000  -0.00350  -0.00350   2.62374
   R10        2.08249  -0.02987   0.00000  -0.04550  -0.04550   2.03699
   R11        2.62795  -0.00835   0.00000  -0.00950  -0.00952   2.61843
   R12        2.06892  -0.01667   0.00000  -0.02487  -0.02487   2.04405
   R13        2.62699  -0.00679   0.00000  -0.00764  -0.00766   2.61933
   R14        2.06900  -0.01672   0.00000  -0.02495  -0.02495   2.04405
   R15        2.06855  -0.01680   0.00000  -0.02504  -0.02504   2.04350
   R16        2.64289  -0.00416   0.00000  -0.00479  -0.00478   2.63811
   R17        2.63507  -0.00241   0.00000  -0.00267  -0.00267   2.63240
   R18        2.62520  -0.00416   0.00000  -0.00470  -0.00470   2.62050
   R19        2.07158  -0.01734   0.00000  -0.02597  -0.02597   2.04561
   R20        2.62867  -0.00279   0.00000  -0.00305  -0.00305   2.62562
   R21        2.07386  -0.02179   0.00000  -0.03275  -0.03275   2.04111
   R22        2.62880  -0.00591   0.00000  -0.00667  -0.00668   2.62212
   R23        2.06890  -0.01663   0.00000  -0.02480  -0.02480   2.04410
   R24        2.62594  -0.00618   0.00000  -0.00686  -0.00687   2.61908
   R25        2.06880  -0.01664   0.00000  -0.02482  -0.02482   2.04399
   R26        2.06855  -0.01676   0.00000  -0.02499  -0.02499   2.04356
   R27        2.63775   0.00070   0.00000   0.00094   0.00096   2.63871
   R28        2.63998  -0.00423   0.00000  -0.00475  -0.00474   2.63524
   R29        2.62604  -0.00458   0.00000  -0.00503  -0.00502   2.62102
   R30        2.07999  -0.02545   0.00000  -0.03861  -0.03861   2.04137
   R31        2.62727  -0.00278   0.00000  -0.00317  -0.00318   2.62410
   R32        2.07211  -0.01776   0.00000  -0.02663  -0.02663   2.04548
   R33        2.62794  -0.00547   0.00000  -0.00619  -0.00620   2.62174
   R34        2.06879  -0.01670   0.00000  -0.02491  -0.02491   2.04387
   R35        2.62783  -0.00841   0.00000  -0.00953  -0.00955   2.61828
   R36        2.06868  -0.01656   0.00000  -0.02468  -0.02468   2.04399
   R37        2.06851  -0.01681   0.00000  -0.02505  -0.02505   2.04345
    A1        1.85577  -0.00924   0.00000  -0.04555  -0.04461   1.81116
    A2        1.85828  -0.00026   0.00000  -0.01894  -0.01877   1.83952
    A3        1.86779  -0.00591   0.00000  -0.03538  -0.03463   1.83316
    A4        1.97318   0.00302   0.00000   0.02544   0.02354   1.99672
    A5        1.97509   0.01476   0.00000   0.05381   0.05264   2.02773
    A6        1.92530  -0.00409   0.00000   0.00948   0.00714   1.93245
    A7        2.06577  -0.01294   0.00000  -0.02542  -0.02544   2.04033
    A8        2.14216   0.02505   0.00000   0.04915   0.04913   2.19130
    A9        2.07525  -0.01211   0.00000  -0.02373  -0.02369   2.05155
   A10        2.10304   0.00828   0.00000   0.01756   0.01759   2.12063
   A11        2.09372  -0.00486   0.00000  -0.01083  -0.01084   2.08288
   A12        2.08643  -0.00342   0.00000  -0.00674  -0.00675   2.07967
   A13        2.10360   0.00442   0.00000   0.00982   0.00982   2.11342
   A14        2.08547   0.00421   0.00000   0.01329   0.01329   2.09875
   A15        2.09409  -0.00864   0.00000  -0.02314  -0.02314   2.07095
   A16        2.09759   0.00002   0.00000  -0.00100  -0.00101   2.09658
   A17        2.09140   0.00006   0.00000   0.00071   0.00071   2.09211
   A18        2.09419  -0.00008   0.00000   0.00030   0.00030   2.09449
   A19        2.09781   0.00243   0.00000   0.00496   0.00493   2.10275
   A20        2.09015  -0.00115   0.00000  -0.00230  -0.00229   2.08786
   A21        2.09523  -0.00128   0.00000  -0.00266  -0.00265   2.09258
   A22        2.08906  -0.00305   0.00000  -0.00760  -0.00764   2.08143
   A23        2.09682   0.00153   0.00000   0.00383   0.00384   2.10066
   A24        2.09730   0.00151   0.00000   0.00377   0.00379   2.10109
   A25        2.06498  -0.00202   0.00000  -0.00388  -0.00389   2.06109
   A26        2.14067   0.00956   0.00000   0.01886   0.01885   2.15952
   A27        2.07752  -0.00754   0.00000  -0.01498  -0.01497   2.06255
   A28        2.10233   0.00528   0.00000   0.01109   0.01110   2.11343
   A29        2.09285  -0.00324   0.00000  -0.00723  -0.00724   2.08561
   A30        2.08800  -0.00205   0.00000  -0.00386  -0.00387   2.08413
   A31        2.10162   0.00314   0.00000   0.00686   0.00686   2.10848
   A32        2.09239   0.00060   0.00000   0.00273   0.00273   2.09511
   A33        2.08914  -0.00375   0.00000  -0.00961  -0.00961   2.07952
   A34        2.09706   0.00008   0.00000  -0.00038  -0.00038   2.09668
   A35        2.09201   0.00000   0.00000   0.00029   0.00029   2.09231
   A36        2.09411  -0.00007   0.00000   0.00009   0.00009   2.09420
   A37        2.09862   0.00129   0.00000   0.00273   0.00272   2.10133
   A38        2.08974  -0.00061   0.00000  -0.00126  -0.00126   2.08849
   A39        2.09483  -0.00069   0.00000  -0.00147  -0.00147   2.09336
   A40        2.08922  -0.00226   0.00000  -0.00531  -0.00532   2.08390
   A41        2.09636   0.00116   0.00000   0.00274   0.00274   2.09910
   A42        2.09761   0.00110   0.00000   0.00257   0.00257   2.10018
   A43        2.12708   0.01643   0.00000   0.03216   0.03207   2.15915
   A44        2.07784  -0.00625   0.00000  -0.01238  -0.01245   2.06539
   A45        2.07813  -0.01021   0.00000  -0.02007  -0.02007   2.05806
   A46        2.10357   0.00378   0.00000   0.00842   0.00835   2.11193
   A47        2.07594   0.00411   0.00000   0.01299   0.01287   2.08881
   A48        2.10345  -0.00784   0.00000  -0.02088  -0.02100   2.08244
   A49        2.10045   0.00695   0.00000   0.01486   0.01486   2.11531
   A50        2.09434  -0.00405   0.00000  -0.00904  -0.00906   2.08529
   A51        2.08839  -0.00291   0.00000  -0.00581  -0.00582   2.08257
   A52        2.09581   0.00212   0.00000   0.00427   0.00426   2.10007
   A53        2.09161  -0.00097   0.00000  -0.00188  -0.00189   2.08973
   A54        2.09576  -0.00115   0.00000  -0.00238  -0.00239   2.09337
   A55        2.09792  -0.00011   0.00000  -0.00102  -0.00104   2.09688
   A56        2.09114   0.00021   0.00000   0.00096   0.00098   2.09211
   A57        2.09412  -0.00011   0.00000   0.00005   0.00007   2.09419
[...]
 51147,-0.00018012,0.00029503,0.00026762,-0.00004271,-0.00021908,0.0003
 2020,-0.00026540,0.00003477,0.00000952,-0.00000441,0.00002702,-0.00051
 354,-0.00027935,-0.00029727,0.00010892,-0.00011854,0.00011288,0.000069
 96,0.00041661,-0.00003507,-0.00001262,0.00001475,0.00002329,-0.0000046
 0,-0.00000446,-0.00000657,-0.00001149,-0.00000444,0.00046256,0.0002506
 1,0.00133095,-0.00021313,-0.00004089,-0.00028406,0.00041263,-0.0001082
 7,-0.00014572,0.00032931,-0.00005249,-0.00017757,-0.00003308,0.0000010
 0,0.00012014,-0.00024293,0.00012186,-0.00012273,0.00003787,0.00005031,
 0.00002408,-0.00001717,-0.00021709,0.00021976,0.00001735,-0.00000129,-
 0.00000499,0.00000169,-0.00000086,0.00000495,-0.00001022,0.00000310,0.
 00000854,-0.06936259,0.01568492,0.06766161,-0.01254779,-0.04780818,-0.
 07287987,-0.01961657,-0.09068460,-0.20533948,0.09615089,0.02966332,0.0
 0516573,-0.00051219,-0.00010219,-0.00113155,-0.10748737,0.23702620,0.5
 8560849,0.00088255,0.00163581,0.00122414,-0.00039927,-0.00012517,-0.00
 131252,0.00014351,-0.00025464,-0.00002641,-0.00002686,-0.00005105,-0.0
 0001882,0.00003289,0.00008706,0.00019028,0.00001604,-0.00006036,-0.000
 05206,-0.00004545,-0.00002464,-0.00003198,-0.00002300,-0.00001092,-0.0
 0001304,-0.00001546,0.00002905,-0.00006868,-0.00003727,0.00004385,-0.0
 0001782,0.00000337,0.00001548,0.00000945,-0.00000718,0.00002634,-0.000
 02361,0.00000182,0.00001828,-0.00001059,0.00004717,0.00021802,-0.00038
 468,-0.00000139,-0.00007820,0.00002946,0.00018512,-0.00010205,-0.00005
 788,0.00001114,0.00000218,-0.00001355,-0.00002250,0.00005174,0.0000059
 1,0.00005279,0.00003808,-0.00001720,-0.00000570,0.00001905,0.00001085,
 0.00002457,-0.00000696,-0.00000051,0.00000854,-0.00000487,0.00000839,0
 .00002586,0.00000676,0.00000087,0.00001230,0.00000196,0.00000012,-0.00
 701448,0.01581980,0.02988055,-0.00571559,-0.00326479,0.00217820,-0.111
 53636,0.04205138,0.09347741,-0.00087452,-0.00044201,-0.00070022,-0.000
 43710,0.00081958,0.00142665,0.01258908,-0.01149656,-0.02035876,0.11258
 796,0.00024205,-0.00255488,0.00140620,-0.00028750,0.00038690,0.0008968
 3,-0.00022532,-0.00012515,-0.00009558,0.00009892,-0.00017973,-0.000109
 20,0.00007360,0.00000432,-0.00003217,-0.00003578,-0.00001172,-0.000064
 73,-0.00000555,0.00000463,0.00001481,0.00005961,-0.00008000,0.00004098
 ,-0.00003824,0.00007282,0.00004713,-0.00000503,0.00001254,0.00004637,-
 0.00000199,0.00000548,0.00001318,-0.00000628,-0.00000350,-0.00000570,-
 0.00000320,0.00001459,0.00000191,0.00010433,0.00017115,0.00024691,0.00
 013882,0.00007980,-0.00011553,0.00000513,0.00001938,0.00004830,-0.0000
 2979,-0.00002961,0.00001140,0.00000133,-0.00002326,0.00003245,-0.00000
 972,-0.00005079,-0.00000070,-0.00000805,-0.00000545,0.00001865,0.00002
 749,0.00000742,-0.00000157,0.00001660,-0.00000995,0.00000372,0.0000020
 0,-0.00000499,-0.00000646,0.00000127,-0.00000292,0.00000403,-0.0037659
 7,0.00719128,0.00446114,-0.00301445,0.00526103,-0.00266677,0.04220149,
 -0.11194213,-0.11512747,-0.00038225,-0.00066038,0.00064353,-0.00015602
 ,0.00006546,0.00030958,0.01017799,-0.00303948,-0.01763833,-0.04215749,
 0.10553534,-0.00157419,0.00191089,-0.00048132,0.00027115,0.00017116,0.
 00039322,0.00023511,0.00013120,0.00049970,-0.00011223,0.00033787,0.000
 11832,-0.00021301,-0.00005405,-0.00012162,0.00003742,-0.00004169,0.000
 12777,0.00002340,-0.00001049,-0.00003116,-0.00009386,0.00018763,0.0000
 2222,0.00013043,-0.00009531,-0.00006107,-0.00002701,0.00000096,-0.0000
 9909,0.00000561,0.00000799,-0.00001266,0.00002163,0.00000202,-0.000005
 04,0.00001306,-0.00000542,-0.00000394,-0.00008042,-0.00021497,0.000203
 86,-0.00001546,0.00002223,0.00005394,-0.00011181,0.00004741,0.00002455
 ,-0.00000336,0.00003425,-0.00002182,0.00000756,-0.00000682,-0.00002615
 ,-0.00003350,-0.00001115,0.00003308,0.00000693,-0.00000608,-0.00003419
 ,0.00000398,-0.00000454,0.00000222,-0.00000676,-0.00000314,-0.00000455
 ,-0.00000625,0.00000133,-0.00000612,0.00000106,-0.00000213,-0.00000465
 ,-0.00041683,-0.00649335,-0.00390543,0.00247861,-0.00232150,0.00342081
 ,0.09401936,-0.11425961,-0.26570192,-0.00060221,0.00071456,0.00037985,
 0.00006635,-0.00021979,-0.00037831,0.01168319,-0.00726832,-0.01074028,
 -0.10257235,0.13010582,0.27621518,0.00007452,0.00172183,0.00107195,0.0
 0012597,0.00023202,-0.00085540,0.00082514,0.00039179,-0.00008316,0.000
 24732,-0.00040802,-0.00008123,0.00022987,0.00004885,-0.00007388,-0.000
 15532,0.00020571,-0.00020697,0.00000423,0.00001588,0.00000389,-0.00002
 986,-0.00037797,-0.00021008,-0.00029599,0.00001260,-0.00032138,0.00008
 500,0.00002473,0.00029920,-0.00003591,-0.00002114,0.00001416,0.0000221
 4,-0.00003962,0.00000634,0.00000038,-0.00001625,-0.00000712,0.00016965
 ,-0.00047653,0.00035623,-0.00041798,-0.00005527,-0.00018306,0.00035575
 ,-0.00002266,-0.00021727,0.00040907,-0.00002108,-0.00011953,-0.0000100
 0,0.00000661,0.00007317,-0.00023527,0.00023101,-0.00009120,0.00002754,
 0.00002515,-0.00000762,-0.00013095,-0.00023428,0.00025331,-0.00001472,
 0.00001540,-0.00002638,-0.00002408,-0.00000316,0.00001471,-0.00002403,
 0.00000121,-0.00000252,-0.06641252,0.01472365,0.05236072,-0.04212553,-
 0.06202436,-0.06732463,0.08772892,0.02352537,-0.00183947,-0.34588899,-
 0.02302102,0.09758804,0.00025416,-0.00366922,-0.00133271,-0.18246673,-
 0.01066161,0.03468876,-0.00157769,-0.00481667,-0.00192022,0.73660324,0
 .00077177,-0.00109186,0.00008523,-0.00016697,-0.00009012,0.00025219,-0
 .00073541,0.00012222,-0.00029867,-0.00001744,-0.00014822,0.00013965,0.
 00001458,-0.00008535,-0.00012552,0.00005737,-0.00003307,-0.00001047,-0
 .00001418,0.00002172,0.00000716,0.00001985,0.00006442,0.00010172,0.000
 04448,0.00000568,0.00006282,-0.00001048,-0.00004901,-0.00005015,0.0000
 1450,-0.00002850,-0.00000586,-0.00000305,-0.00002302,0.00001330,0.0000
 0430,-0.00000293,0.00000930,0.00007145,-0.00000341,-0.00016823,0.00000
 246,-0.00005163,0.00007008,-0.00005323,0.00005978,-0.00005852,-0.00003
 376,-0.00000179,0.00004999,0.00004061,-0.00004146,-0.00000007,0.000042
 86,-0.00001635,-0.00000211,-0.00000066,-0.00001196,-0.00000295,-0.0000
 3963,0.00004574,-0.00000954,-0.00002906,0.00000817,-0.00002211,-0.0000
 1748,-0.00000561,-0.00000031,-0.00001266,-0.00000172,-0.00000304,0.015
 44593,-0.00699048,-0.00808062,-0.02472932,0.01183644,0.01548535,-0.013
 16873,-0.01531648,-0.03150964,-0.07169677,-0.11781343,-0.01406007,-0.0
 0373020,0.00341184,-0.00610050,0.03735243,-0.14959774,-0.11723305,-0.0
 0447898,0.00392984,-0.00546384,0.16080407,0.41451705,0.00054260,-0.001
 30766,-0.00118637,-0.00053412,-0.00043887,0.00062437,-0.00122082,0.000
 05480,-0.00008077,-0.00019442,0.00014843,0.00030813,-0.00021154,-0.000
 35603,-0.00012348,0.00018115,-0.00020974,0.00015731,-0.00000984,0.0000
 1817,0.00000821,0.00000193,0.00035953,0.00017580,0.00013368,-0.0000923
 0,0.00003435,-0.00006118,-0.00013922,-0.00028676,0.00003982,-0.0000258
 3,-0.00001514,-0.00002219,-0.00005346,0.00004194,0.00000797,-0.0000076
 5,0.00000594,-0.00000375,0.00012795,-0.00048046,0.00023380,0.00005669,
 0.00020565,-0.00036307,0.00009555,0.00006234,-0.00029793,0.00003544,0.
 00013402,0.00002984,-0.00003853,-0.00007200,0.00020902,-0.00016774,0.0
 0005154,-0.00000918,-0.00000980,-0.00000820,0.00001434,0.00019975,-0.0
 0016570,-0.00001645,-0.00000199,-0.00000493,-0.00001375,-0.00000637,-0
 .00000594,-0.00000031,0.00000037,-0.00000655,0.05350494,-0.00665947,-0
 .04589204,-0.01052650,0.03414949,0.06645402,-0.05926248,-0.04977946,-0
 .03615635,0.02626615,-0.03868034,-0.15368332,-0.00168771,-0.00636691,0
 .00055683,0.10632434,-0.09250120,-0.27602018,-0.00129286,-0.00513877,0
 .00202058,-0.04564324,0.27509290,0.60770504,0.00054605,-0.00020814,-0.
 00069189,-0.00008516,-0.00010898,-0.00016758,-0.00005472,0.00000315,-0
 .00006082,-0.00000680,-0.00003558,-0.00000403,0.00000379,0.00000536,0.
 00001789,0.00000630,-0.00000612,-0.00000519,-0.00000301,0.00000190,0.0
 0000641,0.00000986,-0.00000713,0.00001187,0.00000317,-0.00001392,0.000
 01597,0.00000021,-0.00000321,-0.00000090,0.00000149,-0.00000240,-0.000
 00067,-0.00000127,0.00000308,-0.00000057,-0.00000147,0.00000118,0.0000
 0159,0.00011960,0.00003923,0.00005201,-0.00002009,0.00001642,0.0000037
 1,0.00000704,0.00000383,0.00003833,0.00000334,0.00001298,-0.00000083,-
 0.00000096,-0.00000624,-0.00000905,-0.00001920,0.00000842,0.00001196,0
 .00000231,-0.00001120,-0.00000809,-0.00002736,0.00001005,0.00000989,-0
 .00000456,-0.00000134,-0.00000497,-0.00000538,-0.00000550,-0.00000609,
 -0.00000129,-0.00000377,-0.00000476,-0.00159826,-0.00457960,-0.0015542
 3,0.01252479,-0.01116684,-0.02006432,-0.00100400,-0.00044690,-0.000685
 59,-0.11284240,0.04279205,0.09523787,0.00086341,0.00170594,-0.00039459
 ,-0.00545796,-0.00342863,0.00216789,-0.00001681,0.00032244,-0.00013724
 ,-0.00576476,0.01689805,0.03063742,0.11256209,0.00050365,-0.00024233,-
 0.00056237,-0.00016918,-0.00021731,-0.00016534,-0.00007643,0.00014133,
 -0.00015005,0.00003398,-0.00010860,0.00004271,-0.00004166,-0.00010621,
 -0.00002442,-0.00000351,-0.00000096,-0.00000580,0.00001042,0.00001077,
 0.00001848,-0.00000984,0.00000967,-0.00000382,0.00001972,0.00003958,-0
 .00004619,0.00000577,-0.00002341,0.00000629,-0.00000011,-0.00001268,-0
 .00000018,0.00001076,-0.00002759,0.00001151,0.00000471,-0.00000757,0.0
 0000014,0.00024177,-0.00002910,0.00004526,0.00000446,0.00003375,0.0000
 0931,-0.00009577,0.00004448,0.00001924,-0.00002396,-0.00001289,0.00001
 094,-0.00000108,-0.00001441,0.00002147,0.00002280,-0.00001531,0.000019
 55,0.00000757,-0.00001778,-0.00001110,-0.00002096,0.00003006,-0.000010
 15,-0.00000220,0.00000312,0.00000134,-0.00002235,-0.00001214,0.0000001
 7,-0.00000913,0.00000086,-0.00000278,-0.00464674,0.00380591,-0.0048253
 6,0.01014324,-0.00304121,-0.01773692,-0.00040993,-0.00063419,0.0006903
 8,0.04289038,-0.11268385,-0.11617889,0.00090663,-0.00275360,0.00286652
 ,-0.00317932,0.00590581,-0.00290836,0.00033748,-0.00080579,0.00049644,
 -0.00459230,0.00764195,0.00529670,-0.04347611,0.10583270,0.00082256,0.
 00007762,-0.00045267,-0.00009277,-0.00014633,-0.00018232,-0.00018338,0
 .00004716,-0.00012848,0.00000026,-0.00009171,0.00004754,0.00000890,-0.
 00005162,0.00004806,0.00001508,-0.00001971,-0.00000431,0.00000003,0.00
 001394,0.00000699,-0.00001189,0.00001444,-0.00002074,0.00000928,0.0000
 1951,-0.00004169,-0.00000169,-0.00002487,-0.00001244,0.00000336,-0.000
 01823,-0.00000967,0.00000971,-0.00001058,0.00001032,0.00000196,-0.0000
 1576,-0.00000069,0.00016260,-0.00009606,0.00000878,-0.00008294,0.00001
 625,-0.00000114,-0.00000999,0.00003717,-0.00001907,0.00003819,0.000006
 26,0.00001850,0.00001868,-0.00002723,-0.00000030,-0.00002057,0.0000319
 0,0.00000690,0.00001552,-0.00000129,-0.00001210,-0.00006340,0.00000642
 ,0.00003824,-0.00002163,0.00001013,-0.00002674,-0.00002151,-0.00001131
 ,-0.00000100,-0.00002142,-0.00000426,-0.00000851,-0.00193374,-0.005316
 70,0.00178223,0.01149420,-0.00691741,-0.01048532,-0.00081050,0.0006570
 5,0.00041145,0.09503595,-0.11607450,-0.26819928,-0.00129305,0.00257502
 ,-0.00054654,0.00259619,-0.00271913,0.00362982,-0.00013054,0.00050000,
 -0.00046394,-0.00095077,-0.00550648,-0.00204322,-0.10428287,0.13034135
 ,0.27764543,-0.00069830,0.00023703,0.00060306,-0.00000051,-0.00001348,
 -0.00005591,-0.00012150,0.00013970,-0.00010122,0.00004063,-0.00009384,
 0.00003228,0.00003207,-0.00004855,0.00004234,0.00001287,-0.00001513,-0
 .00001377,-0.00001095,0.00001370,0.00000651,-0.00000347,0.00000754,-0.
 00002511,-0.00002039,0.00003502,-0.00003706,0.00001009,-0.00003204,-0.
 00001055,-0.00000656,-0.00002220,-0.00000797,-0.00000325,-0.00001495,0
 .00001832,-0.00000230,-0.00001929,0.00000029,0.00006158,-0.00025565,-0
 .00019643,-0.00007420,-0.00001972,0.00002607,-0.00008591,0.00005566,-0
 .00003378,0.00000752,-0.00001383,0.00002191,0.00001506,-0.00001127,0.0
 0000919,0.00001899,0.00001371,0.00000634,0.00000779,0.00000398,-0.0000
 0037,-0.00002864,0.00001012,-0.00000440,-0.00001643,0.00001738,-0.0000
 0620,-0.00001745,-0.00000317,0.00000917,-0.00001570,0.00000359,-0.0000
 0013,0.00046821,-0.00404301,-0.00159418,0.00083350,0.00017336,-0.00062
 947,-0.01407216,-0.00007077,0.00997140,0.00171648,-0.00035783,0.003037
 76,-0.00019095,0.00027698,-0.00013641,-0.34219788,-0.04712321,0.080135
 25,0.00077579,0.00105797,-0.00148598,-0.00650903,-0.00483818,-0.001053
 56,-0.00054827,-0.00012245,0.00003783,0.35991448,-0.00076825,0.0000304
 9,0.00045311,0.00004338,0.00006409,0.00003995,-0.00010765,0.00005557,-
 0.00007028,0.00000051,-0.00005523,0.00001872,0.00002877,-0.00004529,0.
 00000372,0.00001582,-0.00000184,-0.00000815,-0.00000748,0.00000591,0.0
 0001217,0.00001958,-0.00000511,-0.00001556,-0.00004124,0.00001478,-0.0
 0000250,0.00001574,-0.00003379,0.00000197,-0.00000301,-0.00000886,0.00
 000024,-0.00000883,-0.00001763,0.00001699,-0.00000712,-0.00000764,0.00
 000209,-0.00009215,-0.00032895,-0.00012627,-0.00005357,0.00003445,-0.0
 0003628,-0.00001847,0.00002601,-0.00001056,0.00005643,-0.00000169,0.00
 000733,0.00000383,-0.00000168,0.00000477,-0.00003226,0.00004118,0.0000
 0590,-0.00000117,-0.00001363,-0.00000756,-0.00003717,-0.00003318,0.000
 03107,-0.00000074,0.00000326,-0.00000413,-0.00001141,-0.00000057,0.000
 00586,-0.00000569,-0.00000046,-0.00000101,-0.00350991,0.00353743,-0.00
 629382,0.00030028,-0.00098611,-0.00024990,-0.02144864,0.00276457,0.006
 75978,-0.00068133,0.00422218,-0.00626943,0.00021465,-0.00076746,0.0006
 0866,-0.04703919,-0.06388891,0.00146566,0.00176734,-0.00281116,0.00261
 412,0.01640321,0.00774020,-0.00498577,0.00075301,0.00005776,-0.0001711
 7,0.05338548,0.05304014,-0.00089527,0.00007430,0.00036378,0.00004182,0
 .00004662,-0.00003679,0.00003965,0.00009631,0.00001654,0.00003294,-0.0
 0003129,-0.00002930,0.00000271,0.00000449,0.00000012,-0.00000673,0.000
 00657,-0.00001477,-0.00000639,0.00000109,-0.00000092,-0.00000651,-0.00
 001903,0.00001718,0.00001561,-0.00001402,-0.00000905,0.00000228,0.0000
 0797,0.00001223,-0.00000489,-0.00000300,0.00000029,0.00000492,0.000005
 19,-0.00000733,0.00000182,0.00000215,0.00000071,0.00002331,-0.00011776
 ,-0.00016749,-0.00001909,-0.00000468,0.00003850,-0.00005576,0.00002680
 ,0.00002257,-0.00002681,0.00001032,0.00001445,0.00000328,-0.00000435,-
 0.00001716,0.00001982,-0.00000297,0.00002233,-0.00000088,-0.00000857,-
 0.00000772,-0.00001172,0.00002507,-0.00001766,-0.00000816,0.00000333,-
 0.00000198,-0.00000526,-0.00000258,-0.00000283,-0.00000130,-0.00000125
 ,-0.00000352,-0.00124774,-0.00623873,0.00058836,-0.00059642,-0.0002706
 9,-0.00104872,-0.02179359,-0.00427442,0.01051906,0.00258997,-0.0063899
 1,-0.00221769,-0.00015066,0.00059215,-0.00030408,0.08035102,0.00156018
 ,-0.08790379,-0.00042665,0.00292012,-0.00060791,0.03051537,0.00595212,
 -0.00131758,0.00139213,0.00027833,-0.00035519,-0.08824954,0.00339235,0
 .08293497,0.00002424,0.00031497,-0.00013347,0.00000006,-0.00004533,-0.
 00011875,-0.00000080,0.00005450,0.00000366,0.00000732,-0.00001703,0.00
 001238,0.00002157,-0.00001526,0.00004002,0.00000358,-0.00000720,0.0000
 0208,-0.00000225,0.00000455,0.00000077,-0.00000957,0.00000680,-0.00002
 636,-0.00002182,0.00002371,-0.00002617,-0.00000099,-0.00001063,-0.0000
 0458,-0.00000174,-0.00000768,-0.00000510,0.00000354,-0.00000414,0.0000
 0604,0.00000076,-0.00001025,-0.00000161,0.00003865,-0.00003865,-0.0000
 2921,-0.00000893,-0.00004275,0.00001670,-0.00002958,0.00001104,-0.0000
 6142,-0.00000027,-0.00001546,0.00001573,0.00000997,-0.00000249,0.00000
 837,0.00003998,-0.00000820,-0.00001550,0.00000831,0.00002268,0.0000098
 1,-0.00000198,0.00001629,-0.00000194,-0.00000921,0.00001015,-0.0000093
 6,-0.00000858,-0.00000297,0.00000755,-0.00001391,0.00000295,-0.0000009
 8,-0.00057257,0.00070467,0.00083728,-0.00478235,-0.00191625,0.00409193
 ,0.00036646,-0.00030288,0.00382496,-0.01288319,-0.02154491,-0.02275514
 ,-0.00081889,-0.00090667,-0.00097258,0.01248430,0.00970232,0.01061046,
 0.00035615,0.00041823,0.00040785,-0.17504353,-0.10780851,-0.09570211,0
 .00081025,0.00175969,-0.00033763,0.00070881,0.00086726,-0.00152325,0.1
 7932619,0.00018181,-0.00074777,0.00042525,-0.00005147,0.00002976,0.000
 13903,-0.00010971,-0.00001165,-0.00014310,0.00002010,-0.00006535,0.000
 03613,0.00001111,-0.00004717,0.00000541,0.00000816,-0.00001138,-0.0000
 0285,0.00000159,0.00000666,0.00000781,-0.00000487,0.00002332,-0.000026
 95,-0.00001988,0.00003945,-0.00003236,0.00000266,-0.00002030,-0.000007
 84,-0.00000017,-0.00001115,-0.00000303,-0.00000017,-0.00001854,0.00001
 495,-0.00000097,-0.00001169,-0.00000079,-0.00000192,-0.00005174,-0.000
 01107,-0.00001855,-0.00002447,-0.00003029,-0.00000466,0.00001865,-0.00
 003607,0.00001077,-0.00002038,0.00000620,0.00000113,-0.00000175,0.0000
 1799,0.00001383,0.00000527,-0.00000436,0.00000423,0.00000278,0.0000071
 4,-0.00001243,0.00000455,0.00000409,-0.00000062,0.00000716,0.00000058,
 -0.00000982,-0.00000525,0.00000372,-0.00000840,0.00000266,0.00000117,0
 .00078137,-0.00020687,0.00068642,-0.00230672,0.00624661,-0.00290025,0.
 00003538,0.00502890,-0.00545617,0.00006450,0.00220797,-0.00446772,-0.0
 0001543,-0.00017099,-0.00012064,-0.01162165,-0.00318732,-0.00630076,-0
 .00043054,-0.00042109,-0.00030369,-0.10792794,-0.15800090,-0.10866866,
 0.00093450,-0.00279080,0.00287015,0.00168733,-0.00262886,0.00237778,0.
 11878744,0.15483167,-0.00018149,0.00054225,-0.00023650,0.00007188,-0.0
 0002943,-0.00002384,-0.00001559,0.00008386,0.00006058,-0.00000881,0.00
 001241,0.00001708,-0.00001348,-0.00001835,0.00002204,0.00000332,-0.000
 00348,0.00001434,0.00000602,0.00000617,0.00000030,-0.00000777,0.000014
 42,-0.00001193,0.00001355,0.00000317,-0.00001857,0.00000111,-0.0000078
 9,-0.00001105,-0.00000063,-0.00000638,-0.00000679,0.00000251,-0.000001
 79,0.00000606,0.00000132,-0.00001014,-0.00000027,0.00005401,-0.0000663
 7,0.00000374,-0.00002875,0.00002427,0.00001253,-0.00005199,0.00002212,
 0.00000886,0.00000541,-0.00000363,0.00000829,0.00001285,-0.00001425,0.
 00000425,-0.00000664,0.00000288,-0.00000059,0.00000616,0.00000394,-0.0
 0000550,-0.00001088,-0.00000159,0.00000095,-0.00000890,0.00000641,-0.0
 0000717,-0.00000661,-0.00000054,0.00000411,-0.00000826,0.00000080,0.00
 000005,0.00080964,0.00057262,-0.00056137,0.00351802,-0.00303294,0.0027
 8137,0.00438129,-0.00529182,-0.00147463,0.00887756,0.00638860,0.010205
 61,0.00029632,0.00031348,0.00022981,-0.02104480,-0.01730495,-0.0098887
 4,-0.00091157,-0.00077006,-0.00080414,-0.09574800,-0.10861005,-0.16099
 712,-0.00152066,0.00245561,-0.00063889,-0.00031569,0.00280790,-0.00047
 961,0.10182955,0.12191277,0.16178674||0.00000565,0.00001951,0.00000174
 ,0.00000041,-0.00000722,-0.00000172,-0.00000346,-0.00001989,-0.0000441
 6,-0.00000103,0.00004135,0.00001726,0.00001944,-0.00004526,0.00003903,
 0.00000884,-0.00003687,0.00002465,0.00000091,-0.00000542,-0.00000072,-
 0.00000320,0.00005277,0.00002084,-0.00000395,-0.00000315,-0.00000639,-
 0.00001000,-0.00000414,-0.00004975,-0.00000053,0.00000265,-0.00000171,
 0.00000031,-0.00000374,-0.00000300,0.00000039,0.00000210,0.00000320,0.
 00000575,0.00001907,-0.00002802,0.00002303,-0.00001756,0.00001553,-0.0
 0004651,-0.00000869,0.00001507,-0.00003492,-0.00000061,0.00001813,-0.0
 0000361,0.00000253,-0.00000067,0.00003568,-0.00002269,0.00001731,-0.00
 000025,0.00000699,-0.00000051,0.00000762,0.00002667,-0.00003464,0.0000
 0466,0.00000037,-0.00000183,-0.00000217,0.00000205,-0.00000196,0.00000
 088,-0.00000413,0.00000272,-0.00000362,0.00000193,-0.00000752,0.000004
 03,0.00000902,0.00001918,-0.00000045,-0.00000437,0.00000142,-0.0000135
 5,-0.00001035,-0.00000102,0.00000263,-0.00000062,-0.00000339,0.0000014
 9,0.00000622,0.00000107,-0.00000002,0.00000143,0.00000086,0.00000517,0
 .00000052,-0.00001106,0.00000177,0.00000261,-0.00000224,-0.00000009,-0
 .00000162,0.00000145,-0.00000130,-0.00000143,0.00000085|||@


 We find comfort among those who agree with us -- growth among those who don't.
 -- Frank A. Clark
 Job cpu time:  0 days  0 hours  6 minutes 26.0 seconds.
 File lengths (MBytes):  RWF=    350 Int=      0 D2E=      0 Chk=      7 Scr=      1
 Normal termination of Gaussian 09 at Mon Sep 06 16:10:24 2021.
