 Entering Link 1 = b:\programy\g09w\l1.exe PID=      6424.
  
 Copyright (c) 1988,1990,1992,1993,1995,1998,2003,2009, Gaussian, Inc.
                  All Rights Reserved.
  
 This is part of the Gaussian(R) 09 program.  It is based on
 the Gaussian(R) 03 system (copyright 2003, Gaussian, Inc.),
 the Gaussian(R) 98 system (copyright 1998, Gaussian, Inc.),
 the Gaussian(R) 94 system (copyright 1995, Gaussian, Inc.),
 the Gaussian 92(TM) system (copyright 1992, Gaussian, Inc.),
 the Gaussian 90(TM) system (copyright 1990, Gaussian, Inc.),
 the Gaussian 88(TM) system (copyright 1988, Gaussian, Inc.),
 the Gaussian 86(TM) system (copyright 1986, Carnegie Mellon
 University), and the Gaussian 82(TM) system (copyright 1983,
 Carnegie Mellon University). Gaussian is a federally registered
 trademark of Gaussian, Inc.
  
 This software contains proprietary and confidential information,
 including trade secrets, belonging to Gaussian, Inc.
  
 This software is provided under written license and may be
 used, copied, transmitted, or stored only in accord with that
 written license.
  
 The following legend is applicable only to US Government
 contracts under FAR:
  
                    RESTRICTED RIGHTS LEGEND
  
 Use, reproduction and disclosure by the US Government is
 subject to restrictions as set forth in subparagraphs (a)
 and (c) of the Commercial Computer Software - Restricted
 Rights clause in FAR 52.227-19.
  
 Gaussian, Inc.
 340 Quinnipiac St., Bldg. 40, Wallingford CT 06492
  
  
 ---------------------------------------------------------------
 Warning -- This program may not be used in any manner that
 competes with the business of Gaussian, Inc. or will provide
 assistance to any competitor of Gaussian, Inc.  The licensee
 of this program is prohibited from giving any competitor of
 Gaussian, Inc. access to this program.  By using this program,
 the user acknowledges that Gaussian, Inc. is engaged in the
 business of creating and licensing software in the field of
 computational chemistry and represents and warrants to the
 licensee that it is not a competitor of Gaussian, Inc. and that
 it will not use this program in any manner prohibited above.
 ---------------------------------------------------------------
  

 Cite this work as:
 Gaussian 09, Revision A.02,
 M. J. Frisch, G. W. Trucks, H. B. Schlegel, G. E. Scuseria, 
 M. A. Robb, J. R. Cheeseman, G. Scalmani, V. Barone, B. Mennucci, 
 G. A. Petersson, H. Nakatsuji, M. Caricato, X. Li, H. P. Hratchian, 
 A. F. Izmaylov, J. Bloino, G. Zheng, J. L. Sonnenberg, M. Hada, 
 M. Ehara, K. Toyota, R. Fukuda, J. Hasegawa, M. Ishida, T. Nakajima, 
 Y. Honda, O. Kitao, H. Nakai, T. Vreven, J. A. Montgomery, Jr., 
 J. E. Peralta, F. Ogliaro, M. Bearpark, J. J. Heyd, E. Brothers, 
 K. N. Kudin, V. N. Staroverov, R. Kobayashi, J. Normand, 
 K. Raghavachari, A. Rendell, J. C. Burant, S. S. Iyengar, J. Tomasi, 
 M. Cossi, N. Rega, J. M. Millam, M. Klene, J. E. Knox, J. B. Cross, 
 V. Bakken, C. Adamo, J. Jaramillo, R. Gomperts, R. E. Stratmann, 
 O. Yazyev, A. J. Austin, R. Cammi, C. Pomelli, J. W. Ochterski, 
 R. L. Martin, K. Morokuma, V. G. Zakrzewski, G. A. Voth, 
 P. Salvador, J. J. Dannenberg, S. Dapprich, A. D. Daniels, 
 O. Farkas, J. B. Foresman, J. V. Ortiz, J. Cioslowski, 
 and D. J. Fox, Gaussian, Inc., Wallingford CT, 2009.
 
 ******************************************
 Gaussian 09:  IA32W-G09RevA.02 11-Jun-2009
                06-Sep-2021 
 ******************************************
 %nprocshared=12
 Will use up to   12 processors via shared memory.
 ----------------------------------------------
 # opt freq=noraman hf/6-311g geom=connectivity
 ----------------------------------------------
 1/18=20,19=15,38=1,57=2/1,3;
 2/9=110,12=2,17=6,18=5,40=1/2;
 3/5=4,6=6,11=9,16=1,25=1,30=1,71=1/1,2,3;
 4//1;
 5/5=2,38=5/2;
 6/7=2,8=2,9=2,10=2,28=1/1;
 7//1,2,3,16;
 1/18=20,19=15/3(2);
 2/9=110/2;
 99//99;
 2/9=110/2;
 3/5=4,6=6,11=9,16=1,25=1,30=1,71=1/1,2,3;
 4/5=5,16=3/1;
 5/5=2,38=5/2;
 7//1,2,3,16;
 1/18=20,19=15/3(-5);
 2/9=110/2;
 6/7=2,8=2,9=2,10=2,19=2,28=1/1;
 99/9=1/99;
 -----
 M0001
 -----
 Symbolic Z-matrix:
 Charge =  0 Multiplicity = 1
 C                     0.11251  -0.75824   0.0521 
 H                     0.23347  -1.8753    0.08088 
 C                    -1.36976  -0.49005  -0.05201 
 C                    -1.96552   0.65535   0.47526 
 C                    -2.16937  -1.42892  -0.71171 
 C                    -3.33556   0.8591    0.34726 
 H                    -1.35253   1.39714   1.00301 
 C                    -3.53716  -1.2224   -0.84014 
 H                    -1.71564  -2.33296  -1.13457 
 C                    -4.12386  -0.07755  -0.31033 
 H                    -3.79211   1.76102   0.768 
 H                    -4.15382  -1.96325  -1.35932 
 H                    -5.20186   0.08375  -0.41056 
 C                     0.71845  -0.23353   1.32999 
 C                     0.9053   -1.12478   2.39115 
 C                     1.09434   1.10053   1.49532 
 C                     1.45801  -0.68873   3.5894 
 H                     0.61358  -2.17609   2.28132 
 C                     1.6504    1.53438   2.69341 
 H                     0.95466   1.81063   0.66433 
 C                     1.83309   0.64162   3.74316 
 H                     1.59855  -1.39582   4.41344 
 H                     1.9451    2.58263   2.80758 
 H                     2.27076   0.98378   4.68626 
 C                     0.82138  -0.26944  -1.18726 
 C                     0.74761   1.06113  -1.60237 
 C                     1.55487  -1.17951  -1.95262 
 C                     1.38519   1.47393  -2.76599 
 H                     0.19405   1.78269  -0.98218 
 C                     2.19555  -0.76446  -3.11456 
 H                     1.62649  -2.22761  -1.63858 
 C                     2.109     0.56117  -3.5256 
 H                     1.31647   2.51953  -3.08315 
 H                     2.76806  -1.48515  -3.70781 
 H                     2.61027   0.88543  -4.44312 
 

 GradGradGradGradGradGradGradGradGradGradGradGradGradGradGradGradGradGrad
 Berny optimization.
 Initialization pass.
                           ----------------------------
                           !    Initial Parameters    !
                           ! (Angstroms and Degrees)  !
 --------------------------                            --------------------------
 ! Name  Definition              Value          Derivative Info.                !
 --------------------------------------------------------------------------------
 ! R1    R(1,2)                  1.124          estimate D2E/DX2                !
 ! R2    R(1,3)                  1.5099         estimate D2E/DX2                !
 ! R3    R(1,14)                 1.5085         estimate D2E/DX2                !
 ! R4    R(1,25)                 1.5091         estimate D2E/DX2                !
 ! R5    R(3,4)                  1.3946         estimate D2E/DX2                !
 ! R6    R(3,5)                  1.3986         estimate D2E/DX2                !
 ! R7    R(4,6)                  1.391          estimate D2E/DX2                !
 ! R8    R(4,7)                  1.0975         estimate D2E/DX2                !
 ! R9    R(5,8)                  1.3892         estimate D2E/DX2                !
 ! R10   R(5,9)                  1.0963         estimate D2E/DX2                !
 ! R11   R(6,10)                 1.3897         estimate D2E/DX2                !
 ! R12   R(6,11)                 1.095          estimate D2E/DX2                !
 ! R13   R(8,10)                 1.3913         estimate D2E/DX2                !
 ! R14   R(8,12)                 1.0948         estimate D2E/DX2                !
 ! R15   R(10,13)                1.0946         estimate D2E/DX2                !
 ! R16   R(14,15)                1.3983         estimate D2E/DX2                !
 ! R17   R(14,16)                1.3958         estimate D2E/DX2                !
 ! R18   R(15,17)                1.3898         estimate D2E/DX2                !
 ! R19   R(15,18)                1.0965         estimate D2E/DX2                !
 ! R20   R(16,19)                1.3903         estimate D2E/DX2                !
 ! R21   R(16,20)                1.1019         estimate D2E/DX2                !
 ! R22   R(17,21)                1.3907         estimate D2E/DX2                !
 ! R23   R(17,22)                1.0949         estimate D2E/DX2                !
 ! R24   R(19,21)                1.3901         estimate D2E/DX2                !
 ! R25   R(19,23)                1.0949         estimate D2E/DX2                !
 ! R26   R(21,24)                1.0946         estimate D2E/DX2                !
 ! R27   R(25,26)                1.3958         estimate D2E/DX2                !
 ! R28   R(25,27)                1.3971         estimate D2E/DX2                !
 ! R29   R(26,28)                1.3896         estimate D2E/DX2                !
 ! R30   R(26,29)                1.1008         estimate D2E/DX2                !
 ! R31   R(27,30)                1.3903         estimate D2E/DX2                !
 ! R32   R(27,31)                1.0965         estimate D2E/DX2                !
 ! R33   R(28,32)                1.3907         estimate D2E/DX2                !
 ! R34   R(28,33)                1.0948         estimate D2E/DX2                !
 ! R35   R(30,32)                1.3906         estimate D2E/DX2                !
 ! R36   R(30,34)                1.095          estimate D2E/DX2                !
 ! R37   R(32,35)                1.0947         estimate D2E/DX2                !
 ! A1    A(2,1,3)              106.4955         estimate D2E/DX2                !
 ! A2    A(2,1,14)             106.3074         estimate D2E/DX2                !
 ! A3    A(2,1,25)             107.0006         estimate D2E/DX2                !
 ! A4    A(3,1,14)             113.0145         estimate D2E/DX2                !
 ! A5    A(3,1,25)             110.3015         estimate D2E/DX2                !
 ! A6    A(14,1,25)            113.2264         estimate D2E/DX2                !
 ! A7    A(1,3,4)              122.6279         estimate D2E/DX2                !
 ! A8    A(1,3,5)              118.3294         estimate D2E/DX2                !
 ! A9    A(4,3,5)              119.0417         estimate D2E/DX2                !
 ! A10   A(3,4,6)              120.4154         estimate D2E/DX2                !
 ! A11   A(3,4,7)              119.8886         estimate D2E/DX2                !
 ! A12   A(6,4,7)              119.6935         estimate D2E/DX2                !
 ! A13   A(3,5,8)              120.4446         estimate D2E/DX2                !
 ! A14   A(3,5,9)              119.9247         estimate D2E/DX2                !
 ! A15   A(8,5,9)              119.6302         estimate D2E/DX2                !
 ! A16   A(4,6,10)             120.2337         estimate D2E/DX2                !
 ! A17   A(4,6,11)             119.7332         estimate D2E/DX2                !
 ! A18   A(10,6,11)            120.0331         estimate D2E/DX2                !
 ! A19   A(5,8,10)             120.1536         estimate D2E/DX2                !
 ! A20   A(5,8,12)             119.8536         estimate D2E/DX2                !
 ! A21   A(10,8,12)            119.9927         estimate D2E/DX2                !
 ! A22   A(6,10,8)             119.711          estimate D2E/DX2                !
 ! A23   A(6,10,13)            120.1765         estimate D2E/DX2                !
 ! A24   A(8,10,13)            120.1125         estimate D2E/DX2                !
 ! A25   A(1,14,15)            118.3498         estimate D2E/DX2                !
 ! A26   A(1,14,16)            122.749          estimate D2E/DX2                !
 ! A27   A(15,14,16)           118.9009         estimate D2E/DX2                !
 ! A28   A(14,15,17)           120.4955         estimate D2E/DX2                !
 ! A29   A(14,15,18)           119.9684         estimate D2E/DX2                !
 ! A30   A(17,15,18)           119.5361         estimate D2E/DX2                !
 ! A31   A(14,16,19)           120.5327         estimate D2E/DX2                !
 ! A32   A(14,16,20)           119.5005         estimate D2E/DX2                !
 ! A33   A(19,16,20)           119.9651         estimate D2E/DX2                !
 ! A34   A(15,17,21)           120.1799         estimate D2E/DX2                !
 ! A35   A(15,17,22)           119.8238         estimate D2E/DX2                !
 ! A36   A(21,17,22)           119.9963         estimate D2E/DX2                !
 ! A37   A(16,19,21)           120.1937         estimate D2E/DX2                !
 ! A38   A(16,19,23)           119.7554         estimate D2E/DX2                !
 ! A39   A(21,19,23)           120.051          estimate D2E/DX2                !
 ! A40   A(17,21,19)           119.6968         estimate D2E/DX2                !
 ! A41   A(17,21,24)           120.1405         estimate D2E/DX2                !
 ! A42   A(19,21,24)           120.1627         estimate D2E/DX2                !
 ! A43   A(1,25,26)            121.883          estimate D2E/DX2                !
 ! A44   A(1,25,27)            119.0456         estimate D2E/DX2                !
 ! A45   A(26,25,27)           119.0634         estimate D2E/DX2                !
 ! A46   A(25,26,28)           120.53           estimate D2E/DX2                !
 ! A47   A(25,26,29)           118.9401         estimate D2E/DX2                !
 ! A48   A(28,26,29)           120.5175         estimate D2E/DX2                !
 ! A49   A(25,27,30)           120.3519         estimate D2E/DX2                !
 ! A50   A(25,27,31)           120.0021         estimate D2E/DX2                !
 ! A51   A(30,27,31)           119.646          estimate D2E/DX2                !
 ! A52   A(26,28,32)           120.0805         estimate D2E/DX2                !
 ! A53   A(26,28,33)           119.835          estimate D2E/DX2                !
 ! A54   A(32,28,33)           120.0845         estimate D2E/DX2                !
 ! A55   A(27,30,32)           120.1952         estimate D2E/DX2                !
 ! A56   A(27,30,34)           119.8175         estimate D2E/DX2                !
 ! A57   A(32,30,34)           119.9872         estimate D2E/DX2                !
 ! A58   A(28,32,30)           119.7767         estimate D2E/DX2                !
 ! A59   A(28,32,35)           120.1152         estimate D2E/DX2                !
 ! A60   A(30,32,35)           120.108          estimate D2E/DX2                !
 ! D1    D(2,1,3,4)            150.0194         estimate D2E/DX2                !
 ! D2    D(2,1,3,5)            -30.3531         estimate D2E/DX2                !
 ! D3    D(14,1,3,4)            33.6629         estimate D2E/DX2                !
 ! D4    D(14,1,3,5)          -146.7096         estimate D2E/DX2                !
 ! D5    D(25,1,3,4)           -94.2157         estimate D2E/DX2                !
 ! D6    D(25,1,3,5)            85.4118         estimate D2E/DX2                !
 ! D7    D(2,1,14,15)          -18.5876         estimate D2E/DX2                !
 ! D8    D(2,1,14,16)          161.6067         estimate D2E/DX2                !
 ! D9    D(3,1,14,15)           97.8804         estimate D2E/DX2                !
 ! D10   D(3,1,14,16)          -81.9253         estimate D2E/DX2                !
 ! D11   D(25,1,14,15)        -135.7849         estimate D2E/DX2                !
 ! D12   D(25,1,14,16)          44.4094         estimate D2E/DX2                !
 ! D13   D(2,1,25,26)          173.1967         estimate D2E/DX2                !
 ! D14   D(2,1,25,27)           -5.761          estimate D2E/DX2                !
 ! D15   D(3,1,25,26)           57.749          estimate D2E/DX2                !
 ! D16   D(3,1,25,27)         -121.2088         estimate D2E/DX2                !
 ! D17   D(14,1,25,26)         -70.013          estimate D2E/DX2                !
 ! D18   D(14,1,25,27)         111.0292         estimate D2E/DX2                !
 ! D19   D(1,3,4,6)            179.687          estimate D2E/DX2                !
 ! D20   D(1,3,4,7)             -0.8883         estimate D2E/DX2                !
 ! D21   D(5,3,4,6)              0.062          estimate D2E/DX2                !
 ! D22   D(5,3,4,7)            179.4867         estimate D2E/DX2                !
 ! D23   D(1,3,5,8)           -179.6054         estimate D2E/DX2                !
 ! D24   D(1,3,5,9)              0.1614         estimate D2E/DX2                !
 ! D25   D(4,3,5,8)              0.0358         estimate D2E/DX2                !
 ! D26   D(4,3,5,9)            179.8026         estimate D2E/DX2                !
 ! D27   D(3,4,6,10)            -0.1088         estimate D2E/DX2                !
 ! D28   D(3,4,6,11)           179.8253         estimate D2E/DX2                !
 ! D29   D(7,4,6,10)          -179.5346         estimate D2E/DX2                !
 ! D30   D(7,4,6,11)             0.3994         estimate D2E/DX2                !
 ! D31   D(3,5,8,10)            -0.0874         estimate D2E/DX2                !
 ! D32   D(3,5,8,12)           179.94           estimate D2E/DX2                !
 ! D33   D(9,5,8,10)          -179.855          estimate D2E/DX2                !
 ! D34   D(9,5,8,12)             0.1725         estimate D2E/DX2                !
 ! D35   D(4,6,10,8)             0.0568         estimate D2E/DX2                !
 ! D36   D(4,6,10,13)         -179.9971         estimate D2E/DX2                !
 ! D37   D(11,6,10,8)         -179.877          estimate D2E/DX2                !
 ! D38   D(11,6,10,13)           0.0691         estimate D2E/DX2                !
 ! D39   D(5,8,10,6)             0.0409         estimate D2E/DX2                !
 ! D40   D(5,8,10,13)         -179.9053         estimate D2E/DX2                !
 ! D41   D(12,8,10,6)         -179.9866         estimate D2E/DX2                !
 ! D42   D(12,8,10,13)           0.0672         estimate D2E/DX2                !
 ! D43   D(1,14,15,17)        -179.9069         estimate D2E/DX2                !
 ! D44   D(1,14,15,18)           0.0129         estimate D2E/DX2                !
 ! D45   D(16,14,15,17)         -0.0936         estimate D2E/DX2                !
 ! D46   D(16,14,15,18)        179.8262         estimate D2E/DX2                !
 ! D47   D(1,14,16,19)        -179.93           estimate D2E/DX2                !
 ! D48   D(1,14,16,20)          -0.4017         estimate D2E/DX2                !
 ! D49   D(15,14,16,19)          0.2653         estimate D2E/DX2                !
 ! D50   D(15,14,16,20)        179.7936         estimate D2E/DX2                !
 ! D51   D(14,15,17,21)         -0.0974         estimate D2E/DX2                !
 ! D52   D(14,15,17,22)        179.9449         estimate D2E/DX2                !
 ! D53   D(18,15,17,21)        179.9825         estimate D2E/DX2                !
 ! D54   D(18,15,17,22)          0.0248         estimate D2E/DX2                !
 ! D55   D(14,16,19,21)         -0.247          estimate D2E/DX2                !
 ! D56   D(14,16,19,23)        179.7066         estimate D2E/DX2                !
 ! D57   D(20,16,19,21)       -179.7732         estimate D2E/DX2                !
 ! D58   D(20,16,19,23)          0.1805         estimate D2E/DX2                !
 ! D59   D(15,17,21,19)          0.1183         estimate D2E/DX2                !
 ! D60   D(15,17,21,24)       -179.8394         estimate D2E/DX2                !
 ! D61   D(22,17,21,19)       -179.9241         estimate D2E/DX2                !
 ! D62   D(22,17,21,24)          0.1182         estimate D2E/DX2                !
 ! D63   D(16,19,21,17)          0.0529         estimate D2E/DX2                !
 ! D64   D(16,19,21,24)       -179.9894         estimate D2E/DX2                !
 ! D65   D(23,19,21,17)       -179.9006         estimate D2E/DX2                !
 ! D66   D(23,19,21,24)          0.0571         estimate D2E/DX2                !
 ! D67   D(1,25,26,28)        -178.4412         estimate D2E/DX2                !
 ! D68   D(1,25,26,29)           2.8303         estimate D2E/DX2                !
 ! D69   D(27,25,26,28)          0.5164         estimate D2E/DX2                !
 ! D70   D(27,25,26,29)       -178.2122         estimate D2E/DX2                !
 ! D71   D(1,25,27,30)         178.659          estimate D2E/DX2                !
 ! D72   D(1,25,27,31)          -1.2637         estimate D2E/DX2                !
 ! D73   D(26,25,27,30)         -0.3285         estimate D2E/DX2                !
 ! D74   D(26,25,27,31)        179.7488         estimate D2E/DX2                !
 ! D75   D(25,26,28,32)         -0.2614         estimate D2E/DX2                !
 ! D76   D(25,26,28,33)        179.7529         estimate D2E/DX2                !
 ! D77   D(29,26,28,32)        178.447          estimate D2E/DX2                !
 ! D78   D(29,26,28,33)         -1.5388         estimate D2E/DX2                !
 ! D79   D(25,27,30,32)         -0.1143         estimate D2E/DX2                !
 ! D80   D(25,27,30,34)       -179.9975         estimate D2E/DX2                !
 ! D81   D(31,27,30,32)        179.8087         estimate D2E/DX2                !
 ! D82   D(31,27,30,34)         -0.0745         estimate D2E/DX2                !
 ! D83   D(26,28,32,30)         -0.187          estimate D2E/DX2                !
 ! D84   D(26,28,32,35)        179.9108         estimate D2E/DX2                !
 ! D85   D(33,28,32,30)        179.7988         estimate D2E/DX2                !
 ! D86   D(33,28,32,35)         -0.1034         estimate D2E/DX2                !
 ! D87   D(27,30,32,28)          0.3739         estimate D2E/DX2                !
 ! D88   D(27,30,32,35)       -179.7239         estimate D2E/DX2                !
 ! D89   D(34,30,32,28)       -179.743          estimate D2E/DX2                !
 ! D90   D(34,30,32,35)          0.1592         estimate D2E/DX2                !
 --------------------------------------------------------------------------------
 Trust Radius=3.00D-01 FncErr=1.00D-07 GrdErr=1.00D-07
 Number of steps in this run= 197 maximum allowed number of steps= 210.
 GradGradGradGradGradGradGradGradGradGradGradGradGradGradGradGradGradGrad

                          Input orientation:                          
 ---------------------------------------------------------------------
 Center     Atomic      Atomic             Coordinates (Angstroms)
 Number     Number       Type             X           Y           Z
 ---------------------------------------------------------------------
      1          6           0        0.112512   -0.758242    0.052104
      2          1           0        0.233469   -1.875302    0.080877
      3          6           0       -1.369757   -0.490048   -0.052008
      4          6           0       -1.965518    0.655353    0.475258
      5          6           0       -2.169373   -1.428925   -0.711713
      6          6           0       -3.335560    0.859098    0.347261
      7          1           0       -1.352528    1.397135    1.003012
      8          6           0       -3.537157   -1.222398   -0.840141
      9          1           0       -1.715640   -2.332961   -1.134567
     10          6           0       -4.123856   -0.077548   -0.310331
     11          1           0       -3.792107    1.761023    0.768004
     12          1           0       -4.153819   -1.963252   -1.359319
     13          1           0       -5.201858    0.083749   -0.410556
     14          6           0        0.718454   -0.233535    1.329988
     15          6           0        0.905298   -1.124781    2.391151
     16          6           0        1.094336    1.100532    1.495319
     17          6           0        1.458011   -0.688731    3.589401
     18          1           0        0.613584   -2.176095    2.281325
     19          6           0        1.650396    1.534383    2.693415
     20          1           0        0.954660    1.810630    0.664329
     21          6           0        1.833090    0.641623    3.743158
     22          1           0        1.598552   -1.395825    4.413444
     23          1           0        1.945104    2.582626    2.807579
     24          1           0        2.270763    0.983778    4.686257
     25          6           0        0.821382   -0.269443   -1.187263
     26          6           0        0.747613    1.061129   -1.602375
     27          6           0        1.554872   -1.179510   -1.952619
     28          6           0        1.385190    1.473930   -2.765994
     29          1           0        0.194046    1.782692   -0.982183
     30          6           0        2.195549   -0.764463   -3.114563
     31          1           0        1.626488   -2.227605   -1.638577
     32          6           0        2.108999    0.561174   -3.525595
     33          1           0        1.316471    2.519531   -3.083146
     34          1           0        2.768065   -1.485153   -3.707807
     35          1           0        2.610267    0.885430   -4.443122
 ---------------------------------------------------------------------
                    Distance matrix (angstroms):
                    1          2          3          4          5
     1  C    0.000000
     2  H    1.123958   0.000000
     3  C    1.509930   2.122951   0.000000
     4  C    2.548631   3.375692   1.394591   0.000000
     5  C    2.498046   2.569261   1.398601   2.407212   0.000000
     6  C    3.819961   4.503983   2.417435   1.391010   2.777853
     7  H    2.774206   3.751608   2.162135   1.097508   3.405016
     8  C    3.785713   3.936010   2.419734   2.779617   1.389237
     9  H    2.688879   2.342175   2.165155   3.403527   1.096340
    10  C    4.305986   4.729825   2.796774   2.410957   2.409840
    11  H    4.701623   5.468113   3.406981   2.155141   3.872802
    12  H    4.652499   4.618463   3.410336   3.874458   2.154745
    13  H    5.400512   5.798463   3.891375   3.403718   3.402182
    14  C    1.508466   2.119172   2.517209   2.953708   3.733235
    15  C    2.496798   2.520318   3.398204   3.883441   4.378798
    16  C    2.549880   3.405485   3.316010   3.255981   4.681980
    17  C    3.785191   3.900922   4.614717   4.819232   5.674979
    18  H    2.689016   2.253206   3.495832   4.234471   4.154683
    19  C    3.820698   4.523161   4.555984   4.332176   5.913267
    20  H    2.771847   3.800872   3.348011   3.146086   4.706144
    21  C    4.306262   4.722923   5.093348   5.010867   6.336620
    22  H    4.651463   4.567766   5.437973   5.693789   6.361257
    23  H    4.702385   5.498883   5.348539   4.944398   6.738462
    24  H    5.400746   5.790893   6.154406   5.982179   7.394189
    25  C    1.509122   2.128991   2.477611   3.374320   3.242709
    26  C    2.539835   3.423493   3.048449   3.441263   3.937315
    27  C    2.505351   2.522962   3.555437   4.653435   3.933454
    28  C    3.813656   4.544061   4.337356   4.733183   5.028076
    29  H    2.744584   3.809537   2.911366   2.838793   3.996671
    30  C    3.790365   3.910826   4.708073   5.676017   5.026703
    31  H    2.703619   2.240791   3.809697   5.067766   3.988174
    32  C    4.304271   4.739268   5.027188   5.711163   5.493896
    33  H    4.692878   5.522544   5.045907   5.187374   5.776253
    34  H    4.660182   4.574989   5.610407   6.669828   5.775641
    35  H    5.398842   5.808389   6.083947   6.721697   6.490348
                    6          7          8          9         10
     6  C    0.000000
     7  H    2.156828   0.000000
     8  C    2.404827   3.877083   0.000000
     9  H    3.874170   4.314477   2.153592   0.000000
    10  C    1.389656   3.402913   1.391257   3.400846   0.000000
    11  H    1.094956   2.477738   3.398813   4.969124   2.157129
    12  H    3.398179   4.971926   1.094844   2.476270   2.158044
    13  H    2.158361   4.305868   2.159119   4.303301   1.094601
    14  C    4.312149   2.656119   4.878272   4.050486   5.114973
    15  C    5.108634   3.658521   5.494196   4.556282   5.804059
    16  C    4.582608   2.513460   5.683406   5.157630   5.646040
    17  C    5.990456   4.351940   6.697563   5.923802   6.836570
    18  H    5.343101   4.274068   5.280316   4.137416   5.793437
    19  C    5.551594   3.448746   6.855404   6.398437   6.705430
    20  H    4.405898   2.368291   5.624866   5.247464   5.505134
    21  C    6.188243   4.269351   7.302106   6.725611   7.241076
    22  H    6.779674   5.304766   7.348859   6.530124   7.536435
    23  H    6.075288   3.941602   7.605212   7.287287   7.323262
    24  H    7.090366   5.183185   8.315061   7.795779   8.184343
    25  C    4.572584   3.507231   4.474983   3.270683   5.026053
    26  C    4.529260   3.363262   4.914748   4.219752   5.166931
    27  C    5.775958   4.881376   5.212313   3.563132   6.013267
    28  C    5.688220   4.659013   5.933682   5.173888   6.227916
    29  H    3.883112   2.545887   4.792976   4.539683   4.749331
    30  C    6.724087   5.849426   6.184385   4.655961   6.947694
    31  H    6.171970   5.384355   5.320824   3.381560   6.281197
    32  C    6.688123   5.761014   6.501682   5.359188   7.042327
    33  H    6.013827   5.007995   6.526163   6.044612   6.635546
    34  H    7.693720   6.890478   6.931693   5.238698   7.811707
    35  H    7.635530   6.754700   7.430696   6.325983   7.959630
                   11         12         13         14         15
    11  H    0.000000
    12  H    4.304250   0.000000
    13  H    2.487901   2.487720   0.000000
    14  C    4.963794   5.827808   6.179018   0.000000
    15  C    5.747007   6.353246   6.826966   1.398319   0.000000
    16  C    4.984230   6.714079   6.656445   1.395836   2.406298
    17  C    6.444014   7.589919   7.807063   2.420557   1.389760
    18  H    6.099274   6.002310   6.795034   2.165543   1.096549
    19  C    5.777491   7.896012   7.661094   2.419294   2.778073
    20  H    4.748158   6.665876   6.483843   2.162755   3.406023
    21  C    6.461226   8.286358   8.188715   2.798518   2.410167
    22  H    7.232850   8.169243   8.467921   3.410746   2.154932
    23  H    6.144143   8.673230   8.226776   3.408622   3.872915
    24  H    7.260524   9.301034   9.089974   3.893078   3.402650
    25  C    5.406490   5.258443   6.083374   2.519610   3.680175
    26  C    5.168908   5.764547   6.145886   3.205582   4.555361
    27  C    6.681220   5.792704   7.044657   3.517098   4.392412
    28  C    6.275026   6.668851   7.132313   4.487432   5.794803
    29  H    4.353508   5.751370   5.685855   3.112284   4.509841
    30  C    7.569969   6.695704   7.921664   4.713569   5.666345
    31  H    7.145765   5.793084   7.312777   3.689610   4.239699
    32  C    7.395788   7.091429   7.961158   5.112912   6.268909
    33  H    6.442380   7.279492   7.454153   5.235719   6.589234
    34  H    8.579417   7.325057   8.766584   5.580935   6.387258
    35  H    8.301379   7.961011   8.828001   6.177366   7.324968
                   16         17         18         19         20
    16  C    0.000000
    17  C    2.778292   0.000000
    18  H    3.403706   2.153223   0.000000
    19  C    1.390274   2.404588   3.874589   0.000000
    20  H    1.101949   3.880234   4.315667   2.162764   0.000000
    21  C    2.410215   1.390744   3.400542   1.390093   3.408432
    22  H    3.873175   1.094888   2.474856   3.398133   4.975119
    23  H    2.154631   3.398571   4.969437   1.094851   2.484044
    24  H    3.402896   2.158923   4.302876   2.158575   4.311812
    25  C    3.024497   4.837108   3.963534   4.358980   2.787985
    26  C    3.117286   5.524601   5.057737   4.415064   2.396365
    27  C    4.159202   5.564552   4.450335   5.381447   4.018658
    28  C    4.287518   6.713677   6.276423   5.466181   3.473591
    29  H    2.722844   5.348357   5.147668   3.961393   1.813923
    30  C    5.093318   6.744838   5.797493   6.270127   4.738242
    31  H    4.602281   5.452365   4.048983   5.737533   4.697029
    32  C    5.150731   7.253222   6.591602   6.311382   4.522068
    33  H    4.798462   7.405124   7.163832   5.869470   3.831059
    34  H    6.046459   7.456526   6.402257   7.165363   5.767686
    35  H    6.132651   8.266022   7.653618   7.229983   5.448219
                   21         22         23         24         25
    21  C    0.000000
    22  H    2.157657   0.000000
    23  H    2.157625   4.304296   0.000000
    24  H    1.094561   2.487731   2.488333   0.000000
    25  C    5.114943   5.765470   5.035455   6.178148   0.000000
    26  C    5.470737   6.553685   4.816288   6.470924   1.395772
    27  C    5.986302   6.369887   6.079920   7.019045   1.397140
    28  C    6.577417   7.734684   5.710291   7.520674   2.418599
    29  H    5.130044   6.417819   4.250694   6.089519   2.155659
    30  C    7.009764   7.577989   6.807164   7.994673   2.418237
    31  H    6.102314   6.108977   6.558059   7.122613   2.164782
    32  C    7.274433   8.192603   6.649979   8.224311   2.795654
    33  H    7.098723   8.462177   5.924508   7.977020   3.408498
    34  H    7.804758   8.205514   7.724917   8.763747   3.408911
    35  H    8.226703   9.201438   7.476335   9.136220   3.890304
                   26         27         28         29         30
    26  C    0.000000
    27  C    2.407239   0.000000
    28  C    1.389575   2.780488   0.000000
    29  H    1.100786   3.401211   2.167058   0.000000
    30  C    2.777772   1.390268   2.405948   3.878281   0.000000
    31  H    3.404336   1.096474   3.876939   4.308739   2.154797
    32  C    2.408755   2.410662   1.390690   3.410000   1.390594
    33  H    2.154813   3.875284   1.094801   2.493354   3.399762
    34  H    3.872805   2.155444   3.399343   4.973270   1.095038
    35  H    3.401499   3.403005   2.158682   4.315241   2.158520
                   31         32         33         34         35
    31  H    0.000000
    32  C    3.401609   0.000000
    33  H    4.971739   2.158477   0.000000
    34  H    2.477124   2.157550   4.305208   0.000000
    35  H    4.303985   1.094654   2.488720   2.487017   0.000000
 Stoichiometry    C19H16
 Framework group  C1[X(C19H16)]
 Deg. of freedom    99
 Full point group                 C1      NOp   1
 Largest Abelian subgroup         C1      NOp   1
 Largest concise Abelian subgroup C1      NOp   1
                         Standard orientation:                         
 ---------------------------------------------------------------------
 Center     Atomic      Atomic             Coordinates (Angstroms)
 Number     Number       Type             X           Y           Z
 ---------------------------------------------------------------------
      1          6           0       -0.022673   -0.013675   -0.753932
      2          1           0       -0.000312   -0.006754   -1.877646
      3          6           0        0.476736    1.339316   -0.306837
      4          6           0        0.055206    1.942625    0.877737
      5          6           0        1.404777    2.004372   -1.114627
      6          6           0        0.550499    3.188454    1.248554
      7          1           0       -0.678948    1.436935    1.517907
      8          6           0        1.899633    3.247644   -0.741301
      9          1           0        1.748554    1.541941   -2.047330
     10          6           0        1.473144    3.843124    0.441537
     11          1           0        0.209696    3.653165    2.179589
     12          1           0        2.626559    3.759222   -1.380481
     13          1           0        1.862319    4.823432    0.734264
     14          6           0       -1.455630   -0.272959   -0.360388
     15          6           0       -2.455957   -0.052222   -1.312186
     16          6           0       -1.820714   -0.718433    0.911077
     17          6           0       -3.791017   -0.274933   -0.996832
     18          1           0       -2.189091    0.300489   -2.315579
     19          6           0       -3.156409   -0.944151    1.223858
     20          1           0       -1.040163   -0.898849    1.667704
     21          6           0       -4.144528   -0.722623    0.271541
     22          1           0       -4.565397   -0.097662   -1.750284
     23          1           0       -3.428040   -1.298140    2.223661
     24          1           0       -5.195979   -0.900330    0.518393
     25          6           0        0.924493   -1.097492   -0.300424
     26          6           0        1.242030   -1.283119    1.046013
     27          6           0        1.516886   -1.924877   -1.257766
     28          6           0        2.142708   -2.269387    1.429384
     29          1           0        0.751629   -0.649872    1.801152
     30          6           0        2.414915   -2.913838   -0.872609
     31          1           0        1.275308   -1.795267   -2.319414
     32          6           0        2.732545   -3.085617    0.470281
     33          1           0        2.386627   -2.402403    2.488345
     34          1           0        2.874117   -3.557387   -1.630293
     35          1           0        3.443250   -3.861777    0.771516
 ---------------------------------------------------------------------
 Rotational constants (GHZ):      0.4001262      0.3719333      0.2369097
 Standard basis: 6-311G (5D, 7F)
 There are   295 symmetry adapted basis functions of A   symmetry.
 Integral buffers will be    262144 words long.
 Raffenetti 1 integral format.
 Two-electron integral symmetry is turned on.
   295 basis functions,   574 primitive gaussians,   295 cartesian basis functions
    65 alpha electrons       65 beta electrons
       nuclear repulsion energy      1288.3592134351 Hartrees.
 NAtoms=   35 NActive=   35 NUniq=   35 SFac= 7.50D-01 NAtFMM=   80 NAOKFM=F Big=F
 One-electron integrals computed using PRISM.
 PrsmSu:  requested number of processors reduced to:  10 ShMem   1 Linda.
 NBasis=   295 RedAO= T  NBF=   295
 NBsUse=   295 1.00D-06 NBFU=   295
 Harris functional with IExCor=  205 diagonalized for initial guess.
 ExpMin= 1.03D-01 ExpMax= 4.56D+03 ExpMxC= 6.82D+02 IAcc=1 IRadAn=         1 AccDes= 0.00D+00
 HarFok:  IExCor=  205 AccDes= 0.00D+00 IRadAn=         1 IDoV= 1
 ScaDFX=  1.000000  1.000000  1.000000  1.000000
 FoFCou: FMM=F IPFlag=           0 FMFlag=      100000 FMFlg1=           0
         NFxFlg=           0 DoJE=T BraDBF=F KetDBF=T FulRan=T
         Omega=  0.000000  0.000000  1.000000  0.000000  0.000000 ICntrl=     500 IOpCl=  0
         NMat0=    1 NMatS0=    1 NMatT0=    0 NMatD0=    1 NMtDS0=    0 NMtDT0=    0
         I1Cent=           4 NGrid=           0.
 Petite list used in FoFCou.
 Initial guess orbital symmetries:
       Occupied  (A) (A) (A) (A) (A) (A) (A) (A) (A) (A) (A) (A)
                 (A) (A) (A) (A) (A) (A) (A) (A) (A) (A) (A) (A)
                 (A) (A) (A) (A) (A) (A) (A) (A) (A) (A) (A) (A)
                 (A) (A) (A) (A) (A) (A) (A) (A) (A) (A) (A) (A)
                 (A) (A) (A) (A) (A) (A) (A) (A) (A) (A) (A) (A)
                 (A) (A) (A) (A) (A)
       Virtual   (A) (A) (A) (A) (A) (A) (A) (A) (A) (A) (A) (A)
                 (A) (A) (A) (A) (A) (A) (A) (A) (A) (A) (A) (A)
                 (A) (A) (A) (A) (A) (A) (A) (A) (A) (A) (A) (A)
                 (A) (A) (A) (A) (A) (A) (A) (A) (A) (A) (A) (A)
                 (A) (A) (A) (A) (A) (A) (A) (A) (A) (A) (A) (A)
                 (A) (A) (A) (A) (A) (A) (A) (A) (A) (A) (A) (A)
                 (A) (A) (A) (A) (A) (A) (A) (A) (A) (A) (A) (A)
                 (A) (A) (A) (A) (A) (A) (A) (A) (A) (A) (A) (A)
                 (A) (A) (A) (A) (A) (A) (A) (A) (A) (A) (A) (A)
                 (A) (A) (A) (A) (A) (A) (A) (A) (A) (A) (A) (A)
                 (A) (A) (A) (A) (A) (A) (A) (A) (A) (A) (A) (A)
                 (A) (A) (A) (A) (A) (A) (A) (A) (A) (A) (A) (A)
                 (A) (A) (A) (A) (A) (A) (A) (A) (A) (A) (A) (A)
                 (A) (A) (A) (A) (A) (A) (A) (A) (A) (A) (A) (A)
                 (A) (A) (A) (A) (A) (A) (A) (A) (A) (A) (A) (A)
                 (A) (A) (A) (A) (A) (A) (A) (A) (A) (A) (A) (A)
                 (A) (A) (A) (A) (A) (A) (A) (A) (A) (A) (A) (A)
                 (A) (A) (A) (A) (A) (A) (A) (A) (A) (A) (A) (A)
                 (A) (A) (A) (A) (A) (A) (A) (A) (A) (A) (A) (A)
                 (A) (A)
 The electronic state of the initial guess is 1-A.
 Requested convergence on RMS density matrix=1.00D-08 within 128 cycles.
 Requested convergence on MAX density matrix=1.00D-06.
 Requested convergence on             energy=1.00D-06.
 No special actions if energy rises.
 Integral accuracy reduced to 1.0D-05 until final iterations.
 Initial convergence to 1.0D-05 achieved.  Increase integral accuracy.
 SCF Done:  E(RHF) =  -728.671672083     A.U. after   14 cycles
             Convg  =    0.6195D-08             -V/T =  2.0001

 **********************************************************************

            Population analysis using the SCF density.

 **********************************************************************

 Orbital symmetries:
       Occupied  (A) (A) (A) (A) (A) (A) (A) (A) (A) (A) (A) (A)
                 (A) (A) (A) (A) (A) (A) (A) (A) (A) (A) (A) (A)
                 (A) (A) (A) (A) (A) (A) (A) (A) (A) (A) (A) (A)
                 (A) (A) (A) (A) (A) (A) (A) (A) (A) (A) (A) (A)
                 (A) (A) (A) (A) (A) (A) (A) (A) (A) (A) (A) (A)
                 (A) (A) (A) (A) (A)
       Virtual   (A) (A) (A) (A) (A) (A) (A) (A) (A) (A) (A) (A)
                 (A) (A) (A) (A) (A) (A) (A) (A) (A) (A) (A) (A)
                 (A) (A) (A) (A) (A) (A) (A) (A) (A) (A) (A) (A)
                 (A) (A) (A) (A) (A) (A) (A) (A) (A) (A) (A) (A)
                 (A) (A) (A) (A) (A) (A) (A) (A) (A) (A) (A) (A)
                 (A) (A) (A) (A) (A) (A) (A) (A) (A) (A) (A) (A)
                 (A) (A) (A) (A) (A) (A) (A) (A) (A) (A) (A) (A)
                 (A) (A) (A) (A) (A) (A) (A) (A) (A) (A) (A) (A)
                 (A) (A) (A) (A) (A) (A) (A) (A) (A) (A) (A) (A)
                 (A) (A) (A) (A) (A) (A) (A) (A) (A) (A) (A) (A)
                 (A) (A) (A) (A) (A) (A) (A) (A) (A) (A) (A) (A)
                 (A) (A) (A) (A) (A) (A) (A) (A) (A) (A) (A) (A)
                 (A) (A) (A) (A) (A) (A) (A) (A) (A) (A) (A) (A)
                 (A) (A) (A) (A) (A) (A) (A) (A) (A) (A) (A) (A)
                 (A) (A) (A) (A) (A) (A) (A) (A) (A) (A) (A) (A)
                 (A) (A) (A) (A) (A) (A) (A) (A) (A) (A) (A) (A)
                 (A) (A) (A) (A) (A) (A) (A) (A) (A) (A) (A) (A)
                 (A) (A) (A) (A) (A) (A) (A) (A) (A) (A) (A) (A)
                 (A) (A) (A) (A) (A) (A) (A) (A) (A) (A) (A) (A)
                 (A) (A)
 The electronic state is 1-A.
 Alpha  occ. eigenvalues --  -11.25831 -11.25273 -11.25264 -11.25133 -11.24450
 Alpha  occ. eigenvalues --  -11.24430 -11.24355 -11.24353 -11.24213 -11.24194
 Alpha  occ. eigenvalues --  -11.24130 -11.24115 -11.24114 -11.24051 -11.24023
 Alpha  occ. eigenvalues --  -11.24022 -11.23917 -11.23836 -11.23744  -1.18591
 Alpha  occ. eigenvalues --   -1.15825  -1.15680  -1.09037  -1.02411  -1.02113
 Alpha  occ. eigenvalues --   -1.01890  -1.01494  -1.01391  -0.92962  -0.84537
 Alpha  occ. eigenvalues --   -0.82939  -0.82541  -0.81705  -0.81567  -0.77734
 Alpha  occ. eigenvalues --   -0.70729  -0.70447  -0.69110  -0.65999  -0.63615
 Alpha  occ. eigenvalues --   -0.63499  -0.62367  -0.62038  -0.61901  -0.59569
 Alpha  occ. eigenvalues --   -0.58769  -0.58519  -0.58430  -0.57618  -0.53911
 Alpha  occ. eigenvalues --   -0.51743  -0.51080  -0.50857  -0.49672  -0.49164
 Alpha  occ. eigenvalues --   -0.48682  -0.47794  -0.47466  -0.46768  -0.34692
 Alpha  occ. eigenvalues --   -0.34243  -0.33699  -0.33590  -0.33278  -0.31178
 Alpha virt. eigenvalues --    0.11657   0.12006   0.13584   0.13744   0.14047
 Alpha virt. eigenvalues --    0.14934   0.15133   0.16275   0.16374   0.16880
 Alpha virt. eigenvalues --    0.18806   0.19133   0.19284   0.21285   0.21419
 Alpha virt. eigenvalues --    0.21511   0.23642   0.24240   0.24977   0.27185
 Alpha virt. eigenvalues --    0.28523   0.29478   0.34032   0.34183   0.35877
 Alpha virt. eigenvalues --    0.37455   0.38513   0.39682   0.40939   0.43682
 Alpha virt. eigenvalues --    0.44096   0.44376   0.45031   0.45400   0.45571
 Alpha virt. eigenvalues --    0.45870   0.46399   0.48414   0.49921   0.50387
 Alpha virt. eigenvalues --    0.50790   0.51001   0.51451   0.54979   0.55784
 Alpha virt. eigenvalues --    0.56802   0.57906   0.58956   0.59056   0.59612
 Alpha virt. eigenvalues --    0.59683   0.60669   0.61061   0.61494   0.61695
 Alpha virt. eigenvalues --    0.61850   0.62378   0.62472   0.63280   0.63461
 Alpha virt. eigenvalues --    0.64114   0.64996   0.65159   0.65430   0.66897
 Alpha virt. eigenvalues --    0.67417   0.68208   0.68436   0.70120   0.71362
 Alpha virt. eigenvalues --    0.72348   0.73800   0.74456   0.75076   0.76194
 Alpha virt. eigenvalues --    0.77279   0.78313   0.78647   0.80471   0.81207
 Alpha virt. eigenvalues --    0.81863   0.82192   0.82345   0.82824   0.82908
 Alpha virt. eigenvalues --    0.83528   0.83908   0.84056   0.84784   0.85602
 Alpha virt. eigenvalues --    0.86045   0.86386   0.86905   0.87463   0.88057
 Alpha virt. eigenvalues --    0.89643   0.90571   0.91256   0.92978   0.94424
 Alpha virt. eigenvalues --    0.96087   0.96857   0.97675   0.98114   0.98935
 Alpha virt. eigenvalues --    0.99339   1.00281   1.02781   1.05751   1.06223
 Alpha virt. eigenvalues --    1.06817   1.07135   1.08008   1.08389   1.10493
 Alpha virt. eigenvalues --    1.11070   1.12215   1.12495   1.12961   1.14264
 Alpha virt. eigenvalues --    1.14643   1.15359   1.18598   1.19520   1.21744
 Alpha virt. eigenvalues --    1.25371   1.26726   1.27679   1.28218   1.28863
 Alpha virt. eigenvalues --    1.30337   1.35150   1.39628   1.45214   1.46569
 Alpha virt. eigenvalues --    1.51645   1.52244   1.56489   2.54627   2.55622
 Alpha virt. eigenvalues --    2.56168   2.59219   2.61956   2.62493   2.64482
 Alpha virt. eigenvalues --    2.67018   2.67702   2.68442   2.72291   2.76757
 Alpha virt. eigenvalues --    2.77764   2.83502   2.87902   2.88646   2.94128
 Alpha virt. eigenvalues --    2.94270   2.94421   2.97074   2.97451   2.98029
 Alpha virt. eigenvalues --    3.00371   3.00764   3.04050   3.05736   3.07104
 Alpha virt. eigenvalues --    3.08137   3.08444   3.09005   3.09963   3.14343
 Alpha virt. eigenvalues --    3.14757   3.16347   3.16823   3.17578   3.18820
 Alpha virt. eigenvalues --    3.22651   3.25644   3.25835   3.28287   3.28927
 Alpha virt. eigenvalues --    3.30907   3.33385   3.34270   3.35138   3.42623
 Alpha virt. eigenvalues --    3.43070   3.44425   3.46977   3.49471   3.52242
 Alpha virt. eigenvalues --    3.53440   3.54465   3.59279   3.60656   3.60663
 Alpha virt. eigenvalues --    3.63141   3.63468   3.63776   3.65969   3.66649
 Alpha virt. eigenvalues --    3.68390   3.70284   3.70454   3.71430   3.73495
 Alpha virt. eigenvalues --    3.74206   3.75563   3.80863   3.85866   3.86646
 Alpha virt. eigenvalues --    3.93029  24.24825  24.30689  24.31553  24.50535
 Alpha virt. eigenvalues --   24.50832  24.51117  24.53988  24.54682  24.56091
 Alpha virt. eigenvalues --   24.77287  24.78604  24.79135  24.79615  24.80639
 Alpha virt. eigenvalues --   24.81836  24.83240  25.05542  25.05802  25.06122
          Condensed to atoms (all electrons):
              1          2          3          4          5          6
     1  C    5.829109   0.463726   0.158490  -0.040350  -0.049608   0.004760
     2  H    0.463726   0.512416  -0.059886   0.004934  -0.003249  -0.000248
     3  C    0.158490  -0.059886   5.366936   0.485376   0.473288  -0.064467
     4  C   -0.040350   0.004934   0.485376   5.087352  -0.071888   0.471779
     5  C   -0.049608  -0.003249   0.473288  -0.071888   5.071639  -0.031570
     6  C    0.004760  -0.000248  -0.064467   0.471779  -0.031570   5.050079
     7  H   -0.001551  -0.000063  -0.042768   0.390160   0.004180  -0.029878
     8  C    0.006276   0.001554  -0.065452  -0.027879   0.466183  -0.076918
     9  H    0.001755   0.001077  -0.050635   0.004141   0.399560  -0.000333
    10  C    0.000993   0.000009  -0.018500  -0.093496  -0.086103   0.499185
    11  H   -0.000325   0.000013   0.006174  -0.037592  -0.000424   0.395903
    12  H   -0.000351  -0.000027   0.006713  -0.000523  -0.039655   0.006124
    13  H   -0.000012  -0.000002  -0.001480   0.007826   0.007373  -0.042212
    14  C    0.170727  -0.073632  -0.104460  -0.014488   0.006294   0.000520
    15  C   -0.045550   0.002745  -0.001439   0.001898   0.000471  -0.000090
    16  C   -0.045658   0.005107  -0.005979  -0.007245  -0.000182   0.000019
    17  C    0.008252   0.001515  -0.000714   0.000224   0.000003  -0.000003
    18  H   -0.000679   0.002674   0.000479   0.000186   0.000125   0.000009
    19  C    0.003612  -0.000276   0.000869  -0.001477   0.000023  -0.000030
    20  H   -0.000363  -0.000141  -0.000492   0.000317  -0.000029   0.000051
    21  C    0.001133  -0.000016   0.000024   0.000082  -0.000001   0.000004
    22  H   -0.000388  -0.000029   0.000021  -0.000001   0.000000   0.000000
    23  H   -0.000295   0.000014  -0.000007   0.000013  -0.000001   0.000001
    24  H   -0.000019  -0.000001   0.000001   0.000000   0.000000   0.000000
    25  C    0.185450  -0.074373  -0.154636  -0.014122   0.000728   0.000652
    26  C   -0.054423   0.005544  -0.007626  -0.000112   0.000815  -0.000668
    27  C   -0.026267   0.002113  -0.005762  -0.000313   0.002041   0.000028
    28  C    0.001400  -0.000283   0.000767  -0.000033  -0.000062  -0.000017
    29  H    0.003124   0.000066  -0.001913   0.004831  -0.000263   0.000450
    30  C    0.007702   0.001757  -0.000463   0.000048  -0.000098  -0.000001
    31  H   -0.000500   0.002425   0.000148  -0.000048   0.000250   0.000000
    32  C    0.001273  -0.000013   0.000096  -0.000004  -0.000014   0.000000
    33  H   -0.000319   0.000012   0.000018  -0.000002   0.000006  -0.000001
    34  H   -0.000368  -0.000037   0.000011   0.000000   0.000003   0.000000
    35  H   -0.000013  -0.000001  -0.000002   0.000000   0.000000   0.000000
              7          8          9         10         11         12
     1  C   -0.001551   0.006276   0.001755   0.000993  -0.000325  -0.000351
     2  H   -0.000063   0.001554   0.001077   0.000009   0.000013  -0.000027
     3  C   -0.042768  -0.065452  -0.050635  -0.018500   0.006174   0.006713
     4  C    0.390160  -0.027879   0.004141  -0.093496  -0.037592  -0.000523
     5  C    0.004180   0.466183   0.399560  -0.086103  -0.000424  -0.039655
     6  C   -0.029878  -0.076918  -0.000333   0.499185   0.395903   0.006124
     7  H    0.481726  -0.000180  -0.000249   0.004710  -0.003332   0.000020
     8  C   -0.000180   5.050312  -0.035554   0.489094   0.005996   0.397081
     9  H   -0.000249  -0.035554   0.510007   0.005336   0.000025  -0.004286
    10  C    0.004710   0.489094   0.005336   5.033361  -0.040240  -0.040719
    11  H   -0.003332   0.005996   0.000025  -0.040240   0.516782  -0.000213
    12  H    0.000020   0.397081  -0.004286  -0.040719  -0.000213   0.518603
    13  H   -0.000182  -0.042946  -0.000185   0.399192  -0.004444  -0.004486
    14  C   -0.003141  -0.000758   0.000690   0.000046   0.000037   0.000011
    15  C   -0.000879  -0.000017   0.000014  -0.000014   0.000007   0.000001
    16  C    0.001160   0.000025  -0.000038  -0.000019   0.000027   0.000000
    17  C   -0.000135   0.000001   0.000001   0.000000   0.000001   0.000000
    18  H   -0.000037  -0.000008   0.000004  -0.000004   0.000000   0.000000
    19  C    0.000945   0.000000   0.000000   0.000000  -0.000001   0.000000
    20  H    0.000139   0.000006   0.000007   0.000001  -0.000017   0.000000
    21  C    0.000046   0.000000   0.000000   0.000000  -0.000001   0.000000
    22  H    0.000001   0.000000   0.000000   0.000000   0.000000   0.000000
    23  H   -0.000003   0.000000   0.000000   0.000000   0.000000   0.000000
    24  H    0.000000   0.000000   0.000000   0.000000   0.000000   0.000000
    25  C   -0.001066  -0.000422   0.000554   0.000074   0.000005   0.000012
    26  C    0.000504   0.000193  -0.000051   0.000028   0.000014   0.000003
    27  C   -0.000083  -0.000036   0.001423  -0.000003   0.000000  -0.000001
    28  C    0.000066   0.000002  -0.000017   0.000003   0.000000   0.000000
    29  H    0.001074  -0.000098  -0.000036  -0.000011  -0.000002   0.000001
    30  C    0.000002   0.000006   0.000030   0.000000   0.000000   0.000000
    31  H    0.000000  -0.000006   0.000255   0.000000   0.000000  -0.000001
    32  C    0.000002   0.000000  -0.000011   0.000000   0.000000   0.000000
    33  H   -0.000009   0.000001   0.000000   0.000000   0.000000   0.000000
    34  H    0.000000   0.000000  -0.000003   0.000000   0.000000   0.000000
    35  H    0.000000   0.000000   0.000000   0.000000   0.000000   0.000000
             13         14         15         16         17         18
     1  C   -0.000012   0.170727  -0.045550  -0.045658   0.008252  -0.000679
     2  H   -0.000002  -0.073632   0.002745   0.005107   0.001515   0.002674
     3  C   -0.001480  -0.104460  -0.001439  -0.005979  -0.000714   0.000479
     4  C    0.007826  -0.014488   0.001898  -0.007245   0.000224   0.000186
     5  C    0.007373   0.006294   0.000471  -0.000182   0.000003   0.000125
     6  C   -0.042212   0.000520  -0.000090   0.000019  -0.000003   0.000009
     7  H   -0.000182  -0.003141  -0.000879   0.001160  -0.000135  -0.000037
     8  C   -0.042946  -0.000758  -0.000017   0.000025   0.000001  -0.000008
     9  H   -0.000185   0.000690   0.000014  -0.000038   0.000001   0.000004
    10  C    0.399192   0.000046  -0.000014  -0.000019   0.000000  -0.000004
    11  H   -0.004444   0.000037   0.000007   0.000027   0.000001   0.000000
    12  H   -0.004486   0.000011   0.000001   0.000000   0.000000   0.000000
    13  H    0.518514  -0.000001   0.000000   0.000001   0.000000   0.000000
    14  C   -0.000001   5.366497   0.494853   0.450587  -0.071486  -0.045698
    15  C    0.000000   0.494853   5.041204  -0.061572   0.471721   0.394512
    16  C    0.000001   0.450587  -0.061572   5.121434  -0.031213   0.004743
    17  C    0.000000  -0.071486   0.471721  -0.031213   5.044600  -0.034694
    18  H    0.000000  -0.045698   0.394512   0.004743  -0.034694   0.507683
    19  C    0.000000  -0.064417  -0.036096   0.473377  -0.075106  -0.000400
    20  H    0.000000  -0.053033   0.004508   0.386595  -0.000213  -0.000243
    21  C    0.000000  -0.017781  -0.086717  -0.094852   0.494511   0.005351
    22  H    0.000000   0.007146  -0.039664  -0.000598   0.396657  -0.004218
    23  H    0.000000   0.006032  -0.000393  -0.036746   0.005895   0.000022
    24  H    0.000000  -0.001592   0.007487   0.008122  -0.042966  -0.000183
    25  C   -0.000001  -0.111896   0.002055  -0.004606  -0.000680   0.000369
    26  C   -0.000001  -0.006229   0.000217  -0.017277   0.000029  -0.000026
    27  C    0.000000  -0.000330   0.000187   0.001507  -0.000004  -0.000023
    28  C    0.000000   0.001772   0.000027  -0.001747  -0.000001   0.000002
    29  H   -0.000001  -0.003169  -0.000194   0.000317   0.000016  -0.000007
    30  C    0.000000  -0.000604  -0.000008   0.000124   0.000001   0.000001
    31  H    0.000000   0.000559   0.000133   0.000003   0.000003  -0.000025
    32  C    0.000000  -0.000034  -0.000001   0.000046   0.000000   0.000000
    33  H    0.000000   0.000008   0.000000   0.000015   0.000000   0.000000
    34  H    0.000000   0.000020   0.000000  -0.000001   0.000000   0.000000
    35  H    0.000000  -0.000001   0.000000   0.000001   0.000000   0.000000
             19         20         21         22         23         24
     1  C    0.003612  -0.000363   0.001133  -0.000388  -0.000295  -0.000019
     2  H   -0.000276  -0.000141  -0.000016  -0.000029   0.000014  -0.000001
     3  C    0.000869  -0.000492   0.000024   0.000021  -0.000007   0.000001
     4  C   -0.001477   0.000317   0.000082  -0.000001   0.000013   0.000000
     5  C    0.000023  -0.000029  -0.000001   0.000000  -0.000001   0.000000
     6  C   -0.000030   0.000051   0.000004   0.000000   0.000001   0.000000
     7  H    0.000945   0.000139   0.000046   0.000001  -0.000003   0.000000
     8  C    0.000000   0.000006   0.000000   0.000000   0.000000   0.000000
     9  H    0.000000   0.000007   0.000000   0.000000   0.000000   0.000000
    10  C    0.000000   0.000001   0.000000   0.000000   0.000000   0.000000
    11  H   -0.000001  -0.000017  -0.000001   0.000000   0.000000   0.000000
    12  H    0.000000   0.000000   0.000000   0.000000   0.000000   0.000000
    13  H    0.000000   0.000000   0.000000   0.000000   0.000000   0.000000
    14  C   -0.064417  -0.053033  -0.017781   0.007146   0.006032  -0.001592
    15  C   -0.036096   0.004508  -0.086717  -0.039664  -0.000393   0.007487
    16  C    0.473377   0.386595  -0.094852  -0.000598  -0.036746   0.008122
    17  C   -0.075106  -0.000213   0.494511   0.396657   0.005895  -0.042966
    18  H   -0.000400  -0.000243   0.005351  -0.004218   0.000022  -0.000183
    19  C    5.056475  -0.025349   0.495932   0.006224   0.395562  -0.042533
    20  H   -0.025349   0.498468   0.004799   0.000020  -0.003439  -0.000183
    21  C    0.495932   0.004799   5.030337  -0.041057  -0.039656   0.399170
    22  H    0.006224   0.000020  -0.041057   0.517940  -0.000212  -0.004547
    23  H    0.395562  -0.003439  -0.039656  -0.000212   0.515486  -0.004354
    24  H   -0.042533  -0.000183   0.399170  -0.004547  -0.004354   0.517661
    25  C    0.001536  -0.003013   0.000020   0.000014   0.000011  -0.000002
    26  C   -0.000010   0.002808  -0.000005   0.000000   0.000032   0.000001
    27  C    0.000042  -0.000259  -0.000011   0.000001   0.000002   0.000000
    28  C   -0.000089   0.001158   0.000001   0.000000   0.000000   0.000000
    29  H    0.000860   0.003447  -0.000011   0.000000  -0.000053   0.000000
    30  C    0.000000  -0.000139   0.000000   0.000000   0.000000   0.000000
    31  H    0.000003  -0.000004  -0.000001   0.000000   0.000000   0.000000
    32  C    0.000003   0.000080   0.000000   0.000000  -0.000001   0.000000
    33  H    0.000001  -0.000105   0.000000   0.000000   0.000001   0.000000
    34  H    0.000000   0.000000   0.000000   0.000000   0.000000   0.000000
    35  H    0.000000   0.000000   0.000000   0.000000   0.000000   0.000000
             25         26         27         28         29         30
     1  C    0.185450  -0.054423  -0.026267   0.001400   0.003124   0.007702
     2  H   -0.074373   0.005544   0.002113  -0.000283   0.000066   0.001757
     3  C   -0.154636  -0.007626  -0.005762   0.000767  -0.001913  -0.000463
     4  C   -0.014122  -0.000112  -0.000313  -0.000033   0.004831   0.000048
     5  C    0.000728   0.000815   0.002041  -0.000062  -0.000263  -0.000098
     6  C    0.000652  -0.000668   0.000028  -0.000017   0.000450  -0.000001
     7  H   -0.001066   0.000504  -0.000083   0.000066   0.001074   0.000002
     8  C   -0.000422   0.000193  -0.000036   0.000002  -0.000098   0.000006
     9  H    0.000554  -0.000051   0.001423  -0.000017  -0.000036   0.000030
    10  C    0.000074   0.000028  -0.000003   0.000003  -0.000011   0.000000
    11  H    0.000005   0.000014   0.000000   0.000000  -0.000002   0.000000
    12  H    0.000012   0.000003  -0.000001   0.000000   0.000001   0.000000
    13  H   -0.000001  -0.000001   0.000000   0.000000  -0.000001   0.000000
    14  C   -0.111896  -0.006229  -0.000330   0.001772  -0.003169  -0.000604
    15  C    0.002055   0.000217   0.000187   0.000027  -0.000194  -0.000008
    16  C   -0.004606  -0.017277   0.001507  -0.001747   0.000317   0.000124
    17  C   -0.000680   0.000029  -0.000004  -0.000001   0.000016   0.000001
    18  H    0.000369  -0.000026  -0.000023   0.000002  -0.000007   0.000001
    19  C    0.001536  -0.000010   0.000042  -0.000089   0.000860   0.000000
    20  H   -0.003013   0.002808  -0.000259   0.001158   0.003447  -0.000139
    21  C    0.000020  -0.000005  -0.000011   0.000001  -0.000011   0.000000
    22  H    0.000014   0.000000   0.000001   0.000000   0.000000   0.000000
    23  H    0.000011   0.000032   0.000002   0.000000  -0.000053   0.000000
    24  H   -0.000002   0.000001   0.000000   0.000000   0.000000   0.000000
    25  C    5.374638   0.438822   0.503733  -0.061763  -0.048594  -0.072814
    26  C    0.438822   5.095722  -0.065307   0.479109   0.388578  -0.029657
    27  C    0.503733  -0.065307   5.069787  -0.033524   0.004045   0.459881
    28  C   -0.061763   0.479109  -0.033524   5.036218  -0.027190  -0.076788
    29  H   -0.048594   0.388578   0.004045  -0.027190   0.495373  -0.000170
    30  C   -0.072814  -0.029657   0.459881  -0.076788  -0.000170   5.054900
    31  H   -0.046582   0.004632   0.395655  -0.000237  -0.000260  -0.035022
    32  C   -0.017842  -0.092140  -0.086371   0.494415   0.004557   0.496972
    33  H    0.006072  -0.039054  -0.000448   0.396667  -0.003439   0.005995
    34  H    0.007061  -0.000617  -0.039690   0.006218   0.000021   0.396749
    35  H   -0.001595   0.008024   0.007540  -0.042926  -0.000169  -0.042763
             31         32         33         34         35
     1  C   -0.000500   0.001273  -0.000319  -0.000368  -0.000013
     2  H    0.002425  -0.000013   0.000012  -0.000037  -0.000001
     3  C    0.000148   0.000096   0.000018   0.000011  -0.000002
     4  C   -0.000048  -0.000004  -0.000002   0.000000   0.000000
     5  C    0.000250  -0.000014   0.000006   0.000003   0.000000
     6  C    0.000000   0.000000  -0.000001   0.000000   0.000000
     7  H    0.000000   0.000002  -0.000009   0.000000   0.000000
     8  C   -0.000006   0.000000   0.000001   0.000000   0.000000
     9  H    0.000255  -0.000011   0.000000  -0.000003   0.000000
    10  C    0.000000   0.000000   0.000000   0.000000   0.000000
    11  H    0.000000   0.000000   0.000000   0.000000   0.000000
    12  H   -0.000001   0.000000   0.000000   0.000000   0.000000
    13  H    0.000000   0.000000   0.000000   0.000000   0.000000
    14  C    0.000559  -0.000034   0.000008   0.000020  -0.000001
    15  C    0.000133  -0.000001   0.000000   0.000000   0.000000
    16  C    0.000003   0.000046   0.000015  -0.000001   0.000001
    17  C    0.000003   0.000000   0.000000   0.000000   0.000000
    18  H   -0.000025   0.000000   0.000000   0.000000   0.000000
    19  C    0.000003   0.000003   0.000001   0.000000   0.000000
    20  H   -0.000004   0.000080  -0.000105   0.000000   0.000000
    21  C   -0.000001   0.000000   0.000000   0.000000   0.000000
    22  H    0.000000   0.000000   0.000000   0.000000   0.000000
    23  H    0.000000  -0.000001   0.000001   0.000000   0.000000
    24  H    0.000000   0.000000   0.000000   0.000000   0.000000
    25  C   -0.046582  -0.017842   0.006072   0.007061  -0.001595
    26  C    0.004632  -0.092140  -0.039054  -0.000617   0.008024
    27  C    0.395655  -0.086371  -0.000448  -0.039690   0.007540
    28  C   -0.000237   0.494415   0.396667   0.006218  -0.042926
    29  H   -0.000260   0.004557  -0.003439   0.000021  -0.000169
    30  C   -0.035022   0.496972   0.005995   0.396749  -0.042763
    31  H    0.510821   0.005163   0.000024  -0.004173  -0.000186
    32  C    0.005163   5.030981  -0.039540  -0.040768   0.399619
    33  H    0.000024  -0.039540   0.515357  -0.000211  -0.004453
    34  H   -0.004173  -0.040768  -0.000211   0.518247  -0.004579
    35  H   -0.000186   0.399619  -0.004453  -0.004579   0.517495
 Mulliken atomic charges:
              1
     1  C   -0.580741
     2  H    0.204577
     3  C    0.087269
     4  C   -0.149593
     5  C   -0.149834
     6  C   -0.183127
     7  H    0.198822
     8  C   -0.166458
     9  H    0.166522
    10  C   -0.152925
    11  H    0.161607
    12  H    0.161693
    13  H    0.163047
    14  C    0.066954
    15  C   -0.149406
    16  C   -0.145480
    17  C   -0.166214
    18  H    0.170088
    19  C   -0.189678
    20  H    0.184618
    21  C   -0.151300
    22  H    0.162690
    23  H    0.162086
    24  H    0.163940
    25  C    0.092201
    26  C   -0.111874
    27  C   -0.189553
    28  C   -0.173148
    29  H    0.178821
    30  C   -0.165640
    31  H    0.166969
    32  C   -0.156465
    33  H    0.163405
    34  H    0.162119
    35  H    0.164010
 Sum of Mulliken atomic charges =   0.00000
 Mulliken charges with hydrogens summed into heavy atoms:
              1
     1  C   -0.376165
     3  C    0.087269
     4  C    0.049229
     5  C    0.016688
     6  C   -0.021520
     8  C   -0.004765
    10  C    0.010123
    14  C    0.066954
    15  C    0.020682
    16  C    0.039138
    17  C   -0.003523
    19  C   -0.027592
    21  C    0.012639
    25  C    0.092201
    26  C    0.066946
    27  C   -0.022584
    28  C   -0.009743
    30  C   -0.003521
    32  C    0.007545
 Sum of Mulliken charges with hydrogens summed into heavy atoms =   0.00000
 Electronic spatial extent (au):  <R**2>=           4939.8412
 Charge=              0.0000 electrons
 Dipole moment (field-independent basis, Debye):
    X=              0.0158    Y=             -0.0632    Z=             -0.0433  Tot=              0.0782
 Quadrupole moment (field-independent basis, Debye-Ang):
   XX=           -110.6233   YY=           -114.0689   ZZ=           -102.8364
   XY=             -0.7800   XZ=             -2.2695   YZ=             -0.2345
 Traceless Quadrupole moment (field-independent basis, Debye-Ang):
   XX=             -1.4471   YY=             -4.8927   ZZ=              6.3398
   XY=             -0.7800   XZ=             -2.2695   YZ=             -0.2345
 Octapole moment (field-independent basis, Debye-Ang**2):
  XXX=            -39.6203  YYY=             19.5410  ZZZ=             -0.1769  XYY=             44.2296
  XXY=            -15.4342  XXZ=             -6.4977  XZZ=             -0.5590  YZZ=             -4.6975
  YYZ=             10.3286  XYZ=             -0.0820
 Hexadecapole moment (field-independent basis, Debye-Ang**3):
 XXXX=          -3092.5338 YYYY=          -2907.2732 ZZZZ=           -787.3011 XXXY=              4.6136
 XXXZ=              0.4253 YYYX=             -1.1082 YYYZ=             57.3525 ZZZX=             -6.3865
 ZZZY=             -4.1990 XXYY=           -972.7296 XXZZ=           -631.5697 YYZZ=           -601.0787
 XXYZ=            -49.7908 YYXZ=            -23.7857 ZZXY=            -15.4465
 N-N= 1.288359213435D+03 E-N=-4.272725816382D+03  KE= 7.285898267331D+02
 PrsmSu:  requested number of processors reduced to:  10 ShMem   1 Linda.
 Calling FoFJK, ICntrl=      2127 FMM=F ISym2X=0 I1Cent= 0 IOpClX= 0 NMat=1 NMatS=1 NMatT=0.
 ***** Axes restored to original set *****
 -------------------------------------------------------------------
 Center     Atomic                   Forces (Hartrees/Bohr)
 Number     Number              X              Y              Z
 -------------------------------------------------------------------
      1        6           0.003803981   -0.023617047    0.000958155
      2        1          -0.002579576    0.027334936   -0.001432825
      3        6          -0.014177107   -0.003450415    0.000929586
      4        6           0.005348446    0.007822232    0.005773020
      5        6           0.000933132   -0.005548451   -0.003054645
      6        6          -0.005684087    0.010155751    0.003486070
      7        1          -0.014130746   -0.014370719   -0.008743031
      8        6          -0.006759840   -0.008642439   -0.006516907
      9        1          -0.006701541    0.014450351    0.007072642
     10        6          -0.013306571    0.002351030   -0.001059279
     11        1           0.006937165   -0.013856777   -0.006410372
     12        1           0.009299145    0.011226951    0.008041730
     13        1           0.016465354   -0.002534921    0.001686767
     14        6           0.006635193   -0.003273014    0.011196445
     15        6          -0.001643767   -0.006069419    0.000325087
     16        6           0.000441281    0.010009664   -0.009014724
     17        6           0.001646780   -0.007647042    0.010439639
     18        1           0.004621004    0.017119527    0.001064498
     19        6           0.002619219    0.011765541    0.001163891
     20        1           0.007607865   -0.015081955    0.025439602
     21        6           0.005289098    0.003538465    0.011842044
     22        1          -0.001949369    0.010819678   -0.012592399
     23        1          -0.004497944   -0.016012451   -0.001674462
     24        1          -0.006583943   -0.005266076   -0.014478215
     25        6           0.008161156   -0.004928882   -0.010616438
     26        6          -0.006001575    0.009003239    0.004817720
     27        6           0.000450238   -0.005822550    0.001649800
     28        6          -0.001588365    0.012242163   -0.001494073
     29        1           0.007908779   -0.014017265   -0.021994046
     30        6           0.007427161   -0.007203283   -0.008499864
     31        1          -0.001463301    0.017077419   -0.004608829
     32        6           0.006839821    0.002261400   -0.011550361
     33        1           0.001186699   -0.015986050    0.004812669
     34        1          -0.008792259    0.011141018    0.008956133
     35        1          -0.007761525   -0.004990608    0.014084972
 -------------------------------------------------------------------
 Cartesian Forces:  Max     0.027334936 RMS     0.009569749

 GradGradGradGradGradGradGradGradGradGradGradGradGradGradGradGradGradGrad
 Berny optimization.
 Internal  Forces:  Max     0.029867386 RMS     0.007850032
 Search for a local minimum.
 Step number   1 out of a maximum of  197
 All quantities printed in internal units (Hartrees-Bohrs-Radians)
 Mixed Optimization -- RFO/linear search
 Second derivative matrix not updated -- first step.
     Eigenvalues ---    0.00635   0.00645   0.00654   0.01530   0.01533
     Eigenvalues ---    0.01536   0.02137   0.02140   0.02145   0.02167
     Eigenvalues ---    0.02170   0.02171   0.02181   0.02184   0.02187
     Eigenvalues ---    0.02201   0.02202   0.02203   0.02212   0.02213
     Eigenvalues ---    0.02215   0.02215   0.02216   0.02216   0.02217
     Eigenvalues ---    0.02217   0.02219   0.02219   0.02220   0.02221
     Eigenvalues ---    0.04518   0.06372   0.06675   0.15996   0.15999
     Eigenvalues ---    0.15999   0.16000   0.16000   0.16000   0.16000
     Eigenvalues ---    0.16000   0.16000   0.16000   0.16000   0.16000
     Eigenvalues ---    0.16000   0.16000   0.16000   0.18939   0.19366
     Eigenvalues ---    0.22000   0.22000   0.22000   0.22000   0.22000
     Eigenvalues ---    0.22000   0.23476   0.23476   0.23477   0.24996
     Eigenvalues ---    0.24999   0.25000   0.31166   0.31357   0.31439
     Eigenvalues ---    0.31505   0.33467   0.33595   0.33959   0.34067
     Eigenvalues ---    0.34075   0.34090   0.34237   0.34246   0.34254
     Eigenvalues ---    0.34258   0.34259   0.34264   0.34280   0.34286
     Eigenvalues ---    0.34291   0.42419   0.42422   0.42476   0.42570
     Eigenvalues ---    0.42586   0.42607   0.46335   0.46357   0.46423
     Eigenvalues ---    0.46763   0.46769   0.46816   0.47217   0.47226
     Eigenvalues ---    0.47257   0.47323   0.47341   0.473611000.00000
     Eigenvalues --- 1000.000001000.000001000.000001000.000001000.00000
     Eigenvalues --- 1000.000001000.000001000.000001000.000001000.00000
     Eigenvalues --- 1000.000001000.000001000.000001000.000001000.00000
     Eigenvalues --- 1000.000001000.000001000.000001000.000001000.00000
     Eigenvalues --- 1000.000001000.000001000.000001000.000001000.00000
     Eigenvalues --- 1000.000001000.000001000.000001000.000001000.00000
     Eigenvalues --- 1000.000001000.000001000.000001000.000001000.00000
     Eigenvalues --- 1000.000001000.000001000.000001000.000001000.00000
     Eigenvalues --- 1000.000001000.000001000.000001000.000001000.00000
     Eigenvalues --- 1000.000001000.000001000.000001000.000001000.00000
     Eigenvalues --- 1000.000001000.000001000.000001000.000001000.00000
     Eigenvalues --- 1000.000001000.000001000.000001000.000001000.00000
     Eigenvalues --- 1000.000001000.000001000.000001000.000001000.00000
     Eigenvalues --- 1000.000001000.000001000.000001000.000001000.00000
     Eigenvalues --- 1000.000001000.000001000.000001000.000001000.00000
     Eigenvalues --- 1000.000001000.000001000.000001000.000001000.00000
     Eigenvalues --- 1000.000001000.000001000.000001000.000001000.00000
     Eigenvalues --- 1000.000001000.00000
 RFO step:  Lambda=-4.30125533D-02 EMin= 6.34590413D-03
 Linear search not attempted -- first point.
 Maximum step size (   0.300) exceeded in Quadratic search.
    -- Step size scaled by   0.575
 Iteration  1 RMS(Cart)=  0.12595274 RMS(Int)=  0.00284435
 Iteration  2 RMS(Cart)=  0.00585301 RMS(Int)=  0.00028872
 Iteration  3 RMS(Cart)=  0.00000908 RMS(Int)=  0.00028867
 Iteration  4 RMS(Cart)=  0.00000000 RMS(Int)=  0.00028867
 Variable       Old X    -DE/DX   Delta X   Delta X   Delta X     New X
                                 (Linear)    (Quad)   (Total)
    R1        2.12397  -0.02748   0.00000  -0.04453  -0.04453   2.07944
    R2        2.85335   0.02087   0.00000   0.03363   0.03363   2.88699
    R3        2.85059   0.02575   0.00000   0.04133   0.04133   2.89192
    R4        2.85183   0.02267   0.00000   0.03645   0.03645   2.88828
    R5        2.63539  -0.00257   0.00000  -0.00284  -0.00284   2.63255
    R6        2.64297  -0.00426   0.00000  -0.00490  -0.00490   2.63808
    R7        2.62863  -0.00283   0.00000  -0.00308  -0.00309   2.62554
    R8        2.07399  -0.02181   0.00000  -0.03276  -0.03276   2.04123
    R9        2.62528  -0.00414   0.00000  -0.00467  -0.00467   2.62061
   R10        2.07178  -0.01742   0.00000  -0.02607  -0.02607   2.04571
   R11        2.62607  -0.00621   0.00000  -0.00688  -0.00689   2.61918
   R12        2.06917  -0.01677   0.00000  -0.02500  -0.02500   2.04417
   R13        2.62910  -0.00613   0.00000  -0.00692  -0.00692   2.62217
   R14        2.06895  -0.01665   0.00000  -0.02481  -0.02481   2.04414
   R15        2.06850  -0.01674   0.00000  -0.02494  -0.02494   2.04356
   R16        2.64244  -0.00359   0.00000  -0.00404  -0.00402   2.63842
   R17        2.63775   0.00073   0.00000   0.00102   0.00103   2.63878
   R18        2.62627  -0.00365   0.00000  -0.00418  -0.00417   2.62209
   R19        2.07218  -0.01775   0.00000  -0.02659  -0.02659   2.04559
   R20        2.62724  -0.00319   0.00000  -0.00343  -0.00344   2.62380
   R21        2.08238  -0.02987   0.00000  -0.04545  -0.04545   2.03694
   R22        2.62812  -0.00842   0.00000  -0.00958  -0.00959   2.61853
   R23        2.06904  -0.01672   0.00000  -0.02492  -0.02492   2.04412
   R24        2.62690  -0.00679   0.00000  -0.00763  -0.00765   2.61925
   R25        2.06897  -0.01672   0.00000  -0.02491  -0.02491   2.04405
   R26        2.06842  -0.01675   0.00000  -0.02495  -0.02495   2.04347
   R27        2.63763   0.00078   0.00000   0.00104   0.00106   2.63869
   R28        2.64021  -0.00433   0.00000  -0.00486  -0.00485   2.63537
   R29        2.62592  -0.00451   0.00000  -0.00494  -0.00493   2.62099
   R30        2.08018  -0.02556   0.00000  -0.03876  -0.03876   2.04143
   R31        2.62723  -0.00276   0.00000  -0.00315  -0.00316   2.62406
   R32        2.07204  -0.01774   0.00000  -0.02657  -0.02657   2.04547
   R33        2.62802  -0.00555   0.00000  -0.00627  -0.00628   2.62174
   R34        2.06887  -0.01674   0.00000  -0.02494  -0.02494   2.04393
   R35        2.62784  -0.00841   0.00000  -0.00953  -0.00955   2.61829
   R36        2.06932  -0.01678   0.00000  -0.02502  -0.02502   2.04430
   R37        2.06860  -0.01684   0.00000  -0.02508  -0.02508   2.04352
    A1        1.85870  -0.00030   0.00000  -0.01910  -0.01894   1.83976
    A2        1.85541  -0.00922   0.00000  -0.04540  -0.04446   1.81095
    A3        1.86751  -0.00592   0.00000  -0.03532  -0.03457   1.83295
    A4        1.97247   0.00297   0.00000   0.02528   0.02337   1.99584
    A5        1.92513  -0.00403   0.00000   0.00958   0.00725   1.93237
    A6        1.97617   0.01478   0.00000   0.05383   0.05266   2.02883
    A7        2.14026   0.00954   0.00000   0.01881   0.01880   2.15906
    A8        2.06524  -0.00196   0.00000  -0.00376  -0.00376   2.06147
    A9        2.07767  -0.00758   0.00000  -0.01505  -0.01504   2.06263
   A10        2.10164   0.00314   0.00000   0.00684   0.00684   2.10849
   A11        2.09245   0.00058   0.00000   0.00266   0.00266   2.09511
   A12        2.08905  -0.00373   0.00000  -0.00953  -0.00954   2.07951
   A13        2.10216   0.00533   0.00000   0.01118   0.01118   2.11334
   A14        2.09308  -0.00328   0.00000  -0.00734  -0.00734   2.08574
   A15        2.08794  -0.00205   0.00000  -0.00385  -0.00385   2.08409
   A16        2.09847   0.00134   0.00000   0.00281   0.00280   2.10127
   A17        2.08974  -0.00061   0.00000  -0.00126  -0.00125   2.08849
   A18        2.09497  -0.00072   0.00000  -0.00156  -0.00156   2.09342
   A19        2.09708   0.00007   0.00000  -0.00039  -0.00039   2.09668
   A20        2.09184   0.00003   0.00000   0.00039   0.00039   2.09223
   A21        2.09427  -0.00010   0.00000   0.00000   0.00000   2.09427
   A22        2.08935  -0.00230   0.00000  -0.00539  -0.00540   2.08395
   A23        2.09748   0.00113   0.00000   0.00265   0.00265   2.10013
   A24        2.09636   0.00116   0.00000   0.00274   0.00274   2.09910
   A25        2.06559  -0.01301   0.00000  -0.02553  -0.02555   2.04004
   A26        2.14237   0.02513   0.00000   0.04928   0.04926   2.19164
   A27        2.07521  -0.01213   0.00000  -0.02374  -0.02371   2.05151
   A28        2.10304   0.00831   0.00000   0.01759   0.01762   2.12066
   A29        2.09384  -0.00490   0.00000  -0.01090  -0.01091   2.08294
   A30        2.08630  -0.00341   0.00000  -0.00670  -0.00671   2.07959
   A31        2.10369   0.00440   0.00000   0.00977   0.00977   2.11346
   A32        2.08568   0.00421   0.00000   0.01325   0.01325   2.09893
   A33        2.09379  -0.00861   0.00000  -0.02305  -0.02305   2.07073
   A34        2.09753   0.00004   0.00000  -0.00096  -0.00097   2.09656
   A35        2.09132   0.00007   0.00000   0.00074   0.00074   2.09206
   A36        2.09433  -0.00011   0.00000   0.00023   0.00023   2.09456
   A37        2.09778   0.00244   0.00000   0.00501   0.00498   2.10275
   A38        2.09013  -0.00115   0.00000  -0.00231  -0.00230   2.08783
   A39        2.09528  -0.00129   0.00000  -0.00270  -0.00269   2.09260
   A40        2.08910  -0.00307   0.00000  -0.00765  -0.00768   2.08142
   A41        2.09685   0.00153   0.00000   0.00382   0.00384   2.10068
   A42        2.09724   0.00154   0.00000   0.00383   0.00384   2.10108
   A43        2.12726   0.01655   0.00000   0.03236   0.03228   2.15954
   A44        2.07774  -0.00634   0.00000  -0.01255  -0.01262   2.06512
   A45        2.07805  -0.01024   0.00000  -0.02011  -0.02011   2.05793
   A46        2.10365   0.00379   0.00000   0.00844   0.00837   2.11202
   A47        2.07590   0.00415   0.00000   0.01306   0.01294   2.08884
   A48        2.10343  -0.00788   0.00000  -0.02099  -0.02111   2.08232
   A49        2.10054   0.00696   0.00000   0.01485   0.01485   2.11539
   A50        2.09443  -0.00407   0.00000  -0.00910  -0.00911   2.08532
   A51        2.08822  -0.00288   0.00000  -0.00574  -0.00575   2.08247
   A52        2.09580   0.00213   0.00000   0.00428   0.00427   2.10007
   A53        2.09152  -0.00095   0.00000  -0.00183  -0.00184   2.08968
   A54        2.09587  -0.00117   0.00000  -0.00245  -0.00246   2.09341
   A55        2.09780  -0.00005   0.00000  -0.00092  -0.00094   2.09686
   A56        2.09121   0.00019   0.00000   0.00091   0.00092   2.09213
   A57        2.09417  -0.00013   0.00000   0.00001   0.00002   2.09419
[...]
 00030332,0.00033272,0.00000050,0.00043324,0.00002635,-0.00025709,0.000
 32222,0.00005922,0.00017123,-0.00001227,0.00001196,0.00002297,-0.00044
 215,0.00023382,0.00006215,0.00004423,-0.00004523,0.00005452,-0.0000010
 1,-0.00033075,-0.00021676,0.00001412,-0.00001962,0.00000898,0.00001526
 ,0.00001887,0.00000439,0.00001617,0.00000116,-0.00000373,-0.00166590,0
 .00005963,0.00080076,-0.00021322,0.00033317,-0.00017678,-0.00015928,0.
 00022086,0.00029130,0.00031497,0.00015898,0.00021103,-0.00003080,-0.00
 000100,-0.00000249,-0.00009309,0.00008569,-0.00046694,0.00031527,-0.00
 001236,0.00003066,-0.00010223,-0.00030823,0.00021981,0.00004845,-0.000
 02515,0.00001695,-0.00002129,0.00004037,0.00001474,0.00000660,0.000005
 19,0.00000533,0.07771070,-0.06061300,0.00193865,0.00723851,0.05035287,
 -0.06769972,0.07856852,0.10392453,-0.27431507,-0.06543567,0.00580712,0
 .06518235,-0.00037196,0.00050125,-0.00094220,-0.19550999,-0.18673284,0
 .56698587,0.00003666,0.00011073,-0.00264096,-0.00041398,-0.00127555,0.
 00058787,-0.00008217,-0.00041481,-0.00003271,0.00016878,-0.00007270,0.
 00007300,-0.00000462,0.00008796,0.00007892,0.00003292,-0.00003032,-0.0
 0005225,-0.00000691,-0.00000241,-0.00001749,0.00001070,-0.00002441,-0.
 00001252,-0.00003431,-0.00001295,-0.00004568,0.00001887,-0.00000126,0.
 00000499,0.00002071,-0.00000463,-0.00001276,0.00000456,0.00000616,0.00
 000026,0.00001035,-0.00000419,-0.00000424,0.00027476,0.00006178,0.0001
 2038,-0.00007028,0.00002846,-0.00003302,-0.00001011,0.00015416,-0.0001
 0986,0.00004108,-0.00000856,0.00005530,-0.00003622,-0.00002421,0.00004
 244,-0.00005943,-0.00001643,-0.00001844,0.00000119,-0.00008434,0.00002
 171,-0.00005229,-0.00004132,-0.00001860,0.00000127,-0.00000001,-0.0000
 1575,-0.00001182,-0.00002602,-0.00001915,-0.00000064,-0.00001426,-0.00
 001062,-0.00492682,0.02446558,-0.01719498,-0.00257380,0.00492027,0.004
 63228,-0.10152211,0.08714645,-0.04734506,-0.00086255,-0.00055350,0.000
 51507,-0.00036580,0.00110773,-0.00092484,0.01118681,-0.01581127,0.0124
 1970,0.09888245,-0.00230310,-0.00103243,-0.00133036,0.00041529,0.00032
 946,-0.00029523,-0.00000235,0.00028925,0.00023729,-0.00014981,0.000039
 02,-0.00003390,-0.00003651,0.00007115,-0.00002705,-0.00003186,0.000043
 13,0.00000702,0.00000568,-0.00003725,0.00001547,-0.00001172,-0.0000278
 8,-0.00003156,0.00000917,-0.00003133,0.00001682,-0.00000482,0.00000466
 ,0.00000504,-0.00001184,-0.00000252,0.00000259,-0.00001200,-0.00000424
 ,0.00000409,-0.00000184,-0.00000441,0.00000337,0.00025480,0.00039538,-
 0.00036451,-0.00019016,0.00008143,-0.00035970,-0.00021978,-0.00008292,
 0.00014899,0.00006536,0.00013760,-0.00001952,0.00002882,-0.00003065,0.
 00000572,-0.00014089,-0.00000710,-0.00017134,0.00015045,-0.00005607,0.
 00009110,-0.00002861,-0.00009158,0.00003805,0.00000172,-0.00001773,-0.
 00000036,0.00002318,-0.00000317,-0.00000282,0.00001491,-0.00000212,0.0
 0000894,0.00286521,-0.00813074,0.01237924,0.00507122,0.00302988,0.0008
 4342,0.08744136,-0.23964619,0.12917594,-0.00049016,0.00023010,-0.00087
 912,0.00016932,-0.00062963,0.00049629,0.00705178,-0.00308372,0.0031855
 7,-0.09838611,0.24628402,-0.00063150,-0.00173498,-0.00115784,0.0002782
 9,-0.00062104,0.00046537,-0.00007526,-0.00014597,0.00021511,-0.0000189
 3,-0.00003314,0.00002125,-0.00009349,0.00012423,0.00006579,-0.00000506
 ,-0.00001371,-0.00004096,0.00000455,-0.00001301,-0.00000118,0.00002047
 ,-0.00001161,-0.00002312,-0.00000524,-0.00002748,-0.00000626,-0.000029
 56,0.00000813,0.00001069,-0.00000523,0.00000763,-0.00000344,-0.0000185
 5,-0.00000324,-0.00000628,-0.00000496,-0.00000240,-0.00000122,0.000082
 28,-0.00007817,-0.00015206,-0.00007144,0.00006672,-0.00009944,-0.00001
 830,0.00002619,0.00000868,0.00001780,0.00002816,-0.00004658,0.00000786
 ,-0.00000215,-0.00000512,-0.00004124,-0.00004089,-0.00001425,0.0000178
 8,-0.00000554,0.00005113,0.00002141,-0.00001462,0.00002004,0.00000080,
 -0.00000873,0.00001265,0.00000434,0.00001123,-0.00000074,0.00000371,0.
 00000477,0.00001522,0.00570559,-0.00836979,0.00932880,0.00439701,0.001
 28386,0.00251011,-0.04743289,0.13016330,-0.14801205,0.00045134,-0.0007
 7836,-0.00052260,0.00018845,-0.00048474,0.00024549,-0.01295618,0.02409
 861,-0.00929377,0.04656522,-0.14522079,0.14917208,-0.00035564,0.000458
 05,-0.00184241,-0.00007277,-0.00081760,0.00000268,0.00029122,0.0003653
 2,0.00030723,0.00027082,-0.00023134,0.00000381,-0.00036830,-0.00007967
 ,0.00014779,-0.00025960,-0.00007805,-0.00012853,0.00001678,-0.00001758
 ,-0.00002774,0.00033257,-0.00017007,-0.00003453,-0.00000922,0.00005831
 ,-0.00002210,-0.00002641,0.00027771,0.00016634,-0.00001732,0.00001732,
 0.00000345,-0.00001478,-0.00002045,-0.00000486,-0.00001988,0.00000104,
 0.00000325,0.00067957,-0.00024379,-0.00049789,0.00027839,-0.00003945,0
 .00028809,0.00016699,-0.00009457,-0.00004246,-0.00020005,-0.00017633,-
 0.00009536,0.00000330,-0.00000077,-0.00001378,0.00002118,-0.00012003,0
 .00036697,-0.00030872,-0.00025212,0.00013787,0.00010458,0.00023071,-0.
 00009475,-0.00002514,0.00002211,0.00001954,0.00002917,0.00001281,0.000
 03157,0.00000317,-0.00000477,0.00001702,-0.05483333,0.05244753,-0.0127
 7823,-0.02822566,-0.03796498,0.07648645,0.07114543,-0.01829312,-0.0351
 3926,-0.28719297,0.13199865,0.04472826,0.00223955,0.00119875,0.0047021
 2,-0.16245528,0.05258711,0.01640975,0.00097664,0.00121275,0.00614586,0
 .60658324,0.00048062,-0.00109472,0.00155082,-0.00027124,0.00087234,0.0
 0035428,-0.00017154,-0.00050949,-0.00007210,-0.00039416,0.00017029,-0.
 00002226,0.00030361,0.00013507,-0.00018872,0.00028686,0.00006052,0.000
 12530,-0.00001130,-0.00000042,0.00001551,-0.00033282,0.00019681,0.0000
 0383,0.00001704,-0.00007797,0.00004387,-0.00003993,-0.00025339,-0.0001
 7480,-0.00000485,-0.00000628,0.00000722,-0.00000438,0.00000740,0.00000
 647,0.00000581,-0.00000640,-0.00000063,-0.00111875,0.00023756,0.000292
 23,-0.00024399,0.00026404,-0.00025913,-0.00016830,0.00004161,0.0003872
 9,0.00026906,0.00019620,0.00013429,-0.00000871,0.00000481,-0.00000923,
 -0.00007059,0.00009686,-0.00042990,0.00020329,0.00006358,0.00003034,-0
 .00008323,-0.00026904,0.00021565,0.00004185,-0.00002049,0.00000917,-0.
 00000919,0.00004762,0.00003317,0.00000803,0.00000440,0.00000075,0.0530
 5681,-0.06051797,0.00747230,0.00277898,0.06130052,-0.05870968,-0.05985
 816,-0.00291748,0.06822358,0.08153504,-0.17562545,0.02570196,0.0009332
 5,0.00338895,0.00546485,0.10348628,-0.25092207,0.08645569,0.00165614,0
 .00428311,0.00371558,-0.17172727,0.52558166,-0.00109104,-0.00004833,-0
 .00075344,0.00018614,-0.00028437,-0.00013937,-0.00008743,0.00019919,-0
 .00009592,0.00009282,0.00008506,0.00003671,0.00000419,-0.00009017,-0.0
 0003072,-0.00004166,0.00001462,-0.00000097,-0.00000398,0.00000495,-0.0
 0000897,0.00001149,-0.00005611,0.00001189,-0.00005324,0.00000100,-0.00
 003623,0.00006908,-0.00000621,0.00002890,0.00002187,-0.00000764,-0.000
 01202,0.00003964,0.00002201,-0.00000410,0.00001676,0.00000124,-0.00000
 602,0.00088551,0.00019154,-0.00005045,-0.00006173,-0.00022419,-0.00013
 520,-0.00002576,0.00012738,-0.00018747,-0.00007118,0.00001875,-0.00002
 727,0.00002001,-0.00000628,0.00002605,-0.00000849,-0.00007465,0.000092
 27,-0.00001611,-0.00000113,-0.00001095,-0.00000414,0.00003601,-0.00008
 625,-0.00002377,0.00000137,-0.00003392,-0.00001054,-0.00003278,-0.0000
 3572,-0.00000907,-0.00000889,-0.00000420,-0.01343202,0.00921930,-0.003
 94356,0.03263927,-0.02152574,0.00309009,0.00833592,0.03134682,-0.03197
 191,0.10132852,-0.02238261,-0.15456964,0.00478212,0.00511299,-0.001405
 73,-0.03959845,0.13463246,-0.19470545,0.00575576,0.00422989,-0.0008869
 6,-0.21646481,-0.22513532,0.62666082,0.00044220,-0.00063607,0.00015807
 ,-0.00005317,-0.00011451,0.00011382,0.00007204,0.00001685,-0.00005568,
 0.00003253,0.00002295,-0.00001122,-0.00003287,0.00000524,-0.00000272,-
 0.00002880,0.00000912,-0.00001168,0.00000309,-0.00000557,0.00000728,0.
 00000966,-0.00000707,-0.00001843,0.00000146,-0.00001257,0.00000891,-0.
 00002700,0.00002177,-0.00000091,-0.00000241,-0.00000448,0.00000566,-0.
 00000764,-0.00000703,0.00000420,-0.00000150,-0.00000357,0.00000583,-0.
 00005587,-0.00002085,0.00004599,-0.00001043,-0.00000049,0.00002397,0.0
 0001275,0.00002078,-0.00003346,0.00001014,-0.00000399,0.00000706,-0.00
 000515,0.00000327,-0.00000052,0.00001292,0.00000856,0.00000239,0.00000
 746,0.00002439,0.00001433,-0.00000180,-0.00000355,0.00000203,0.0000020
 0,-0.00000189,0.00000169,-0.00000476,-0.00000310,-0.00000687,-0.000002
 21,0.00000161,-0.00000063,0.00087621,0.00133073,0.00590032,0.01106789,
 -0.01554251,0.01200637,-0.00099720,-0.00051474,0.00056223,-0.10268551,
 0.08879683,-0.04807496,-0.00042182,-0.00174949,-0.00233843,-0.00217870
 ,0.00501406,0.00490189,-0.00030124,-0.00040260,-0.00044506,-0.00380729
 ,0.02473876,-0.01866686,0.09905725,0.00048973,-0.00032354,-0.00023168,
 -0.00003292,-0.00008157,0.00010525,0.00010154,-0.00000728,0.00007403,-
 0.00000217,-0.00003542,-0.00001898,-0.00007533,0.00001009,0.00001173,-
 0.00002777,-0.00000232,-0.00002615,0.00001013,-0.00001088,-0.00000512,
 0.00003989,0.00000587,-0.00001821,0.00002260,-0.00000186,0.00001769,-0
 .00004348,0.00004566,0.00000353,-0.00001255,0.00000457,0.00001000,-0.0
 0002442,-0.00002213,0.00000134,-0.00001773,-0.00000213,0.00000884,-0.0
 0015865,-0.00005176,0.00003627,0.00001464,0.00004922,0.00004762,0.0000
 2948,0.00004848,0.00001212,0.00001746,-0.00000096,0.00001416,-0.000003
 91,-0.00000032,-0.00001031,-0.00001710,-0.00002108,-0.00000494,-0.0000
 0392,-0.00003578,-0.00000524,0.00000001,-0.00000819,0.00002124,0.00000
 514,-0.00000635,0.00001527,0.00000937,0.00000697,0.00000140,0.00000442
 ,0.00000164,0.00001306,0.00109065,0.00402051,0.00412230,0.00685802,-0.
 00290903,0.00290956,-0.00063511,0.00029214,-0.00079163,0.08855981,-0.2
 4191783,0.13120524,-0.00234352,-0.00124343,-0.00197584,0.00531895,0.00
 335225,0.00121812,-0.00040069,-0.00058233,-0.00038455,0.00235080,-0.00
 674127,0.01152993,-0.09956814,0.24804829,-0.00071241,0.00085672,-0.000
 26759,0.00015988,0.00013360,-0.00035006,-0.00030000,-0.00000573,0.0000
 3452,0.00009773,-0.00002769,0.00003536,0.00002791,-0.00000476,0.000035
 29,-0.00001641,-0.00002037,0.00000351,-0.00001369,0.00001275,-0.000019
 78,0.00000808,-0.00001818,-0.00000658,-0.00001113,-0.00002141,-0.00001
 526,0.00004710,-0.00000307,0.00002227,0.00002278,-0.00000718,-0.000020
 69,0.00001015,0.00000551,0.00000159,0.00001411,0.00000253,-0.00000532,
 0.00018559,0.00018384,0.00006574,-0.00006960,-0.00007046,-0.00010666,0
 .00000826,-0.00002276,-0.00011559,-0.00000228,0.00000620,-0.00000816,-
 0.00000827,-0.00001505,0.00002022,0.00001338,0.00000630,0.00000696,-0.
 00000390,0.00006080,0.00002938,-0.00001243,-0.00000757,-0.00002565,-0.
 00000481,-0.00000072,-0.00001650,-0.00002061,-0.00001616,-0.00002074,-
 0.00000715,-0.00000160,-0.00000916,0.00594789,0.00354780,-0.00090690,-
 0.01283372,0.02408284,-0.00916068,0.00054596,-0.00084940,-0.00052168,-
 0.04810773,0.13126893,-0.14912222,-0.00144325,-0.00258972,-0.00077145,
 0.00461124,0.00154056,0.00290415,-0.00046018,-0.00037737,-0.00040297,0
 .00635550,-0.00966015,0.01038258,0.04815441,-0.14573701,0.14893474,-0.
 00056397,0.00056507,-0.00021793,-0.00000924,-0.00006024,0.00003904,0.0
 0010101,-0.00015256,0.00019677,-0.00009831,-0.00001942,-0.00002355,-0.
 00004556,0.00005523,0.00002962,0.00002823,0.00000131,-0.00001034,0.000
 00589,-0.00000228,-0.00000738,-0.00000430,0.00002472,0.00000779,0.0000
 1683,0.00000459,0.00000621,-0.00002638,-0.00001437,-0.00001261,-0.0000
 1226,0.00001016,0.00000444,-0.00002079,-0.00000511,-0.00001069,-0.0000
 1414,0.00000163,-0.00000022,-0.00012469,-0.00008536,-0.00008995,0.0000
 6473,0.00002949,0.00006183,0.00003715,0.00004057,0.00001811,0.00000856
 ,-0.00001146,0.00001411,-0.00001164,0.00000238,-0.00000995,-0.00001265
 ,-0.00001654,0.00000074,-0.00001884,-0.00003906,-0.00001612,0.00000986
 ,-0.00000535,0.00002100,-0.00000221,-0.00000214,0.00002164,0.00000378,
 0.00001377,0.00000578,0.00000384,0.00000325,0.00001551,0.00250726,0.00
 104386,0.00505809,0.00042615,-0.00086054,-0.00031861,-0.00911403,0.011
 41760,0.00133555,0.00323318,0.00403651,0.00068889,-0.00042547,-0.00037
 196,-0.00037672,-0.27635565,0.12644793,0.07567706,-0.00059101,-0.00255
 279,-0.00152981,-0.00436594,0.00238164,0.00667293,-0.00046920,0.000146
 84,0.00018900,0.28639236,-0.00052825,0.00023928,0.00006602,0.00001698,
 -0.00004445,-0.00003089,0.00001368,-0.00009940,0.00001385,-0.00002990,
 0.00003353,-0.00000962,0.00001414,0.00003801,-0.00000375,0.00002718,0.
 00001684,0.00000397,-0.00000129,-0.00000387,0.00000772,-0.00003922,0.0
 0001262,-0.00000611,-0.00000280,-0.00001800,0.00000638,-0.00000847,-0.
 00002787,-0.00002227,0.00000027,-0.00000523,0.00000291,-0.00000410,0.0
 0000118,0.00000169,0.00000283,-0.00000322,0.00000185,0.00007372,0.0000
 2058,-0.00008082,0.00001747,-0.00004109,0.00000494,-0.00001604,-0.0000
 1134,-0.00001762,-0.00001545,-0.00000906,-0.00000413,-0.00000232,-0.00
 000339,0.00000432,-0.00000114,0.00002921,0.00001367,0.00003187,-0.0000
 0149,0.00001654,-0.00000615,0.00000913,-0.00002231,-0.00000324,0.00000
 157,-0.00000290,0.00000205,-0.00001723,-0.00000893,0.00000171,-0.00000
 203,-0.00000778,0.00122982,0.00340500,0.00520495,-0.00085595,-0.000627
 60,0.00045599,-0.01111694,0.01012223,0.00563153,0.00371693,-0.00038800
 ,0.00642964,-0.00036674,-0.00048341,-0.00050924,0.12661191,-0.13041028
 ,-0.02990332,-0.00178746,-0.00127381,-0.00260917,0.02478411,-0.0063164
 0,-0.01045726,0.00112079,-0.00060587,-0.00045648,-0.14042200,0.1275700
 1,0.00098124,-0.00080903,0.00002065,-0.00003431,0.00000768,0.00008048,
 -0.00000360,0.00009933,-0.00043645,0.00005929,0.00001038,0.00002745,0.
 00007748,0.00001062,0.00000629,0.00002929,-0.00000762,0.00003743,-0.00
 000253,0.00000590,-0.00001559,-0.00004902,-0.00000550,0.00001196,-0.00
 000882,-0.00000171,-0.00000262,0.00003311,-0.00003645,-0.00002522,0.00
 001369,-0.00000991,-0.00000336,0.00000854,0.00000582,0.00000446,0.0000
 0887,0.00000003,-0.00000232,0.00015058,0.00007921,0.00005472,-0.000038
 47,-0.00002966,-0.00006753,-0.00004779,-0.00001588,-0.00003890,-0.0000
 1418,0.00001605,-0.00000325,0.00001088,-0.00001247,0.00000908,-0.00001
 530,0.00001664,-0.00000797,0.00004402,0.00000788,0.00000566,-0.0000263
 2,-0.00000670,-0.00003047,0.00000197,-0.00000256,-0.00001450,0.0000003
 8,-0.00002271,-0.00001476,0.00000352,-0.00000564,-0.00001104,0.0044860
 4,0.00541816,-0.00131820,-0.00045120,0.00046196,-0.00099987,0.02624173
 ,-0.01580816,-0.00179673,0.00106801,0.00615794,0.00087572,-0.00031717,
 -0.00053731,-0.00035360,0.07557032,-0.02974749,-0.08722465,-0.00236894
 ,-0.00195408,-0.00077848,-0.01808053,0.01082245,0.01059592,-0.00084239
 ,0.00043250,0.00022937,-0.08518538,0.02803913,0.08192723,-0.00022206,-
 0.00036216,-0.00045804,0.00001434,-0.00013862,0.00008436,0.00004807,-0
 .00002554,0.00002835,-0.00004210,-0.00004193,0.00001056,0.00000370,0.0
 0003226,0.00002532,0.00003280,-0.00001806,0.00000459,0.00000306,0.0000
 0064,-0.00002377,0.00000252,0.00001663,0.00000658,0.00001218,0.0000026
 6,0.00000040,-0.00000425,-0.00000549,-0.00001276,-0.00000507,0.0000082
 4,0.00000126,-0.00001312,-0.00000961,-0.00000383,-0.00001263,0.0000007
 5,0.00000073,0.00001331,0.00002711,-0.00007998,0.00000111,0.00000459,-
 0.00000299,0.00002235,0.00003651,-0.00000796,0.00000359,0.00000509,0.0
 0000278,-0.00000268,-0.00000152,-0.00000274,-0.00001219,-0.00001826,0.
 00000424,-0.00001959,-0.00001889,-0.00000492,-0.00000039,-0.00000226,0
 .00000721,-0.00000100,-0.00000342,0.00000680,0.00000395,0.00000201,-0.
 00000187,0.00000298,0.00000016,0.00000800,-0.00072593,0.00048734,-0.00
 076789,-0.00172823,0.00628849,0.00311164,0.00215250,0.00490128,0.00077
 765,-0.00832680,-0.01218020,0.02627286,-0.00063678,-0.00053145,0.00110
 902,0.01096008,0.00605766,-0.01228741,0.00025836,0.00019593,-0.0005301
 8,-0.14058429,-0.03766465,0.12880825,-0.00051303,-0.00170209,-0.002371
 39,-0.00055257,-0.00245800,-0.00130300,0.13986781,-0.00039951,-0.00036
 101,-0.00046463,0.00007860,-0.00003744,0.00001459,0.00005582,0.0000117
 6,0.00003099,-0.00004132,0.00003185,-0.00001221,-0.00002811,0.00001115
 ,-0.00003368,-0.00001658,0.00000578,-0.00000036,0.00000238,-0.00000871
 ,0.00000251,0.00000250,0.00000215,-0.00000502,0.00001276,-0.00000051,0
 .00001032,-0.00000574,0.00000304,0.00000677,-0.00000260,0.00000193,-0.
 00000094,-0.00000776,-0.00000426,0.00000008,-0.00000328,0.00000075,0.0
 0000107,0.00000162,0.00006694,-0.00009136,-0.00001959,0.00000313,-0.00
 002578,-0.00001562,0.00001658,0.00000575,0.00000264,0.00001314,-0.0000
 0395,0.00000452,-0.00000330,-0.00000435,-0.00000645,-0.00000149,-0.000
 00616,0.00002195,-0.00000800,0.00000617,-0.00000012,-0.00000764,0.0000
 0311,-0.00000033,-0.00000418,0.00000348,0.00000119,0.00000058,-0.00000
 348,0.00000262,0.00000105,0.00000474,0.00046620,-0.00104101,-0.0003777
 3,0.00586843,0.00223856,0.00201614,0.00531085,-0.00054377,0.00511956,0
 .01020962,0.01034788,-0.01530502,0.00036099,0.00022450,-0.00068282,-0.
 01639247,-0.00226449,0.02360614,-0.00074799,-0.00044036,0.00106565,-0.
 03769112,-0.09167451,0.08356717,-0.00253350,-0.00127437,-0.00179553,-0
 .00160537,-0.00110616,-0.00257878,0.03711477,0.08580044,-0.00029785,-0
 .00038298,-0.00037697,0.00001857,-0.00010052,0.00002908,-0.00003465,0.
 00000374,-0.00006917,0.00003492,0.00004372,0.00000817,0.00002197,0.000
 01073,-0.00003572,-0.00001698,0.00001186,0.00000607,-0.00000593,-0.000
 00405,0.00001124,-0.00001836,-0.00001333,-0.00001704,-0.00001021,-0.00
 001897,0.00000081,0.00001553,-0.00000490,0.00000474,0.00000991,-0.0000
 0949,-0.00000658,0.00000754,0.00000429,0.00000816,0.00001305,-0.000002
 68,0.00000069,0.00012533,0.00009851,-0.00003212,-0.00003884,-0.0000485
 8,-0.00004520,-0.00002686,-0.00002661,-0.00004248,-0.00001233,-0.00000
 210,-0.00001019,-0.00000130,-0.00000503,0.00001069,0.00001961,0.000036
 48,0.00001551,0.00003560,0.00004398,0.00002665,-0.00000672,0.00000633,
 -0.00002431,-0.00000197,0.00000242,-0.00001450,-0.00000818,-0.00001986
 ,-0.00001347,-0.00000331,-0.00000220,-0.00001523,-0.00085775,-0.000482
 96,0.00042614,0.00357857,0.00169212,0.00373535,0.00037057,0.00546229,0
 .00231197,0.00113735,0.00596366,-0.00249064,0.00007706,0.00017244,-0.0
 0034780,0.01255021,0.00222995,-0.00928735,0.00046517,0.00017288,-0.000
 68707,0.12894367,0.08359530,-0.26178280,-0.00141667,-0.00260151,-0.000
 83208,-0.00225485,-0.00175249,-0.00074090,-0.14241187,-0.09407243,0.27
 027633||-0.00000051,0.00000329,0.00002027,-0.00000194,0.00000028,-0.00
 000749,0.00000315,0.00003251,0.00001287,0.00004122,-0.00002566,-0.0000
 1493,-0.00002912,-0.00001435,-0.00000815,-0.00004299,-0.00001471,-0.00
 000984,0.00000226,0.00000193,0.00000675,0.00003126,-0.00002472,-0.0000
 0349,0.00000423,0.00000043,0.00000159,0.00000413,0.00004086,0.00001860
 ,0.00000297,0.00000190,0.00000102,-0.00000420,0.00000282,0.00000088,-0
 .00000227,-0.00000338,-0.00000314,0.00000542,0.00003884,-0.00003150,0.
 00000852,-0.00000830,0.00004495,-0.00003656,-0.00004405,-0.00003005,-0
 .00002198,-0.00003053,-0.00002796,-0.00000212,-0.00000022,-0.00000531,
 0.00001362,-0.00001008,0.00005632,0.00000397,0.00000472,-0.00000518,0.
 00001644,0.00004630,-0.00001896,0.00000152,0.00000218,0.00000202,-0.00
 000083,0.00000218,-0.00000428,-0.00000042,-0.00000258,0.00000294,0.000
 00412,0.00000754,-0.00000068,-0.00000438,-0.00001651,0.00001475,-0.000
 00043,-0.00000248,-0.00000440,0.00001107,-0.00000396,-0.00001361,-0.00
 000215,0.00000371,-0.00000102,-0.00000019,0.00000011,0.00000682,0.0000
 0020,-0.00000050,0.00000163,-0.00000350,0.00001245,-0.00000110,-0.0000
 0075,0.00000306,0.00000237,-0.00000053,-0.00000173,-0.00000122,0.00000
 077,-0.00000136,-0.00000143|||@


 ... THE UNIVERSE IS NOT ONLY QUEERER THAN WE SUPPOSE,
 BUT QUEERER THAN WE CAN SUPPOSE ... 

                                   -- J. B. S. HALDANE
 Job cpu time:  0 days  0 hours  6 minutes 29.0 seconds.
 File lengths (MBytes):  RWF=    350 Int=      0 D2E=      0 Chk=      7 Scr=      1
 Normal termination of Gaussian 09 at Mon Sep 06 21:13:34 2021.
