 Entering Link 1 = b:\programy\g09w\l1.exe PID=      9212.
  
 Copyright (c) 1988,1990,1992,1993,1995,1998,2003,2009, Gaussian, Inc.
                  All Rights Reserved.
  
 This is part of the Gaussian(R) 09 program.  It is based on
 the Gaussian(R) 03 system (copyright 2003, Gaussian, Inc.),
 the Gaussian(R) 98 system (copyright 1998, Gaussian, Inc.),
 the Gaussian(R) 94 system (copyright 1995, Gaussian, Inc.),
 the Gaussian 92(TM) system (copyright 1992, Gaussian, Inc.),
 the Gaussian 90(TM) system (copyright 1990, Gaussian, Inc.),
 the Gaussian 88(TM) system (copyright 1988, Gaussian, Inc.),
 the Gaussian 86(TM) system (copyright 1986, Carnegie Mellon
 University), and the Gaussian 82(TM) system (copyright 1983,
 Carnegie Mellon University). Gaussian is a federally registered
 trademark of Gaussian, Inc.
  
 This software contains proprietary and confidential information,
 including trade secrets, belonging to Gaussian, Inc.
  
 This software is provided under written license and may be
 used, copied, transmitted, or stored only in accord with that
 written license.
  
 The following legend is applicable only to US Government
 contracts under FAR:
  
                    RESTRICTED RIGHTS LEGEND
  
 Use, reproduction and disclosure by the US Government is
 subject to restrictions as set forth in subparagraphs (a)
 and (c) of the Commercial Computer Software - Restricted
 Rights clause in FAR 52.227-19.
  
 Gaussian, Inc.
 340 Quinnipiac St., Bldg. 40, Wallingford CT 06492
  
  
 ---------------------------------------------------------------
 Warning -- This program may not be used in any manner that
 competes with the business of Gaussian, Inc. or will provide
 assistance to any competitor of Gaussian, Inc.  The licensee
 of this program is prohibited from giving any competitor of
 Gaussian, Inc. access to this program.  By using this program,
 the user acknowledges that Gaussian, Inc. is engaged in the
 business of creating and licensing software in the field of
 computational chemistry and represents and warrants to the
 licensee that it is not a competitor of Gaussian, Inc. and that
 it will not use this program in any manner prohibited above.
 ---------------------------------------------------------------
  

 Cite this work as:
 Gaussian 09, Revision A.02,
 M. J. Frisch, G. W. Trucks, H. B. Schlegel, G. E. Scuseria, 
 M. A. Robb, J. R. Cheeseman, G. Scalmani, V. Barone, B. Mennucci, 
 G. A. Petersson, H. Nakatsuji, M. Caricato, X. Li, H. P. Hratchian, 
 A. F. Izmaylov, J. Bloino, G. Zheng, J. L. Sonnenberg, M. Hada, 
 M. Ehara, K. Toyota, R. Fukuda, J. Hasegawa, M. Ishida, T. Nakajima, 
 Y. Honda, O. Kitao, H. Nakai, T. Vreven, J. A. Montgomery, Jr., 
 J. E. Peralta, F. Ogliaro, M. Bearpark, J. J. Heyd, E. Brothers, 
 K. N. Kudin, V. N. Staroverov, R. Kobayashi, J. Normand, 
 K. Raghavachari, A. Rendell, J. C. Burant, S. S. Iyengar, J. Tomasi, 
 M. Cossi, N. Rega, J. M. Millam, M. Klene, J. E. Knox, J. B. Cross, 
 V. Bakken, C. Adamo, J. Jaramillo, R. Gomperts, R. E. Stratmann, 
 O. Yazyev, A. J. Austin, R. Cammi, C. Pomelli, J. W. Ochterski, 
 R. L. Martin, K. Morokuma, V. G. Zakrzewski, G. A. Voth, 
 P. Salvador, J. J. Dannenberg, S. Dapprich, A. D. Daniels, 
 O. Farkas, J. B. Foresman, J. V. Ortiz, J. Cioslowski, 
 and D. J. Fox, Gaussian, Inc., Wallingford CT, 2009.
 
 ******************************************
 Gaussian 09:  IA32W-G09RevA.02 11-Jun-2009
                07-Sep-2021 
 ******************************************
 %nprocshared=12
 Will use up to   12 processors via shared memory.
 ----------------------------------------------
 # opt freq=noraman hf/6-311g geom=connectivity
 ----------------------------------------------
 1/18=20,19=15,38=1,57=2/1,3;
 2/9=110,12=2,17=6,18=5,40=1/2;
 3/5=4,6=6,11=9,16=1,25=1,30=1,71=1/1,2,3;
 4//1;
 5/5=2,38=5/2;
 6/7=2,8=2,9=2,10=2,28=1/1;
 7//1,2,3,16;
 1/18=20,19=15/3(2);
 2/9=110/2;
 99//99;
 2/9=110/2;
 3/5=4,6=6,11=9,16=1,25=1,30=1,71=1/1,2,3;
 4/5=5,16=3/1;
 5/5=2,38=5/2;
 7//1,2,3,16;
 1/18=20,19=15/3(-5);
 2/9=110/2;
 6/7=2,8=2,9=2,10=2,19=2,28=1/1;
 99/9=1/99;
 -----
 M0001
 -----
 Symbolic Z-matrix:
 Charge =  0 Multiplicity = 1
 C                    -0.1021    0.74692  -0.18586 
 H                    -0.2972    1.82026  -0.4525 
 C                    -0.19539   0.0026   -1.49489 
 C                     0.92471  -0.53118  -2.13151 
 C                    -1.44346  -0.10175  -2.11823 
 C                     0.7997   -1.16184  -3.3653 
 H                     1.91143  -0.45474  -1.65727 
 C                    -1.56624  -0.73296  -3.34886 
 H                    -2.32914   0.31536  -1.62401 
 C                    -0.44371  -1.26495  -3.97621 
 H                     1.68695  -1.57661  -3.85461 
 H                    -2.54862  -0.81081  -3.82574 
 H                    -0.54069  -1.76164  -4.94675 
 C                     1.25527   0.68126   0.46803 
 C                     1.99415   1.85647   0.62247 
 C                     1.7892   -0.52321   0.93191 
 C                     3.24512   1.8249    1.22958 
 H                     1.58846   2.81036   0.2649 
 C                     3.03924  -0.55242   1.53811 
 H                     1.19887  -1.44692   0.82351 
 C                     3.77013   0.62177   1.6874 
 H                     3.81654   2.75151   1.34685 
 H                     3.44694  -1.502     1.89975 
 H                     4.75466   0.59853   2.16529 
 C                    -1.17502   0.30535   0.78037 
 C                    -1.28389  -1.02679   1.18508 
 C                    -2.07886   1.24589   1.27892 
 C                    -2.28398  -1.41388   2.06817 
 H                    -0.55531  -1.76094   0.80914 
 C                    -3.0775    0.85645   2.1645 
 H                    -2.00251   2.29655   0.97368 
 C                    -3.18351  -0.47296   2.55849 
 H                    -2.36142  -2.46084   2.3792 
 H                    -3.78144   1.60038   2.55197 
 H                    -3.97136  -0.77814   3.25443 
 

 GradGradGradGradGradGradGradGradGradGradGradGradGradGradGradGradGradGrad
 Berny optimization.
 Initialization pass.
                           ----------------------------
                           !    Initial Parameters    !
                           ! (Angstroms and Degrees)  !
 --------------------------                            --------------------------
 ! Name  Definition              Value          Derivative Info.                !
 --------------------------------------------------------------------------------
 ! R1    R(1,2)                  1.123          estimate D2E/DX2                !
 ! R2    R(1,3)                  1.5087         estimate D2E/DX2                !
 ! R3    R(1,14)                 1.5081         estimate D2E/DX2                !
 ! R4    R(1,25)                 1.5099         estimate D2E/DX2                !
 ! R5    R(3,4)                  1.3946         estimate D2E/DX2                !
 ! R6    R(3,5)                  1.399          estimate D2E/DX2                !
 ! R7    R(4,6)                  1.3913         estimate D2E/DX2                !
 ! R8    R(4,7)                  1.0974         estimate D2E/DX2                !
 ! R9    R(5,8)                  1.3885         estimate D2E/DX2                !
 ! R10   R(5,9)                  1.0967         estimate D2E/DX2                !
 ! R11   R(6,10)                 1.3892         estimate D2E/DX2                !
 ! R12   R(6,11)                 1.0948         estimate D2E/DX2                !
 ! R13   R(8,10)                 1.3916         estimate D2E/DX2                !
 ! R14   R(8,12)                 1.0948         estimate D2E/DX2                !
 ! R15   R(10,13)                1.0946         estimate D2E/DX2                !
 ! R16   R(14,15)                1.3967         estimate D2E/DX2                !
 ! R17   R(14,16)                1.3968         estimate D2E/DX2                !
 ! R18   R(15,17)                1.3909         estimate D2E/DX2                !
 ! R19   R(15,18)                1.0965         estimate D2E/DX2                !
 ! R20   R(16,19)                1.3896         estimate D2E/DX2                !
 ! R21   R(16,20)                1.1016         estimate D2E/DX2                !
 ! R22   R(17,21)                1.3902         estimate D2E/DX2                !
 ! R23   R(17,22)                1.0949         estimate D2E/DX2                !
 ! R24   R(19,21)                1.3911         estimate D2E/DX2                !
 ! R25   R(19,23)                1.0948         estimate D2E/DX2                !
 ! R26   R(21,24)                1.0946         estimate D2E/DX2                !
 ! R27   R(25,26)                1.3965         estimate D2E/DX2                !
 ! R28   R(25,27)                1.3965         estimate D2E/DX2                !
 ! R29   R(26,28)                1.3892         estimate D2E/DX2                !
 ! R30   R(26,29)                1.1005         estimate D2E/DX2                !
 ! R31   R(27,30)                1.3904         estimate D2E/DX2                !
 ! R32   R(27,31)                1.0968         estimate D2E/DX2                !
 ! R33   R(28,32)                1.391          estimate D2E/DX2                !
 ! R34   R(28,33)                1.0949         estimate D2E/DX2                !
 ! R35   R(30,32)                1.3906         estimate D2E/DX2                !
 ! R36   R(30,34)                1.095          estimate D2E/DX2                !
 ! R37   R(32,35)                1.0946         estimate D2E/DX2                !
 ! A1    A(2,1,3)              104.7602         estimate D2E/DX2                !
 ! A2    A(2,1,14)             107.5127         estimate D2E/DX2                !
 ! A3    A(2,1,25)             107.9389         estimate D2E/DX2                !
 ! A4    A(3,1,14)             114.2282         estimate D2E/DX2                !
 ! A5    A(3,1,25)             111.5316         estimate D2E/DX2                !
 ! A6    A(14,1,25)            110.4489         estimate D2E/DX2                !
 ! A7    A(1,3,4)              122.3603         estimate D2E/DX2                !
 ! A8    A(1,3,5)              118.5911         estimate D2E/DX2                !
 ! A9    A(4,3,5)              118.9859         estimate D2E/DX2                !
 ! A10   A(3,4,6)              120.4091         estimate D2E/DX2                !
 ! A11   A(3,4,7)              119.8826         estimate D2E/DX2                !
 ! A12   A(6,4,7)              119.7082         estimate D2E/DX2                !
 ! A13   A(3,5,8)              120.5111         estimate D2E/DX2                !
 ! A14   A(3,5,9)              119.4282         estimate D2E/DX2                !
 ! A15   A(8,5,9)              120.0599         estimate D2E/DX2                !
 ! A16   A(4,6,10)             120.2682         estimate D2E/DX2                !
 ! A17   A(4,6,11)             119.6867         estimate D2E/DX2                !
 ! A18   A(10,6,11)            120.0451         estimate D2E/DX2                !
 ! A19   A(5,8,10)             120.1323         estimate D2E/DX2                !
 ! A20   A(5,8,12)             119.8505         estimate D2E/DX2                !
 ! A21   A(10,8,12)            120.0171         estimate D2E/DX2                !
 ! A22   A(6,10,8)             119.6927         estimate D2E/DX2                !
 ! A23   A(6,10,13)            120.1934         estimate D2E/DX2                !
 ! A24   A(8,10,13)            120.1139         estimate D2E/DX2                !
 ! A25   A(1,14,15)            119.1723         estimate D2E/DX2                !
 ! A26   A(1,14,16)            121.7082         estimate D2E/DX2                !
 ! A27   A(15,14,16)           119.118          estimate D2E/DX2                !
 ! A28   A(14,15,17)           120.3287         estimate D2E/DX2                !
 ! A29   A(14,15,18)           120.0118         estimate D2E/DX2                !
 ! A30   A(17,15,18)           119.6595         estimate D2E/DX2                !
 ! A31   A(14,16,19)           120.4561         estimate D2E/DX2                !
 ! A32   A(14,16,20)           119.0486         estimate D2E/DX2                !
 ! A33   A(19,16,20)           120.4894         estimate D2E/DX2                !
 ! A34   A(15,17,21)           120.2012         estimate D2E/DX2                !
 ! A35   A(15,17,22)           119.7972         estimate D2E/DX2                !
 ! A36   A(21,17,22)           120.0016         estimate D2E/DX2                !
 ! A37   A(16,19,21)           120.1127         estimate D2E/DX2                !
 ! A38   A(16,19,23)           119.8221         estimate D2E/DX2                !
 ! A39   A(21,19,23)           120.0651         estimate D2E/DX2                !
 ! A40   A(17,21,19)           119.7833         estimate D2E/DX2                !
 ! A41   A(17,21,24)           120.1192         estimate D2E/DX2                !
 ! A42   A(19,21,24)           120.0974         estimate D2E/DX2                !
 ! A43   A(1,25,26)            121.3207         estimate D2E/DX2                !
 ! A44   A(1,25,27)            119.4336         estimate D2E/DX2                !
 ! A45   A(26,25,27)           119.2456         estimate D2E/DX2                !
 ! A46   A(25,26,28)           120.4078         estimate D2E/DX2                !
 ! A47   A(25,26,29)           119.0608         estimate D2E/DX2                !
 ! A48   A(28,26,29)           120.5218         estimate D2E/DX2                !
 ! A49   A(25,27,30)           120.2393         estimate D2E/DX2                !
 ! A50   A(25,27,31)           120.0525         estimate D2E/DX2                !
 ! A51   A(30,27,31)           119.7081         estimate D2E/DX2                !
 ! A52   A(26,28,32)           120.075          estimate D2E/DX2                !
 ! A53   A(26,28,33)           119.864          estimate D2E/DX2                !
 ! A54   A(32,28,33)           120.0609         estimate D2E/DX2                !
 ! A55   A(27,30,32)           120.1969         estimate D2E/DX2                !
 ! A56   A(27,30,34)           119.7892         estimate D2E/DX2                !
 ! A57   A(32,30,34)           120.0139         estimate D2E/DX2                !
 ! A58   A(28,32,30)           119.8343         estimate D2E/DX2                !
 ! A59   A(28,32,35)           120.0641         estimate D2E/DX2                !
 ! A60   A(30,32,35)           120.1014         estimate D2E/DX2                !
 ! D1    D(2,1,3,4)            108.6046         estimate D2E/DX2                !
 ! D2    D(2,1,3,5)            -68.4843         estimate D2E/DX2                !
 ! D3    D(14,1,3,4)            -8.77           estimate D2E/DX2                !
 ! D4    D(14,1,3,5)           174.141          estimate D2E/DX2                !
 ! D5    D(25,1,3,4)          -134.8851         estimate D2E/DX2                !
 ! D6    D(25,1,3,5)            48.026          estimate D2E/DX2                !
 ! D7    D(2,1,14,15)           -0.2098         estimate D2E/DX2                !
 ! D8    D(2,1,14,16)          179.3365         estimate D2E/DX2                !
 ! D9    D(3,1,14,15)          115.5728         estimate D2E/DX2                !
 ! D10   D(3,1,14,16)          -64.8809         estimate D2E/DX2                !
 ! D11   D(25,1,14,15)        -117.7486         estimate D2E/DX2                !
 ! D12   D(25,1,14,16)          61.7977         estimate D2E/DX2                !
 ! D13   D(2,1,25,26)          173.0947         estimate D2E/DX2                !
 ! D14   D(2,1,25,27)           -6.8051         estimate D2E/DX2                !
 ! D15   D(3,1,25,26)           58.5368         estimate D2E/DX2                !
 ! D16   D(3,1,25,27)         -121.3631         estimate D2E/DX2                !
 ! D17   D(14,1,25,26)         -69.6292         estimate D2E/DX2                !
 ! D18   D(14,1,25,27)         110.471          estimate D2E/DX2                !
 ! D19   D(1,3,4,6)           -177.3175         estimate D2E/DX2                !
 ! D20   D(1,3,4,7)              2.7281         estimate D2E/DX2                !
 ! D21   D(5,3,4,6)             -0.2396         estimate D2E/DX2                !
 ! D22   D(5,3,4,7)            179.806          estimate D2E/DX2                !
 ! D23   D(1,3,5,8)            177.5051         estimate D2E/DX2                !
 ! D24   D(1,3,5,9)             -2.8183         estimate D2E/DX2                !
 ! D25   D(4,3,5,8)              0.3161         estimate D2E/DX2                !
 ! D26   D(4,3,5,9)            179.9927         estimate D2E/DX2                !
 ! D27   D(3,4,6,10)             0.0559         estimate D2E/DX2                !
 ! D28   D(3,4,6,11)           179.9936         estimate D2E/DX2                !
 ! D29   D(7,4,6,10)          -179.9896         estimate D2E/DX2                !
 ! D30   D(7,4,6,11)            -0.0519         estimate D2E/DX2                !
 ! D31   D(3,5,8,10)            -0.2084         estimate D2E/DX2                !
 ! D32   D(3,5,8,12)           179.8411         estimate D2E/DX2                !
 ! D33   D(9,5,8,10)          -179.883          estimate D2E/DX2                !
 ! D34   D(9,5,8,12)             0.1665         estimate D2E/DX2                !
 ! D35   D(4,6,10,8)             0.0557         estimate D2E/DX2                !
 ! D36   D(4,6,10,13)         -179.9816         estimate D2E/DX2                !
 ! D37   D(11,6,10,8)         -179.8817         estimate D2E/DX2                !
 ! D38   D(11,6,10,13)           0.081          estimate D2E/DX2                !
 ! D39   D(5,8,10,6)             0.0203         estimate D2E/DX2                !
 ! D40   D(5,8,10,13)         -179.9424         estimate D2E/DX2                !
 ! D41   D(12,8,10,6)          179.9708         estimate D2E/DX2                !
 ! D42   D(12,8,10,13)           0.008          estimate D2E/DX2                !
 ! D43   D(1,14,15,17)         179.6038         estimate D2E/DX2                !
 ! D44   D(1,14,15,18)          -0.3595         estimate D2E/DX2                !
 ! D45   D(16,14,15,17)          0.0456         estimate D2E/DX2                !
 ! D46   D(16,14,15,18)       -179.9177         estimate D2E/DX2                !
 ! D47   D(1,14,16,19)        -179.5945         estimate D2E/DX2                !
 ! D48   D(1,14,16,20)          -0.479          estimate D2E/DX2                !
 ! D49   D(15,14,16,19)         -0.048          estimate D2E/DX2                !
 ! D50   D(15,14,16,20)        179.0675         estimate D2E/DX2                !
 ! D51   D(14,15,17,21)          0.0189         estimate D2E/DX2                !
 ! D52   D(14,15,17,22)       -179.9534         estimate D2E/DX2                !
 ! D53   D(18,15,17,21)        179.9824         estimate D2E/DX2                !
 ! D54   D(18,15,17,22)          0.0101         estimate D2E/DX2                !
 ! D55   D(14,16,19,21)         -0.0142         estimate D2E/DX2                !
 ! D56   D(14,16,19,23)        179.8765         estimate D2E/DX2                !
 ! D57   D(20,16,19,21)       -179.1169         estimate D2E/DX2                !
 ! D58   D(20,16,19,23)          0.7738         estimate D2E/DX2                !
 ! D59   D(15,17,21,19)         -0.0815         estimate D2E/DX2                !
 ! D60   D(15,17,21,24)       -179.9806         estimate D2E/DX2                !
 ! D61   D(22,17,21,19)        179.8908         estimate D2E/DX2                !
 ! D62   D(22,17,21,24)         -0.0083         estimate D2E/DX2                !
 ! D63   D(16,19,21,17)          0.0791         estimate D2E/DX2                !
 ! D64   D(16,19,21,24)        179.9783         estimate D2E/DX2                !
 ! D65   D(23,19,21,17)       -179.8113         estimate D2E/DX2                !
 ! D66   D(23,19,21,24)          0.0879         estimate D2E/DX2                !
 ! D67   D(1,25,26,28)        -179.5704         estimate D2E/DX2                !
 ! D68   D(1,25,26,29)           1.5481         estimate D2E/DX2                !
 ! D69   D(27,25,26,28)          0.3296         estimate D2E/DX2                !
 ! D70   D(27,25,26,29)       -178.5518         estimate D2E/DX2                !
 ! D71   D(1,25,27,30)         179.6861         estimate D2E/DX2                !
 ! D72   D(1,25,27,31)          -0.392          estimate D2E/DX2                !
 ! D73   D(26,25,27,30)         -0.2159         estimate D2E/DX2                !
 ! D74   D(26,25,27,31)        179.706          estimate D2E/DX2                !
 ! D75   D(25,26,28,32)         -0.1601         estimate D2E/DX2                !
 ! D76   D(25,26,28,33)        179.9715         estimate D2E/DX2                !
 ! D77   D(29,26,28,32)        178.7049         estimate D2E/DX2                !
 ! D78   D(29,26,28,33)         -1.1635         estimate D2E/DX2                !
 ! D79   D(25,27,30,32)         -0.0672         estimate D2E/DX2                !
 ! D80   D(25,27,30,34)        179.9137         estimate D2E/DX2                !
 ! D81   D(31,27,30,32)       -179.9894         estimate D2E/DX2                !
 ! D82   D(31,27,30,34)         -0.0084         estimate D2E/DX2                !
 ! D83   D(26,28,32,30)         -0.1258         estimate D2E/DX2                !
 ! D84   D(26,28,32,35)       -179.9902         estimate D2E/DX2                !
 ! D85   D(33,28,32,30)        179.7423         estimate D2E/DX2                !
 ! D86   D(33,28,32,35)         -0.1221         estimate D2E/DX2                !
 ! D87   D(27,30,32,28)          0.2393         estimate D2E/DX2                !
 ! D88   D(27,30,32,35)       -179.8964         estimate D2E/DX2                !
 ! D89   D(34,30,32,28)       -179.7417         estimate D2E/DX2                !
 ! D90   D(34,30,32,35)          0.1227         estimate D2E/DX2                !
 --------------------------------------------------------------------------------
 Trust Radius=3.00D-01 FncErr=1.00D-07 GrdErr=1.00D-07
 Number of steps in this run= 197 maximum allowed number of steps= 210.
 GradGradGradGradGradGradGradGradGradGradGradGradGradGradGradGradGradGrad

                          Input orientation:                          
 ---------------------------------------------------------------------
 Center     Atomic      Atomic             Coordinates (Angstroms)
 Number     Number       Type             X           Y           Z
 ---------------------------------------------------------------------
      1          6           0       -0.102102    0.746923   -0.185862
      2          1           0       -0.297198    1.820260   -0.452497
      3          6           0       -0.195393    0.002599   -1.494888
      4          6           0        0.924706   -0.531177   -2.131513
      5          6           0       -1.443461   -0.101751   -2.118229
      6          6           0        0.799703   -1.161836   -3.365297
      7          1           0        1.911425   -0.454737   -1.657274
      8          6           0       -1.566240   -0.732959   -3.348858
      9          1           0       -2.329140    0.315362   -1.624014
     10          6           0       -0.443706   -1.264951   -3.976213
     11          1           0        1.686949   -1.576606   -3.854605
     12          1           0       -2.548620   -0.810806   -3.825740
     13          1           0       -0.540690   -1.761637   -4.946751
     14          6           0        1.255268    0.681260    0.468032
     15          6           0        1.994145    1.856466    0.622469
     16          6           0        1.789198   -0.523208    0.931905
     17          6           0        3.245121    1.824901    1.229581
     18          1           0        1.588462    2.810356    0.264904
     19          6           0        3.039244   -0.552422    1.538112
     20          1           0        1.198866   -1.446919    0.823508
     21          6           0        3.770126    0.621772    1.687395
     22          1           0        3.816542    2.751506    1.346851
     23          1           0        3.446936   -1.502001    1.899750
     24          1           0        4.754663    0.598526    2.165289
     25          6           0       -1.175018    0.305351    0.780372
     26          6           0       -1.283895   -1.026787    1.185077
     27          6           0       -2.078861    1.245894    1.278916
     28          6           0       -2.283976   -1.413883    2.068168
     29          1           0       -0.555310   -1.760938    0.809140
     30          6           0       -3.077504    0.856454    2.164499
     31          1           0       -2.002507    2.296554    0.973680
     32          6           0       -3.183513   -0.472961    2.558489
     33          1           0       -2.361425   -2.460840    2.379204
     34          1           0       -3.781441    1.600376    2.551966
     35          1           0       -3.971355   -0.778139    3.254434
 ---------------------------------------------------------------------
                    Distance matrix (angstroms):
                    1          2          3          4          5
     1  C    0.000000
     2  H    1.123036   0.000000
     3  C    1.508731   2.097817   0.000000
     4  C    2.544294   3.137101   1.394572   0.000000
     5  C    2.500706   2.789751   1.398970   2.406823   0.000000
     6  C    3.816467   4.310510   2.417552   1.391251   2.776822
     7  H    2.768272   3.391919   2.161992   1.097434   3.404752
     8  C    3.786594   4.064272   2.420222   2.779830   1.388505
     9  H    2.685931   2.786747   2.160410   3.400250   1.096659
    10  C    4.304775   4.685783   2.797377   2.411201   2.409284
    11  H    4.696718   5.200950   3.406665   2.154758   3.871649
    12  H    4.654104   4.834272   3.410598   3.874609   2.154004
    13  H    5.399194   5.752182   3.891930   3.403966   3.401581
    14  C    1.508093   2.134208   2.533388   2.887371   3.819030
    15  C    2.505741   2.531228   3.565683   3.798547   4.812813
    16  C    2.537647   3.429498   3.178742   3.183071   4.464417
    17  C    3.790702   3.921407   4.751910   4.715124   6.074753
    18  H    2.705357   2.247369   3.763310   4.165241   4.832416
    19  C    3.811618   4.552360   4.468782   4.235313   5.802290
    20  H    2.743043   3.813247   3.069205   3.105785   4.176743
    21  C    4.303359   4.749593   5.122074   4.899977   6.495209
    22  H    4.660829   4.585600   5.632724   5.589073   6.914873
    23  H    4.690747   5.530734   5.201341   4.853372   6.482347
    24  H    5.397972   5.819513   6.185069   5.865775   7.566746
    25  C    1.509881   2.141373   2.495622   3.686149   2.939333
    26  C    2.534197   3.429416   3.070291   4.015385   3.434091
    27  C    2.510403   2.549903   3.575922   4.879592   3.709511
    28  C    3.809239   4.556393   4.366230   5.358370   4.466998
    29  H    2.735834   3.805696   2.923722   3.514285   3.480115
    30  C    3.793311   3.937980   4.735688   6.033152   4.682949
    31  H    2.712459   2.273525   3.823836   5.119264   3.952759
    32  C    4.302869   4.759802   5.058151   6.235141   5.003726
    33  H    4.687627   5.532394   5.076299   5.904983   5.160897
    34  H    4.664936   4.605985   5.638232   6.973257   5.493096
    35  H    5.397460   5.830304   6.117476   7.282914   5.976057
                    6          7          8          9         10
     6  C    0.000000
     7  H    2.157142   0.000000
     8  C    2.404556   3.877244   0.000000
     9  H    3.873479   4.310053   2.157796   0.000000
    10  C    1.389214   3.403023   1.391644   3.403688   0.000000
    11  H    1.094834   2.477346   3.398641   4.968305   2.156758
    12  H    3.398014   4.972026   1.094782   2.482746   2.158601
    13  H    2.158104   4.305987   2.159442   4.307326   1.094554
    14  C    4.277728   2.497590   4.952734   4.166356   5.140580
    15  C    5.141898   3.247418   5.928988   5.110037   6.069121
    16  C    4.455659   2.592967   5.443151   4.919007   5.442946
    17  C    6.001131   3.912726   7.117159   6.441592   7.089070
    18  H    5.438641   3.802618   5.963766   5.014042   6.222934
    19  C    5.424975   3.389987   6.717556   6.290599   6.560977
    20  H    4.217428   2.765221   5.056105   4.641425   5.076266
    21  C    6.126530   3.974978   7.461631   6.946968   7.307021
    22  H    6.827877   4.788969   7.947673   7.247775   7.913067
    23  H    5.902904   4.013349   7.298715   7.005910   7.051256
    24  H    7.023387   4.879072   8.493085   8.038611   8.259154
    25  C    4.820657   4.005744   4.275709   2.667053   5.062190
    26  C    5.006548   4.314658   4.552211   3.284036   5.234649
    27  C    5.970930   5.237913   5.059143   3.058681   6.049335
    28  C    6.252611   5.692123   5.506630   4.077320   6.320072
    29  H    4.429550   3.724801   4.400872   3.657559   4.812282
    30  C    7.048750   6.419859   5.933571   3.899444   7.010392
    31  H    6.216073   5.459889   5.296472   3.283264   6.294094
    32  C    7.171597   6.612972   6.130247   4.341053   7.129946
    33  H    6.684268   6.210866   6.035610   4.871765   6.745303
    34  H    7.976885   7.372240   6.720959   4.604264   7.871956
    35  H    8.168909   7.670501   7.027809   5.262307   8.059997
                   11         12         13         14         15
    11  H    0.000000
    12  H    4.304339   0.000000
    13  H    2.487850   2.488479   0.000000
    14  C    4.895866   5.927252   6.205892   0.000000
    15  C    5.650181   6.894753   7.108605   1.396745   0.000000
    16  C    4.902120   6.444732   6.443655   1.396783   2.408444
    17  C    6.312456   8.128387   8.083484   2.418137   1.390871
    18  H    6.018761   6.852857   7.252431   2.164562   1.096511
    19  C    5.653234   7.749962   7.505437   2.418597   2.780894
    20  H    4.705294   6.005315   6.034981   2.158400   3.403709
    21  C    6.315557   8.507262   8.262910   2.795513   2.410942
    22  H    7.093860   8.942094   8.886132   3.408572   2.155680
    23  H    6.017950   8.318995   7.927367   3.408790   3.875738
    24  H    7.097971   9.550738   9.175634   3.890153   3.403405
    25  C    5.763300   4.934457   6.121662   2.478942   3.531923
    26  C    5.875935   5.172472   6.220263   3.143076   4.401729
    27  C    6.964256   5.523423   7.083088   3.477465   4.170503
    28  C    7.132598   5.930590   7.236647   4.413197   5.575620
    29  H    5.178052   5.134019   5.755910   3.059228   4.429467
    30  C    8.052913   6.240388   7.991226   4.656351   5.394396
    31  H    7.205955   5.743550   7.325116   3.671233   4.036119
    32  C    8.128174   6.424610   8.060635   5.040339   5.998546
    33  H    7.485424   6.423316   7.581133   5.158085   6.379360
    34  H    9.002258   6.928837   8.833819   5.527748   6.094747
    35  H    9.120987   7.221781   8.944058   6.100121   7.032466
                   16         17         18         19         20
    16  C    0.000000
    17  C    2.778838   0.000000
    18  H    3.405559   2.155514   0.000000
    19  C    1.389588   2.406084   3.877383   0.000000
    20  H    1.101582   3.880317   4.311405   2.167435   0.000000
    21  C    2.409527   1.390231   3.401916   1.391117   3.411328
    22  H    3.873765   1.094929   2.477581   3.399516   4.975227
    23  H    2.154728   3.399725   4.972229   1.094850   2.493019
    24  H    3.401986   2.158300   4.304472   2.158864   4.316006
    25  C    3.081565   4.695578   3.765312   4.366915   2.950871
    26  C    3.124353   5.352204   4.880657   4.363391   2.543884
    27  C    4.267554   5.355601   4.114003   5.431033   4.266396
    28  C    4.321474   6.462496   6.007639   5.418463   3.698710
    29  H    2.654009   5.241974   5.078255   3.861700   1.782119
    30  C    5.206490   6.464329   5.403465   6.308081   5.038961
    31  H    4.725445   5.274993   3.696135   5.818462   4.927975
    32  C    5.232223   6.955107   6.229964   6.306361   4.812900
    33  H    4.803827   7.150005   6.917903   5.789362   4.015457
    34  H    6.177882   7.153439   5.960752   7.223862   6.089091
    35  H    6.216358   7.934317   7.261278   7.221164   5.752205
                   21         22         23         24         25
    21  C    0.000000
    22  H    2.157287   0.000000
    23  H    2.158694   4.305186   0.000000
    24  H    1.094640   2.487013   2.488549   0.000000
    25  C    5.037584   5.587507   5.087434   6.096315   0.000000
    26  C    5.339775   6.349497   4.808050   6.329821   1.396507
    27  C    5.896357   6.085002   6.202483   6.921112   1.396459
    28  C    6.398517   7.422067   5.734063   7.321315   2.417431
    29  H    5.015778   6.305899   4.156254   5.966743   2.157409
    30  C    6.868241   7.196363   6.942674   7.836413   2.416397
    31  H    6.052898   5.848723   6.706941   7.068421   2.164947
    32  C    7.092978   7.801668   6.742086   8.019809   2.793121
    33  H    6.897609   8.148716   5.906463   7.748819   3.408173
    34  H    7.663636   7.778609   7.893007   8.603389   3.407210
    35  H    8.021589   8.760628   7.575632   8.900834   3.887730
                   26         27         28         29         30
    26  C    0.000000
    27  C    2.409534   0.000000
    28  C    1.389192   2.781979   0.000000
    29  H    1.100519   3.403371   2.166537   0.000000
    30  C    2.779010   1.390399   2.406947   3.879329   0.000000
    31  H    3.406712   1.096761   3.878720   4.310997   2.155819
    32  C    2.408638   2.410815   1.391013   3.409774   1.390615
    33  H    2.154883   3.876900   1.094925   2.493394   3.400486
    34  H    3.874030   2.155248   3.400326   4.974313   1.095024
    35  H    3.400957   3.403075   2.158391   4.314478   2.158431
                   31         32         33         34         35
    31  H    0.000000
    32  C    3.402442   0.000000
    33  H    4.973643   2.158619   0.000000
    34  H    2.477954   2.157843   4.305783   0.000000
    35  H    4.304874   1.094609   2.487848   2.487340   0.000000
 Stoichiometry    C19H16
 Framework group  C1[X(C19H16)]
 Deg. of freedom    99
 Full point group                 C1      NOp   1
 Largest Abelian subgroup         C1      NOp   1
 Largest concise Abelian subgroup C1      NOp   1
                         Standard orientation:                         
 ---------------------------------------------------------------------
 Center     Atomic      Atomic             Coordinates (Angstroms)
 Number     Number       Type             X           Y           Z
 ---------------------------------------------------------------------
      1          6           0       -0.009447    0.014206   -0.761870
      2          1           0        0.019416    0.017985   -1.884529
      3          6           0        0.686770    1.289408   -0.355164
      4          6           0       -0.001011    2.375895    0.184588
      5          6           0        2.062049    1.403813   -0.584591
      6          6           0        0.673215    3.552845    0.494085
      7          1           0       -1.080641    2.303342    0.367610
      8          6           0        2.733294    2.578806   -0.273516
      9          1           0        2.610112    0.553854   -1.008686
     10          6           0        2.039740    3.657471    0.266981
     11          1           0        0.121530    4.398552    0.917271
     12          1           0        3.810172    2.655627   -0.455123
     13          1           0        2.569010    4.583901    0.511212
     14          6           0       -1.456956   -0.060552   -0.345373
     15          6           0       -2.447160   -0.104616   -1.329473
     16          6           0       -1.833055   -0.096294    0.999349
     17          6           0       -3.789201   -0.182076   -0.972472
     18          1           0       -2.168319   -0.078784   -2.389622
     19          6           0       -3.174465   -0.173643    1.353741
     20          1           0       -1.050420   -0.077134    1.774331
     21          6           0       -4.155388   -0.215860    0.368239
     22          1           0       -4.558219   -0.216920   -1.751104
     23          1           0       -3.457488   -0.203102    2.410966
     24          1           0       -5.211980   -0.277149    0.647688
     25          6           0        0.741312   -1.204530   -0.281468
     26          6           0        1.001120   -1.409025    1.075336
     27          6           0        1.187490   -2.146280   -1.211054
     28          6           0        1.701398   -2.532792    1.495588
     29          1           0        0.627279   -0.677282    1.807413
     30          6           0        1.886132   -3.271418   -0.787764
     31          1           0        0.986535   -2.001329   -2.279460
     32          6           0        2.146350   -3.465469    0.564434
     33          1           0        1.900556   -2.684026    2.561574
     34          1           0        2.231354   -4.005901   -1.522907
     35          1           0        2.697975   -4.350955    0.895783
 ---------------------------------------------------------------------
 Rotational constants (GHZ):      0.4037564      0.3824101      0.2326368
 Standard basis: 6-311G (5D, 7F)
 There are   295 symmetry adapted basis functions of A   symmetry.
 Integral buffers will be    262144 words long.
 Raffenetti 1 integral format.
 Two-electron integral symmetry is turned on.
   295 basis functions,   574 primitive gaussians,   295 cartesian basis functions
    65 alpha electrons       65 beta electrons
       nuclear repulsion energy      1290.7637726042 Hartrees.
 NAtoms=   35 NActive=   35 NUniq=   35 SFac= 7.50D-01 NAtFMM=   80 NAOKFM=F Big=F
 One-electron integrals computed using PRISM.
 PrsmSu:  requested number of processors reduced to:  10 ShMem   1 Linda.
 NBasis=   295 RedAO= T  NBF=   295
 NBsUse=   295 1.00D-06 NBFU=   295
 Harris functional with IExCor=  205 diagonalized for initial guess.
 ExpMin= 1.03D-01 ExpMax= 4.56D+03 ExpMxC= 6.82D+02 IAcc=1 IRadAn=         1 AccDes= 0.00D+00
 HarFok:  IExCor=  205 AccDes= 0.00D+00 IRadAn=         1 IDoV= 1
 ScaDFX=  1.000000  1.000000  1.000000  1.000000
 FoFCou: FMM=F IPFlag=           0 FMFlag=      100000 FMFlg1=           0
         NFxFlg=           0 DoJE=T BraDBF=F KetDBF=T FulRan=T
         Omega=  0.000000  0.000000  1.000000  0.000000  0.000000 ICntrl=     500 IOpCl=  0
         NMat0=    1 NMatS0=    1 NMatT0=    0 NMatD0=    1 NMtDS0=    0 NMtDT0=    0
         I1Cent=           4 NGrid=           0.
 Petite list used in FoFCou.
 Initial guess orbital symmetries:
       Occupied  (A) (A) (A) (A) (A) (A) (A) (A) (A) (A) (A) (A)
                 (A) (A) (A) (A) (A) (A) (A) (A) (A) (A) (A) (A)
                 (A) (A) (A) (A) (A) (A) (A) (A) (A) (A) (A) (A)
                 (A) (A) (A) (A) (A) (A) (A) (A) (A) (A) (A) (A)
                 (A) (A) (A) (A) (A) (A) (A) (A) (A) (A) (A) (A)
                 (A) (A) (A) (A) (A)
       Virtual   (A) (A) (A) (A) (A) (A) (A) (A) (A) (A) (A) (A)
                 (A) (A) (A) (A) (A) (A) (A) (A) (A) (A) (A) (A)
                 (A) (A) (A) (A) (A) (A) (A) (A) (A) (A) (A) (A)
                 (A) (A) (A) (A) (A) (A) (A) (A) (A) (A) (A) (A)
                 (A) (A) (A) (A) (A) (A) (A) (A) (A) (A) (A) (A)
                 (A) (A) (A) (A) (A) (A) (A) (A) (A) (A) (A) (A)
                 (A) (A) (A) (A) (A) (A) (A) (A) (A) (A) (A) (A)
                 (A) (A) (A) (A) (A) (A) (A) (A) (A) (A) (A) (A)
                 (A) (A) (A) (A) (A) (A) (A) (A) (A) (A) (A) (A)
                 (A) (A) (A) (A) (A) (A) (A) (A) (A) (A) (A) (A)
                 (A) (A) (A) (A) (A) (A) (A) (A) (A) (A) (A) (A)
                 (A) (A) (A) (A) (A) (A) (A) (A) (A) (A) (A) (A)
                 (A) (A) (A) (A) (A) (A) (A) (A) (A) (A) (A) (A)
                 (A) (A) (A) (A) (A) (A) (A) (A) (A) (A) (A) (A)
                 (A) (A) (A) (A) (A) (A) (A) (A) (A) (A) (A) (A)
                 (A) (A) (A) (A) (A) (A) (A) (A) (A) (A) (A) (A)
                 (A) (A) (A) (A) (A) (A) (A) (A) (A) (A) (A) (A)
                 (A) (A) (A) (A) (A) (A) (A) (A) (A) (A) (A) (A)
                 (A) (A) (A) (A) (A) (A) (A) (A) (A) (A) (A) (A)
                 (A) (A)
 The electronic state of the initial guess is 1-A.
 Requested convergence on RMS density matrix=1.00D-08 within 128 cycles.
 Requested convergence on MAX density matrix=1.00D-06.
 Requested convergence on             energy=1.00D-06.
 No special actions if energy rises.
 Integral accuracy reduced to 1.0D-05 until final iterations.
 Initial convergence to 1.0D-05 achieved.  Increase integral accuracy.
 SCF Done:  E(RHF) =  -728.672380153     A.U. after   14 cycles
             Convg  =    0.8780D-08             -V/T =  2.0001

 **********************************************************************

            Population analysis using the SCF density.

 **********************************************************************

 Orbital symmetries:
       Occupied  (A) (A) (A) (A) (A) (A) (A) (A) (A) (A) (A) (A)
                 (A) (A) (A) (A) (A) (A) (A) (A) (A) (A) (A) (A)
                 (A) (A) (A) (A) (A) (A) (A) (A) (A) (A) (A) (A)
                 (A) (A) (A) (A) (A) (A) (A) (A) (A) (A) (A) (A)
                 (A) (A) (A) (A) (A) (A) (A) (A) (A) (A) (A) (A)
                 (A) (A) (A) (A) (A)
       Virtual   (A) (A) (A) (A) (A) (A) (A) (A) (A) (A) (A) (A)
                 (A) (A) (A) (A) (A) (A) (A) (A) (A) (A) (A) (A)
                 (A) (A) (A) (A) (A) (A) (A) (A) (A) (A) (A) (A)
                 (A) (A) (A) (A) (A) (A) (A) (A) (A) (A) (A) (A)
                 (A) (A) (A) (A) (A) (A) (A) (A) (A) (A) (A) (A)
                 (A) (A) (A) (A) (A) (A) (A) (A) (A) (A) (A) (A)
                 (A) (A) (A) (A) (A) (A) (A) (A) (A) (A) (A) (A)
                 (A) (A) (A) (A) (A) (A) (A) (A) (A) (A) (A) (A)
                 (A) (A) (A) (A) (A) (A) (A) (A) (A) (A) (A) (A)
                 (A) (A) (A) (A) (A) (A) (A) (A) (A) (A) (A) (A)
                 (A) (A) (A) (A) (A) (A) (A) (A) (A) (A) (A) (A)
                 (A) (A) (A) (A) (A) (A) (A) (A) (A) (A) (A) (A)
                 (A) (A) (A) (A) (A) (A) (A) (A) (A) (A) (A) (A)
                 (A) (A) (A) (A) (A) (A) (A) (A) (A) (A) (A) (A)
                 (A) (A) (A) (A) (A) (A) (A) (A) (A) (A) (A) (A)
                 (A) (A) (A) (A) (A) (A) (A) (A) (A) (A) (A) (A)
                 (A) (A) (A) (A) (A) (A) (A) (A) (A) (A) (A) (A)
                 (A) (A) (A) (A) (A) (A) (A) (A) (A) (A) (A) (A)
                 (A) (A) (A) (A) (A) (A) (A) (A) (A) (A) (A) (A)
                 (A) (A)
 The electronic state is 1-A.
 Alpha  occ. eigenvalues --  -11.25757 -11.25229 -11.25187 -11.24915 -11.24524
 Alpha  occ. eigenvalues --  -11.24437 -11.24420 -11.24376 -11.24224 -11.24168
 Alpha  occ. eigenvalues --  -11.24143 -11.24127 -11.24072 -11.24037 -11.24029
 Alpha  occ. eigenvalues --  -11.23967 -11.23730 -11.23628 -11.23502  -1.18617
 Alpha  occ. eigenvalues --   -1.15869  -1.15572  -1.09028  -1.02377  -1.02235
 Alpha  occ. eigenvalues --   -1.01879  -1.01485  -1.01083  -0.92918  -0.84279
 Alpha  occ. eigenvalues --   -0.83361  -0.82323  -0.81922  -0.81128  -0.77583
 Alpha  occ. eigenvalues --   -0.70870  -0.70362  -0.68984  -0.65680  -0.63900
 Alpha  occ. eigenvalues --   -0.63611  -0.62515  -0.61701  -0.61575  -0.59723
 Alpha  occ. eigenvalues --   -0.58847  -0.58495  -0.58317  -0.56748  -0.55095
 Alpha  occ. eigenvalues --   -0.51723  -0.50915  -0.50214  -0.49864  -0.49378
 Alpha  occ. eigenvalues --   -0.48419  -0.47962  -0.47498  -0.46314  -0.35026
 Alpha  occ. eigenvalues --   -0.34319  -0.33969  -0.33325  -0.32521  -0.31464
 Alpha virt. eigenvalues --    0.11538   0.12293   0.12739   0.13492   0.15001
 Alpha virt. eigenvalues --    0.15134   0.15651   0.16239   0.16485   0.16911
 Alpha virt. eigenvalues --    0.18904   0.19187   0.19233   0.21235   0.21292
 Alpha virt. eigenvalues --    0.21595   0.23559   0.24012   0.24933   0.25408
 Alpha virt. eigenvalues --    0.26773   0.31545   0.33127   0.34236   0.35779
 Alpha virt. eigenvalues --    0.37596   0.39779   0.40563   0.41491   0.43090
 Alpha virt. eigenvalues --    0.44092   0.44427   0.44942   0.45440   0.45594
 Alpha virt. eigenvalues --    0.45867   0.46743   0.47238   0.47939   0.50601
 Alpha virt. eigenvalues --    0.51059   0.51420   0.52222   0.54971   0.56085
 Alpha virt. eigenvalues --    0.57305   0.57836   0.58516   0.58877   0.59349
 Alpha virt. eigenvalues --    0.60239   0.60459   0.60630   0.61126   0.61473
 Alpha virt. eigenvalues --    0.62048   0.62203   0.62954   0.63350   0.63672
 Alpha virt. eigenvalues --    0.64256   0.64585   0.65220   0.65952   0.66400
 Alpha virt. eigenvalues --    0.67243   0.67823   0.68587   0.69834   0.72357
 Alpha virt. eigenvalues --    0.73094   0.73912   0.74516   0.75328   0.75735
 Alpha virt. eigenvalues --    0.76794   0.78849   0.79398   0.79969   0.81233
 Alpha virt. eigenvalues --    0.81505   0.82221   0.82492   0.82889   0.83316
 Alpha virt. eigenvalues --    0.83838   0.84373   0.84855   0.84979   0.85474
 Alpha virt. eigenvalues --    0.85919   0.86190   0.86504   0.87766   0.88141
 Alpha virt. eigenvalues --    0.90199   0.90874   0.92118   0.93505   0.95062
 Alpha virt. eigenvalues --    0.95920   0.96328   0.97017   0.98239   0.99745
 Alpha virt. eigenvalues --    1.00060   1.02348   1.03085   1.04851   1.06207
 Alpha virt. eigenvalues --    1.07140   1.08118   1.09359   1.10101   1.10938
 Alpha virt. eigenvalues --    1.11552   1.11720   1.12401   1.12794   1.13809
 Alpha virt. eigenvalues --    1.15021   1.16495   1.19801   1.20536   1.21232
 Alpha virt. eigenvalues --    1.23715   1.25647   1.27344   1.28009   1.29101
 Alpha virt. eigenvalues --    1.29470   1.31941   1.32834   1.46904   1.47746
 Alpha virt. eigenvalues --    1.51974   1.54237   1.56904   2.53517   2.55707
 Alpha virt. eigenvalues --    2.56035   2.57751   2.62077   2.62351   2.63877
 Alpha virt. eigenvalues --    2.66446   2.67067   2.68456   2.72101   2.74276
 Alpha virt. eigenvalues --    2.78341   2.83385   2.86695   2.91784   2.94351
 Alpha virt. eigenvalues --    2.94614   2.94739   2.96018   2.98131   2.98591
 Alpha virt. eigenvalues --    2.99940   3.02265   3.03922   3.04391   3.06512
 Alpha virt. eigenvalues --    3.08485   3.09286   3.09855   3.10073   3.13205
 Alpha virt. eigenvalues --    3.15114   3.16151   3.17746   3.18397   3.19440
 Alpha virt. eigenvalues --    3.21626   3.24081   3.25011   3.27694   3.28780
 Alpha virt. eigenvalues --    3.31470   3.33873   3.34346   3.35713   3.40840
 Alpha virt. eigenvalues --    3.41288   3.44161   3.45051   3.49936   3.52572
 Alpha virt. eigenvalues --    3.53534   3.55980   3.57627   3.58345   3.59541
 Alpha virt. eigenvalues --    3.62428   3.64036   3.65086   3.66256   3.66835
 Alpha virt. eigenvalues --    3.67688   3.69221   3.71256   3.72254   3.74341
 Alpha virt. eigenvalues --    3.76421   3.77567   3.78454   3.85616   3.88067
 Alpha virt. eigenvalues --    3.91055  24.26081  24.30014  24.31734  24.50530
 Alpha virt. eigenvalues --   24.50779  24.51043  24.53015  24.54614  24.56485
 Alpha virt. eigenvalues --   24.76168  24.77048  24.79105  24.80203  24.80760
 Alpha virt. eigenvalues --   24.82834  24.87495  25.04629  25.05791  25.07122
          Condensed to atoms (all electrons):
              1          2          3          4          5          6
     1  C    6.111930   0.472597   0.032823  -0.031401  -0.085637   0.012273
     2  H    0.472597   0.502332  -0.062378   0.000713  -0.004716  -0.000112
     3  C    0.032823  -0.062378   5.351659   0.499962   0.471820  -0.068661
     4  C   -0.031401   0.000713   0.499962   5.097895  -0.083982   0.454274
     5  C   -0.085637  -0.004716   0.471820  -0.083982   5.125217  -0.033329
     6  C    0.012273  -0.000112  -0.068661   0.454274  -0.033329   5.078663
     7  H   -0.011372  -0.000274  -0.034901   0.394092   0.004974  -0.036403
     8  C    0.008493   0.000601  -0.056885  -0.030236   0.463152  -0.073792
     9  H   -0.003308  -0.000138  -0.044820   0.004498   0.397465  -0.000473
    10  C    0.000372   0.000035  -0.020692  -0.089865  -0.085108   0.495267
    11  H   -0.000363   0.000014   0.006473  -0.036834  -0.000405   0.395630
    12  H   -0.000356   0.000005   0.006148  -0.000435  -0.038297   0.005997
    13  H   -0.000014  -0.000002  -0.001455   0.007665   0.007450  -0.042175
    14  C    0.117309  -0.075104  -0.065033  -0.012545   0.011456  -0.001621
    15  C   -0.024039   0.006361  -0.000368   0.000896  -0.000287  -0.000111
    16  C   -0.072329   0.004447   0.006675  -0.018567   0.000872  -0.000972
    17  C    0.008190   0.001453  -0.000763   0.000344   0.000005   0.000004
    18  H   -0.002035   0.002825   0.000496   0.000129   0.000013   0.000004
    19  C    0.002689  -0.000224   0.000724  -0.001439   0.000015  -0.000041
    20  H    0.000705  -0.000019   0.001464   0.001704   0.000004   0.000125
    21  C    0.001691   0.000006  -0.000066   0.000142   0.000000   0.000004
    22  H   -0.000408  -0.000034   0.000023  -0.000008   0.000000   0.000000
    23  H   -0.000373   0.000011   0.000020   0.000003   0.000000  -0.000002
    24  H   -0.000026  -0.000002   0.000002  -0.000003   0.000000   0.000000
    25  C    0.148413  -0.070343  -0.093524   0.001567  -0.007260  -0.000819
    26  C   -0.056310   0.005424  -0.006833   0.001635  -0.009160   0.000051
    27  C   -0.024732   0.001762  -0.001346  -0.000445   0.000579   0.000007
    28  C    0.003338  -0.000260  -0.000549   0.000018  -0.000352   0.000004
    29  H    0.000105   0.000104   0.001170  -0.000185   0.000355  -0.000112
    30  C    0.006866   0.001552  -0.000431   0.000020  -0.000095   0.000000
    31  H   -0.000115   0.002381   0.000154  -0.000033   0.000286   0.000000
    32  C    0.001274   0.000000   0.000039  -0.000002   0.000115   0.000000
    33  H   -0.000350   0.000011   0.000025   0.000000   0.000016   0.000000
    34  H   -0.000341  -0.000039   0.000011   0.000000  -0.000002   0.000000
    35  H   -0.000012  -0.000001   0.000001   0.000000   0.000000   0.000000
              7          8          9         10         11         12
     1  C   -0.011372   0.008493  -0.003308   0.000372  -0.000363  -0.000356
     2  H   -0.000274   0.000601  -0.000138   0.000035   0.000014   0.000005
     3  C   -0.034901  -0.056885  -0.044820  -0.020692   0.006473   0.006148
     4  C    0.394092  -0.030236   0.004498  -0.089865  -0.036834  -0.000435
     5  C    0.004974   0.463152   0.397465  -0.085108  -0.000405  -0.038297
     6  C   -0.036403  -0.073792  -0.000473   0.495267   0.395630   0.005997
     7  H    0.477500  -0.000441  -0.000195   0.005047  -0.003528   0.000017
     8  C   -0.000441   5.062612  -0.035170   0.480740   0.006006   0.397074
     9  H   -0.000195  -0.035170   0.489394   0.005223   0.000017  -0.003858
    10  C    0.005047   0.480740   0.005223   5.042818  -0.041242  -0.040851
    11  H   -0.003528   0.006006   0.000017  -0.041242   0.517767  -0.000213
    12  H    0.000017   0.397074  -0.003858  -0.040851  -0.000213   0.517580
    13  H   -0.000170  -0.043200  -0.000173   0.399497  -0.004467  -0.004406
    14  C    0.001110  -0.000882   0.000809   0.000123   0.000059   0.000012
    15  C   -0.001037   0.000009  -0.000006  -0.000004   0.000004   0.000000
    16  C   -0.000993  -0.000023  -0.000041  -0.000015   0.000025   0.000000
    17  C   -0.000126   0.000000   0.000000   0.000000   0.000000   0.000000
    18  H    0.000091   0.000000  -0.000001   0.000000   0.000000   0.000000
    19  C    0.000251   0.000000   0.000000   0.000000  -0.000001   0.000000
    20  H    0.000041  -0.000058   0.000022   0.000000   0.000001  -0.000001
    21  C    0.000105   0.000000   0.000000   0.000000  -0.000001   0.000000
    22  H    0.000011   0.000000   0.000000   0.000000   0.000000   0.000000
    23  H    0.000037   0.000000   0.000000   0.000000   0.000000   0.000000
    24  H    0.000010   0.000000   0.000000   0.000000   0.000000   0.000000
    25  C    0.000435  -0.001654   0.004139   0.000129   0.000012   0.000016
    26  C    0.000055  -0.000308  -0.000610   0.000033   0.000000   0.000014
    27  C   -0.000017  -0.000049   0.001555  -0.000003   0.000000  -0.000004
    28  C    0.000000  -0.000010  -0.000261   0.000002   0.000000   0.000002
    29  H    0.000025   0.000075  -0.000055  -0.000039   0.000000   0.000005
    30  C    0.000000   0.000013   0.000116   0.000000   0.000000  -0.000001
    31  H    0.000001  -0.000008   0.000200   0.000001   0.000000   0.000000
    32  C    0.000000   0.000002  -0.000085   0.000000   0.000000   0.000000
    33  H    0.000000   0.000001   0.000005   0.000000   0.000000   0.000000
    34  H    0.000000   0.000000   0.000007   0.000000   0.000000   0.000000
    35  H    0.000000   0.000000   0.000001   0.000000   0.000000   0.000000
             13         14         15         16         17         18
     1  C   -0.000014   0.117309  -0.024039  -0.072329   0.008190  -0.002035
     2  H   -0.000002  -0.075104   0.006361   0.004447   0.001453   0.002825
     3  C   -0.001455  -0.065033  -0.000368   0.006675  -0.000763   0.000496
     4  C    0.007665  -0.012545   0.000896  -0.018567   0.000344   0.000129
     5  C    0.007450   0.011456  -0.000287   0.000872   0.000005   0.000013
     6  C   -0.042175  -0.001621  -0.000111  -0.000972   0.000004   0.000004
     7  H   -0.000170   0.001110  -0.001037  -0.000993  -0.000126   0.000091
     8  C   -0.043200  -0.000882   0.000009  -0.000023   0.000000   0.000000
     9  H   -0.000173   0.000809  -0.000006  -0.000041   0.000000  -0.000001
    10  C    0.399497   0.000123  -0.000004  -0.000015   0.000000   0.000000
    11  H   -0.004467   0.000059   0.000004   0.000025   0.000000   0.000000
    12  H   -0.004406   0.000012   0.000000   0.000000   0.000000   0.000000
    13  H    0.519396   0.000001   0.000000   0.000001   0.000000   0.000000
    14  C    0.000001   5.395420   0.498166   0.450936  -0.076666  -0.045830
    15  C    0.000000   0.498166   5.049603  -0.063598   0.467946   0.394685
    16  C    0.000001   0.450936  -0.063598   5.097184  -0.029485   0.004760
    17  C    0.000000  -0.076666   0.467946  -0.029485   5.047635  -0.033767
    18  H    0.000000  -0.045830   0.394685   0.004760  -0.033767   0.506650
    19  C    0.000000  -0.063639  -0.033842   0.480327  -0.077430  -0.000285
    20  H    0.000000  -0.047362   0.004590   0.386358  -0.000120  -0.000271
    21  C    0.000000  -0.016129  -0.088981  -0.093486   0.499758   0.005065
    22  H    0.000000   0.007004  -0.039427  -0.000633   0.396339  -0.004069
    23  H    0.000000   0.005976  -0.000379  -0.038571   0.005899   0.000025
    24  H    0.000000  -0.001682   0.007567   0.007982  -0.042540  -0.000178
    25  C    0.000002  -0.142476  -0.004571  -0.003250  -0.000585   0.000152
    26  C    0.000000  -0.003300   0.000756  -0.011725   0.000057  -0.000025
    27  C    0.000000  -0.002197   0.000634   0.000520  -0.000013   0.000220
    28  C    0.000000   0.001906   0.000029  -0.000380  -0.000001   0.000001
    29  H    0.000001  -0.002889  -0.000200  -0.000871  -0.000001  -0.000002
    30  C    0.000000  -0.000518  -0.000018   0.000127   0.000002  -0.000002
    31  H    0.000000   0.000349   0.000278  -0.000008   0.000006   0.000070
    32  C    0.000000  -0.000088  -0.000009  -0.000025   0.000000  -0.000001
    33  H    0.000000   0.000028   0.000001   0.000056   0.000000   0.000000
    34  H    0.000000   0.000025   0.000001   0.000000   0.000000   0.000000
    35  H    0.000000  -0.000003   0.000000   0.000000   0.000000   0.000000
             19         20         21         22         23         24
     1  C    0.002689   0.000705   0.001691  -0.000408  -0.000373  -0.000026
     2  H   -0.000224  -0.000019   0.000006  -0.000034   0.000011  -0.000002
     3  C    0.000724   0.001464  -0.000066   0.000023   0.000020   0.000002
     4  C   -0.001439   0.001704   0.000142  -0.000008   0.000003  -0.000003
     5  C    0.000015   0.000004   0.000000   0.000000   0.000000   0.000000
     6  C   -0.000041   0.000125   0.000004   0.000000  -0.000002   0.000000
     7  H    0.000251   0.000041   0.000105   0.000011   0.000037   0.000010
     8  C    0.000000  -0.000058   0.000000   0.000000   0.000000   0.000000
     9  H    0.000000   0.000022   0.000000   0.000000   0.000000   0.000000
    10  C    0.000000   0.000000   0.000000   0.000000   0.000000   0.000000
    11  H   -0.000001   0.000001  -0.000001   0.000000   0.000000   0.000000
    12  H    0.000000  -0.000001   0.000000   0.000000   0.000000   0.000000
    13  H    0.000000   0.000000   0.000000   0.000000   0.000000   0.000000
    14  C   -0.063639  -0.047362  -0.016129   0.007004   0.005976  -0.001682
    15  C   -0.033842   0.004590  -0.088981  -0.039427  -0.000379   0.007567
    16  C    0.480327   0.386358  -0.093486  -0.000633  -0.038571   0.007982
    17  C   -0.077430  -0.000120   0.499758   0.396339   0.005899  -0.042540
    18  H   -0.000285  -0.000271   0.005065  -0.004069   0.000025  -0.000178
    19  C    5.046186  -0.027160   0.490221   0.006269   0.397001  -0.042971
    20  H   -0.027160   0.497114   0.004619   0.000016  -0.003380  -0.000169
    21  C    0.490221   0.004619   5.033596  -0.041019  -0.039789   0.399449
    22  H    0.006269   0.000016  -0.041019   0.517963  -0.000206  -0.004554
    23  H    0.397001  -0.003380  -0.039789  -0.000206   0.514405  -0.004367
    24  H   -0.042971  -0.000169   0.399449  -0.004554  -0.004367   0.516897
    25  C    0.001976  -0.003760  -0.000062   0.000021   0.000028  -0.000002
    26  C   -0.000102   0.001836  -0.000006  -0.000001   0.000039   0.000001
    27  C    0.000042  -0.000213  -0.000013   0.000001   0.000002   0.000000
    28  C   -0.000102   0.001132   0.000002   0.000000   0.000000   0.000000
    29  H    0.000888   0.001501  -0.000015   0.000000  -0.000033   0.000000
    30  C    0.000001  -0.000056   0.000000   0.000000   0.000000   0.000000
    31  H   -0.000001   0.000001  -0.000002   0.000000   0.000000   0.000000
    32  C    0.000001   0.000003   0.000000   0.000000   0.000000   0.000000
    33  H    0.000002  -0.000057   0.000000   0.000000   0.000001   0.000000
    34  H    0.000000   0.000001   0.000000   0.000000   0.000000   0.000000
    35  H    0.000000   0.000000   0.000000   0.000000   0.000000   0.000000
             25         26         27         28         29         30
     1  C    0.148413  -0.056310  -0.024732   0.003338   0.000105   0.006866
     2  H   -0.070343   0.005424   0.001762  -0.000260   0.000104   0.001552
     3  C   -0.093524  -0.006833  -0.001346  -0.000549   0.001170  -0.000431
     4  C    0.001567   0.001635  -0.000445   0.000018  -0.000185   0.000020
     5  C   -0.007260  -0.009160   0.000579  -0.000352   0.000355  -0.000095
     6  C   -0.000819   0.000051   0.000007   0.000004  -0.000112   0.000000
     7  H    0.000435   0.000055  -0.000017   0.000000   0.000025   0.000000
     8  C   -0.001654  -0.000308  -0.000049  -0.000010   0.000075   0.000013
     9  H    0.004139  -0.000610   0.001555  -0.000261  -0.000055   0.000116
    10  C    0.000129   0.000033  -0.000003   0.000002  -0.000039   0.000000
    11  H    0.000012   0.000000   0.000000   0.000000   0.000000   0.000000
    12  H    0.000016   0.000014  -0.000004   0.000002   0.000005  -0.000001
    13  H    0.000002   0.000000   0.000000   0.000000   0.000001   0.000000
    14  C   -0.142476  -0.003300  -0.002197   0.001906  -0.002889  -0.000518
    15  C   -0.004571   0.000756   0.000634   0.000029  -0.000200  -0.000018
    16  C   -0.003250  -0.011725   0.000520  -0.000380  -0.000871   0.000127
    17  C   -0.000585   0.000057  -0.000013  -0.000001  -0.000001   0.000002
    18  H    0.000152  -0.000025   0.000220   0.000001  -0.000002  -0.000002
    19  C    0.001976  -0.000102   0.000042  -0.000102   0.000888   0.000001
    20  H   -0.003760   0.001836  -0.000213   0.001132   0.001501  -0.000056
    21  C   -0.000062  -0.000006  -0.000013   0.000002  -0.000015   0.000000
    22  H    0.000021  -0.000001   0.000001   0.000000   0.000000   0.000000
    23  H    0.000028   0.000039   0.000002   0.000000  -0.000033   0.000000
    24  H   -0.000002   0.000001   0.000000   0.000000   0.000000   0.000000
    25  C    5.392892   0.448342   0.492165  -0.058083  -0.044505  -0.073999
    26  C    0.448342   5.067859  -0.072074   0.478640   0.388644  -0.026387
    27  C    0.492165  -0.072074   5.091814  -0.030713   0.004103   0.454360
    28  C   -0.058083   0.478640  -0.030713   5.041037  -0.028567  -0.078602
    29  H   -0.044505   0.388644   0.004103  -0.028567   0.497331   0.000026
    30  C   -0.073999  -0.026387   0.454360  -0.078602   0.000026   5.059132
    31  H   -0.050657   0.004320   0.400368  -0.000281  -0.000272  -0.034751
    32  C   -0.018747  -0.091482  -0.086465   0.491158   0.004565   0.497990
    33  H    0.006011  -0.038862  -0.000474   0.397215  -0.003324   0.005953
    34  H    0.006935  -0.000687  -0.039683   0.006233   0.000014   0.396914
    35  H   -0.001551   0.007911   0.007495  -0.042950  -0.000173  -0.042576
             31         32         33         34         35
     1  C   -0.000115   0.001274  -0.000350  -0.000341  -0.000012
     2  H    0.002381   0.000000   0.000011  -0.000039  -0.000001
     3  C    0.000154   0.000039   0.000025   0.000011   0.000001
     4  C   -0.000033  -0.000002   0.000000   0.000000   0.000000
     5  C    0.000286   0.000115   0.000016  -0.000002   0.000000
     6  C    0.000000   0.000000   0.000000   0.000000   0.000000
     7  H    0.000001   0.000000   0.000000   0.000000   0.000000
     8  C   -0.000008   0.000002   0.000001   0.000000   0.000000
     9  H    0.000200  -0.000085   0.000005   0.000007   0.000001
    10  C    0.000001   0.000000   0.000000   0.000000   0.000000
    11  H    0.000000   0.000000   0.000000   0.000000   0.000000
    12  H    0.000000   0.000000   0.000000   0.000000   0.000000
    13  H    0.000000   0.000000   0.000000   0.000000   0.000000
    14  C    0.000349  -0.000088   0.000028   0.000025  -0.000003
    15  C    0.000278  -0.000009   0.000001   0.000001   0.000000
    16  C   -0.000008  -0.000025   0.000056   0.000000   0.000000
    17  C    0.000006   0.000000   0.000000   0.000000   0.000000
    18  H    0.000070  -0.000001   0.000000   0.000000   0.000000
    19  C   -0.000001   0.000001   0.000002   0.000000   0.000000
    20  H    0.000001   0.000003  -0.000057   0.000001   0.000000
    21  C   -0.000002   0.000000   0.000000   0.000000   0.000000
    22  H    0.000000   0.000000   0.000000   0.000000   0.000000
    23  H    0.000000   0.000000   0.000001   0.000000   0.000000
    24  H    0.000000   0.000000   0.000000   0.000000   0.000000
    25  C   -0.050657  -0.018747   0.006011   0.006935  -0.001551
    26  C    0.004320  -0.091482  -0.038862  -0.000687   0.007911
    27  C    0.400368  -0.086465  -0.000474  -0.039683   0.007495
    28  C   -0.000281   0.491158   0.397215   0.006233  -0.042950
    29  H   -0.000272   0.004565  -0.003324   0.000014  -0.000173
    30  C   -0.034751   0.497990   0.005953   0.396914  -0.042576
    31  H    0.509500   0.005225   0.000025  -0.004204  -0.000184
    32  C    0.005225   5.034048  -0.039809  -0.040670   0.399666
    33  H    0.000025  -0.039809   0.514703  -0.000205  -0.004470
    34  H   -0.004204  -0.040670  -0.000205   0.518096  -0.004581
    35  H   -0.000184   0.399666  -0.004470  -0.004581   0.517470
 Mulliken atomic charges:
              1
     1  C   -0.615547
     2  H    0.211011
     3  C    0.079016
     4  C   -0.159576
     5  C   -0.135160
     6  C   -0.183681
     7  H    0.205654
     8  C   -0.176062
     9  H    0.185744
    10  C   -0.151466
    11  H    0.161046
    12  H    0.161550
    13  H    0.162048
    14  C    0.067275
    15  C   -0.174651
    16  C   -0.105299
    17  C   -0.166141
    18  H    0.171280
    19  C   -0.179354
    20  H    0.181393
    21  C   -0.155087
    22  H    0.162712
    23  H    0.163655
    24  H    0.164588
    25  C    0.072614
    26  C   -0.087744
    27  C   -0.197188
    28  C   -0.179606
    29  H    0.182330
    30  C   -0.165635
    31  H    0.167351
    32  C   -0.156701
    33  H    0.163498
    34  H    0.162175
    35  H    0.163958
 Sum of Mulliken atomic charges =   0.00000
 Mulliken charges with hydrogens summed into heavy atoms:
              1
     1  C   -0.404535
     3  C    0.079016
     4  C    0.046078
     5  C    0.050584
     6  C   -0.022635
     8  C   -0.014511
    10  C    0.010582
    14  C    0.067275
    15  C   -0.003371
    16  C    0.076095
    17  C   -0.003429
    19  C   -0.015699
    21  C    0.009501
    25  C    0.072614
    26  C    0.094586
    27  C   -0.029837
    28  C   -0.016108
    30  C   -0.003460
    32  C    0.007257
 Sum of Mulliken charges with hydrogens summed into heavy atoms =   0.00000
 Electronic spatial extent (au):  <R**2>=           4930.8128
 Charge=              0.0000 electrons
 Dipole moment (field-independent basis, Debye):
    X=             -0.0986    Y=             -0.1692    Z=             -0.0174  Tot=              0.1966
 Quadrupole moment (field-independent basis, Debye-Ang):
   XX=           -107.7239   YY=           -113.1596   ZZ=           -106.8954
   XY=             -2.8219   XZ=             -0.8363   YZ=              2.6655
 Traceless Quadrupole moment (field-independent basis, Debye-Ang):
   XX=              1.5357   YY=             -3.9000   ZZ=              2.3642
   XY=             -2.8219   XZ=             -0.8363   YZ=              2.6655
 Octapole moment (field-independent basis, Debye-Ang**2):
  XXX=            -27.6697  YYY=              8.7312  ZZZ=              0.8247  XYY=             36.6296
  XXY=              2.1178  XXZ=             -2.7004  XZZ=            -10.2599  YZZ=            -18.7069
  YYZ=             11.7741  XYZ=             -1.3466
 Hexadecapole moment (field-independent basis, Debye-Ang**3):
 XXXX=          -3047.8743 YYYY=          -2914.0781 ZZZZ=           -663.9702 XXXY=             62.8577
 XXXZ=            -14.6423 YYYX=            -66.5938 YYYZ=             73.1592 ZZZX=              6.5465
 ZZZY=             -2.3245 XXYY=          -1020.8747 XXZZ=           -628.2189 YYZZ=           -636.4378
 XXYZ=             -7.2091 YYXZ=             11.6613 ZZXY=            -33.5953
 N-N= 1.290763772604D+03 E-N=-4.277603444205D+03  KE= 7.286005468714D+02
 PrsmSu:  requested number of processors reduced to:  10 ShMem   1 Linda.
 Calling FoFJK, ICntrl=      2127 FMM=F ISym2X=0 I1Cent= 0 IOpClX= 0 NMat=1 NMatS=1 NMatT=0.
 ***** Axes restored to original set *****
 -------------------------------------------------------------------
 Center     Atomic                   Forces (Hartrees/Bohr)
 Number     Number              X              Y              Z
 -------------------------------------------------------------------
      1        6          -0.003346046    0.022493690   -0.004453814
      2        1           0.004399178   -0.022652861    0.010349161
      3        6           0.001179284   -0.006767683   -0.013339617
      4        6           0.011022879    0.001403455    0.004788052
      5        6          -0.008243185    0.002522203    0.001558575
      6        6           0.008254526   -0.005684756   -0.007899309
      7        1          -0.018899781   -0.001457706   -0.011159944
      8        6          -0.011961783    0.000451777   -0.004150783
      9        1           0.014510318   -0.007619739   -0.009207993
     10        6           0.000733743   -0.006666597   -0.011995071
     11        1          -0.013535988    0.006288975    0.007394907
     12        1           0.014927886    0.001229881    0.007209175
     13        1           0.001485544    0.007448375    0.014782566
     14        6           0.009898174    0.009383602    0.002916049
     15        6          -0.002466021    0.004802182   -0.002427280
     16        6          -0.005022910   -0.011187297    0.001523453
     17        6           0.008704206    0.010181501    0.002517536
     18        1           0.006158356   -0.015822479    0.005501967
     19        6           0.002374191   -0.011857222    0.003157758
     20        1           0.021530527    0.020177650    0.002488795
     21        6           0.012282798    0.001900713    0.005538160
     22        1          -0.008613381   -0.014242384   -0.001678615
     23        1          -0.006150053    0.014570108   -0.005501642
     24        1          -0.015118566    0.000393106   -0.007316237
     25        6          -0.011395110    0.005866040    0.006507306
     26        6           0.006228948   -0.008887309   -0.003087767
     27        6           0.001099536    0.005718095   -0.001758556
     28        6           0.001405826   -0.012130686    0.002330897
     29        1          -0.023876686    0.012404112    0.006975964
     30        6          -0.009920842    0.007237202    0.006459045
     31        1          -0.000780077   -0.017244043    0.004509541
     32        6          -0.010549762   -0.001507599    0.008778197
     33        1           0.001103230    0.016102135   -0.004748135
     34        1           0.010574840   -0.011580571   -0.005848341
     35        1           0.012006202    0.004734130   -0.010714001
 -------------------------------------------------------------------
 Cartesian Forces:  Max     0.023876686 RMS     0.009559728

 GradGradGradGradGradGradGradGradGradGradGradGradGradGradGradGradGradGrad
 Berny optimization.
 Internal  Forces:  Max     0.028702576 RMS     0.007801299
 Search for a local minimum.
 Step number   1 out of a maximum of  197
 All quantities printed in internal units (Hartrees-Bohrs-Radians)
 Mixed Optimization -- RFO/linear search
 Second derivative matrix not updated -- first step.
     Eigenvalues ---    0.00635   0.00650   0.00659   0.01533   0.01539
     Eigenvalues ---    0.01540   0.02138   0.02142   0.02145   0.02169
     Eigenvalues ---    0.02173   0.02174   0.02180   0.02183   0.02185
     Eigenvalues ---    0.02199   0.02202   0.02202   0.02210   0.02211
     Eigenvalues ---    0.02211   0.02214   0.02214   0.02214   0.02215
     Eigenvalues ---    0.02218   0.02218   0.02219   0.02221   0.02226
     Eigenvalues ---    0.04563   0.06400   0.06626   0.15997   0.15998
     Eigenvalues ---    0.16000   0.16000   0.16000   0.16000   0.16000
     Eigenvalues ---    0.16000   0.16000   0.16000   0.16000   0.16000
     Eigenvalues ---    0.16000   0.16000   0.16000   0.18855   0.19337
     Eigenvalues ---    0.22000   0.22000   0.22000   0.22000   0.22000
     Eigenvalues ---    0.22000   0.23465   0.23477   0.23478   0.24967
     Eigenvalues ---    0.24999   0.25000   0.31258   0.31362   0.31478
     Eigenvalues ---    0.31543   0.33508   0.33625   0.33967   0.34043
     Eigenvalues ---    0.34054   0.34071   0.34238   0.34249   0.34250
     Eigenvalues ---    0.34258   0.34260   0.34266   0.34282   0.34285
     Eigenvalues ---    0.34292   0.42407   0.42460   0.42470   0.42540
     Eigenvalues ---    0.42588   0.42607   0.46338   0.46382   0.46430
     Eigenvalues ---    0.46727   0.46736   0.46791   0.47195   0.47201
     Eigenvalues ---    0.47222   0.47312   0.47373   0.474451000.00000
     Eigenvalues --- 1000.000001000.000001000.000001000.000001000.00000
     Eigenvalues --- 1000.000001000.000001000.000001000.000001000.00000
     Eigenvalues --- 1000.000001000.000001000.000001000.000001000.00000
     Eigenvalues --- 1000.000001000.000001000.000001000.000001000.00000
     Eigenvalues --- 1000.000001000.000001000.000001000.000001000.00000
     Eigenvalues --- 1000.000001000.000001000.000001000.000001000.00000
     Eigenvalues --- 1000.000001000.000001000.000001000.000001000.00000
     Eigenvalues --- 1000.000001000.000001000.000001000.000001000.00000
     Eigenvalues --- 1000.000001000.000001000.000001000.000001000.00000
     Eigenvalues --- 1000.000001000.000001000.000001000.000001000.00000
     Eigenvalues --- 1000.000001000.000001000.000001000.000001000.00000
     Eigenvalues --- 1000.000001000.000001000.000001000.000001000.00000
     Eigenvalues --- 1000.000001000.000001000.000001000.000001000.00000
     Eigenvalues --- 1000.000001000.000001000.000001000.000001000.00000
     Eigenvalues --- 1000.000001000.000001000.000001000.000001000.00000
     Eigenvalues --- 1000.000001000.000001000.000001000.000001000.00000
     Eigenvalues --- 1000.000001000.000001000.000001000.000001000.00000
     Eigenvalues --- 1000.000001000.00000
 RFO step:  Lambda=-4.19715471D-02 EMin= 6.35236516D-03
 Linear search not attempted -- first point.
 Maximum step size (   0.300) exceeded in Quadratic search.
    -- Step size scaled by   0.592
 Iteration  1 RMS(Cart)=  0.12569923 RMS(Int)=  0.00303584
 Iteration  2 RMS(Cart)=  0.00614430 RMS(Int)=  0.00028264
 Iteration  3 RMS(Cart)=  0.00001069 RMS(Int)=  0.00028258
 Iteration  4 RMS(Cart)=  0.00000000 RMS(Int)=  0.00028258
 Variable       Old X    -DE/DX   Delta X   Delta X   Delta X     New X
                                 (Linear)    (Quad)   (Total)
    R1        2.12223  -0.02487   0.00000  -0.04153  -0.04153   2.08070
    R2        2.85109   0.02350   0.00000   0.03900   0.03900   2.89009
    R3        2.84988   0.02377   0.00000   0.03938   0.03938   2.88926
    R4        2.85326   0.02294   0.00000   0.03819   0.03819   2.89145
    R5        2.63536  -0.00236   0.00000  -0.00262  -0.00261   2.63275
    R6        2.64367  -0.00192   0.00000  -0.00222  -0.00221   2.64146
    R7        2.62908  -0.00135   0.00000  -0.00148  -0.00148   2.62760
    R8        2.07385  -0.02192   0.00000  -0.03400  -0.03400   2.03985
    R9        2.62389  -0.00477   0.00000  -0.00553  -0.00553   2.61836
   R10        2.07238  -0.01877   0.00000  -0.02904  -0.02904   2.04334
   R11        2.62523  -0.00731   0.00000  -0.00843  -0.00844   2.61679
   R12        2.06894  -0.01666   0.00000  -0.02564  -0.02564   2.04330
   R13        2.62983  -0.00508   0.00000  -0.00600  -0.00601   2.62382
   R14        2.06884  -0.01662   0.00000  -0.02558  -0.02558   2.04325
   R15        2.06841  -0.01662   0.00000  -0.02556  -0.02556   2.04285
   R16        2.63947  -0.00436   0.00000  -0.00506  -0.00504   2.63442
   R17        2.63954   0.00080   0.00000   0.00109   0.00110   2.64064
   R18        2.62837  -0.00266   0.00000  -0.00315  -0.00315   2.62522
   R19        2.07211  -0.01784   0.00000  -0.02759  -0.02759   2.04451
   R20        2.62594  -0.00466   0.00000  -0.00527  -0.00527   2.62067
   R21        2.08169  -0.02870   0.00000  -0.04506  -0.04506   2.03662
   R22        2.62716  -0.00913   0.00000  -0.01065  -0.01066   2.61649
   R23        2.06912  -0.01673   0.00000  -0.02576  -0.02576   2.04336
   R24        2.62883  -0.00568   0.00000  -0.00661  -0.00663   2.62220
   R25        2.06897  -0.01674   0.00000  -0.02578  -0.02578   2.04319
   R26        2.06857  -0.01680   0.00000  -0.02585  -0.02585   2.04272
   R27        2.63902  -0.00027   0.00000  -0.00021  -0.00019   2.63883
   R28        2.63893  -0.00431   0.00000  -0.00500  -0.00499   2.63394
   R29        2.62519  -0.00445   0.00000  -0.00505  -0.00504   2.62015
   R30        2.07968  -0.02646   0.00000  -0.04142  -0.04142   2.03826
   R31        2.62747  -0.00206   0.00000  -0.00242  -0.00242   2.62505
   R32        2.07258  -0.01783   0.00000  -0.02760  -0.02760   2.04498
   R33        2.62863  -0.00529   0.00000  -0.00615  -0.00616   2.62247
   R34        2.06911  -0.01682   0.00000  -0.02590  -0.02590   2.04321
   R35        2.62788  -0.00903   0.00000  -0.01050  -0.01052   2.61736
   R36        2.06930  -0.01673   0.00000  -0.02577  -0.02577   2.04352
   R37        2.06851  -0.01677   0.00000  -0.02580  -0.02580   2.04271
    A1        1.82841   0.00382   0.00000   0.00015   0.00041   1.82882
    A2        1.87645  -0.01001   0.00000  -0.05150  -0.05059   1.82586
    A3        1.88389  -0.00871   0.00000  -0.04855  -0.04774   1.83615
    A4        1.99366   0.00084   0.00000   0.02166   0.01975   2.01340
    A5        1.94659  -0.00323   0.00000   0.01213   0.00995   1.95655
    A6        1.92770   0.01539   0.00000   0.05452   0.05336   1.98106
    A7        2.13559   0.00729   0.00000   0.01468   0.01467   2.15026
    A8        2.06981   0.00066   0.00000   0.00124   0.00122   2.07103
    A9        2.07669  -0.00797   0.00000  -0.01619  -0.01617   2.06052
   A10        2.10154   0.00350   0.00000   0.00802   0.00803   2.10957
   A11        2.09235  -0.00009   0.00000   0.00087   0.00086   2.09321
   A12        2.08930  -0.00341   0.00000  -0.00889  -0.00889   2.08041
   A13        2.10332   0.00474   0.00000   0.01037   0.01038   2.11369
   A14        2.08441  -0.00124   0.00000  -0.00189  -0.00189   2.08253
   A15        2.09544  -0.00350   0.00000  -0.00849  -0.00849   2.08695
   A16        2.09908   0.00115   0.00000   0.00236   0.00235   2.10142
   A17        2.08893  -0.00051   0.00000  -0.00098  -0.00098   2.08795
   A18        2.09518  -0.00065   0.00000  -0.00138  -0.00137   2.09381
   A19        2.09670   0.00081   0.00000   0.00113   0.00113   2.09783
   A20        2.09179  -0.00040   0.00000  -0.00055  -0.00054   2.09124
   A21        2.09469  -0.00041   0.00000  -0.00059  -0.00058   2.09411
   A22        2.08903  -0.00224   0.00000  -0.00571  -0.00573   2.08330
   A23        2.09777   0.00109   0.00000   0.00277   0.00278   2.10055
   A24        2.09638   0.00115   0.00000   0.00294   0.00295   2.09934
   A25        2.07995  -0.01103   0.00000  -0.02232  -0.02235   2.05760
   A26        2.12421   0.02283   0.00000   0.04633   0.04631   2.17052
   A27        2.07900  -0.01180   0.00000  -0.02397  -0.02394   2.05507
   A28        2.10013   0.00812   0.00000   0.01783   0.01786   2.11799
   A29        2.09460  -0.00469   0.00000  -0.01076  -0.01077   2.08383
   A30        2.08845  -0.00343   0.00000  -0.00707  -0.00709   2.08136
   A31        2.10236   0.00450   0.00000   0.01019   0.01017   2.11253
   A32        2.07779   0.00439   0.00000   0.01445   0.01441   2.09220
   A33        2.10294  -0.00888   0.00000  -0.02444  -0.02448   2.07846
   A34        2.09791  -0.00023   0.00000  -0.00142  -0.00143   2.09647
   A35        2.09086   0.00030   0.00000   0.00126   0.00126   2.09212
   A36        2.09442  -0.00007   0.00000   0.00017   0.00017   2.09459
   A37        2.09636   0.00236   0.00000   0.00490   0.00488   2.10124
   A38        2.09129  -0.00107   0.00000  -0.00214  -0.00214   2.08916
   A39        2.09553  -0.00128   0.00000  -0.00275  -0.00275   2.09279
   A40        2.09061  -0.00294   0.00000  -0.00752  -0.00756   2.08306
   A41        2.09648   0.00144   0.00000   0.00366   0.00368   2.10015
   A42        2.09609   0.00151   0.00000   0.00386   0.00388   2.09997
   A43        2.11745   0.01872   0.00000   0.03799   0.03793   2.15537
   A44        2.08451  -0.00789   0.00000  -0.01594  -0.01600   2.06851
   A45        2.08123  -0.01083   0.00000  -0.02207  -0.02207   2.05916
   A46        2.10151   0.00417   0.00000   0.00938   0.00933   2.11084
   A47        2.07800   0.00371   0.00000   0.01245   0.01234   2.09035
   A48        2.10350  -0.00784   0.00000  -0.02141  -0.02151   2.08199
   A49        2.09857   0.00750   0.00000   0.01654   0.01655   2.11512
   A50        2.09531  -0.00444   0.00000  -0.01028  -0.01029   2.08502
   A51        2.08930  -0.00307   0.00000  -0.00627  -0.00628   2.08302
   A52        2.09570   0.00236   0.00000   0.00490   0.00489   2.10060
   A53        2.09202  -0.00109   0.00000  -0.00218  -0.00219   2.08984
   A54        2.09546  -0.00127   0.00000  -0.00271  -0.00271   2.09274
   A55        2.09783  -0.00030   0.00000  -0.00141  -0.00143   2.09640
   A56        2.09072   0.00044   0.00000   0.00154   0.00155   2.09226
   A57        2.09464  -0.00013   0.00000  -0.00012  -0.00011   2.09453
[...]
 00000858,0.00008670,0.00001359,0.00016898,0.00005752,-0.00008943,-0.00
 004185,0.00000188,0.00000074,-0.00002216,-0.00001865,0.00001159,-0.000
 02142,0.00006205,0.00008107,-0.00001513,0.00001772,-0.00005829,0.00002
 937,-0.00002984,0.00002122,0.00000192,-0.00000609,-0.00000522,-0.00000
 873,-0.00000306,0.00000126,-0.00000023,0.00000245,-0.00000516,0.000051
 74,0.00064620,0.00020629,0.00035168,0.00035362,0.00018975,-0.00025199,
 0.00016364,0.00027508,-0.00017705,0.00009523,-0.00023284,0.00000830,-0
 .00002763,-0.00000015,0.00031219,0.00019176,0.00007482,0.00004218,-0.0
 0022417,-0.00032304,-0.00005623,-0.00024134,0.00016350,0.00000012,-0.0
 0003404,-0.00001137,0.00000370,0.00001074,-0.00000429,-0.00001477,-0.0
 0001071,-0.00001486,0.02914217,-0.03112988,-0.03944824,0.01893628,0.02
 783620,-0.01685675,0.14100042,0.06661459,-0.22084982,-0.02751596,-0.02
 611099,0.03070979,-0.00053463,0.00098280,-0.00005343,-0.28161682,0.140
 44480,0.58007296,-0.00209911,0.00104678,-0.00151971,0.00023558,0.00071
 624,0.00015818,0.00023582,0.00011761,-0.00012419,0.00000479,0.00001057
 ,-0.00005854,0.00009183,-0.00014527,-0.00006478,-0.00003904,-0.0000111
 6,-0.00000794,-0.00000373,0.00002330,-0.00000089,-0.00003486,0.0000151
 6,0.00001449,-0.00001299,0.00003088,-0.00001270,0.00001271,-0.00001361
 ,-0.00002672,-0.00000148,-0.00000889,-0.00000509,-0.00000664,-0.000003
 50,-0.00002056,-0.00000160,0.00000190,-0.00000559,-0.00021594,-0.00004
 816,0.00018959,-0.00016853,-0.00016561,-0.00007284,0.00004254,-0.00001
 866,-0.00007795,-0.00002723,-0.00006130,0.00005744,-0.00000425,0.00001
 412,0.00001073,-0.00007342,0.00000030,-0.00008113,0.00006759,0.0000575
 4,0.00004109,0.00001704,0.00004794,-0.00000370,0.00000742,0.00001550,-
 0.00000358,0.00000071,-0.00000593,0.00001227,0.00001726,0.00000317,0.0
 0000632,0.00891478,0.01331126,0.00201501,0.00354253,0.00020396,0.00555
 716,-0.08817947,-0.09270807,0.00457455,-0.00087760,0.00054643,0.000149
 21,0.00016786,0.00069643,0.00000811,-0.00172248,-0.02485763,-0.0030408
 8,0.08125720,0.00040263,0.00010527,0.00202057,0.00029344,0.00078095,-0
 .00069615,-0.00028517,0.00033543,-0.00013073,0.00004443,0.00012675,0.0
 0015033,0.00005943,0.00002741,-0.00000130,-0.00004333,0.00005073,0.000
 02585,-0.00001064,-0.00003483,0.00000448,0.00002412,-0.00000422,0.0000
 2019,-0.00002472,-0.00003024,-0.00001046,-0.00000114,0.00000296,0.0000
 0167,-0.00000522,-0.00000002,0.00001644,-0.00000344,-0.00000363,0.0000
 0929,-0.00000369,-0.00000230,0.00000440,0.00021397,0.00038460,-0.00026
 558,0.00027774,0.00016114,0.00008463,-0.00011789,-0.00010430,0.0002399
 9,-0.00001387,0.00010636,-0.00007707,0.00000975,-0.00002787,-0.0000287
 5,0.00014512,0.00007483,0.00007910,-0.00006050,-0.00007874,-0.00011407
 ,-0.00001439,-0.00006793,0.00003838,0.00000291,-0.00001365,0.00000287,
 -0.00000432,-0.00000599,-0.00002281,-0.00000792,-0.00000474,-0.0000118
 8,-0.01016088,-0.01574541,0.00237637,0.00067151,0.00005375,-0.00454937
 ,-0.09177427,-0.33598563,-0.02321586,0.00065238,0.00082487,0.00006229,
 -0.00043062,-0.00094573,0.00007666,-0.00071552,-0.00639811,-0.00494239
 ,0.10284210,0.35451390,-0.00265315,-0.00086533,-0.00016019,0.00011107,
 0.00100091,-0.00063541,-0.00007931,0.00026252,-0.00014905,0.00004577,0
 .00010144,0.00009734,0.00008285,-0.00006775,0.00001336,-0.00004524,0.0
 0001059,0.00002339,-0.00001516,0.00000511,-0.00000679,-0.00002490,0.00
 002411,-0.00000120,-0.00004307,-0.00000209,-0.00002875,0.00000521,0.00
 000784,0.00001852,-0.00001167,0.00000764,0.00001625,0.00000351,-0.0000
 0331,0.00000429,-0.00000387,0.00000662,0.00000862,0.00009435,-0.000058
 90,0.00034912,-0.00010402,-0.00009864,-0.00008077,-0.00003288,-0.00014
 897,-0.00002296,0.00006005,0.00000579,0.00005293,0.00003148,0.00003156
 ,-0.00003985,-0.00006617,-0.00002908,-0.00008219,0.00001295,0.00010866
 ,0.00000773,-0.00002898,0.00003788,-0.00007290,-0.00001693,-0.00000032
 ,0.00000243,-0.00002589,0.00001857,-0.00001040,-0.00001311,0.00001208,
 -0.00000003,-0.00777579,-0.02545782,0.00310265,0.00561029,-0.00432329,
 -0.00062942,0.00430130,-0.02286987,-0.06501865,0.00016477,0.00014425,-
 0.00110237,-0.00050379,-0.00116830,0.00002782,0.00866997,0.02478954,0.
 00693076,-0.01143301,0.02678799,0.05856909,-0.00048164,-0.00005516,-0.
 00093600,-0.00004926,0.00008046,0.00008414,-0.00008268,-0.00012036,-0.
 00008574,0.00006076,-0.00010546,0.00002009,-0.00008429,0.00005046,0.00
 006485,0.00003611,-0.00001013,0.00003163,-0.00000438,-0.00000684,-0.00
 000433,0.00000626,-0.00001053,-0.00006765,-0.00002958,-0.00000252,-0.0
 0004701,-0.00002897,0.00007200,0.00003654,-0.00001063,0.00001081,0.000
 01706,0.00000531,-0.00001092,0.00004100,-0.00000509,0.00000387,0.00001
 673,0.00009952,-0.00005545,0.00060834,-0.00022649,0.00005281,-0.000127
 18,-0.00003960,-0.00015788,-0.00001857,0.00002438,-0.00005900,0.000014
 04,0.00002047,0.00001479,0.00001253,-0.00002909,0.00003469,-0.00003700
 ,0.00000595,0.00000271,0.00002851,-0.00003558,0.00001448,-0.00002664,-
 0.00002960,-0.00000775,-0.00000939,-0.00002845,0.00000725,-0.00001305,
 -0.00000536,0.00000433,-0.00000776,-0.00373039,0.00457805,-0.00171413,
 -0.01004696,0.01124623,0.02946244,-0.00522528,-0.03144595,0.00369303,-
 0.14780387,0.05549148,0.10284519,0.00212103,-0.00394896,0.00625044,-0.
 13985304,-0.10350354,0.01988174,0.00206875,-0.00306272,0.00712085,0.48
 074605,-0.00179010,-0.00182186,-0.00024189,-0.00064167,0.00101591,0.00
 001191,0.00030594,-0.00048308,0.00036082,-0.00000799,0.00032801,0.0003
 8825,0.00013944,0.00010046,-0.00043814,-0.00018090,-0.00006982,-0.0003
 3765,-0.00002390,0.00000091,0.00001554,-0.00006151,0.00033981,0.000324
 98,-0.00003054,-0.00010579,-0.00000052,0.00029577,-0.00022058,0.000102
 80,-0.00000577,-0.00000893,0.00000817,-0.00000965,0.00000729,0.0000084
 7,0.00000152,-0.00000801,-0.00000480,-0.00041814,0.00052967,0.00137639
 ,0.00020256,0.00044363,0.00016193,-0.00040228,-0.00001870,0.00022694,-
 0.00022698,0.00007769,-0.00035252,0.00000956,0.00001267,0.00001053,0.0
 0046920,0.00028470,-0.00003177,-0.00003840,0.00004425,-0.00030426,-0.0
 0014565,-0.00033213,0.00021544,-0.00000601,-0.00004133,-0.00004156,-0.
 00004223,0.00004126,0.00000420,0.00000054,0.00000546,-0.00001078,0.006
 35205,-0.09012324,-0.04448540,0.05382185,0.08616229,-0.03040832,-0.073
 53507,-0.00321088,0.08515619,0.00020603,-0.23008177,-0.06907569,-0.004
 27807,0.00064381,0.00100710,-0.04833856,-0.33460230,-0.05700974,-0.002
 51639,0.00193069,-0.00026519,0.14091695,0.70320220,-0.00117940,-0.0004
 8732,0.00010056,-0.00004078,0.00046180,-0.00030615,0.00033711,-0.00003
 617,0.00025097,-0.00005187,0.00021182,0.00008961,0.00007257,-0.0000259
 3,-0.00028026,-0.00010935,-0.00001493,-0.00016660,-0.00002481,0.000014
 59,0.00001078,-0.00005183,0.00015354,0.00019554,0.00000454,-0.00003342
 ,0.00001159,0.00015862,-0.00016928,-0.00000158,0.00000986,-0.00001875,
 -0.00001607,-0.00000867,0.00001233,-0.00002405,0.00000250,-0.00000387,
 -0.00001920,-0.00042061,0.00015069,0.00023684,0.00023791,0.00006226,0.
 00018989,0.00005901,0.00014155,0.00007863,-0.00008750,0.00006477,-0.00
 013287,-0.00001760,-0.00000625,0.00000107,0.00019617,0.00013273,-0.000
 04489,0.00006491,0.00017500,-0.00030520,0.00002014,-0.00011811,0.00011
 643,0.00002790,-0.00001099,-0.00000854,0.00005030,-0.00000800,0.000028
 20,0.00001589,0.00000829,0.00000340,-0.00176414,-0.04365254,-0.0254437
 8,0.04908816,0.02219854,-0.03995118,-0.01546774,0.03187334,0.04469200,
 0.07699991,-0.13494099,-0.23948104,0.00634400,0.00071741,0.00145862,0.
 04504452,0.00911597,-0.13363784,0.00722317,0.00028648,0.00037299,-0.30
 340812,0.07424309,0.57487142,-0.00012807,-0.00088830,-0.00028636,-0.00
 025798,-0.00012962,0.00019804,0.00003736,-0.00005443,-0.00025442,0.000
 02115,0.00006695,0.00007792,0.00003545,0.00001225,-0.00000005,-0.00001
 050,0.00001030,-0.00002823,-0.00001725,-0.00001638,-0.00000512,-0.0000
 1526,0.00001735,0.00001538,-0.00001521,0.00001628,-0.00000888,0.000025
 58,0.00000524,0.00003113,-0.00001714,0.00000635,0.00001796,0.00000180,
 0.00000226,0.00000213,-0.00000156,0.00000027,0.00000901,0.00012144,-0.
 00009254,0.00016130,-0.00010237,0.00000974,-0.00006482,-0.00010629,-0.
 00001575,0.00002615,-0.00000188,-0.00000519,0.00000471,0.00001162,0.00
 001491,-0.00001453,0.00000572,0.00000331,0.00000784,0.00003972,-0.0000
 4019,0.00000571,-0.00002113,0.00000076,-0.00001192,-0.00001196,-0.0000
 0151,-0.00000235,-0.00002349,0.00000273,-0.00001805,-0.00000555,-0.000
 00201,-0.00000517,0.00195200,-0.00236660,0.00694418,-0.00167127,-0.024
 86899,-0.00297784,-0.00086512,0.00061231,0.00017839,-0.08858353,-0.093
 42909,0.00440171,-0.00219274,0.00174685,-0.00256959,0.00411848,0.00009
 926,0.00586736,-0.00065907,0.00020742,-0.00062404,0.00939740,0.0144290
 9,0.00221114,0.08099922,0.00025626,-0.00040450,-0.00041807,-0.00012399
 ,-0.00009332,0.00009093,-0.00007570,-0.00007096,-0.00013126,0.00003267
 ,-0.00001377,0.00004030,-0.00000246,0.00002686,0.00006241,0.00002129,0
 .00000968,0.00001022,0.00000450,-0.00001374,-0.00000855,0.00000495,0.0
 0000443,-0.00003510,-0.00001987,-0.00000439,-0.00002222,-0.00000641,0.
 00004722,0.00003250,-0.00001369,0.00000827,0.00001549,0.00000669,-0.00
 001170,0.00002720,-0.00000635,0.00000214,0.00002000,0.00002741,-0.0000
 3178,0.00019376,-0.00008027,0.00003271,-0.00004208,-0.00006106,0.00002
 248,-0.00002669,-0.00001274,-0.00000846,-0.00001142,0.00001321,0.00000
 606,-0.00000227,0.00001405,-0.00001344,0.00002732,0.00003106,-0.000045
 72,0.00001735,-0.00002339,-0.00001178,0.00000062,-0.00001589,-0.000010
 79,-0.00000177,-0.00001188,0.00000406,-0.00001662,-0.00001464,-0.00000
 418,-0.00000498,-0.00290169,0.00187627,0.00033225,-0.00057006,-0.00622
 283,-0.00481625,0.00057530,0.00090143,0.00016669,-0.09332870,-0.339649
 75,-0.02365967,0.00098970,0.00072732,0.00149953,0.00044962,0.00018314,
 -0.00464426,0.00021812,-0.00022325,0.00023356,-0.00993943,-0.01389681,
 0.00281729,0.10316987,0.35710948,-0.00007705,0.00094450,0.00038364,0.0
 0012676,0.00015778,-0.00013359,-0.00002704,0.00001392,0.00013279,-0.00
 001398,-0.00001396,0.00002504,-0.00000323,-0.00002412,-0.00004979,-0.0
 0001622,-0.00002379,-0.00002684,0.00000517,0.00001298,0.00000343,-0.00
 002101,0.00000284,0.00001980,0.00001194,0.00001559,0.00000391,0.000005
 16,-0.00004365,-0.00003183,0.00000907,0.00000238,-0.00000967,-0.000000
 18,0.00000902,-0.00001831,0.00000673,0.00000389,-0.00000951,0.00002481
 ,0.00002876,-0.00013142,0.00005156,-0.00000641,0.00000178,-0.00000460,
 -0.00003124,0.00002934,0.00001022,0.00001148,0.00001143,-0.00000420,-0
 .00000725,-0.00000293,0.00000095,0.00000011,0.00000652,0.00001079,-0.0
 0000224,0.00000713,0.00000880,0.00000691,-0.00000271,0.00000647,0.0000
 0614,0.00000189,-0.00000348,-0.00000156,0.00000090,0.00000434,-0.00000
 105,0.,0.00712594,0.00006590,0.00016247,0.00828328,0.02433551,0.006894
 39,0.00023947,0.00005355,-0.00126314,0.00447249,-0.02387703,-0.0654942
 7,-0.00307215,0.00065916,-0.00097177,0.00596696,-0.00425850,-0.0002242
 8,-0.00061270,0.00023986,-0.00040428,-0.00921502,-0.02637194,0.0043322
 7,-0.01025573,0.02760769,0.05793250,-0.00013069,0.00086737,0.00055701,
 0.00006456,0.00001614,-0.00003735,-0.00037487,-0.00015920,0.00006722,0
 .00002879,0.00000153,0.00004539,0.00001515,0.00000238,0.00007866,0.000
 03589,0.00002222,0.00003027,-0.00001149,-0.00000822,0.00000024,0.00000
 721,-0.00001323,-0.00005697,-0.00000260,0.00000334,-0.00000986,-0.0000
 4041,0.00004031,0.00001935,-0.00000458,0.00001284,0.00000968,0.0000059
 9,-0.00000240,0.00000703,-0.00000154,0.00000280,0.00000837,0.00005355,
 -0.00002000,0.00017102,-0.00007052,0.00001176,-0.00003168,-0.00004630,
 -0.00000882,-0.00004645,-0.00000079,-0.00001750,-0.00001307,0.00000599
 ,0.00001692,0.00000451,0.00000205,-0.00002702,-0.00000825,0.00001246,0
 .00001144,0.00004856,-0.00003539,-0.00001248,-0.00002264,-0.00001390,-
 0.00000129,0.00000192,-0.00002285,0.00002021,-0.00000398,-0.00001312,0
 .00000349,0.00000367,0.00221833,-0.00426669,0.00614027,-0.00077503,-0.
 00062149,-0.00046400,-0.00256610,0.01727450,0.01773076,0.00424783,-0.0
 0423195,0.00335870,-0.00067273,0.00036788,-0.00052322,-0.09817818,0.06
 012012,0.08695791,-0.00220784,0.00096829,-0.00311306,0.00926354,-0.009
 25964,-0.00883322,0.00014844,-0.00035879,-0.00044225,0.09114331,-0.000
 16361,0.00037827,0.00049387,0.00006370,-0.00001644,-0.00002586,-0.0000
 4337,-0.00008022,0.00004166,-0.00000004,0.00003779,0.00000386,0.000008
 18,0.00001698,-0.00001225,-0.00000238,0.00001376,-0.00001411,-0.000011
 35,-0.00000677,0.00000483,0.00000971,0.00001478,0.00001888,0.00000042,
 -0.00001594,0.00001015,0.00001397,-0.00000637,0.00001035,-0.00000075,-
 0.00000550,0.00000135,-0.00000366,0.00000012,0.00000011,-0.00000149,-0
 .00000505,-0.00000305,0.00005141,0.00001875,-0.00007643,0.00000661,-0.
 00003908,0.00000369,0.00001664,-0.00000999,0.00001628,0.00000977,-0.00
 000294,0.00001422,-0.00000413,-0.00000132,0.00000220,-0.00002166,0.000
 01998,-0.00001177,-0.00002079,-0.00000421,-0.00002267,0.00001508,0.000
 01611,-0.00000345,0.00000437,0.00000464,0.00000143,0.00000979,-0.00001
 171,0.00000234,0.00000889,0.00000107,-0.00000025,-0.00393281,0.0006409
 3,0.00071002,-0.00058048,-0.00038089,0.00097194,-0.00728333,0.01207423
 ,0.01161445,-0.00455657,-0.00486922,-0.00070461,0.00032474,-0.00008117
 ,0.00015465,0.06027991,-0.18164848,-0.13304252,0.00173072,0.00074351,0
 .00063334,0.01511847,-0.01316893,-0.02667464,0.00065478,-0.00091820,-0
 .00119626,-0.06250379,0.18650182,-0.00002552,-0.00091917,-0.00055161,-
 0.00000007,0.00006994,-0.00002133,0.00018595,0.00025965,0.00002028,-0.
 00003437,-0.00002816,-0.00010386,0.00004060,-0.00006422,-0.00003333,-0
 .00000957,-0.00000060,0.00003280,-0.00000396,0.00000437,0.00000469,0.0
 0001158,-0.00002696,-0.00000171,0.00000823,0.00000683,0.00001473,-0.00
 002039,0.00000294,-0.00003271,0.00000729,-0.00001116,-0.00001078,-0.00
 001219,-0.00000402,-0.00002124,0.00000018,-0.00000446,-0.00001309,-0.0
 0013727,0.00001662,-0.00012165,0.00007400,0.00001833,0.00006569,0.0000
 2819,-0.00001994,0.00004319,0.00000830,0.00001892,0.00000002,-0.000008
 78,-0.00000868,-0.00001064,0.00000190,0.00000750,-0.00001347,-0.000022
 42,0.00002867,-0.00002288,0.00001686,0.00000933,0.00000783,0.00002027,
 0.00000579,-0.00000588,0.00000789,-0.00000795,0.00000636,0.00001452,0.
 00000163,0.00000283,0.00656055,0.00105447,0.00173429,-0.00034473,0.001
 01243,-0.00004547,0.00651972,-0.01769379,-0.01029577,0.00316686,-0.001
 12595,0.00434303,-0.00057157,0.00014220,-0.00050863,0.08697154,-0.1328
 5179,-0.21416623,-0.00271752,0.00162410,-0.00117874,0.00231564,0.00246
 071,0.00381867,0.00001133,0.00005651,-0.00007608,-0.09916238,0.1454812
 3,0.21824619,-0.00063491,0.00020100,-0.00045653,0.00000461,0.00012403,
 0.00000451,-0.00005364,-0.00002442,-0.00000738,0.00001906,-0.00003826,
 0.00003211,-0.00003636,-0.00002043,0.00002178,0.00000830,-0.00001543,-
 0.00001613,0.00000823,0.00000704,-0.00000758,-0.00002064,0.00000143,-0
 .00001725,-0.00000176,0.00001615,-0.00001085,0.00000504,0.00000907,0.0
 0001086,-0.00000821,0.00000845,0.00000681,0.00000830,0.00000088,0.0000
 0421,0.00000073,0.00000561,0.00000994,-0.00002071,-0.00008560,0.000153
 14,-0.00006278,0.00001723,-0.00004712,-0.00004448,-0.00000019,-0.00002
 869,-0.00001027,-0.00000748,-0.00000884,0.00000703,0.00000760,-0.00000
 267,0.00002280,-0.00002326,0.00002333,0.00003835,-0.00001825,0.0000450
 9,-0.00002054,-0.00001108,-0.00000266,-0.00001201,-0.00000476,-0.00000
 021,-0.00001888,0.00001180,-0.00001046,-0.00001311,-0.00000227,-0.0000
 0124,0.00003732,0.00053779,-0.00091915,0.00496814,0.00020554,0.0049405
 9,0.00503524,-0.00342585,0.00279928,-0.00300160,-0.00787161,0.00620230
 ,-0.00039755,-0.00026946,0.00025155,-0.00202284,-0.00007727,0.00844802
 ,-0.00034914,-0.00007497,0.00029959,-0.19602529,-0.07519105,0.14329731
 ,-0.00220803,0.00175235,-0.00260204,-0.00208415,0.00080307,-0.00290067
 ,0.19688376,0.00024103,-0.00000620,0.00023301,0.00000647,0.00001435,-0
 .00007124,-0.00004308,-0.00000693,-0.00004487,0.00000873,0.00004219,0.
 00002360,0.00002996,0.00001524,0.00002825,0.00000177,0.00001358,0.0000
 1718,-0.00000415,-0.00000905,-0.00000008,0.00000172,-0.00000065,-0.000
 00636,-0.00001026,-0.00000216,-0.00001032,-0.00000959,0.00000527,0.000
 00719,-0.00000079,0.00000256,0.00000288,0.00000169,-0.00000036,0.00000
 560,-0.00000079,0.00000169,0.00000236,0.00004467,0.00005023,0.00001869
 ,0.00000763,0.00001818,0.00000329,-0.00002022,0.00001007,0.00001248,-0
 .00000143,0.00000956,-0.00000751,0.00000587,-0.00000125,-0.00000539,0.
 00001213,-0.00000010,0.00000727,0.00000256,-0.00001700,-0.00001269,-0.
 00000454,-0.00000963,0.00000127,-0.00000379,-0.00000462,0.00000103,-0.
 00000213,0.00000384,-0.00000318,-0.00000620,-0.00000081,-0.00000202,0.
 00046348,-0.00109033,-0.00058589,-0.00018133,-0.00158636,-0.00475823,-
 0.00303621,-0.00522552,-0.00270475,0.01660128,0.01268018,-0.01650039,0
 .00072121,0.00036733,-0.00065712,-0.02456651,-0.00490550,0.02486052,-0
 .00108584,-0.00054655,0.00112886,-0.07519724,-0.10697656,0.06335971,0.
 00082233,0.00068782,0.00168102,0.00174898,0.00078969,0.00048469,0.0834
 5260,0.10567780,-0.00061878,0.00015640,-0.00031880,0.00004343,0.000151
 06,-0.00001299,0.00003807,0.00004952,0.00005131,-0.00000656,0.00001962
 ,-0.00006329,0.00002735,-0.00002704,0.00000028,-0.00000010,0.00002498,
 0.00002276,-0.00002260,-0.00000355,0.00000641,0.00001183,-0.00001343,0
 .00000896,0.00000481,0.00000115,0.00001640,-0.00001189,-0.00000128,-0.
 00000683,0.00000398,-0.00001024,-0.00000408,-0.00000797,0.00000442,-0.
 00001717,0.00000065,-0.00000504,-0.00001362,-0.00008445,-0.00005483,0.
 00001858,-0.00000136,-0.00001102,0.00000366,0.00001120,-0.00003371,0.0
 0003081,0.00000522,-0.00000566,0.00000725,-0.00000533,0.00000001,-0.00
 000106,-0.00000597,0.00001610,-0.00002087,-0.00001347,0.00001695,-0.00
 002227,0.00000875,0.00000728,-0.00000214,0.00000742,0.00000637,-0.0000
 0305,0.00000025,-0.00000287,0.00000610,0.00001058,0.00000318,0.0000027
 2,-0.00080024,-0.00058597,-0.00028781,0.00470817,-0.00530192,0.0008630
 0,0.00297420,-0.00218666,0.00411129,0.01770766,0.01272652,-0.01014956,
 0.00073587,0.00051635,-0.00072986,-0.00273878,-0.00434560,0.00633662,-
 0.00012730,-0.00008552,0.00002667,0.14317279,0.06329671,-0.19104021,-0
 .00304429,0.00058959,-0.00109881,-0.00247215,0.00159701,-0.00110551,-0
 .15951098,-0.06650885,0.19338508||-0.00001754,-0.00000744,0.00000586,0
 .00000408,-0.00000297,-0.00000124,-0.00003797,0.00003340,-0.00001377,0
 .00002211,-0.00005317,-0.00004994,0.00003130,0.00000401,0.00006525,0.0
 0002629,0.00000489,0.00006658,-0.00000138,0.00000440,-0.00000106,0.000
 02386,-0.00004759,-0.00004570,-0.00000554,0.00000349,-0.00000349,-0.00
 005306,0.00004463,-0.00002043,-0.00000138,-0.00000024,-0.00000600,-0.0
 0000347,0.00000529,0.00000560,0.00000588,-0.00000505,0.00000162,0.0000
 2367,0.00004580,-0.00003479,-0.00004990,-0.00001966,0.00000487,0.00003
 001,-0.00001547,0.00003435,0.00003732,-0.00001681,0.00002638,0.0000034
 9,0.00000267,0.00000004,-0.00004513,-0.00002500,-0.00000438,-0.0000100
 7,-0.00000110,0.00000082,0.00000844,0.00004000,-0.00002879,-0.00000230
 ,0.00000160,-0.00000172,0.00000319,0.00000164,0.00000025,0.00000020,-0
 .00000239,0.00000198,0.00000066,0.00000494,-0.00000362,0.00000338,0.00
 000159,-0.00000199,0.00000022,0.00000249,0.00000558,-0.00000191,-0.000
 00150,0.00000577,0.00000268,-0.00000016,-0.00000022,0.00000295,0.00000
 611,-0.00000372,0.00000150,0.00000005,-0.00000014,-0.00000003,-0.00000
 693,-0.00000394,-0.00000152,-0.00000055,-0.00000048,-0.00000009,-0.000
 00047,0.00000044,0.00000005,-0.00000049,0.00000006|||@


 LAW OF COMPENSATION:
      NO CALCULATION IS EVER A COMPLETE FAILURE; IT 
      CAN ALWAYS SERVE AS A BAD EXAMPLE.

                                           -- ANON
 Job cpu time:  0 days  0 hours  6 minutes 23.0 seconds.
 File lengths (MBytes):  RWF=    350 Int=      0 D2E=      0 Chk=      7 Scr=      1
 Normal termination of Gaussian 09 at Tue Sep 07 05:16:16 2021.
