 Entering Link 1 = b:\programy\g09w\l1.exe PID=      8280.
  
 Copyright (c) 1988,1990,1992,1993,1995,1998,2003,2009, Gaussian, Inc.
                  All Rights Reserved.
  
 This is part of the Gaussian(R) 09 program.  It is based on
 the Gaussian(R) 03 system (copyright 2003, Gaussian, Inc.),
 the Gaussian(R) 98 system (copyright 1998, Gaussian, Inc.),
 the Gaussian(R) 94 system (copyright 1995, Gaussian, Inc.),
 the Gaussian 92(TM) system (copyright 1992, Gaussian, Inc.),
 the Gaussian 90(TM) system (copyright 1990, Gaussian, Inc.),
 the Gaussian 88(TM) system (copyright 1988, Gaussian, Inc.),
 the Gaussian 86(TM) system (copyright 1986, Carnegie Mellon
 University), and the Gaussian 82(TM) system (copyright 1983,
 Carnegie Mellon University). Gaussian is a federally registered
 trademark of Gaussian, Inc.
  
 This software contains proprietary and confidential information,
 including trade secrets, belonging to Gaussian, Inc.
  
 This software is provided under written license and may be
 used, copied, transmitted, or stored only in accord with that
 written license.
  
 The following legend is applicable only to US Government
 contracts under FAR:
  
                    RESTRICTED RIGHTS LEGEND
  
 Use, reproduction and disclosure by the US Government is
 subject to restrictions as set forth in subparagraphs (a)
 and (c) of the Commercial Computer Software - Restricted
 Rights clause in FAR 52.227-19.
  
 Gaussian, Inc.
 340 Quinnipiac St., Bldg. 40, Wallingford CT 06492
  
  
 ---------------------------------------------------------------
 Warning -- This program may not be used in any manner that
 competes with the business of Gaussian, Inc. or will provide
 assistance to any competitor of Gaussian, Inc.  The licensee
 of this program is prohibited from giving any competitor of
 Gaussian, Inc. access to this program.  By using this program,
 the user acknowledges that Gaussian, Inc. is engaged in the
 business of creating and licensing software in the field of
 computational chemistry and represents and warrants to the
 licensee that it is not a competitor of Gaussian, Inc. and that
 it will not use this program in any manner prohibited above.
 ---------------------------------------------------------------
  

 Cite this work as:
 Gaussian 09, Revision A.02,
 M. J. Frisch, G. W. Trucks, H. B. Schlegel, G. E. Scuseria, 
 M. A. Robb, J. R. Cheeseman, G. Scalmani, V. Barone, B. Mennucci, 
 G. A. Petersson, H. Nakatsuji, M. Caricato, X. Li, H. P. Hratchian, 
 A. F. Izmaylov, J. Bloino, G. Zheng, J. L. Sonnenberg, M. Hada, 
 M. Ehara, K. Toyota, R. Fukuda, J. Hasegawa, M. Ishida, T. Nakajima, 
 Y. Honda, O. Kitao, H. Nakai, T. Vreven, J. A. Montgomery, Jr., 
 J. E. Peralta, F. Ogliaro, M. Bearpark, J. J. Heyd, E. Brothers, 
 K. N. Kudin, V. N. Staroverov, R. Kobayashi, J. Normand, 
 K. Raghavachari, A. Rendell, J. C. Burant, S. S. Iyengar, J. Tomasi, 
 M. Cossi, N. Rega, J. M. Millam, M. Klene, J. E. Knox, J. B. Cross, 
 V. Bakken, C. Adamo, J. Jaramillo, R. Gomperts, R. E. Stratmann, 
 O. Yazyev, A. J. Austin, R. Cammi, C. Pomelli, J. W. Ochterski, 
 R. L. Martin, K. Morokuma, V. G. Zakrzewski, G. A. Voth, 
 P. Salvador, J. J. Dannenberg, S. Dapprich, A. D. Daniels, 
 O. Farkas, J. B. Foresman, J. V. Ortiz, J. Cioslowski, 
 and D. J. Fox, Gaussian, Inc., Wallingford CT, 2009.
 
 ******************************************
 Gaussian 09:  IA32W-G09RevA.02 11-Jun-2009
                06-Sep-2021 
 ******************************************
 %nprocshared=12
 Will use up to   12 processors via shared memory.
 ----------------------------------------------
 # opt freq=noraman hf/6-311g geom=connectivity
 ----------------------------------------------
 1/18=20,19=15,38=1,57=2/1,3;
 2/9=110,12=2,17=6,18=5,40=1/2;
 3/5=4,6=6,11=9,16=1,25=1,30=1,71=1/1,2,3;
 4//1;
 5/5=2,38=5/2;
 6/7=2,8=2,9=2,10=2,28=1/1;
 7//1,2,3,16;
 1/18=20,19=15/3(2);
 2/9=110/2;
 99//99;
 2/9=110/2;
 3/5=4,6=6,11=9,16=1,25=1,30=1,71=1/1,2,3;
 4/5=5,16=3/1;
 5/5=2,38=5/2;
 7//1,2,3,16;
 1/18=20,19=15/3(-5);
 2/9=110/2;
 6/7=2,8=2,9=2,10=2,19=2,28=1/1;
 99/9=1/99;
 -----
 M0001
 -----
 Symbolic Z-matrix:
 Charge =  0 Multiplicity = 1
 C                     0.34039  -0.0533   -0.69518 
 H                     0.79694  -0.16007  -1.71567 
 C                    -1.15995  -0.01028  -0.85948 
 C                    -1.70864   0.04113  -2.14255 
 C                    -2.01224  -0.0245    0.24654 
 C                    -3.0883    0.07296  -2.3139 
 H                    -1.05184   0.05752  -3.02022 
 C                    -3.3904    0.00476   0.07268 
 H                    -1.5763   -0.04121   1.25716 
 C                    -3.93097   0.0521   -1.20817 
 H                    -3.51058   0.1142   -3.32324 
 H                    -4.05021  -0.00832   0.9462 
 H                    -5.0168    0.0747   -1.34507 
 C                     0.77971  -1.28728   0.05364 
 C                     1.72148  -1.24133   1.08104 
 C                     0.2655   -2.52759  -0.33961 
 C                     2.13774  -2.41177   1.70761 
 H                     2.13737  -0.27681   1.39903 
 C                     0.68105  -3.69436   0.28817 
 H                    -0.4753   -2.57235  -1.147 
 C                     1.61922  -3.63932   1.31446 
 H                     2.87785  -2.36198   2.5129 
 H                     0.26941  -4.65881  -0.02647 
 H                     1.94715  -4.55923   1.80872 
 C                     0.84471   1.24032  -0.10597 
 C                     0.44528   1.67606   1.15958 
 C                     1.72766   2.02757  -0.84857 
 C                     0.92086   2.87593   1.67373 
 H                    -0.26311   1.06195   1.7378 
 C                     2.20238   3.22816  -0.33197 
 H                     2.04965   1.70012  -1.84423 
 C                     1.80124   3.65403   0.92918 
 H                     0.59966   3.20867   2.66603 
 H                     2.89374   3.83888  -0.92167 
 H                     2.17569   4.59945   1.33448 
 

 GradGradGradGradGradGradGradGradGradGradGradGradGradGradGradGradGradGrad
 Berny optimization.
 Initialization pass.
                           ----------------------------
                           !    Initial Parameters    !
                           ! (Angstroms and Degrees)  !
 --------------------------                            --------------------------
 ! Name  Definition              Value          Derivative Info.                !
 --------------------------------------------------------------------------------
 ! R1    R(1,2)                  1.123          estimate D2E/DX2                !
 ! R2    R(1,3)                  1.5099         estimate D2E/DX2                !
 ! R3    R(1,14)                 1.5088         estimate D2E/DX2                !
 ! R4    R(1,25)                 1.5083         estimate D2E/DX2                !
 ! R5    R(3,4)                  1.3964         estimate D2E/DX2                !
 ! R6    R(3,5)                  1.3964         estimate D2E/DX2                !
 ! R7    R(4,6)                  1.3906         estimate D2E/DX2                !
 ! R8    R(4,7)                  1.0963         estimate D2E/DX2                !
 ! R9    R(5,8)                  1.3894         estimate D2E/DX2                !
 ! R10   R(5,9)                  1.1008         estimate D2E/DX2                !
 ! R11   R(6,10)                 1.3904         estimate D2E/DX2                !
 ! R12   R(6,11)                 1.0949         estimate D2E/DX2                !
 ! R13   R(8,10)                 1.3911         estimate D2E/DX2                !
 ! R14   R(8,12)                 1.0948         estimate D2E/DX2                !
 ! R15   R(10,13)                1.0947         estimate D2E/DX2                !
 ! R16   R(14,15)                1.3945         estimate D2E/DX2                !
 ! R17   R(14,16)                1.3991         estimate D2E/DX2                !
 ! R18   R(15,17)                1.3913         estimate D2E/DX2                !
 ! R19   R(15,18)                1.0974         estimate D2E/DX2                !
 ! R20   R(16,19)                1.3886         estimate D2E/DX2                !
 ! R21   R(16,20)                1.0967         estimate D2E/DX2                !
 ! R22   R(17,21)                1.3894         estimate D2E/DX2                !
 ! R23   R(17,22)                1.0949         estimate D2E/DX2                !
 ! R24   R(19,21)                1.3916         estimate D2E/DX2                !
 ! R25   R(19,23)                1.0948         estimate D2E/DX2                !
 ! R26   R(21,24)                1.0946         estimate D2E/DX2                !
 ! R27   R(25,26)                1.3968         estimate D2E/DX2                !
 ! R28   R(25,27)                1.3967         estimate D2E/DX2                !
 ! R29   R(26,28)                1.3893         estimate D2E/DX2                !
 ! R30   R(26,29)                1.1015         estimate D2E/DX2                !
 ! R31   R(27,30)                1.3906         estimate D2E/DX2                !
 ! R32   R(27,31)                1.0965         estimate D2E/DX2                !
 ! R33   R(28,32)                1.391          estimate D2E/DX2                !
 ! R34   R(28,33)                1.0948         estimate D2E/DX2                !
 ! R35   R(30,32)                1.3902         estimate D2E/DX2                !
 ! R36   R(30,34)                1.0949         estimate D2E/DX2                !
 ! R37   R(32,35)                1.0947         estimate D2E/DX2                !
 ! A1    A(2,1,3)              107.9255         estimate D2E/DX2                !
 ! A2    A(2,1,14)             104.7656         estimate D2E/DX2                !
 ! A3    A(2,1,25)             107.4921         estimate D2E/DX2                !
 ! A4    A(3,1,14)             111.5084         estimate D2E/DX2                !
 ! A5    A(3,1,25)             110.5063         estimate D2E/DX2                !
 ! A6    A(14,1,25)            114.2185         estimate D2E/DX2                !
 ! A7    A(1,3,4)              119.4372         estimate D2E/DX2                !
 ! A8    A(1,3,5)              121.3329         estimate D2E/DX2                !
 ! A9    A(4,3,5)              119.2297         estimate D2E/DX2                !
 ! A10   A(3,4,6)              120.2581         estimate D2E/DX2                !
 ! A11   A(3,4,7)              120.0474         estimate D2E/DX2                !
 ! A12   A(6,4,7)              119.6945         estimate D2E/DX2                !
 ! A13   A(3,5,8)              120.4045         estimate D2E/DX2                !
 ! A14   A(3,5,9)              119.0536         estimate D2E/DX2                !
 ! A15   A(8,5,9)              120.5332         estimate D2E/DX2                !
 ! A16   A(4,6,10)             120.1956         estimate D2E/DX2                !
 ! A17   A(4,6,11)             119.808          estimate D2E/DX2                !
 ! A18   A(10,6,11)            119.9964         estimate D2E/DX2                !
 ! A19   A(5,8,10)             120.0926         estimate D2E/DX2                !
 ! A20   A(5,8,12)             119.8492         estimate D2E/DX2                !
 ! A21   A(10,8,12)            120.0582         estimate D2E/DX2                !
 ! A22   A(6,10,8)             119.8184         estimate D2E/DX2                !
 ! A23   A(6,10,13)            120.094          estimate D2E/DX2                !
 ! A24   A(8,10,13)            120.0875         estimate D2E/DX2                !
 ! A25   A(1,14,15)            122.3682         estimate D2E/DX2                !
 ! A26   A(1,14,16)            118.5893         estimate D2E/DX2                !
 ! A27   A(15,14,16)           118.9805         estimate D2E/DX2                !
 ! A28   A(14,15,17)           120.4062         estimate D2E/DX2                !
 ! A29   A(14,15,18)           119.8923         estimate D2E/DX2                !
 ! A30   A(17,15,18)           119.7015         estimate D2E/DX2                !
 ! A31   A(14,16,19)           120.5202         estimate D2E/DX2                !
 ! A32   A(14,16,20)           119.4322         estimate D2E/DX2                !
 ! A33   A(19,16,20)           120.0468         estimate D2E/DX2                !
 ! A34   A(15,17,21)           120.2766         estimate D2E/DX2                !
 ! A35   A(15,17,22)           119.6843         estimate D2E/DX2                !
 ! A36   A(21,17,22)           120.039          estimate D2E/DX2                !
 ! A37   A(16,19,21)           120.1295         estimate D2E/DX2                !
 ! A38   A(16,19,23)           119.8519         estimate D2E/DX2                !
 ! A39   A(21,19,23)           120.0186         estimate D2E/DX2                !
 ! A40   A(17,21,19)           119.6861         estimate D2E/DX2                !
 ! A41   A(17,21,24)           120.1963         estimate D2E/DX2                !
 ! A42   A(19,21,24)           120.1175         estimate D2E/DX2                !
 ! A43   A(1,25,26)            121.7273         estimate D2E/DX2                !
 ! A44   A(1,25,27)            119.1499         estimate D2E/DX2                !
 ! A45   A(26,25,27)           119.1215         estimate D2E/DX2                !
 ! A46   A(25,26,28)           120.453          estimate D2E/DX2                !
 ! A47   A(25,26,29)           119.0521         estimate D2E/DX2                !
 ! A48   A(28,26,29)           120.4892         estimate D2E/DX2                !
 ! A49   A(25,27,30)           120.327          estimate D2E/DX2                !
 ! A50   A(25,27,31)           120.0071         estimate D2E/DX2                !
 ! A51   A(30,27,31)           119.6659         estimate D2E/DX2                !
 ! A52   A(26,28,32)           120.1104         estimate D2E/DX2                !
 ! A53   A(26,28,33)           119.834          estimate D2E/DX2                !
 ! A54   A(32,28,33)           120.0555         estimate D2E/DX2                !
 ! A55   A(27,30,32)           120.1975         estimate D2E/DX2                !
 ! A56   A(27,30,34)           119.8072         estimate D2E/DX2                !
 ! A57   A(32,30,34)           119.9954         estimate D2E/DX2                !
 ! A58   A(28,32,30)           119.7905         estimate D2E/DX2                !
 ! A59   A(28,32,35)           120.0949         estimate D2E/DX2                !
 ! A60   A(30,32,35)           120.1146         estimate D2E/DX2                !
 ! D1    D(2,1,3,4)             -6.7075         estimate D2E/DX2                !
 ! D2    D(2,1,3,5)            173.1163         estimate D2E/DX2                !
 ! D3    D(14,1,3,4)          -121.2516         estimate D2E/DX2                !
 ! D4    D(14,1,3,5)            58.5721         estimate D2E/DX2                !
 ! D5    D(25,1,3,4)           110.5679         estimate D2E/DX2                !
 ! D6    D(25,1,3,5)           -69.6083         estimate D2E/DX2                !
 ! D7    D(2,1,14,15)          108.682          estimate D2E/DX2                !
 ! D8    D(2,1,14,16)          -68.424          estimate D2E/DX2                !
 ! D9    D(3,1,14,15)         -134.8318         estimate D2E/DX2                !
 ! D10   D(3,1,14,16)           48.0621         estimate D2E/DX2                !
 ! D11   D(25,1,14,15)          -8.6658         estimate D2E/DX2                !
 ! D12   D(25,1,14,16)         174.2281         estimate D2E/DX2                !
 ! D13   D(2,1,25,26)          179.1623         estimate D2E/DX2                !
 ! D14   D(2,1,25,27)           -0.4235         estimate D2E/DX2                !
 ! D15   D(3,1,25,26)           61.6201         estimate D2E/DX2                !
 ! D16   D(3,1,25,27)         -117.9657         estimate D2E/DX2                !
 ! D17   D(14,1,25,26)         -65.0674         estimate D2E/DX2                !
 ! D18   D(14,1,25,27)         115.3468         estimate D2E/DX2                !
 ! D19   D(1,3,4,6)            179.6031         estimate D2E/DX2                !
 ! D20   D(1,3,4,7)             -0.454          estimate D2E/DX2                !
 ! D21   D(5,3,4,6)             -0.2245         estimate D2E/DX2                !
 ! D22   D(5,3,4,7)            179.7185         estimate D2E/DX2                !
 ! D23   D(1,3,5,8)           -179.4745         estimate D2E/DX2                !
 ! D24   D(1,3,5,9)              1.5961         estimate D2E/DX2                !
 ! D25   D(4,3,5,8)              0.3496         estimate D2E/DX2                !
 ! D26   D(4,3,5,9)           -178.5798         estimate D2E/DX2                !
 ! D27   D(3,4,6,10)            -0.0801         estimate D2E/DX2                !
 ! D28   D(3,4,6,11)           179.9412         estimate D2E/DX2                !
 ! D29   D(7,4,6,10)           179.9768         estimate D2E/DX2                !
 ! D30   D(7,4,6,11)            -0.0019         estimate D2E/DX2                !
 ! D31   D(3,5,8,10)            -0.1702         estimate D2E/DX2                !
 ! D32   D(3,5,8,12)           179.9026         estimate D2E/DX2                !
 ! D33   D(9,5,8,10)           178.7432         estimate D2E/DX2                !
 ! D34   D(9,5,8,12)            -1.184          estimate D2E/DX2                !
 ! D35   D(4,6,10,8)             0.2622         estimate D2E/DX2                !
 ! D36   D(4,6,10,13)         -179.8474         estimate D2E/DX2                !
 ! D37   D(11,6,10,8)         -179.7592         estimate D2E/DX2                !
 ! D38   D(11,6,10,13)           0.1312         estimate D2E/DX2                !
 ! D39   D(5,8,10,6)            -0.1374         estimate D2E/DX2                !
 ! D40   D(5,8,10,13)          179.9722         estimate D2E/DX2                !
 ! D41   D(12,8,10,6)          179.7897         estimate D2E/DX2                !
 ! D42   D(12,8,10,13)          -0.1007         estimate D2E/DX2                !
 ! D43   D(1,14,15,17)        -177.3558         estimate D2E/DX2                !
 ! D44   D(1,14,15,18)           2.6866         estimate D2E/DX2                !
 ! D45   D(16,14,15,17)         -0.2606         estimate D2E/DX2                !
 ! D46   D(16,14,15,18)        179.7818         estimate D2E/DX2                !
 ! D47   D(1,14,16,19)         177.5475         estimate D2E/DX2                !
 ! D48   D(1,14,16,20)          -2.7766         estimate D2E/DX2                !
 ! D49   D(15,14,16,19)          0.3415         estimate D2E/DX2                !
 ! D50   D(15,14,16,20)       -179.9826         estimate D2E/DX2                !
 ! D51   D(14,15,17,21)          0.052          estimate D2E/DX2                !
 ! D52   D(14,15,17,22)        179.9946         estimate D2E/DX2                !
 ! D53   D(18,15,17,21)       -179.9903         estimate D2E/DX2                !
 ! D54   D(18,15,17,22)         -0.0477         estimate D2E/DX2                !
 ! D55   D(14,16,19,21)         -0.2133         estimate D2E/DX2                !
 ! D56   D(14,16,19,23)        179.8302         estimate D2E/DX2                !
 ! D57   D(20,16,19,21)       -179.8872         estimate D2E/DX2                !
 ! D58   D(20,16,19,23)          0.1563         estimate D2E/DX2                !
 ! D59   D(15,17,21,19)          0.0804         estimate D2E/DX2                !
 ! D60   D(15,17,21,24)       -179.9615         estimate D2E/DX2                !
 ! D61   D(22,17,21,19)       -179.862          estimate D2E/DX2                !
 ! D62   D(22,17,21,24)          0.0961         estimate D2E/DX2                !
 ! D63   D(16,19,21,17)          0.0001         estimate D2E/DX2                !
 ! D64   D(16,19,21,24)       -179.9581         estimate D2E/DX2                !
 ! D65   D(23,19,21,17)        179.9565         estimate D2E/DX2                !
 ! D66   D(23,19,21,24)         -0.0016         estimate D2E/DX2                !
 ! D67   D(1,25,26,28)        -179.6519         estimate D2E/DX2                !
 ! D68   D(1,25,26,29)          -0.5158         estimate D2E/DX2                !
 ! D69   D(27,25,26,28)         -0.0659         estimate D2E/DX2                !
 ! D70   D(27,25,26,29)        179.0702         estimate D2E/DX2                !
 ! D71   D(1,25,27,30)         179.6624         estimate D2E/DX2                !
 ! D72   D(1,25,27,31)          -0.3189         estimate D2E/DX2                !
 ! D73   D(26,25,27,30)          0.0656         estimate D2E/DX2                !
 ! D74   D(26,25,27,31)       -179.9157         estimate D2E/DX2                !
 ! D75   D(25,26,28,32)         -0.0104         estimate D2E/DX2                !
 ! D76   D(25,26,28,33)        179.8854         estimate D2E/DX2                !
 ! D77   D(29,26,28,32)       -179.1341         estimate D2E/DX2                !
 ! D78   D(29,26,28,33)          0.7618         estimate D2E/DX2                !
 ! D79   D(25,27,30,32)          0.011          estimate D2E/DX2                !
 ! D80   D(25,27,30,34)       -179.9627         estimate D2E/DX2                !
 ! D81   D(31,27,30,32)        179.9924         estimate D2E/DX2                !
 ! D82   D(31,27,30,34)          0.0187         estimate D2E/DX2                !
 ! D83   D(26,28,32,30)          0.0876         estimate D2E/DX2                !
 ! D84   D(26,28,32,35)        179.9915         estimate D2E/DX2                !
 ! D85   D(33,28,32,30)       -179.808          estimate D2E/DX2                !
 ! D86   D(33,28,32,35)          0.0958         estimate D2E/DX2                !
 ! D87   D(27,30,32,28)         -0.0879         estimate D2E/DX2                !
 ! D88   D(27,30,32,35)       -179.9917         estimate D2E/DX2                !
 ! D89   D(34,30,32,28)        179.8856         estimate D2E/DX2                !
 ! D90   D(34,30,32,35)         -0.0182         estimate D2E/DX2                !
 --------------------------------------------------------------------------------
 Trust Radius=3.00D-01 FncErr=1.00D-07 GrdErr=1.00D-07
 Number of steps in this run= 197 maximum allowed number of steps= 210.
 GradGradGradGradGradGradGradGradGradGradGradGradGradGradGradGradGradGrad

                          Input orientation:                          
 ---------------------------------------------------------------------
 Center     Atomic      Atomic             Coordinates (Angstroms)
 Number     Number       Type             X           Y           Z
 ---------------------------------------------------------------------
      1          6           0        0.340386   -0.053304   -0.695178
      2          1           0        0.796937   -0.160066   -1.715667
      3          6           0       -1.159947   -0.010280   -0.859480
      4          6           0       -1.708641    0.041130   -2.142547
      5          6           0       -2.012243   -0.024498    0.246536
      6          6           0       -3.088301    0.072956   -2.313903
      7          1           0       -1.051840    0.057523   -3.020215
      8          6           0       -3.390399    0.004761    0.072679
      9          1           0       -1.576301   -0.041211    1.257163
     10          6           0       -3.930971    0.052105   -1.208172
     11          1           0       -3.510575    0.114195   -3.323237
     12          1           0       -4.050212   -0.008321    0.946202
     13          1           0       -5.016800    0.074696   -1.345066
     14          6           0        0.779707   -1.287276    0.053644
     15          6           0        1.721478   -1.241328    1.081039
     16          6           0        0.265497   -2.527590   -0.339609
     17          6           0        2.137738   -2.411768    1.707614
     18          1           0        2.137368   -0.276805    1.399028
     19          6           0        0.681046   -3.694356    0.288173
     20          1           0       -0.475302   -2.572354   -1.147003
     21          6           0        1.619218   -3.639320    1.314463
     22          1           0        2.877845   -2.361982    2.512896
     23          1           0        0.269413   -4.658808   -0.026473
     24          1           0        1.947153   -4.559231    1.808723
     25          6           0        0.844707    1.240324   -0.105973
     26          6           0        0.445277    1.676062    1.159579
     27          6           0        1.727656    2.027571   -0.848573
     28          6           0        0.920857    2.875928    1.673734
     29          1           0       -0.263105    1.061949    1.737804
     30          6           0        2.202383    3.228158   -0.331970
     31          1           0        2.049648    1.700117   -1.844228
     32          6           0        1.801237    3.654030    0.929180
     33          1           0        0.599657    3.208665    2.666028
     34          1           0        2.893742    3.838875   -0.921671
     35          1           0        2.175687    4.599451    1.334481
 ---------------------------------------------------------------------
                    Distance matrix (angstroms):
                    1          2          3          4          5
     1  C    0.000000
     2  H    1.123047   0.000000
     3  C    1.509916   2.141235   0.000000
     4  C    2.510439   2.549632   1.396413   0.000000
     5  C    2.534269   3.429301   1.396381   2.409190   0.000000
     6  C    3.793693   3.937925   2.416780   1.390625   2.779072
     7  H    2.712263   2.273140   2.164500   1.096338   3.405989
     8  C    3.809427   4.556219   2.417450   2.781521   1.389387
     9  H    2.735959   3.805798   2.157425   3.403281   1.100769
    10  C    4.303344   4.759799   2.793574   2.410794   2.409058
    11  H    4.665260   4.605883   3.407499   2.155536   3.873953
    12  H    4.687591   5.532036   3.407950   3.876309   2.154788
    13  H    5.397980   5.830266   3.888230   3.403090   3.401529
    14  C    1.508783   2.097943   2.495350   3.574884   3.070309
    15  C    2.544359   3.137749   3.685607   4.878721   4.014691
    16  C    2.500826   2.789469   2.939218   3.707577   3.434695
    17  C    3.816574   4.311237   4.819942   5.969513   5.005612
    18  H    2.768537   3.392891   4.005518   5.237902   4.314066
    19  C    3.786858   4.064482   4.275369   5.056962   4.552296
    20  H    2.686095   2.785876   2.667514   3.056556   3.285682
    21  C    4.305065   4.686475   5.061592   6.047419   5.234015
    22  H    4.696854   5.201862   5.762568   6.963042   5.874792
    23  H    4.654340   4.834288   4.934144   5.520859   5.172748
    24  H    5.399500   5.752997   6.120975   7.081009   6.219409
    25  C    1.508302   2.134125   2.480004   3.479265   3.144233
    26  C    2.538077   3.429588   3.081736   4.268068   3.124893
    27  C    2.505611   2.530582   3.534290   4.174740   4.404213
    28  C    3.811704   4.551994   4.367736   5.432710   4.364910
    29  H    2.743610   3.813591   2.949557   4.264829   2.542387
    30  C    3.790375   3.920454   4.697980   5.360172   5.355139
    31  H    2.704880   2.246352   3.767850   4.118977   4.883088
    32  C    4.303132   4.748806   5.039353   5.899813   5.342303
    33  H    4.690988   5.530508   5.087929   6.203540   4.809294
    34  H    4.660470   4.584600   5.590372   6.090594   6.352877
    35  H    5.397775   5.818708   6.098323   6.925029   6.332716
                    6          7          8          9         10
     6  C    0.000000
     7  H    2.155525   0.000000
     8  C    2.406593   3.877839   0.000000
     9  H    3.879650   4.310541   2.167041   0.000000
    10  C    1.390384   3.401900   1.391058   3.410433   0.000000
    11  H    1.094885   2.477986   3.399804   4.974498   2.157333
    12  H    3.400025   4.972629   1.094791   2.493594   2.158518
    13  H    2.158184   4.304339   2.158720   4.315329   1.094657
    14  C    4.734659   3.822520   4.365720   2.924365   5.057333
    15  C    6.032159   5.118456   5.357314   3.513780   6.234071
    16  C    4.680666   3.950169   4.466359   3.481951   5.001957
    17  C    7.046839   6.214754   6.250834   4.429056   7.169499
    18  H    6.419953   5.460085   5.691633   3.723838   6.612898
    19  C    5.930550   5.293857   5.505141   4.402276   6.127457
    20  H    3.897061   3.279874   4.077614   3.660450   4.339721
    21  C    7.007622   6.292108   6.318039   4.812589   7.127055
    22  H    8.051199   7.204981   7.130710   5.177091   8.126140
    23  H    6.236680   5.740381   5.928991   5.135814   6.421242
    24  H    7.988054   7.323047   7.234179   5.755993   8.057197
    25  C    4.658997   3.672699   4.415276   3.059698   5.043195
    26  C    5.207802   4.725644   4.322847   2.654303   5.234027
    27  C    5.400106   4.040138   5.579870   4.430588   6.004318
    28  C    6.311200   5.819630   5.421615   3.862516   6.310277
    29  H    5.037476   4.926431   3.697331   1.781141   4.811632
    30  C    6.471066   5.279163   6.467862   5.243336   6.962261
    31  H    5.409877   3.701390   6.011895   5.079208   6.236050
    32  C    6.873809   6.055793   6.403424   5.016985   7.099320
    33  H    6.945028   6.707496   5.736811   4.157089   6.745361
    34  H    7.204533   5.854070   7.428297   6.307430   7.810149
    35  H    7.842795   7.071734   7.326980   5.968177   8.027124
                   11         12         13         14         15
    11  H    0.000000
    12  H    4.305152   0.000000
    13  H    2.486652   2.488191   0.000000
    14  C    5.636841   5.075480   6.116441   0.000000
    15  C    6.972049   5.903464   7.281641   1.394483   0.000000
    16  C    5.489972   5.159977   5.973734   1.399085   2.406780
    17  C    7.974547   6.681843   8.166319   2.417508   1.391330
    18  H    7.372376   6.209934   7.670445   2.162025   1.097445
    19  C    6.716922   6.033627   7.024150   2.420490   2.780015
    20  H    4.600698   4.871935   5.260352   2.160562   3.400242
    21  C    7.868413   6.742566   8.056286   2.797598   2.411496
    22  H    9.000212   7.482795   9.118481   3.406625   2.154824
    23  H    6.923765   6.421237   7.217257   3.410872   3.874823
    24  H    8.829764   7.577804   8.939593   3.892162   3.404253
    25  C    5.530592   5.160080   6.103385   2.533468   2.887268
    26  C    6.179308   4.805424   6.218674   3.180615   3.185282
    27  C    6.101150   6.383559   7.039028   3.563820   3.795937
    28  C    7.227343   5.793076   7.226052   4.469550   4.236045
    29  H    6.087564   4.014261   5.751206   3.072899   3.110466
    30  C    7.161169   7.155660   7.942751   4.749932   4.712130
    31  H    5.968140   6.921962   7.268139   3.760211   4.161368
    32  C    7.669995   6.903083   8.029287   5.121190   4.898362
    33  H    7.895635   5.909999   7.579923   5.202927   4.855215
    34  H    7.788199   8.155266   8.770689   5.630081   5.585115
    35  H    8.610775   7.755266   8.909840   6.184081   5.863892
                   16         17         18         19         20
    16  C    0.000000
    17  C    2.776657   0.000000
    18  H    3.404819   2.157149   0.000000
    19  C    1.388573   2.404537   3.877438   0.000000
    20  H    1.096664   3.873320   4.310204   2.157721   0.000000
    21  C    2.409244   1.389358   3.403254   1.391569   3.403563
    22  H    3.871508   1.094859   2.477292   3.398608   4.968170
    23  H    2.154103   3.398071   4.972249   1.094812   2.482636
    24  H    3.401597   2.158273   4.306182   2.159423   4.307236
    25  C    3.819325   4.277710   2.497534   4.953100   4.166855
    26  C    4.466607   4.458152   2.595033   5.445762   4.921060
    27  C    4.811075   5.139065   3.244953   5.926891   5.108952
    28  C    5.803538   5.426018   3.390440   6.719071   6.292026
    29  H    4.180892   4.222756   2.769351   5.061155   4.644922
    30  C    6.072909   5.997737   3.909648   7.114791   6.440514
    31  H    4.829139   5.434238   3.799293   5.959912   5.011537
    32  C    6.494670   6.124794   3.973060   7.460864   6.947015
    33  H    6.484608   5.905380   4.014766   7.301542   7.008204
    34  H    6.912189   6.823139   4.785036   7.944137   7.246040
    35  H    7.566116   7.021243   4.876834   8.492111   8.038675
                   21         22         23         24         25
    21  C    0.000000
    22  H    2.156844   0.000000
    23  H    2.158573   4.304384   0.000000
    24  H    1.094564   2.487961   2.488508   0.000000
    25  C    5.140859   4.895787   5.927651   6.206149   0.000000
    26  C    5.445679   4.904555   6.447343   6.446387   1.396795
    27  C    6.066641   5.647175   6.892749   7.106009   1.396714
    28  C    6.562411   5.654175   7.751602   7.506870   2.418337
    29  H    5.081761   4.710589   6.010268   6.040525   2.158374
    30  C    7.086119   6.308659   8.126127   8.080293   2.417818
    31  H    6.218697   6.014241   6.849044   7.248034   2.164446
    32  C    7.305787   6.313450   8.506647   8.261510   2.795079
    33  H    7.054157   6.020441   8.322005   7.930380   3.408578
    34  H    7.908737   7.088522   8.938630   8.881401   3.408281
    35  H    8.257567   7.095297   9.549945   9.173799   3.889749
                   26         27         28         29         30
    26  C    0.000000
    27  C    2.408470   0.000000
    28  C    1.389320   2.780766   0.000000
    29  H    1.101491   3.403659   2.167116   0.000000
    30  C    2.778695   1.390559   2.406080   3.880085   0.000000
    31  H    3.405502   1.096465   3.877210   4.311269   2.155264
    32  C    2.409163   2.410640   1.390996   3.410903   1.390246
    33  H    2.154552   3.875536   1.094775   2.492859   3.399574
    34  H    3.873544   2.155441   3.399363   4.974918   1.094851
    35  H    3.401634   3.403090   2.158755   4.315587   2.158290
                   31         32         33         34         35
    31  H    0.000000
    32  C    3.401658   0.000000
    33  H    4.971982   2.158422   0.000000
    34  H    2.477477   2.157170   4.304832   0.000000
    35  H    4.304209   1.094671   2.488207   2.486825   0.000000
 Stoichiometry    C19H16
 Framework group  C1[X(C19H16)]
 Deg. of freedom    99
 Full point group                 C1      NOp   1
 Largest Abelian subgroup         C1      NOp   1
 Largest concise Abelian subgroup C1      NOp   1
                         Standard orientation:                         
 ---------------------------------------------------------------------
 Center     Atomic      Atomic             Coordinates (Angstroms)
 Number     Number       Type             X           Y           Z
 ---------------------------------------------------------------------
      1          6           0       -0.010799    0.012914   -0.761339
      2          1           0        0.017707    0.016930   -1.884017
      3          6           0        0.758310   -1.194495   -0.281256
      4          6           0        1.219953   -2.128404   -1.211132
      5          6           0        1.021413   -1.395575    1.075293
      6          6           0        1.937171   -3.242355   -0.788583
      7          1           0        1.017002   -1.986190   -2.279094
      8          6           0        1.740433   -2.507982    1.494766
      9          1           0        0.635919   -0.670026    1.807867
     10          6           0        2.200897   -3.432768    0.563216
     11          1           0        2.294812   -3.970461   -1.523924
     12          1           0        1.942883   -2.655839    2.560467
     13          1           0        2.767775   -4.308934    0.893757
     14          6           0        0.667068    1.298100   -0.354867
     15          6           0       -0.035753    2.374043    0.186402
     16          6           0        2.040373    1.432778   -0.585812
     17          6           0        0.621832    3.560357    0.496304
     18          1           0       -1.114083    2.285984    0.370346
     19          6           0        2.695040    2.617041   -0.274257
     20          1           0        2.600308    0.591395   -1.011510
     21          6           0        1.986656    3.684953    0.268166
     22          1           0        0.058410    4.397691    0.920737
     23          1           0        3.770532    2.709534   -0.456943
     24          1           0        2.502777    4.618616    0.513043
     25          6           0       -1.457351   -0.082193   -0.344904
     26          6           0       -1.833261   -0.126689    0.999620
     27          6           0       -2.446629   -0.135759   -1.329419
     28          6           0       -3.173451   -0.221579    1.353308
     29          1           0       -1.051209   -0.099964    1.774839
     30          6           0       -3.787403   -0.230728   -0.973106
     31          1           0       -2.167768   -0.103272   -2.389333
     32          6           0       -4.153399   -0.272873    0.367437
     33          1           0       -3.456572   -0.257632    2.410225
     34          1           0       -4.555821   -0.272770   -1.751865
     35          1           0       -5.209275   -0.347778    0.646399
 ---------------------------------------------------------------------
 Rotational constants (GHZ):      0.4039815      0.3820927      0.2325989
 Standard basis: 6-311G (5D, 7F)
 There are   295 symmetry adapted basis functions of A   symmetry.
 Integral buffers will be    262144 words long.
 Raffenetti 1 integral format.
 Two-electron integral symmetry is turned on.
   295 basis functions,   574 primitive gaussians,   295 cartesian basis functions
    65 alpha electrons       65 beta electrons
       nuclear repulsion energy      1290.7171998293 Hartrees.
 NAtoms=   35 NActive=   35 NUniq=   35 SFac= 7.50D-01 NAtFMM=   80 NAOKFM=F Big=F
 One-electron integrals computed using PRISM.
 PrsmSu:  requested number of processors reduced to:  10 ShMem   1 Linda.
 NBasis=   295 RedAO= T  NBF=   295
 NBsUse=   295 1.00D-06 NBFU=   295
 Harris functional with IExCor=  205 diagonalized for initial guess.
 ExpMin= 1.03D-01 ExpMax= 4.56D+03 ExpMxC= 6.82D+02 IAcc=1 IRadAn=         1 AccDes= 0.00D+00
 HarFok:  IExCor=  205 AccDes= 0.00D+00 IRadAn=         1 IDoV= 1
 ScaDFX=  1.000000  1.000000  1.000000  1.000000
 FoFCou: FMM=F IPFlag=           0 FMFlag=      100000 FMFlg1=           0
         NFxFlg=           0 DoJE=T BraDBF=F KetDBF=T FulRan=T
         Omega=  0.000000  0.000000  1.000000  0.000000  0.000000 ICntrl=     500 IOpCl=  0
         NMat0=    1 NMatS0=    1 NMatT0=    0 NMatD0=    1 NMtDS0=    0 NMtDT0=    0
         I1Cent=           4 NGrid=           0.
 Petite list used in FoFCou.
 Initial guess orbital symmetries:
       Occupied  (A) (A) (A) (A) (A) (A) (A) (A) (A) (A) (A) (A)
                 (A) (A) (A) (A) (A) (A) (A) (A) (A) (A) (A) (A)
                 (A) (A) (A) (A) (A) (A) (A) (A) (A) (A) (A) (A)
                 (A) (A) (A) (A) (A) (A) (A) (A) (A) (A) (A) (A)
                 (A) (A) (A) (A) (A) (A) (A) (A) (A) (A) (A) (A)
                 (A) (A) (A) (A) (A)
       Virtual   (A) (A) (A) (A) (A) (A) (A) (A) (A) (A) (A) (A)
                 (A) (A) (A) (A) (A) (A) (A) (A) (A) (A) (A) (A)
                 (A) (A) (A) (A) (A) (A) (A) (A) (A) (A) (A) (A)
                 (A) (A) (A) (A) (A) (A) (A) (A) (A) (A) (A) (A)
                 (A) (A) (A) (A) (A) (A) (A) (A) (A) (A) (A) (A)
                 (A) (A) (A) (A) (A) (A) (A) (A) (A) (A) (A) (A)
                 (A) (A) (A) (A) (A) (A) (A) (A) (A) (A) (A) (A)
                 (A) (A) (A) (A) (A) (A) (A) (A) (A) (A) (A) (A)
                 (A) (A) (A) (A) (A) (A) (A) (A) (A) (A) (A) (A)
                 (A) (A) (A) (A) (A) (A) (A) (A) (A) (A) (A) (A)
                 (A) (A) (A) (A) (A) (A) (A) (A) (A) (A) (A) (A)
                 (A) (A) (A) (A) (A) (A) (A) (A) (A) (A) (A) (A)
                 (A) (A) (A) (A) (A) (A) (A) (A) (A) (A) (A) (A)
                 (A) (A) (A) (A) (A) (A) (A) (A) (A) (A) (A) (A)
                 (A) (A) (A) (A) (A) (A) (A) (A) (A) (A) (A) (A)
                 (A) (A) (A) (A) (A) (A) (A) (A) (A) (A) (A) (A)
                 (A) (A) (A) (A) (A) (A) (A) (A) (A) (A) (A) (A)
                 (A) (A) (A) (A) (A) (A) (A) (A) (A) (A) (A) (A)
                 (A) (A) (A) (A) (A) (A) (A) (A) (A) (A) (A) (A)
                 (A) (A)
 The electronic state of the initial guess is 1-A.
 Requested convergence on RMS density matrix=1.00D-08 within 128 cycles.
 Requested convergence on MAX density matrix=1.00D-06.
 Requested convergence on             energy=1.00D-06.
 No special actions if energy rises.
 Integral accuracy reduced to 1.0D-05 until final iterations.
 Initial convergence to 1.0D-05 achieved.  Increase integral accuracy.
 SCF Done:  E(RHF) =  -728.672416299     A.U. after   14 cycles
             Convg  =    0.8748D-08             -V/T =  2.0001

 **********************************************************************

            Population analysis using the SCF density.

 **********************************************************************

 Orbital symmetries:
       Occupied  (A) (A) (A) (A) (A) (A) (A) (A) (A) (A) (A) (A)
                 (A) (A) (A) (A) (A) (A) (A) (A) (A) (A) (A) (A)
                 (A) (A) (A) (A) (A) (A) (A) (A) (A) (A) (A) (A)
                 (A) (A) (A) (A) (A) (A) (A) (A) (A) (A) (A) (A)
                 (A) (A) (A) (A) (A) (A) (A) (A) (A) (A) (A) (A)
                 (A) (A) (A) (A) (A)
       Virtual   (A) (A) (A) (A) (A) (A) (A) (A) (A) (A) (A) (A)
                 (A) (A) (A) (A) (A) (A) (A) (A) (A) (A) (A) (A)
                 (A) (A) (A) (A) (A) (A) (A) (A) (A) (A) (A) (A)
                 (A) (A) (A) (A) (A) (A) (A) (A) (A) (A) (A) (A)
                 (A) (A) (A) (A) (A) (A) (A) (A) (A) (A) (A) (A)
                 (A) (A) (A) (A) (A) (A) (A) (A) (A) (A) (A) (A)
                 (A) (A) (A) (A) (A) (A) (A) (A) (A) (A) (A) (A)
                 (A) (A) (A) (A) (A) (A) (A) (A) (A) (A) (A) (A)
                 (A) (A) (A) (A) (A) (A) (A) (A) (A) (A) (A) (A)
                 (A) (A) (A) (A) (A) (A) (A) (A) (A) (A) (A) (A)
                 (A) (A) (A) (A) (A) (A) (A) (A) (A) (A) (A) (A)
                 (A) (A) (A) (A) (A) (A) (A) (A) (A) (A) (A) (A)
                 (A) (A) (A) (A) (A) (A) (A) (A) (A) (A) (A) (A)
                 (A) (A) (A) (A) (A) (A) (A) (A) (A) (A) (A) (A)
                 (A) (A) (A) (A) (A) (A) (A) (A) (A) (A) (A) (A)
                 (A) (A) (A) (A) (A) (A) (A) (A) (A) (A) (A) (A)
                 (A) (A) (A) (A) (A) (A) (A) (A) (A) (A) (A) (A)
                 (A) (A) (A) (A) (A) (A) (A) (A) (A) (A) (A) (A)
                 (A) (A) (A) (A) (A) (A) (A) (A) (A) (A) (A) (A)
                 (A) (A)
 The electronic state is 1-A.
 Alpha  occ. eigenvalues --  -11.25760 -11.25230 -11.25186 -11.24916 -11.24519
 Alpha  occ. eigenvalues --  -11.24433 -11.24422 -11.24374 -11.24220 -11.24166
 Alpha  occ. eigenvalues --  -11.24140 -11.24123 -11.24077 -11.24037 -11.24030
 Alpha  occ. eigenvalues --  -11.23969 -11.23731 -11.23629 -11.23503  -1.18616
 Alpha  occ. eigenvalues --   -1.15875  -1.15570  -1.09027  -1.02378  -1.02239
 Alpha  occ. eigenvalues --   -1.01878  -1.01487  -1.01084  -0.92919  -0.84280
 Alpha  occ. eigenvalues --   -0.83363  -0.82325  -0.81922  -0.81130  -0.77584
 Alpha  occ. eigenvalues --   -0.70870  -0.70366  -0.68983  -0.65681  -0.63901
 Alpha  occ. eigenvalues --   -0.63613  -0.62516  -0.61702  -0.61577  -0.59725
 Alpha  occ. eigenvalues --   -0.58847  -0.58491  -0.58316  -0.56754  -0.55092
 Alpha  occ. eigenvalues --   -0.51725  -0.50915  -0.50220  -0.49863  -0.49379
 Alpha  occ. eigenvalues --   -0.48419  -0.47960  -0.47500  -0.46313  -0.35025
 Alpha  occ. eigenvalues --   -0.34320  -0.33965  -0.33326  -0.32526  -0.31467
 Alpha virt. eigenvalues --    0.11542   0.12294   0.12737   0.13499   0.14996
 Alpha virt. eigenvalues --    0.15131   0.15651   0.16238   0.16485   0.16914
 Alpha virt. eigenvalues --    0.18903   0.19187   0.19233   0.21235   0.21294
 Alpha virt. eigenvalues --    0.21593   0.23561   0.24013   0.24935   0.25405
 Alpha virt. eigenvalues --    0.26791   0.31533   0.33141   0.34236   0.35776
 Alpha virt. eigenvalues --    0.37589   0.39780   0.40560   0.41493   0.43094
 Alpha virt. eigenvalues --    0.44092   0.44429   0.44942   0.45443   0.45605
 Alpha virt. eigenvalues --    0.45871   0.46750   0.47239   0.47937   0.50603
 Alpha virt. eigenvalues --    0.51059   0.51420   0.52217   0.54966   0.56086
 Alpha virt. eigenvalues --    0.57311   0.57835   0.58514   0.58874   0.59346
 Alpha virt. eigenvalues --    0.60240   0.60457   0.60627   0.61132   0.61474
 Alpha virt. eigenvalues --    0.62045   0.62203   0.62959   0.63365   0.63673
 Alpha virt. eigenvalues --    0.64253   0.64582   0.65223   0.65938   0.66395
 Alpha virt. eigenvalues --    0.67238   0.67822   0.68584   0.69833   0.72351
 Alpha virt. eigenvalues --    0.73108   0.73909   0.74505   0.75325   0.75740
 Alpha virt. eigenvalues --    0.76794   0.78855   0.79400   0.79945   0.81248
 Alpha virt. eigenvalues --    0.81506   0.82222   0.82495   0.82896   0.83313
 Alpha virt. eigenvalues --    0.83835   0.84371   0.84851   0.84974   0.85475
 Alpha virt. eigenvalues --    0.85925   0.86199   0.86499   0.87760   0.88141
 Alpha virt. eigenvalues --    0.90199   0.90865   0.92139   0.93492   0.95065
 Alpha virt. eigenvalues --    0.95926   0.96341   0.97025   0.98239   0.99738
 Alpha virt. eigenvalues --    1.00071   1.02340   1.03060   1.04838   1.06222
 Alpha virt. eigenvalues --    1.07132   1.08117   1.09356   1.10107   1.10918
 Alpha virt. eigenvalues --    1.11541   1.11722   1.12405   1.12789   1.13794
 Alpha virt. eigenvalues --    1.15005   1.16498   1.19794   1.20547   1.21191
 Alpha virt. eigenvalues --    1.23708   1.25660   1.27356   1.28031   1.29098
 Alpha virt. eigenvalues --    1.29449   1.31930   1.32810   1.46898   1.47769
 Alpha virt. eigenvalues --    1.51972   1.54220   1.56908   2.53508   2.55706
 Alpha virt. eigenvalues --    2.56039   2.57747   2.62083   2.62347   2.63879
 Alpha virt. eigenvalues --    2.66443   2.67078   2.68455   2.72100   2.74285
 Alpha virt. eigenvalues --    2.78342   2.83388   2.86686   2.91783   2.94351
 Alpha virt. eigenvalues --    2.94616   2.94748   2.96020   2.98128   2.98582
 Alpha virt. eigenvalues --    2.99937   3.02265   3.03929   3.04395   3.06527
 Alpha virt. eigenvalues --    3.08487   3.09284   3.09838   3.10056   3.13201
 Alpha virt. eigenvalues --    3.15124   3.16146   3.17734   3.18402   3.19424
 Alpha virt. eigenvalues --    3.21630   3.24086   3.25025   3.27687   3.28779
 Alpha virt. eigenvalues --    3.31450   3.33874   3.34355   3.35717   3.40858
 Alpha virt. eigenvalues --    3.41276   3.44153   3.45037   3.49949   3.52580
 Alpha virt. eigenvalues --    3.53521   3.55974   3.57623   3.58331   3.59530
 Alpha virt. eigenvalues --    3.62404   3.64042   3.65084   3.66255   3.66816
 Alpha virt. eigenvalues --    3.67687   3.69212   3.71254   3.72251   3.74341
 Alpha virt. eigenvalues --    3.76407   3.77544   3.78464   3.85610   3.88079
 Alpha virt. eigenvalues --    3.91060  24.26080  24.30022  24.31732  24.50535
 Alpha virt. eigenvalues --   24.50777  24.51040  24.53025  24.54611  24.56484
 Alpha virt. eigenvalues --   24.76174  24.77060  24.79107  24.80212  24.80741
 Alpha virt. eigenvalues --   24.82825  24.87471  25.04649  25.05787  25.07117
          Condensed to atoms (all electrons):
              1          2          3          4          5          6
     1  C    6.111064   0.472465   0.148536  -0.024574  -0.056334   0.006849
     2  H    0.472465   0.502382  -0.070399   0.001768   0.005432   0.001552
     3  C    0.148536  -0.070399   5.392213   0.492428   0.448057  -0.073954
     4  C   -0.024574   0.001768   0.492428   5.091570  -0.072138   0.454499
     5  C   -0.056334   0.005432   0.448057  -0.072138   5.068136  -0.026420
     6  C    0.006849   0.001552  -0.073954   0.454499  -0.026420   5.059077
     7  H   -0.000119   0.002387  -0.050639   0.400381   0.004337  -0.034782
     8  C    0.003307  -0.000261  -0.058166  -0.030663   0.478812  -0.078681
     9  H    0.000115   0.000104  -0.044505   0.004101   0.388638   0.000025
    10  C    0.001274   0.000000  -0.018760  -0.086465  -0.091348   0.497914
    11  H   -0.000340  -0.000039   0.006923  -0.039664  -0.000686   0.396924
    12  H   -0.000350   0.000011   0.006020  -0.000475  -0.038890   0.005966
    13  H   -0.000012  -0.000001  -0.001550   0.007492   0.007894  -0.042561
    14  C    0.033224  -0.062283  -0.093821  -0.001438  -0.006802  -0.000425
    15  C   -0.031320   0.000726   0.001522  -0.000445   0.001643   0.000020
    16  C   -0.085544  -0.004725  -0.007293   0.000564  -0.009130  -0.000096
    17  C    0.012260  -0.000114  -0.000818   0.000007   0.000050   0.000000
    18  H   -0.011376  -0.000271   0.000431  -0.000017   0.000056   0.000000
    19  C    0.008458   0.000601  -0.001646  -0.000049  -0.000306   0.000013
    20  H   -0.003268  -0.000137   0.004109   0.001562  -0.000618   0.000119
    21  C    0.000373   0.000035   0.000129  -0.000003   0.000033   0.000000
    22  H   -0.000362   0.000014   0.000012   0.000000   0.000000   0.000000
    23  H   -0.000355   0.000005   0.000016  -0.000004   0.000014  -0.000001
    24  H   -0.000014  -0.000002   0.000002   0.000000   0.000000   0.000000
    25  C    0.117493  -0.075162  -0.141799  -0.002175  -0.003265  -0.000518
    26  C   -0.072279   0.004439  -0.003162   0.000519  -0.011742   0.000126
    27  C   -0.024092   0.006405  -0.004529   0.000623   0.000751  -0.000017
    28  C    0.002694  -0.000224   0.001972   0.000042  -0.000101   0.000001
    29  H    0.000656  -0.000021  -0.003742  -0.000212   0.001856  -0.000057
    30  C    0.008199   0.001456  -0.000586  -0.000012   0.000056   0.000002
    31  H   -0.002042   0.002835   0.000155   0.000213  -0.000025  -0.000002
    32  C    0.001690   0.000006  -0.000062  -0.000013  -0.000006   0.000000
    33  H   -0.000372   0.000011   0.000028   0.000002   0.000039   0.000000
    34  H   -0.000408  -0.000034   0.000021   0.000001  -0.000001   0.000000
    35  H   -0.000026  -0.000002  -0.000002   0.000000   0.000001   0.000000
              7          8          9         10         11         12
     1  C   -0.000119   0.003307   0.000115   0.001274  -0.000340  -0.000350
     2  H    0.002387  -0.000261   0.000104   0.000000  -0.000039   0.000011
     3  C   -0.050639  -0.058166  -0.044505  -0.018760   0.006923   0.006020
     4  C    0.400381  -0.030663   0.004101  -0.086465  -0.039664  -0.000475
     5  C    0.004337   0.478812   0.388638  -0.091348  -0.000686  -0.038890
     6  C   -0.034782  -0.078681   0.000025   0.497914   0.396924   0.005966
     7  H    0.509561  -0.000280  -0.000272   0.005233  -0.004200   0.000025
     8  C   -0.000280   5.040827  -0.028529   0.491124   0.006241   0.397234
     9  H   -0.000272  -0.028529   0.497258   0.004554   0.000014  -0.003323
    10  C    0.005233   0.491124   0.004554   5.034114  -0.040680  -0.039839
    11  H   -0.004200   0.006241   0.000014  -0.040680   0.518080  -0.000205
    12  H    0.000025   0.397234  -0.003323  -0.039839  -0.000205   0.514776
    13  H   -0.000184  -0.042918  -0.000173   0.399656  -0.004586  -0.004468
    14  C    0.000151  -0.000540   0.001151   0.000039   0.000011   0.000025
    15  C   -0.000033   0.000019  -0.000178  -0.000002   0.000000   0.000000
    16  C    0.000288  -0.000348   0.000344   0.000115  -0.000002   0.000016
    17  C    0.000000   0.000004  -0.000110   0.000000   0.000000   0.000000
    18  H    0.000001   0.000000   0.000025   0.000000   0.000000   0.000000
    19  C   -0.000008  -0.000010   0.000072   0.000002   0.000000   0.000001
    20  H    0.000201  -0.000262  -0.000056  -0.000085   0.000007   0.000005
    21  C    0.000001   0.000002  -0.000039   0.000000   0.000000   0.000000
    22  H    0.000000   0.000000   0.000000   0.000000   0.000000   0.000000
    23  H    0.000000   0.000002   0.000005   0.000000   0.000000   0.000000
    24  H    0.000000   0.000000   0.000001   0.000000   0.000000   0.000000
    25  C    0.000347   0.001898  -0.002869  -0.000088   0.000025   0.000028
    26  C   -0.000008  -0.000386  -0.000917  -0.000025   0.000000   0.000056
    27  C    0.000273   0.000029  -0.000199  -0.000009   0.000001   0.000000
    28  C   -0.000001  -0.000101   0.000886   0.000001   0.000000   0.000002
    29  H    0.000001   0.001136   0.001521   0.000003   0.000001  -0.000058
    30  C    0.000006  -0.000001   0.000000   0.000000   0.000000   0.000000
    31  H    0.000067   0.000001  -0.000002  -0.000001   0.000000   0.000000
    32  C   -0.000002   0.000002  -0.000015   0.000000   0.000000   0.000000
    33  H    0.000000   0.000000  -0.000033   0.000000   0.000000   0.000001
    34  H    0.000000   0.000000   0.000000   0.000000   0.000000   0.000000
    35  H    0.000000   0.000000   0.000000   0.000000   0.000000   0.000000
             13         14         15         16         17         18
     1  C   -0.000012   0.033224  -0.031320  -0.085544   0.012260  -0.011376
     2  H   -0.000001  -0.062283   0.000726  -0.004725  -0.000114  -0.000271
     3  C   -0.001550  -0.093821   0.001522  -0.007293  -0.000818   0.000431
     4  C    0.007492  -0.001438  -0.000445   0.000564   0.000007  -0.000017
     5  C    0.007894  -0.006802   0.001643  -0.009130   0.000050   0.000056
     6  C   -0.042561  -0.000425   0.000020  -0.000096   0.000000   0.000000
     7  H   -0.000184   0.000151  -0.000033   0.000288   0.000000   0.000001
     8  C   -0.042918  -0.000540   0.000019  -0.000348   0.000004   0.000000
     9  H   -0.000173   0.001151  -0.000178   0.000344  -0.000110   0.000025
    10  C    0.399656   0.000039  -0.000002   0.000115   0.000000   0.000000
    11  H   -0.004586   0.000011   0.000000  -0.000002   0.000000   0.000000
    12  H   -0.004468   0.000025   0.000000   0.000016   0.000000   0.000000
    13  H    0.517398   0.000001   0.000000   0.000000   0.000000   0.000000
    14  C    0.000001   5.351746   0.499991   0.471741  -0.068709  -0.034877
    15  C    0.000000   0.499991   5.097597  -0.083964   0.454322   0.394080
    16  C    0.000000   0.471741  -0.083964   5.125179  -0.033323   0.004973
    17  C    0.000000  -0.068709   0.454322  -0.033323   5.078657  -0.036423
    18  H    0.000000  -0.034877   0.394080   0.004973  -0.036423   0.477545
    19  C    0.000000  -0.056863  -0.030218   0.463304  -0.073827  -0.000441
    20  H    0.000001  -0.044843   0.004494   0.397453  -0.000471  -0.000195
    21  C    0.000000  -0.020694  -0.089823  -0.085121   0.495323   0.005046
    22  H    0.000000   0.006479  -0.036845  -0.000406   0.395632  -0.003529
    23  H    0.000000   0.006144  -0.000434  -0.038286   0.005995   0.000017
    24  H    0.000000  -0.001453   0.007656   0.007446  -0.042152  -0.000170
    25  C   -0.000003  -0.065178  -0.012666   0.011455  -0.001630   0.001096
    26  C    0.000000   0.006720  -0.018442   0.000864  -0.000969  -0.000977
    27  C    0.000000  -0.000437   0.000878  -0.000285  -0.000113  -0.001040
    28  C    0.000000   0.000725  -0.001438   0.000015  -0.000040   0.000249
    29  H    0.000000   0.001471   0.001692   0.000007   0.000122   0.000051
    30  C    0.000000  -0.000761   0.000343   0.000005   0.000004  -0.000126
    31  H    0.000000   0.000494   0.000133   0.000012   0.000004   0.000092
    32  C    0.000000  -0.000067   0.000143   0.000000   0.000004   0.000108
    33  H    0.000000   0.000019   0.000003   0.000000  -0.000002   0.000037
    34  H    0.000000   0.000023  -0.000008   0.000000   0.000000   0.000011
    35  H    0.000000   0.000002  -0.000003   0.000000   0.000000   0.000010
             19         20         21         22         23         24
     1  C    0.008458  -0.003268   0.000373  -0.000362  -0.000355  -0.000014
     2  H    0.000601  -0.000137   0.000035   0.000014   0.000005  -0.000002
     3  C   -0.001646   0.004109   0.000129   0.000012   0.000016   0.000002
     4  C   -0.000049   0.001562  -0.000003   0.000000  -0.000004   0.000000
     5  C   -0.000306  -0.000618   0.000033   0.000000   0.000014   0.000000
     6  C    0.000013   0.000119   0.000000   0.000000  -0.000001   0.000000
     7  H   -0.000008   0.000201   0.000001   0.000000   0.000000   0.000000
     8  C   -0.000010  -0.000262   0.000002   0.000000   0.000002   0.000000
     9  H    0.000072  -0.000056  -0.000039   0.000000   0.000005   0.000001
    10  C    0.000002  -0.000085   0.000000   0.000000   0.000000   0.000000
    11  H    0.000000   0.000007   0.000000   0.000000   0.000000   0.000000
    12  H    0.000001   0.000005   0.000000   0.000000   0.000000   0.000000
    13  H    0.000000   0.000001   0.000000   0.000000   0.000000   0.000000
    14  C   -0.056863  -0.044843  -0.020694   0.006479   0.006144  -0.001453
    15  C   -0.030218   0.004494  -0.089823  -0.036845  -0.000434   0.007656
    16  C    0.463304   0.397453  -0.085121  -0.000406  -0.038286   0.007446
    17  C   -0.073827  -0.000471   0.495323   0.395632   0.005995  -0.042152
    18  H   -0.000441  -0.000195   0.005046  -0.003529   0.000017  -0.000170
    19  C    5.062520  -0.035160   0.480637   0.006010   0.397065  -0.043193
    20  H   -0.035160   0.489431   0.005227   0.000017  -0.003859  -0.000173
    21  C    0.480637   0.005227   5.042858  -0.041254  -0.040847   0.399481
    22  H    0.006010   0.000017  -0.041254   0.517809  -0.000213  -0.004463
    23  H    0.397065  -0.003859  -0.040847  -0.000213   0.517567  -0.004405
    24  H   -0.043193  -0.000173   0.399481  -0.004463  -0.004405   0.519368
    25  C   -0.000881   0.000807   0.000123   0.000058   0.000012   0.000001
    26  C   -0.000023  -0.000041  -0.000015   0.000025   0.000000   0.000001
    27  C    0.000009  -0.000006  -0.000004   0.000004   0.000000   0.000000
    28  C    0.000000   0.000000   0.000000  -0.000001   0.000000   0.000000
    29  H   -0.000057   0.000022   0.000000   0.000001  -0.000001   0.000000
    30  C    0.000000   0.000000   0.000000   0.000000   0.000000   0.000000
    31  H    0.000000  -0.000001   0.000000   0.000000   0.000000   0.000000
    32  C    0.000000   0.000000   0.000000  -0.000001   0.000000   0.000000
    33  H    0.000000   0.000000   0.000000   0.000000   0.000000   0.000000
    34  H    0.000000   0.000000   0.000000   0.000000   0.000000   0.000000
    35  H    0.000000   0.000000   0.000000   0.000000   0.000000   0.000000
             25         26         27         28         29         30
     1  C    0.117493  -0.072279  -0.024092   0.002694   0.000656   0.008199
     2  H   -0.075162   0.004439   0.006405  -0.000224  -0.000021   0.001456
     3  C   -0.141799  -0.003162  -0.004529   0.001972  -0.003742  -0.000586
     4  C   -0.002175   0.000519   0.000623   0.000042  -0.000212  -0.000012
     5  C   -0.003265  -0.011742   0.000751  -0.000101   0.001856   0.000056
     6  C   -0.000518   0.000126  -0.000017   0.000001  -0.000057   0.000002
     7  H    0.000347  -0.000008   0.000273  -0.000001   0.000001   0.000006
     8  C    0.001898  -0.000386   0.000029  -0.000101   0.001136  -0.000001
     9  H   -0.002869  -0.000917  -0.000199   0.000886   0.001521   0.000000
    10  C   -0.000088  -0.000025  -0.000009   0.000001   0.000003   0.000000
    11  H    0.000025   0.000000   0.000001   0.000000   0.000001   0.000000
    12  H    0.000028   0.000056   0.000000   0.000002  -0.000058   0.000000
    13  H   -0.000003   0.000000   0.000000   0.000000   0.000000   0.000000
    14  C   -0.065178   0.006720  -0.000437   0.000725   0.001471  -0.000761
    15  C   -0.012666  -0.018442   0.000878  -0.001438   0.001692   0.000343
    16  C    0.011455   0.000864  -0.000285   0.000015   0.000007   0.000005
    17  C   -0.001630  -0.000969  -0.000113  -0.000040   0.000122   0.000004
    18  H    0.001096  -0.000977  -0.001040   0.000249   0.000051  -0.000126
    19  C   -0.000881  -0.000023   0.000009   0.000000  -0.000057   0.000000
    20  H    0.000807  -0.000041  -0.000006   0.000000   0.000022   0.000000
    21  C    0.000123  -0.000015  -0.000004   0.000000   0.000000   0.000000
    22  H    0.000058   0.000025   0.000004  -0.000001   0.000001   0.000000
    23  H    0.000012   0.000000   0.000000   0.000000  -0.000001   0.000000
    24  H    0.000001   0.000001   0.000000   0.000000   0.000000   0.000000
    25  C    5.395011   0.451188   0.498297  -0.063627  -0.047371  -0.076747
    26  C    0.451188   5.096391  -0.063560   0.480231   0.386297  -0.029501
    27  C    0.498297  -0.063560   5.049511  -0.033895   0.004601   0.467950
    28  C   -0.063627   0.480231  -0.033895   5.046337  -0.027193  -0.077385
    29  H   -0.047371   0.386297   0.004601  -0.027193   0.497282  -0.000123
    30  C   -0.076747  -0.029501   0.467950  -0.077385  -0.000123   5.047536
    31  H   -0.045786   0.004761   0.394653  -0.000287  -0.000271  -0.033766
    32  C   -0.016171  -0.093544  -0.088979   0.490298   0.004630   0.499800
    33  H    0.005977  -0.038558  -0.000380   0.397017  -0.003389   0.005901
    34  H    0.007010  -0.000633  -0.039445   0.006269   0.000016   0.396362
    35  H   -0.001682   0.007989   0.007572  -0.042978  -0.000170  -0.042554
             31         32         33         34         35
     1  C   -0.002042   0.001690  -0.000372  -0.000408  -0.000026
     2  H    0.002835   0.000006   0.000011  -0.000034  -0.000002
     3  C    0.000155  -0.000062   0.000028   0.000021  -0.000002
     4  C    0.000213  -0.000013   0.000002   0.000001   0.000000
     5  C   -0.000025  -0.000006   0.000039  -0.000001   0.000001
     6  C   -0.000002   0.000000   0.000000   0.000000   0.000000
     7  H    0.000067  -0.000002   0.000000   0.000000   0.000000
     8  C    0.000001   0.000002   0.000000   0.000000   0.000000
     9  H   -0.000002  -0.000015  -0.000033   0.000000   0.000000
    10  C   -0.000001   0.000000   0.000000   0.000000   0.000000
    11  H    0.000000   0.000000   0.000000   0.000000   0.000000
    12  H    0.000000   0.000000   0.000001   0.000000   0.000000
    13  H    0.000000   0.000000   0.000000   0.000000   0.000000
    14  C    0.000494  -0.000067   0.000019   0.000023   0.000002
    15  C    0.000133   0.000143   0.000003  -0.000008  -0.000003
    16  C    0.000012   0.000000   0.000000   0.000000   0.000000
    17  C    0.000004   0.000004  -0.000002   0.000000   0.000000
    18  H    0.000092   0.000108   0.000037   0.000011   0.000010
    19  C    0.000000   0.000000   0.000000   0.000000   0.000000
    20  H   -0.000001   0.000000   0.000000   0.000000   0.000000
    21  C    0.000000   0.000000   0.000000   0.000000   0.000000
    22  H    0.000000  -0.000001   0.000000   0.000000   0.000000
    23  H    0.000000   0.000000   0.000000   0.000000   0.000000
    24  H    0.000000   0.000000   0.000000   0.000000   0.000000
    25  C   -0.045786  -0.016171   0.005977   0.007010  -0.001682
    26  C    0.004761  -0.093544  -0.038558  -0.000633   0.007989
    27  C    0.394653  -0.088979  -0.000380  -0.039445   0.007572
    28  C   -0.000287   0.490298   0.397017   0.006269  -0.042978
    29  H   -0.000271   0.004630  -0.003389   0.000016  -0.000170
    30  C   -0.033766   0.499800   0.005901   0.396362  -0.042554
    31  H    0.506589   0.005067   0.000025  -0.004075  -0.000178
    32  C    0.005067   5.033601  -0.039795  -0.041019   0.399457
    33  H    0.000025  -0.039795   0.514382  -0.000206  -0.004372
    34  H   -0.004075  -0.041019  -0.000206   0.517948  -0.004556
    35  H   -0.000178   0.399457  -0.004372  -0.004556   0.516938
 Mulliken atomic charges:
              1
     1  C   -0.615470
     2  H    0.211042
     3  C    0.072860
     4  C   -0.197425
     5  C   -0.087992
     6  C   -0.165573
     7  H    0.167272
     8  C   -0.179491
     9  H    0.182406
    10  C   -0.156727
    11  H    0.162176
    12  H    0.163442
    13  H    0.164015
    14  C    0.079034
    15  C   -0.159441
    16  C   -0.135261
    17  C   -0.183681
    18  H    0.205615
    19  C   -0.176010
    20  H    0.185718
    21  C   -0.151470
    22  H    0.161013
    23  H    0.161562
    24  H    0.162069
    25  C    0.066793
    26  C   -0.104825
    27  C   -0.174568
    28  C   -0.179468
    29  H    0.181299
    30  C   -0.166058
    31  H    0.171334
    32  C   -0.155132
    33  H    0.163667
    34  H    0.162724
    35  H    0.164555
 Sum of Mulliken atomic charges =   0.00000
 Mulliken charges with hydrogens summed into heavy atoms:
              1
     1  C   -0.404428
     3  C    0.072860
     4  C   -0.030153
     5  C    0.094414
     6  C   -0.003398
     8  C   -0.016049
    10  C    0.007288
    14  C    0.079034
    15  C    0.046174
    16  C    0.050456
    17  C   -0.022668
    19  C   -0.014448
    21  C    0.010599
    25  C    0.066793
    26  C    0.076474
    27  C   -0.003235
    28  C   -0.015802
    30  C   -0.003334
    32  C    0.009423
 Sum of Mulliken charges with hydrogens summed into heavy atoms =   0.00000
 Electronic spatial extent (au):  <R**2>=           4931.5339
 Charge=              0.0000 electrons
 Dipole moment (field-independent basis, Debye):
    X=             -0.0937    Y=             -0.1682    Z=             -0.0181  Tot=              0.1934
 Quadrupole moment (field-independent basis, Debye-Ang):
   XX=           -107.6157   YY=           -113.2619   ZZ=           -106.8927
   XY=             -2.7717   XZ=             -0.8813   YZ=              2.6370
 Traceless Quadrupole moment (field-independent basis, Debye-Ang):
   XX=              1.6410   YY=             -4.0052   ZZ=              2.3641
   XY=             -2.7717   XZ=             -0.8813   YZ=              2.6370
 Octapole moment (field-independent basis, Debye-Ang**2):
  XXX=            -27.6945  YYY=             10.3609  ZZZ=              0.8020  XYY=             36.6064
  XXY=              0.6655  XXZ=             -2.6799  XZZ=             -9.9754  YZZ=            -18.8072
  YYZ=             11.7507  XYZ=             -1.4794
 Hexadecapole moment (field-independent basis, Debye-Ang**3):
 XXXX=          -3054.3920 YYYY=          -2916.6181 ZZZZ=           -664.1014 XXXY=             63.4255
 XXXZ=            -14.2843 YYYX=            -67.0960 YYYZ=             73.8339 ZZZX=              6.5546
 ZZZY=             -2.3554 XXYY=          -1016.9148 XXZZ=           -627.6596 YYZZ=           -636.9927
 XXYZ=             -8.0040 YYXZ=             10.2988 ZZXY=            -33.0102
 N-N= 1.290717199829D+03 E-N=-4.277511106196D+03  KE= 7.286017995406D+02
 PrsmSu:  requested number of processors reduced to:  10 ShMem   1 Linda.
 Calling FoFJK, ICntrl=      2127 FMM=F ISym2X=0 I1Cent= 0 IOpClX= 0 NMat=1 NMatS=1 NMatT=0.
 ***** Axes restored to original set *****
 -------------------------------------------------------------------
 Center     Atomic                   Forces (Hartrees/Bohr)
 Number     Number              X              Y              Z
 -------------------------------------------------------------------
      1        6           0.009389657   -0.000821336   -0.021171958
      2        1          -0.012324526    0.006108485    0.021227032
      3        6          -0.009411848   -0.000350136   -0.010883078
      4        6           0.003818870    0.000442165   -0.004432480
      5        6           0.002439075   -0.000599044    0.011129670
      6        6          -0.007563068    0.000669872   -0.011417246
      7        1          -0.009986699   -0.000373832    0.014442110
      8        6          -0.005155496    0.000142464    0.011304702
      9        1          -0.015761064   -0.006001129   -0.022301071
     10        6          -0.013186141    0.000395604   -0.003926289
     11        1           0.006226881   -0.000703137    0.015421410
     12        1           0.010008040    0.000220030   -0.013404797
     13        1           0.016676467   -0.000394279    0.002077950
     14        6           0.006193282   -0.011259248    0.007756507
     15        6           0.005234038    0.010417781    0.003193854
     16        6          -0.005559741   -0.003080364   -0.005993151
     17        6           0.008164799   -0.002609796    0.009434215
     18        1          -0.006719071   -0.020091968   -0.005899782
     19        6          -0.005524164   -0.010095316   -0.005299573
     20        1           0.012494157   -0.000277158    0.014044270
     21        6           0.005260674   -0.010200718    0.007484737
     22        1          -0.011277283   -0.000819025   -0.012251229
     23        1           0.006299913    0.014656778    0.004741727
     24        1          -0.005025289    0.014004867   -0.007425754
     25        6           0.008610217    0.009794175   -0.004391713
     26        6          -0.008901171   -0.004228041    0.007532729
     27        6           0.001660248   -0.002575737   -0.005218894
     28        6          -0.004978173    0.001685807    0.011417784
     29        1           0.021272933    0.018543949   -0.008865592
     30        6           0.008564747    0.009300728   -0.005411107
     31        1          -0.005463243    0.004758641    0.016279483
     32        6           0.005890755    0.012017785    0.003119025
     33        1           0.004946577   -0.005008171   -0.015138644
     34        1          -0.010553954   -0.009167890    0.009094051
     35        1          -0.005760400   -0.014502806   -0.006268896
 -------------------------------------------------------------------
 Cartesian Forces:  Max     0.022301071 RMS     0.009554498

 GradGradGradGradGradGradGradGradGradGradGradGradGradGradGradGradGradGrad
 Berny optimization.
 Internal  Forces:  Max     0.028673619 RMS     0.007787879
 Search for a local minimum.
 Step number   1 out of a maximum of  197
 All quantities printed in internal units (Hartrees-Bohrs-Radians)
 Mixed Optimization -- RFO/linear search
 Second derivative matrix not updated -- first step.
     Eigenvalues ---    0.00635   0.00650   0.00656   0.01533   0.01538
     Eigenvalues ---    0.01539   0.02137   0.02142   0.02146   0.02171
     Eigenvalues ---    0.02172   0.02173   0.02182   0.02183   0.02184
     Eigenvalues ---    0.02201   0.02201   0.02202   0.02211   0.02211
     Eigenvalues ---    0.02212   0.02214   0.02215   0.02215   0.02216
     Eigenvalues ---    0.02217   0.02218   0.02220   0.02221   0.02225
     Eigenvalues ---    0.04559   0.06398   0.06627   0.15997   0.15998
     Eigenvalues ---    0.16000   0.16000   0.16000   0.16000   0.16000
     Eigenvalues ---    0.16000   0.16000   0.16000   0.16000   0.16000
     Eigenvalues ---    0.16000   0.16000   0.16000   0.18862   0.19338
     Eigenvalues ---    0.22000   0.22000   0.22000   0.22000   0.22000
     Eigenvalues ---    0.22000   0.23465   0.23477   0.23478   0.24967
     Eigenvalues ---    0.24999   0.25000   0.31257   0.31359   0.31473
     Eigenvalues ---    0.31522   0.33518   0.33597   0.33966   0.34054
     Eigenvalues ---    0.34076   0.34090   0.34254   0.34257   0.34258
     Eigenvalues ---    0.34262   0.34265   0.34267   0.34278   0.34280
     Eigenvalues ---    0.34290   0.42394   0.42463   0.42483   0.42565
     Eigenvalues ---    0.42575   0.42609   0.46326   0.46394   0.46435
     Eigenvalues ---    0.46735   0.46750   0.46801   0.47202   0.47208
     Eigenvalues ---    0.47218   0.47342   0.47355   0.474321000.00000
     Eigenvalues --- 1000.000001000.000001000.000001000.000001000.00000
     Eigenvalues --- 1000.000001000.000001000.000001000.000001000.00000
     Eigenvalues --- 1000.000001000.000001000.000001000.000001000.00000
     Eigenvalues --- 1000.000001000.000001000.000001000.000001000.00000
     Eigenvalues --- 1000.000001000.000001000.000001000.000001000.00000
     Eigenvalues --- 1000.000001000.000001000.000001000.000001000.00000
     Eigenvalues --- 1000.000001000.000001000.000001000.000001000.00000
     Eigenvalues --- 1000.000001000.000001000.000001000.000001000.00000
     Eigenvalues --- 1000.000001000.000001000.000001000.000001000.00000
     Eigenvalues --- 1000.000001000.000001000.000001000.000001000.00000
     Eigenvalues --- 1000.000001000.000001000.000001000.000001000.00000
     Eigenvalues --- 1000.000001000.000001000.000001000.000001000.00000
     Eigenvalues --- 1000.000001000.000001000.000001000.000001000.00000
     Eigenvalues --- 1000.000001000.000001000.000001000.000001000.00000
     Eigenvalues --- 1000.000001000.000001000.000001000.000001000.00000
     Eigenvalues --- 1000.000001000.000001000.000001000.000001000.00000
     Eigenvalues --- 1000.000001000.000001000.000001000.000001000.00000
     Eigenvalues --- 1000.000001000.00000
 RFO step:  Lambda=-4.18698867D-02 EMin= 6.34783802D-03
 Linear search not attempted -- first point.
 Maximum step size (   0.300) exceeded in Quadratic search.
    -- Step size scaled by   0.592
 Iteration  1 RMS(Cart)=  0.12553622 RMS(Int)=  0.00303441
 Iteration  2 RMS(Cart)=  0.00613599 RMS(Int)=  0.00028172
 Iteration  3 RMS(Cart)=  0.00001070 RMS(Int)=  0.00028166
 Iteration  4 RMS(Cart)=  0.00000000 RMS(Int)=  0.00028166
 Variable       Old X    -DE/DX   Delta X   Delta X   Delta X     New X
                                 (Linear)    (Quad)   (Total)
    R1        2.12225  -0.02488   0.00000  -0.04154  -0.04154   2.08071
    R2        2.85333   0.02287   0.00000   0.03808   0.03808   2.89141
    R3        2.85119   0.02346   0.00000   0.03894   0.03894   2.89013
    R4        2.85028   0.02363   0.00000   0.03917   0.03917   2.88945
    R5        2.63884  -0.00428   0.00000  -0.00497  -0.00496   2.63388
    R6        2.63878  -0.00010   0.00000  -0.00001   0.00001   2.63879
    R7        2.62790  -0.00228   0.00000  -0.00268  -0.00268   2.62522
    R8        2.07178  -0.01755   0.00000  -0.02713  -0.02713   2.04465
    R9        2.62556  -0.00467   0.00000  -0.00531  -0.00530   2.62026
   R10        2.08015  -0.02663   0.00000  -0.04170  -0.04170   2.03845
   R11        2.62745  -0.00879   0.00000  -0.01021  -0.01023   2.61721
   R12        2.06903  -0.01664   0.00000  -0.02562  -0.02562   2.04341
   R13        2.62872  -0.00533   0.00000  -0.00620  -0.00622   2.62250
   R14        2.06885  -0.01673   0.00000  -0.02575  -0.02575   2.04311
   R15        2.06860  -0.01681   0.00000  -0.02586  -0.02586   2.04274
   R16        2.63519  -0.00230   0.00000  -0.00254  -0.00254   2.63265
   R17        2.64389  -0.00204   0.00000  -0.00236  -0.00235   2.64154
   R18        2.62923  -0.00143   0.00000  -0.00158  -0.00158   2.62766
   R19        2.07387  -0.02191   0.00000  -0.03399  -0.03399   2.03988
   R20        2.62402  -0.00485   0.00000  -0.00562  -0.00562   2.61840
   R21        2.07239  -0.01877   0.00000  -0.02904  -0.02904   2.04335
   R22        2.62551  -0.00746   0.00000  -0.00860  -0.00861   2.61690
   R23        2.06898  -0.01667   0.00000  -0.02566  -0.02566   2.04332
   R24        2.62968  -0.00499   0.00000  -0.00590  -0.00591   2.62378
   R25        2.06889  -0.01664   0.00000  -0.02562  -0.02562   2.04328
   R26        2.06843  -0.01663   0.00000  -0.02558  -0.02558   2.04285
   R27        2.63956   0.00077   0.00000   0.00105   0.00106   2.64062
   R28        2.63941  -0.00428   0.00000  -0.00497  -0.00495   2.63446
   R29        2.62543  -0.00436   0.00000  -0.00492  -0.00493   2.62051
   R30        2.08152  -0.02867   0.00000  -0.04500  -0.04500   2.03651
   R31        2.62778  -0.00237   0.00000  -0.00281  -0.00281   2.62497
   R32        2.07202  -0.01781   0.00000  -0.02754  -0.02754   2.04448
   R33        2.62860  -0.00558   0.00000  -0.00649  -0.00651   2.62210
   R34        2.06882  -0.01669   0.00000  -0.02569  -0.02569   2.04313
   R35        2.62718  -0.00913   0.00000  -0.01063  -0.01065   2.61653
   R36        2.06897  -0.01668   0.00000  -0.02567  -0.02567   2.04330
   R37        2.06863  -0.01682   0.00000  -0.02587  -0.02587   2.04275
    A1        1.88365  -0.00869   0.00000  -0.04844  -0.04763   1.83603
    A2        1.82850   0.00382   0.00000   0.00019   0.00045   1.82895
    A3        1.87609  -0.00999   0.00000  -0.05148  -0.05057   1.82552
    A4        1.94619  -0.00320   0.00000   0.01222   0.01005   1.95624
    A5        1.92870   0.01536   0.00000   0.05442   0.05326   1.98196
    A6        1.99349   0.00079   0.00000   0.02151   0.01960   2.01309
    A7        2.08457  -0.00793   0.00000  -0.01604  -0.01609   2.06848
    A8        2.11766   0.01867   0.00000   0.03790   0.03783   2.15549
    A9        2.08095  -0.01075   0.00000  -0.02190  -0.02189   2.05906
   A10        2.09890   0.00740   0.00000   0.01632   0.01633   2.11522
   A11        2.09522  -0.00438   0.00000  -0.01017  -0.01018   2.08504
   A12        2.08906  -0.00301   0.00000  -0.00616  -0.00617   2.08290
   A13        2.10145   0.00420   0.00000   0.00945   0.00939   2.11085
   A14        2.07788   0.00375   0.00000   0.01256   0.01246   2.09034
   A15        2.10370  -0.00791   0.00000  -0.02161  -0.02172   2.08199
   A16        2.09781  -0.00030   0.00000  -0.00139  -0.00141   2.09640
   A17        2.09104   0.00036   0.00000   0.00132   0.00133   2.09238
   A18        2.09433  -0.00007   0.00000   0.00007   0.00008   2.09441
   A19        2.09601   0.00226   0.00000   0.00467   0.00467   2.10068
   A20        2.09176  -0.00103   0.00000  -0.00205  -0.00206   2.08971
   A21        2.09541  -0.00123   0.00000  -0.00261  -0.00262   2.09279
   A22        2.09123  -0.00280   0.00000  -0.00707  -0.00711   2.08412
   A23        2.09604   0.00138   0.00000   0.00347   0.00348   2.09952
   A24        2.09592   0.00143   0.00000   0.00361   0.00362   2.09954
   A25        2.13573   0.00722   0.00000   0.01455   0.01454   2.15026
   A26        2.06977   0.00069   0.00000   0.00130   0.00129   2.07106
   A27        2.07660  -0.00794   0.00000  -0.01611  -0.01610   2.06050
   A28        2.10149   0.00352   0.00000   0.00806   0.00807   2.10955
   A29        2.09251  -0.00011   0.00000   0.00079   0.00078   2.09330
   A30        2.08918  -0.00340   0.00000  -0.00885  -0.00886   2.08033
   A31        2.10347   0.00468   0.00000   0.01025   0.01026   2.11373
   A32        2.08449  -0.00124   0.00000  -0.00189  -0.00189   2.08260
   A33        2.09521  -0.00345   0.00000  -0.00837  -0.00837   2.08684
   A34        2.09922   0.00111   0.00000   0.00225   0.00225   2.10147
   A35        2.08889  -0.00049   0.00000  -0.00094  -0.00094   2.08795
   A36        2.09508  -0.00062   0.00000  -0.00132  -0.00131   2.09376
   A37        2.09666   0.00083   0.00000   0.00118   0.00117   2.09783
   A38        2.09181  -0.00042   0.00000  -0.00060  -0.00059   2.09122
   A39        2.09472  -0.00041   0.00000  -0.00058  -0.00058   2.09414
   A40        2.08892  -0.00221   0.00000  -0.00565  -0.00566   2.08325
   A41        2.09782   0.00106   0.00000   0.00271   0.00271   2.10054
   A42        2.09645   0.00114   0.00000   0.00294   0.00295   2.09939
   A43        2.12454   0.02281   0.00000   0.04628   0.04626   2.17080
   A44        2.07956  -0.01098   0.00000  -0.02222  -0.02224   2.05732
   A45        2.07906  -0.01183   0.00000  -0.02403  -0.02400   2.05507
   A46        2.10230   0.00451   0.00000   0.01021   0.01019   2.11250
   A47        2.07785   0.00439   0.00000   0.01444   0.01440   2.09225
   A48        2.10293  -0.00888   0.00000  -0.02446  -0.02450   2.07844
   A49        2.10010   0.00814   0.00000   0.01788   0.01791   2.11801
   A50        2.09452  -0.00469   0.00000  -0.01077  -0.01078   2.08374
   A51        2.08856  -0.00345   0.00000  -0.00712  -0.00713   2.08143
   A52        2.09632   0.00238   0.00000   0.00496   0.00494   2.10126
   A53        2.09150  -0.00111   0.00000  -0.00223  -0.00222   2.08927
   A54        2.09536  -0.00127   0.00000  -0.00272  -0.00271   2.09265
   A55        2.09784  -0.00022   0.00000  -0.00140  -0.00141   2.09643
   A56        2.09103   0.00029   0.00000   0.00122   0.00123   2.09226
   A57        2.09431  -0.00007   0.00000   0.00018   0.00018   2.09450
[...]
 29926,-0.00005697,-0.00001179,0.00016715,-0.00006083,-0.00010035,-0.00
 002153,0.00001558,0.00009885,-0.00014196,-0.00003879,-0.00010006,0.000
 02072,0.00005554,0.00000823,0.00003964,-0.00005660,0.00015591,0.000021
 66,0.00000033,0.00000353,0.00000776,-0.00000283,-0.00000064,-0.0000053
 5,0.00000531,0.00000827,0.00021937,-0.00078714,-0.00046077,0.00018070,
 0.00019960,-0.00006879,0.00030613,-0.00041705,0.00010531,0.00010928,-0
 .00040530,-0.00007025,-0.00021151,-0.00001426,-0.00011899,-0.00016945,
 0.00008702,-0.00028086,0.00002034,0.00001479,-0.00000978,0.00006297,0.
 00014987,0.00026278,0.00001310,-0.00000536,0.00001024,-0.00001439,-0.0
 0001968,0.00001569,-0.00000290,-0.00001420,0.00000263,-0.04404830,0.02
 065830,0.04382110,-0.00040027,-0.04656186,-0.03548349,0.02079238,-0.06
 432640,-0.13164933,0.06424504,0.02590474,-0.00689892,-0.00057302,-0.00
 022638,-0.00094742,-0.20580816,0.20302014,0.40597275,0.00043549,0.0023
 5259,0.00012228,-0.00022870,-0.00079510,-0.00129246,0.00001277,0.00002
 112,-0.00047508,-0.00001134,-0.00007279,0.00008034,0.00020575,-0.00008
 384,-0.00002898,0.00001603,0.00000384,-0.00001622,-0.00003309,0.000046
 36,-0.00001898,0.00004562,0.00004788,-0.00003589,-0.00000858,0.0000204
 5,0.00000084,0.00001971,-0.00000374,0.00000217,0.00000547,0.00000144,0
 .00000801,0.00002312,0.00001276,-0.00000118,0.00001102,0.00000455,-0.0
 0000168,0.00021647,-0.00018694,0.00005074,0.00000077,0.00015677,0.0001
 5223,-0.00003320,-0.00003712,0.00000988,-0.00002729,-0.00001736,-0.000
 01816,-0.00001371,-0.00001237,-0.00007493,0.00003346,-0.00006197,-0.00
 002179,-0.00003729,-0.00004313,-0.00002032,-0.00004039,0.00002196,-0.0
 0003423,-0.00001081,0.00001476,-0.00002969,0.00000031,0.00001580,0.000
 00169,-0.00000075,0.00001044,-0.00001547,-0.01018188,0.02226084,0.0215
 0683,-0.00433618,-0.00386570,0.00396048,-0.13907029,0.08411875,0.09634
 922,-0.00063161,-0.00075932,-0.00062826,-0.00061448,0.00114040,0.00097
 946,0.01236341,-0.01323348,-0.01136273,0.14099228,0.00001984,-0.000733
 85,0.00173820,-0.00034804,0.00055890,0.00051308,0.00003924,0.00020607,
 0.00016016,0.00010912,0.00005447,-0.00010124,-0.00000368,0.00002839,0.
 00003317,-0.00002281,-0.00001810,0.00000561,0.00000106,-0.00000457,0.0
 0002462,-0.00000231,-0.00003806,0.00002321,-0.00000550,-0.00000181,0.0
 0000766,0.00003004,0.00000937,-0.00000285,0.00001609,-0.00000607,0.000
 00686,0.00000554,-0.00000440,-0.00000652,0.00000441,-0.00000125,0.0000
 0287,-0.00007053,-0.00009239,0.00012792,-0.00000204,-0.00001196,-0.000
 03350,0.00005601,-0.00005972,-0.00003852,0.00001451,0.00001238,0.00004
 187,0.00000160,0.00003845,-0.00000740,-0.00000692,-0.00004599,-0.00000
 710,-0.00000447,-0.00000678,-0.00000213,-0.00002553,0.00001526,-0.0000
 0443,0.00000070,-0.00000156,-0.00001195,-0.00000171,0.00001354,0.00000
 461,-0.00000069,0.00001339,-0.00000722,-0.00673008,0.00881851,0.005463
 37,-0.00353267,0.00213030,-0.00182166,0.08443427,-0.17904925,-0.121967
 44,-0.00066973,-0.00032721,0.00072041,-0.00024976,0.00024539,0.0003526
 7,0.01835245,-0.01252786,-0.01997232,-0.08796293,0.18406154,-0.0020198
 8,0.00175272,-0.00185810,0.00035295,0.00011984,0.00005142,-0.00006485,
 -0.00022754,0.00020373,-0.00006689,0.00001443,0.00008937,-0.00011688,0
 .00001659,-0.00000530,0.00000015,0.00003156,-0.00003819,0.00000865,-0.
 00001106,-0.00003431,-0.00003138,0.00001210,0.00002751,0.00001204,-0.0
 0001600,-0.00003494,-0.00000568,-0.00000658,0.00000512,-0.00001222,-0.
 00000384,-0.00000538,-0.00000751,-0.00000004,-0.00000398,0.00000066,-0
 .00000295,-0.00000505,0.00023302,0.00040023,0.00039364,-0.00020528,-0.
 00013322,-0.00007338,-0.00021892,0.00037378,0.00000449,-0.00014626,0.0
 0016606,-0.00006591,0.00015886,-0.00010447,-0.00002817,0.00004570,0.00
 003199,0.00014460,0.00002836,-0.00001694,-0.00002789,-0.00001555,-0.00
 004818,-0.00009857,0.00002176,0.00000602,-0.00000333,0.00000557,-0.000
 00036,-0.00001767,0.00001531,-0.00000870,-0.00000017,0.00322750,-0.010
 25241,-0.00236282,0.00407353,-0.00143563,0.00517660,0.09661529,-0.1210
 1913,-0.17106077,-0.00057548,0.00080602,-0.00019626,0.00020132,-0.0003
 8501,-0.00038096,0.00786311,-0.00458941,-0.00102851,-0.10801804,0.1366
 2961,0.16928387,-0.00053896,0.00216175,0.00029929,0.00016989,-0.000054
 76,-0.00095543,0.00022146,-0.00025311,0.00054572,-0.00039413,-0.000200
 42,-0.00016076,0.00038634,-0.00003404,-0.00018653,0.00042415,0.0000157
 4,-0.00012758,-0.00002575,0.00003841,0.00006459,-0.00028624,0.00013358
 ,-0.00016517,0.00002191,0.00002807,-0.00001675,-0.00008278,-0.00015666
 ,0.00033423,-0.00000940,0.00000305,-0.00002456,-0.00001948,-0.00000006
 ,0.00001487,-0.00002083,-0.00000339,-0.00000141,0.00092193,0.00051928,
 -0.00017491,0.00021305,0.00010530,-0.00007465,0.00032925,-0.00033716,0
 .00001804,0.00005683,-0.00045602,-0.00007092,-0.00028555,-0.00016616,-
 0.00030389,-0.00020109,0.00008839,-0.00026881,0.00000511,0.00001168,-0
 .00000219,0.00006314,0.00016937,0.00027749,0.00002895,-0.00002364,0.00
 001246,-0.00003709,-0.00001489,0.00002076,0.00000260,-0.00001710,-0.00
 000300,-0.07500732,0.02055144,0.04729218,-0.01904246,-0.09226957,-0.04
 255838,0.08363107,0.04633990,-0.00718612,-0.32473611,-0.02451226,0.106
 33560,0.00181947,-0.00343835,0.00128727,-0.19521127,0.00855909,0.06208
 210,0.00047406,-0.00521950,0.00108253,0.67170115,0.00112159,-0.0008912
 4,0.00025757,-0.00028951,-0.00013747,0.00034540,0.00011809,-0.00012076
 ,-0.00022251,0.00000599,0.00000363,0.00010841,-0.00011993,0.00002839,-
 0.00009675,-0.00006080,0.00002045,0.00006443,0.00005533,-0.00004098,0.
 00000639,0.00007236,-0.00001392,0.00000767,0.00000374,-0.00001088,-0.0
 0000331,-0.00006818,0.00004333,-0.00004004,-0.00003525,-0.00000801,-0.
 00002794,-0.00002364,-0.00001227,0.00000409,-0.00001559,-0.00000641,-0
 .00000437,-0.00095412,-0.00011390,-0.00034678,0.00002968,-0.00024609,-
 0.00008956,-0.00001531,-0.00007440,0.00026755,-0.00001517,0.00014778,0
 .00006475,0.00003413,-0.00001530,0.00001392,0.00009772,-0.00003961,0.0
 0002737,-0.00002162,0.00002750,-0.00000080,0.00000752,-0.00011777,-0.0
 0005053,0.00000178,-0.00003484,0.00004440,0.00002816,-0.00003481,0.000
 00644,0.00000797,-0.00000319,0.00001158,0.02160174,-0.00620227,-0.0110
 3502,-0.03733070,0.01187396,0.02005960,-0.00827966,-0.04335675,-0.0288
 3496,-0.09518402,-0.15728409,0.00365212,-0.00361685,-0.00277089,-0.005
 14231,0.07872782,-0.22184563,-0.12437584,-0.00468503,-0.00196712,-0.00
 444281,0.14919076,0.68645462,0.00044149,-0.00116578,-0.00077204,-0.000
 38014,-0.00024883,0.00062787,-0.00004005,-0.00002866,-0.00041594,0.000
 20122,0.00017423,0.00012635,-0.00033901,0.00002707,0.00006371,-0.00028
 273,0.00001587,0.00009720,0.00002043,-0.00004141,-0.00005704,0.0002098
 7,-0.00008693,0.00009987,-0.00000748,-0.00000903,-0.00000370,0.0000040
 7,0.00010908,-0.00021188,-0.00000339,-0.00000411,0.00000595,-0.0000046
 1,-0.00000671,-0.00000388,0.00000495,0.00000006,-0.00000506,-0.0008731
 0,-0.00016802,0.00005842,-0.00014153,-0.00033992,0.00005286,-0.0002287
 4,0.00023523,0.00015193,-0.00007353,0.00033973,0.00000591,0.00013008,-
 0.00005030,0.00004613,0.00017810,-0.00008476,0.00020987,-0.00000593,0.
 00000877,0.00000160,-0.00001987,-0.00020641,-0.00019639,-0.00001350,-0
 .00002832,0.00004686,0.00003517,-0.00000983,-0.00000756,0.00000664,-0.
 00000308,0.00000410,0.04778870,-0.00945456,-0.03809137,-0.00812602,0.0
 4765798,0.04333516,-0.04248535,-0.05620031,-0.00401777,0.06400381,-0.0
 3207428,-0.13518357,0.00103897,-0.00547047,0.00517902,0.10491996,-0.08
 844569,-0.19119332,0.00146591,-0.00401818,0.00586142,-0.16079393,0.236
 40210,0.40065678,0.00044628,-0.00026482,-0.00046035,-0.00002783,-0.000
 10590,-0.00009237,0.00004920,0.00007188,0.00001930,-0.00001803,0.00000
 527,-0.00000097,0.00002522,0.00001166,0.00003403,0.00000327,0.00001343
 ,-0.00000919,-0.00000057,-0.00000686,-0.00001139,-0.00002408,0.0000071
 4,0.00000408,0.00000174,-0.00000863,-0.00000210,-0.00002044,0.00000296
 ,0.00000835,-0.00000228,-0.00000418,-0.00000263,0.00000090,-0.00000438
 ,-0.00000464,0.00000242,-0.00000436,-0.00000216,-0.00002278,-0.0000390
 1,-0.00001171,0.00000460,0.00003551,0.00000791,-0.00001051,-0.00001630
 ,-0.00000990,0.00001312,-0.00000144,0.00001560,0.00000194,-0.00001086,
 0.00003300,0.00000715,-0.00000455,-0.00000188,-0.00000482,-0.00000099,
 0.00000264,-0.00000126,0.00000168,-0.00000233,-0.00000531,0.00000617,-
 0.00000624,0.00000109,0.00000112,-0.00000055,-0.00000314,0.00000317,0.
 00000028,0.00045418,-0.00488154,0.00121427,0.01224557,-0.01285915,-0.0
 1119809,-0.00073921,-0.00078712,-0.00061963,-0.14076922,0.08544906,0.0
 9792663,0.00035162,0.00171061,-0.00163892,-0.00401459,-0.00404240,0.00
 407430,-0.00015251,0.00031784,-0.00035671,-0.00900401,0.02355936,0.021
 58394,0.14163319,0.00093317,-0.00033566,-0.00069605,-0.00013513,-0.000
 37988,-0.00012760,0.00030464,0.00003156,0.00006234,-0.00003760,0.00003
 359,-0.00000557,-0.00009916,0.00003860,-0.00000058,-0.00000660,-0.0000
 0174,0.00001808,0.00000937,-0.00001457,0.00002511,0.00000831,0.0000094
 8,0.00002113,0.00001718,-0.00002044,-0.00000844,-0.00005309,0.00002178
 ,-0.00000415,-0.00001130,0.00000010,-0.00001082,-0.00002537,-0.0000211
 4,0.00000539,-0.00001539,-0.00000702,-0.00000512,-0.00016321,0.0000330
 9,-0.00023117,-0.00001079,-0.00011135,0.00004140,0.00005357,-0.0001007
 7,0.00010150,-0.00001311,0.00000611,-0.00001230,0.00001622,0.00002150,
 -0.00006554,0.00000567,-0.00001052,-0.00000403,0.00000473,0.00002314,0
 .00001342,0.00001060,-0.00002688,0.00001214,0.00001765,-0.00001807,0.0
 0002313,0.00000521,-0.00001806,0.00000322,0.00000701,-0.00001025,0.000
 00458,-0.00506914,-0.00195409,-0.00385793,0.01820138,-0.01235329,-0.01
 998178,-0.00079662,-0.00033020,0.00077593,0.08546425,-0.18057677,-0.12
 297430,0.00064593,-0.00016907,0.00260610,-0.00365946,0.00243711,-0.002
 10310,0.00033427,-0.00029962,0.00040925,-0.00768025,0.01014829,0.00660
 053,-0.08979429,0.18397096,0.00053222,0.00019299,-0.00025963,-0.000006
 28,-0.00009149,-0.00007723,0.00007451,-0.00006430,0.00001847,-0.000076
 96,-0.00001519,-0.00000303,0.00002269,0.00001235,-0.00003143,0.0000407
 3,0.00002289,0.00000743,0.00002173,-0.00001743,-0.00000054,-0.00003324
 ,0.00002617,-0.00001306,0.00001062,0.00000487,-0.00000885,-0.00005044,
 -0.00000076,0.00003965,-0.00001923,-0.00000541,-0.00002602,-0.00001027
 ,-0.00000804,0.00000170,-0.00001508,-0.00000956,-0.00000434,-0.0001337
 8,-0.00005811,-0.00005203,0.00002209,0.00001542,0.00005229,-0.00000438
 ,-0.00003268,0.00004336,-0.00000866,0.00000101,-0.00002043,0.00000165,
 -0.00000416,-0.00002232,0.00001842,-0.00001380,0.00000446,-0.00000537,
 0.00000729,-0.00000356,-0.00000009,-0.00001896,-0.00000748,0.00000474,
 0.00000312,0.00000485,0.00000589,-0.00001378,-0.00000390,0.00000250,-0
 .00001110,0.00000367,0.00099190,-0.00441111,0.00549448,0.00763023,-0.0
 0423708,-0.00088959,-0.00074029,0.00071712,-0.00015735,0.09768323,-0.1
 2291474,-0.17238238,-0.00210825,0.00218339,-0.00262209,0.00433597,-0.0
 0184566,0.00565083,-0.00035682,0.00041347,-0.00083448,0.00279355,-0.00
 912669,-0.00131401,-0.10917327,0.13702166,0.17043835,-0.00054735,0.000
 28057,0.00038284,-0.00000236,-0.00004970,-0.00004605,0.00011864,-0.000
 20674,-0.00008466,-0.00005644,-0.00002455,0.00003968,-0.00008413,0.000
 01667,-0.00004536,-0.00000057,-0.00000598,0.00002306,0.00001518,-0.000
 00357,0.00001177,0.00002218,0.00001125,0.00000106,0.00000630,0.0000084
 5,-0.00000138,-0.00002231,0.00000634,-0.00001387,-0.00001815,0.0000098
 0,-0.00001031,-0.00001414,-0.00000264,0.00000886,-0.00001464,0.0000006
 0,-0.00000073,-0.00011740,0.00005919,-0.00012176,0.00003072,-0.0000155
 4,0.00005137,0.00005146,-0.00005424,0.00005538,-0.00000750,-0.00000105
 ,-0.00002401,-0.00001692,0.00001384,-0.00004428,0.00001307,-0.00001550
 ,-0.00000529,-0.00001136,0.00001079,-0.00000046,0.00001203,-0.00002565
 ,-0.00000150,-0.00000014,-0.00000533,0.00001815,-0.00000122,-0.0000220
 6,0.00000008,0.00000250,-0.00001618,0.00000628,0.00204816,-0.00384975,
 0.00122153,0.00072161,0.00031117,-0.00063983,-0.00866545,0.00080945,0.
 00776561,0.00161863,0.00110999,0.00428141,-0.00028261,0.00022694,-0.00
 035903,-0.32045830,-0.06662229,0.09799940,0.00023656,0.00069871,-0.002
 34175,-0.00954843,-0.00815742,0.00269560,-0.00071191,-0.00024982,0.000
 15479,0.33546026,-0.00119148,0.00010192,0.00061304,0.00003868,0.000081
 22,-0.00001694,0.00002534,-0.00044843,-0.00005465,-0.00007339,0.000004
 34,-0.00002040,-0.00006142,0.00002675,-0.00002240,0.00004156,0.0000139
 9,0.00001421,0.00000857,-0.00000337,0.00000171,-0.00002638,0.00003730,
 -0.00000006,0.00000351,-0.00001690,-0.00000371,-0.00004020,-0.00001850
 ,0.00002767,-0.00000799,0.00000351,-0.00000792,-0.00001535,-0.00000282
 ,0.00000689,-0.00000846,-0.00000269,-0.00000177,-0.00012411,0.00005327
 ,-0.00011127,0.00004185,-0.00003379,0.00002811,0.00003522,-0.00006445,
 0.00004076,0.00001707,-0.00001092,-0.00000875,-0.00003752,0.00000207,-
 0.00001671,0.00001543,-0.00000480,-0.00001402,-0.00001334,0.00000985,0
 .00000840,0.00002331,-0.00002624,0.00001591,-0.00000420,-0.00001100,0.
 00002175,-0.00000299,-0.00001400,0.00000393,-0.00000430,-0.00000956,0.
 00000590,-0.00322886,-0.00269330,-0.00538471,0.00044233,-0.00109637,-0
 .00033788,-0.03038197,-0.00083108,0.01160600,0.00064838,-0.00068807,-0
 .00604366,0.00016420,-0.00021822,0.00054110,-0.06646938,-0.08262148,0.
 01312469,0.00173737,-0.00017436,0.00215798,0.02283956,0.01053542,-0.00
 854439,0.00104705,0.00023274,-0.00033444,0.07406948,0.07805717,-0.0005
 4038,-0.00000276,0.00014137,0.00002095,0.00000598,-0.00005206,0.000054
 28,-0.00001133,-0.00010490,0.00000461,0.00000340,0.00005089,-0.0000459
 1,0.00001349,0.00002007,-0.00004738,0.00000420,0.00000683,0.00000270,-
 0.00000912,-0.00001561,0.00003175,-0.00000393,0.00002301,0.00000023,-0
 .00000455,-0.00000297,-0.00000215,0.00002268,-0.00003865,-0.00000701,-
 0.00000013,-0.00000049,0.00000040,-0.00000379,-0.00000390,0.00000162,-
 0.00000179,-0.00000234,0.00006298,0.00009136,0.00001474,-0.00001285,0.
 00001730,-0.00001007,0.00003168,-0.00001265,-0.00003096,-0.00001082,-0
 .00000910,0.00002699,0.00003360,-0.00001398,0.00000023,-0.00001304,0.0
 0000030,-0.00001197,-0.00000228,-0.00000395,-0.00000446,-0.00000839,0.
 00002196,0.00000276,0.00000610,0.00000728,-0.00001705,-0.00000342,0.00
 000044,0.00000008,0.00000324,0.00000567,-0.00000216,0.00133207,-0.0052
 8833,0.00523488,-0.00065148,-0.00035812,-0.00082675,-0.01118248,-0.004
 38597,0.00870664,0.00401568,-0.00623386,0.00279520,-0.00034594,0.00052
 517,-0.00076172,0.09814532,0.01325390,-0.09091346,-0.00169642,0.002630
 94,-0.00270289,0.02153507,0.00732297,-0.00107117,0.00097997,0.00032867
 ,-0.00036667,-0.10943264,-0.00987818,0.08237363,-0.00007714,0.00031615
 ,-0.00034488,0.00002295,-0.00009474,-0.00011482,0.00004094,-0.00002489
 ,-0.00001677,0.00000279,-0.00002774,0.00003422,-0.00002364,-0.00001893
 ,-0.00005136,-0.00000108,-0.00000553,0.00001692,0.00000881,0.00000212,
 0.00000445,0.00003849,-0.00000623,-0.00001094,0.00000227,0.00002402,-0
 .00000013,-0.00000184,0.00001299,-0.00000810,-0.00000948,0.00000257,-0
 .00001109,-0.00000599,-0.00000058,0.00000687,-0.00001175,-0.00000062,-
 0.00000165,0.00000959,0.00006168,0.00000727,0.00001832,0.00001299,0.00
 003575,0.00000425,-0.00000183,0.00000547,-0.00000719,-0.00000760,-0.00
 001889,-0.00001987,0.00000367,-0.00002228,0.00000252,-0.00000319,0.000
 00342,-0.00000326,0.00000175,-0.00000171,-0.00000020,-0.00000669,0.000
 00001,0.00000325,0.00000135,0.00000255,-0.00000043,-0.00000638,-0.0000
 0191,0.00000234,-0.00000695,0.00000132,-0.00090930,0.00074870,0.000427
 28,-0.00394981,-0.00195458,0.00532991,0.00010443,0.00086721,0.00491734
 ,-0.00746303,-0.03043769,-0.01205458,-0.00058116,-0.00129517,-0.000535
 13,0.01247110,0.01746656,0.00683873,0.00033976,0.00075745,0.00025698,-
 0.12601947,-0.11579094,-0.03091001,0.00029101,0.00178120,-0.00160506,0
 .00022402,0.00049242,-0.00225964,0.12549778,0.00017139,-0.00026264,0.0
 0040623,-0.00002634,0.00003671,0.00008551,0.00004117,-0.00007197,0.000
 01455,-0.00002327,-0.00003296,-0.00000956,-0.00003169,0.00000381,-0.00
 004812,0.00001542,-0.00001430,0.00001903,0.00000799,0.00000203,0.00002
 070,0.00001730,0.00000481,-0.00000880,0.00000561,0.00001161,0.00000271
 ,-0.00001685,0.00000441,0.00000137,-0.00000745,0.00000734,-0.00000749,
 -0.00001200,-0.00000536,0.00000832,-0.00001383,0.00000065,-0.00000001,
 -0.00010437,-0.00003213,-0.00010840,0.00001863,-0.00003840,0.00003841,
 0.00002560,-0.00003479,0.00005952,-0.00001273,0.00001110,-0.00004163,-
 0.00002333,0.00001950,-0.00005329,0.00001157,-0.00000889,0.00000733,0.
 00000096,0.00001169,0.00000342,0.00000775,-0.00002521,-0.00000272,0.00
 000419,-0.00001024,0.00002250,0.00000232,-0.00001515,-0.00000069,0.000
 00300,-0.00001536,0.00000493,0.00081308,0.00053722,0.00046454,-0.00252
 361,0.00317366,-0.00224143,0.00138040,0.00098265,-0.00540348,0.0009249
 5,-0.00161593,-0.00459326,-0.00001430,-0.00029690,-0.00012197,-0.01363
 707,-0.01234813,-0.00363344,-0.00050153,-0.00083405,-0.00022389,-0.115
 91806,-0.28393478,-0.08488068,0.00059288,-0.00024867,0.00261275,0.0016
 8477,-0.00016921,0.00196581,0.12713745,0.29520784,-0.00036359,0.000518
 06,-0.00062016,0.00009453,-0.00004184,-0.00005368,0.00005670,-0.000025
 15,0.00002175,-0.00002678,0.00003391,0.00000933,-0.00004872,0.00001149
 ,0.00001778,-0.00000004,0.00000611,0.00000303,0.00001365,-0.00001021,0
 .00000165,-0.00001232,-0.00000104,0.00000135,0.00000388,-0.00000026,-0
 .00000828,-0.00000470,-0.00000457,0.00000094,-0.00000793,-0.00000116,-
 0.00000709,-0.00000269,0.00000171,0.00000162,-0.00000408,-0.00000125,-
 0.00000010,0.00000401,0.00011801,0.00007068,-0.00001777,0.00000339,0.0
 0001646,-0.00002253,0.00003032,-0.00001045,-0.00000598,0.00000303,-0.0
 0000208,0.00002261,-0.00000864,-0.00000056,-0.00000091,0.00000622,0.00
 001290,0.00000449,0.00000298,-0.00000371,0.00000038,-0.00000228,-0.000
 00690,0.00000124,0.00000521,-0.00000195,0.00000010,-0.00000345,-0.0000
 0410,0.00000248,-0.00000411,0.00000182,0.00039627,0.00034382,-0.000968
 75,0.00497606,-0.00246539,0.00501697,0.00526832,-0.00514960,0.00283798
 ,0.00672612,0.01118926,0.00860566,0.00020957,0.00050864,0.00011807,-0.
 01203611,-0.01957871,-0.00071260,-0.00054273,-0.00089786,-0.00037476,-
 0.03092077,-0.08482653,-0.08408629,-0.00229928,0.00201488,-0.00265912,
 -0.00154393,0.00258381,-0.00245705,0.03008046,0.09564122,0.07523966||-
 0.00001843,-0.00000902,-0.00000259,0.00000254,0.00000076,0.00000387,0.
 00000398,0.00000155,-0.00000159,-0.00000255,0.00000421,-0.00000348,0.0
 0000425,0.00000012,-0.00000014,0.00000691,-0.00000075,-0.00000430,0.00
 000101,0.00000077,0.00000056,-0.00000511,0.00000186,-0.00000052,0.0000
 0203,0.00000147,0.00000135,-0.00000005,-0.00000330,0.00000686,-0.00000
 052,0.00000047,0.00000028,-0.00000089,-0.00000119,0.00000002,-0.000000
 21,-0.00000002,0.00000045,-0.00000504,-0.00002485,-0.00004571,0.000025
 07,-0.00003810,0.00006153,-0.00001676,0.00007056,0.00000390,-0.0000203
 4,0.00006951,-0.00000015,0.00000086,0.00000028,-0.00000420,0.00002625,
 -0.00003226,0.00005800,-0.00000014,-0.00000537,-0.00000487,-0.00000747
 ,-0.00003858,-0.00006128,0.00000256,-0.00000546,0.00000025,-0.00000363
 ,0.00000330,-0.00000670,0.00000130,0.00000359,0.00000673,0.00005786,-0
 .00000637,-0.00002186,-0.00000845,0.00004218,0.00002161,-0.00004622,-0
 .00002732,-0.00000742,-0.00003733,-0.00003387,0.00000289,-0.00000715,-
 0.00000523,-0.00000327,0.00000281,0.00003759,0.00002895,0.00000353,0.0
 0000217,-0.00000092,0.00003838,-0.00001005,-0.00002802,0.00000277,0.00
 000215,0.00000037,0.00000016,-0.00000229,-0.00000216,-0.00000199,0.000
 00146,0.00000155|||@


 TRUTH, IN SCIENCE, CAN BE DEFINED AS THE WORKING HYPOTHESIS 
 BEST FITTED TO OPEN THE WAY TO THE NEXT BETTER ONE.

                              -- KONRAD LORENZ
 Job cpu time:  0 days  0 hours  6 minutes 26.0 seconds.
 File lengths (MBytes):  RWF=    350 Int=      0 D2E=      0 Chk=      7 Scr=      1
 Normal termination of Gaussian 09 at Mon Sep 06 22:34:40 2021.
