 Entering Link 1 = b:\programy\g09w\l1.exe PID=      3136.
  
 Copyright (c) 1988,1990,1992,1993,1995,1998,2003,2009, Gaussian, Inc.
                  All Rights Reserved.
  
 This is part of the Gaussian(R) 09 program.  It is based on
 the Gaussian(R) 03 system (copyright 2003, Gaussian, Inc.),
 the Gaussian(R) 98 system (copyright 1998, Gaussian, Inc.),
 the Gaussian(R) 94 system (copyright 1995, Gaussian, Inc.),
 the Gaussian 92(TM) system (copyright 1992, Gaussian, Inc.),
 the Gaussian 90(TM) system (copyright 1990, Gaussian, Inc.),
 the Gaussian 88(TM) system (copyright 1988, Gaussian, Inc.),
 the Gaussian 86(TM) system (copyright 1986, Carnegie Mellon
 University), and the Gaussian 82(TM) system (copyright 1983,
 Carnegie Mellon University). Gaussian is a federally registered
 trademark of Gaussian, Inc.
  
 This software contains proprietary and confidential information,
 including trade secrets, belonging to Gaussian, Inc.
  
 This software is provided under written license and may be
 used, copied, transmitted, or stored only in accord with that
 written license.
  
 The following legend is applicable only to US Government
 contracts under FAR:
  
                    RESTRICTED RIGHTS LEGEND
  
 Use, reproduction and disclosure by the US Government is
 subject to restrictions as set forth in subparagraphs (a)
 and (c) of the Commercial Computer Software - Restricted
 Rights clause in FAR 52.227-19.
  
 Gaussian, Inc.
 340 Quinnipiac St., Bldg. 40, Wallingford CT 06492
  
  
 ---------------------------------------------------------------
 Warning -- This program may not be used in any manner that
 competes with the business of Gaussian, Inc. or will provide
 assistance to any competitor of Gaussian, Inc.  The licensee
 of this program is prohibited from giving any competitor of
 Gaussian, Inc. access to this program.  By using this program,
 the user acknowledges that Gaussian, Inc. is engaged in the
 business of creating and licensing software in the field of
 computational chemistry and represents and warrants to the
 licensee that it is not a competitor of Gaussian, Inc. and that
 it will not use this program in any manner prohibited above.
 ---------------------------------------------------------------
  

 Cite this work as:
 Gaussian 09, Revision A.02,
 M. J. Frisch, G. W. Trucks, H. B. Schlegel, G. E. Scuseria, 
 M. A. Robb, J. R. Cheeseman, G. Scalmani, V. Barone, B. Mennucci, 
 G. A. Petersson, H. Nakatsuji, M. Caricato, X. Li, H. P. Hratchian, 
 A. F. Izmaylov, J. Bloino, G. Zheng, J. L. Sonnenberg, M. Hada, 
 M. Ehara, K. Toyota, R. Fukuda, J. Hasegawa, M. Ishida, T. Nakajima, 
 Y. Honda, O. Kitao, H. Nakai, T. Vreven, J. A. Montgomery, Jr., 
 J. E. Peralta, F. Ogliaro, M. Bearpark, J. J. Heyd, E. Brothers, 
 K. N. Kudin, V. N. Staroverov, R. Kobayashi, J. Normand, 
 K. Raghavachari, A. Rendell, J. C. Burant, S. S. Iyengar, J. Tomasi, 
 M. Cossi, N. Rega, J. M. Millam, M. Klene, J. E. Knox, J. B. Cross, 
 V. Bakken, C. Adamo, J. Jaramillo, R. Gomperts, R. E. Stratmann, 
 O. Yazyev, A. J. Austin, R. Cammi, C. Pomelli, J. W. Ochterski, 
 R. L. Martin, K. Morokuma, V. G. Zakrzewski, G. A. Voth, 
 P. Salvador, J. J. Dannenberg, S. Dapprich, A. D. Daniels, 
 O. Farkas, J. B. Foresman, J. V. Ortiz, J. Cioslowski, 
 and D. J. Fox, Gaussian, Inc., Wallingford CT, 2009.
 
 ******************************************
 Gaussian 09:  IA32W-G09RevA.02 11-Jun-2009
                07-Sep-2021 
 ******************************************
 %nprocshared=12
 Will use up to   12 processors via shared memory.
 ----------------------------------------------
 # opt freq=noraman hf/6-311g geom=connectivity
 ----------------------------------------------
 1/18=20,19=15,38=1,57=2/1,3;
 2/9=110,12=2,17=6,18=5,40=1/2;
 3/5=4,6=6,11=9,16=1,25=1,30=1,71=1/1,2,3;
 4//1;
 5/5=2,38=5/2;
 6/7=2,8=2,9=2,10=2,28=1/1;
 7//1,2,3,16;
 1/18=20,19=15/3(2);
 2/9=110/2;
 99//99;
 2/9=110/2;
 3/5=4,6=6,11=9,16=1,25=1,30=1,71=1/1,2,3;
 4/5=5,16=3/1;
 5/5=2,38=5/2;
 7//1,2,3,16;
 1/18=20,19=15/3(-5);
 2/9=110/2;
 6/7=2,8=2,9=2,10=2,19=2,28=1/1;
 99/9=1/99;
 -----
 M0001
 -----
 Symbolic Z-matrix:
 Charge =  0 Multiplicity = 1
 C                     0.        0.       -0.77444 
 H                     0.        0.       -1.89911 
 C                    -0.41457  -1.38519  -0.34054 
 C                    -0.52455  -1.74252   1.00417 
 C                    -0.69784  -2.34077  -1.31987 
 C                    -0.91009  -3.02744   1.36548 
 H                    -0.29959  -0.98586   1.77694 
 C                    -1.08321  -3.62651  -0.95773 
 H                    -0.6166   -2.07796  -2.38134 
 C                    -1.19042  -3.97266   0.38472 
 H                    -0.99276  -3.29396   2.42407 
 H                    -1.30275  -4.36767  -1.73314 
 H                    -1.49427  -4.98526   0.66843 
 C                     1.4069    0.33357  -0.34054 
 C                     1.77135   0.41699   1.00417 
 C                     2.37609   0.56604  -1.31987 
 C                     3.07689   0.72556   1.36548 
 H                     1.00357   0.23348   1.77694 
 C                     3.68225   0.87517  -0.95773 
 H                     2.10787   0.50499  -2.38134 
 C                     4.03564   0.95539   0.38472 
 H                     3.34903   0.78722   2.42407 
 H                     4.43389   1.05562  -1.73314 
 H                     5.0645    1.19855   0.66843 
 C                    -0.99233   1.05162  -0.34054 
 C                    -1.24679   1.32554   1.00417 
 C                    -1.67824   1.77473  -1.31987 
 C                    -2.1668    2.30189   1.36548 
 H                    -0.70398   0.75238   1.77694 
 C                    -2.59904   2.75134  -0.95773 
 H                    -1.49126   1.57297  -2.38134 
 C                    -2.84521   3.01727   0.38472 
 H                    -2.35627   2.50674   2.42407 
 H                    -3.13114   3.31205  -1.73314 
 H                    -3.57023   3.78671   0.66843 
 

 GradGradGradGradGradGradGradGradGradGradGradGradGradGradGradGradGradGrad
 Berny optimization.
 Initialization pass.
                           ----------------------------
                           !    Initial Parameters    !
                           ! (Angstroms and Degrees)  !
 --------------------------                            --------------------------
 ! Name  Definition              Value          Derivative Info.                !
 --------------------------------------------------------------------------------
 ! R1    R(1,2)                  1.1247         estimate D2E/DX2                !
 ! R2    R(1,3)                  1.5096         estimate D2E/DX2                !
 ! R3    R(1,14)                 1.5096         estimate D2E/DX2                !
 ! R4    R(1,25)                 1.5096         estimate D2E/DX2                !
 ! R5    R(3,4)                  1.3957         estimate D2E/DX2                !
 ! R6    R(3,5)                  1.3973         estimate D2E/DX2                !
 ! R7    R(4,6)                  1.3893         estimate D2E/DX2                !
 ! R8    R(4,7)                  1.1047         estimate D2E/DX2                !
 ! R9    R(5,8)                  1.3902         estimate D2E/DX2                !
 ! R10   R(5,9)                  1.0965         estimate D2E/DX2                !
 ! R11   R(6,10)                 1.3907         estimate D2E/DX2                !
 ! R12   R(6,11)                 1.0948         estimate D2E/DX2                !
 ! R13   R(8,10)                 1.3905         estimate D2E/DX2                !
 ! R14   R(8,12)                 1.0949         estimate D2E/DX2                !
 ! R15   R(10,13)                1.0946         estimate D2E/DX2                !
 ! R16   R(14,15)                1.3957         estimate D2E/DX2                !
 ! R17   R(14,16)                1.3973         estimate D2E/DX2                !
 ! R18   R(15,17)                1.3893         estimate D2E/DX2                !
 ! R19   R(15,18)                1.1047         estimate D2E/DX2                !
 ! R20   R(16,19)                1.3902         estimate D2E/DX2                !
 ! R21   R(16,20)                1.0965         estimate D2E/DX2                !
 ! R22   R(17,21)                1.3907         estimate D2E/DX2                !
 ! R23   R(17,22)                1.0948         estimate D2E/DX2                !
 ! R24   R(19,21)                1.3905         estimate D2E/DX2                !
 ! R25   R(19,23)                1.0949         estimate D2E/DX2                !
 ! R26   R(21,24)                1.0946         estimate D2E/DX2                !
 ! R27   R(25,26)                1.3957         estimate D2E/DX2                !
 ! R28   R(25,27)                1.3973         estimate D2E/DX2                !
 ! R29   R(26,28)                1.3893         estimate D2E/DX2                !
 ! R30   R(26,29)                1.1047         estimate D2E/DX2                !
 ! R31   R(27,30)                1.3902         estimate D2E/DX2                !
 ! R32   R(27,31)                1.0965         estimate D2E/DX2                !
 ! R33   R(28,32)                1.3907         estimate D2E/DX2                !
 ! R34   R(28,33)                1.0948         estimate D2E/DX2                !
 ! R35   R(30,32)                1.3905         estimate D2E/DX2                !
 ! R36   R(30,34)                1.0949         estimate D2E/DX2                !
 ! R37   R(32,35)                1.0946         estimate D2E/DX2                !
 ! A1    A(2,1,3)              106.704          estimate D2E/DX2                !
 ! A2    A(2,1,14)             106.704          estimate D2E/DX2                !
 ! A3    A(2,1,25)             106.704          estimate D2E/DX2                !
 ! A4    A(3,1,14)             112.091          estimate D2E/DX2                !
 ! A5    A(3,1,25)             112.091          estimate D2E/DX2                !
 ! A6    A(14,1,25)            112.091          estimate D2E/DX2                !
 ! A7    A(1,3,4)              122.2411         estimate D2E/DX2                !
 ! A8    A(1,3,5)              118.7989         estimate D2E/DX2                !
 ! A9    A(4,3,5)              118.96           estimate D2E/DX2                !
 ! A10   A(3,4,6)              120.611          estimate D2E/DX2                !
 ! A11   A(3,4,7)              118.8529         estimate D2E/DX2                !
 ! A12   A(6,4,7)              120.536          estimate D2E/DX2                !
 ! A13   A(3,5,8)              120.4041         estimate D2E/DX2                !
 ! A14   A(3,5,9)              119.9692         estimate D2E/DX2                !
 ! A15   A(8,5,9)              119.6267         estimate D2E/DX2                !
 ! A16   A(4,6,10)             120.076          estimate D2E/DX2                !
 ! A17   A(4,6,11)             119.8403         estimate D2E/DX2                !
 ! A18   A(10,6,11)            120.0837         estimate D2E/DX2                !
 ! A19   A(5,8,10)             120.2043         estimate D2E/DX2                !
 ! A20   A(5,8,12)             119.8117         estimate D2E/DX2                !
 ! A21   A(10,8,12)            119.984          estimate D2E/DX2                !
 ! A22   A(6,10,8)             119.7446         estimate D2E/DX2                !
 ! A23   A(6,10,13)            120.1278         estimate D2E/DX2                !
 ! A24   A(8,10,13)            120.1276         estimate D2E/DX2                !
 ! A25   A(1,14,15)            122.2411         estimate D2E/DX2                !
 ! A26   A(1,14,16)            118.7989         estimate D2E/DX2                !
 ! A27   A(15,14,16)           118.96           estimate D2E/DX2                !
 ! A28   A(14,15,17)           120.611          estimate D2E/DX2                !
 ! A29   A(14,15,18)           118.8529         estimate D2E/DX2                !
 ! A30   A(17,15,18)           120.536          estimate D2E/DX2                !
 ! A31   A(14,16,19)           120.4041         estimate D2E/DX2                !
 ! A32   A(14,16,20)           119.9692         estimate D2E/DX2                !
 ! A33   A(19,16,20)           119.6267         estimate D2E/DX2                !
 ! A34   A(15,17,21)           120.076          estimate D2E/DX2                !
 ! A35   A(15,17,22)           119.8403         estimate D2E/DX2                !
 ! A36   A(21,17,22)           120.0837         estimate D2E/DX2                !
 ! A37   A(16,19,21)           120.2043         estimate D2E/DX2                !
 ! A38   A(16,19,23)           119.8117         estimate D2E/DX2                !
 ! A39   A(21,19,23)           119.984          estimate D2E/DX2                !
 ! A40   A(17,21,19)           119.7446         estimate D2E/DX2                !
 ! A41   A(17,21,24)           120.1278         estimate D2E/DX2                !
 ! A42   A(19,21,24)           120.1276         estimate D2E/DX2                !
 ! A43   A(1,25,26)            122.2411         estimate D2E/DX2                !
 ! A44   A(1,25,27)            118.7989         estimate D2E/DX2                !
 ! A45   A(26,25,27)           118.96           estimate D2E/DX2                !
 ! A46   A(25,26,28)           120.611          estimate D2E/DX2                !
 ! A47   A(25,26,29)           118.8529         estimate D2E/DX2                !
 ! A48   A(28,26,29)           120.536          estimate D2E/DX2                !
 ! A49   A(25,27,30)           120.4041         estimate D2E/DX2                !
 ! A50   A(25,27,31)           119.9692         estimate D2E/DX2                !
 ! A51   A(30,27,31)           119.6267         estimate D2E/DX2                !
 ! A52   A(26,28,32)           120.076          estimate D2E/DX2                !
 ! A53   A(26,28,33)           119.8403         estimate D2E/DX2                !
 ! A54   A(32,28,33)           120.0837         estimate D2E/DX2                !
 ! A55   A(27,30,32)           120.2043         estimate D2E/DX2                !
 ! A56   A(27,30,34)           119.8117         estimate D2E/DX2                !
 ! A57   A(32,30,34)           119.984          estimate D2E/DX2                !
 ! A58   A(28,32,30)           119.7446         estimate D2E/DX2                !
 ! A59   A(28,32,35)           120.1278         estimate D2E/DX2                !
 ! A60   A(30,32,35)           120.1276         estimate D2E/DX2                !
 ! D1    D(2,1,3,4)           -179.8586         estimate D2E/DX2                !
 ! D2    D(2,1,3,5)              0.1216         estimate D2E/DX2                !
 ! D3    D(14,1,3,4)            63.6755         estimate D2E/DX2                !
 ! D4    D(14,1,3,5)          -116.3442         estimate D2E/DX2                !
 ! D5    D(25,1,3,4)           -63.3927         estimate D2E/DX2                !
 ! D6    D(25,1,3,5)           116.5875         estimate D2E/DX2                !
 ! D7    D(2,1,14,15)         -179.8586         estimate D2E/DX2                !
 ! D8    D(2,1,14,16)            0.1216         estimate D2E/DX2                !
 ! D9    D(3,1,14,15)          -63.3927         estimate D2E/DX2                !
 ! D10   D(3,1,14,16)          116.5875         estimate D2E/DX2                !
 ! D11   D(25,1,14,15)          63.6755         estimate D2E/DX2                !
 ! D12   D(25,1,14,16)        -116.3442         estimate D2E/DX2                !
 ! D13   D(2,1,25,26)         -179.8586         estimate D2E/DX2                !
 ! D14   D(2,1,25,27)            0.1216         estimate D2E/DX2                !
 ! D15   D(3,1,25,26)           63.6755         estimate D2E/DX2                !
 ! D16   D(3,1,25,27)         -116.3442         estimate D2E/DX2                !
 ! D17   D(14,1,25,26)         -63.3927         estimate D2E/DX2                !
 ! D18   D(14,1,25,27)         116.5875         estimate D2E/DX2                !
 ! D19   D(1,3,4,6)            179.9501         estimate D2E/DX2                !
 ! D20   D(1,3,4,7)             -0.0565         estimate D2E/DX2                !
 ! D21   D(5,3,4,6)             -0.0301         estimate D2E/DX2                !
 ! D22   D(5,3,4,7)            179.9633         estimate D2E/DX2                !
 ! D23   D(1,3,5,8)           -179.9701         estimate D2E/DX2                !
 ! D24   D(1,3,5,9)              0.0294         estimate D2E/DX2                !
 ! D25   D(4,3,5,8)              0.0108         estimate D2E/DX2                !
 ! D26   D(4,3,5,9)           -179.9897         estimate D2E/DX2                !
 ! D27   D(3,4,6,10)             0.0232         estimate D2E/DX2                !
 ! D28   D(3,4,6,11)          -179.9704         estimate D2E/DX2                !
 ! D29   D(7,4,6,10)          -179.9701         estimate D2E/DX2                !
 ! D30   D(7,4,6,11)             0.0363         estimate D2E/DX2                !
 ! D31   D(3,5,8,10)             0.0153         estimate D2E/DX2                !
 ! D32   D(3,5,8,12)          -179.9923         estimate D2E/DX2                !
 ! D33   D(9,5,8,10)          -179.9841         estimate D2E/DX2                !
 ! D34   D(9,5,8,12)             0.0082         estimate D2E/DX2                !
 ! D35   D(4,6,10,8)             0.0032         estimate D2E/DX2                !
 ! D36   D(4,6,10,13)         -179.9988         estimate D2E/DX2                !
 ! D37   D(11,6,10,8)          179.9968         estimate D2E/DX2                !
 ! D38   D(11,6,10,13)          -0.0052         estimate D2E/DX2                !
 ! D39   D(5,8,10,6)            -0.0224         estimate D2E/DX2                !
 ! D40   D(5,8,10,13)          179.9797         estimate D2E/DX2                !
 ! D41   D(12,8,10,6)          179.9853         estimate D2E/DX2                !
 ! D42   D(12,8,10,13)          -0.0127         estimate D2E/DX2                !
 ! D43   D(1,14,15,17)         179.9501         estimate D2E/DX2                !
 ! D44   D(1,14,15,18)          -0.0565         estimate D2E/DX2                !
 ! D45   D(16,14,15,17)         -0.0301         estimate D2E/DX2                !
 ! D46   D(16,14,15,18)        179.9633         estimate D2E/DX2                !
 ! D47   D(1,14,16,19)        -179.9701         estimate D2E/DX2                !
 ! D48   D(1,14,16,20)           0.0294         estimate D2E/DX2                !
 ! D49   D(15,14,16,19)          0.0108         estimate D2E/DX2                !
 ! D50   D(15,14,16,20)       -179.9897         estimate D2E/DX2                !
 ! D51   D(14,15,17,21)          0.0232         estimate D2E/DX2                !
 ! D52   D(14,15,17,22)       -179.9704         estimate D2E/DX2                !
 ! D53   D(18,15,17,21)       -179.9701         estimate D2E/DX2                !
 ! D54   D(18,15,17,22)          0.0363         estimate D2E/DX2                !
 ! D55   D(14,16,19,21)          0.0153         estimate D2E/DX2                !
 ! D56   D(14,16,19,23)       -179.9923         estimate D2E/DX2                !
 ! D57   D(20,16,19,21)       -179.9841         estimate D2E/DX2                !
 ! D58   D(20,16,19,23)          0.0082         estimate D2E/DX2                !
 ! D59   D(15,17,21,19)          0.0032         estimate D2E/DX2                !
 ! D60   D(15,17,21,24)       -179.9988         estimate D2E/DX2                !
 ! D61   D(22,17,21,19)        179.9968         estimate D2E/DX2                !
 ! D62   D(22,17,21,24)         -0.0052         estimate D2E/DX2                !
 ! D63   D(16,19,21,17)         -0.0224         estimate D2E/DX2                !
 ! D64   D(16,19,21,24)        179.9796         estimate D2E/DX2                !
 ! D65   D(23,19,21,17)        179.9853         estimate D2E/DX2                !
 ! D66   D(23,19,21,24)         -0.0127         estimate D2E/DX2                !
 ! D67   D(1,25,26,28)         179.9501         estimate D2E/DX2                !
 ! D68   D(1,25,26,29)          -0.0565         estimate D2E/DX2                !
 ! D69   D(27,25,26,28)         -0.0301         estimate D2E/DX2                !
 ! D70   D(27,25,26,29)        179.9633         estimate D2E/DX2                !
 ! D71   D(1,25,27,30)        -179.9701         estimate D2E/DX2                !
 ! D72   D(1,25,27,31)           0.0294         estimate D2E/DX2                !
 ! D73   D(26,25,27,30)          0.0108         estimate D2E/DX2                !
 ! D74   D(26,25,27,31)       -179.9897         estimate D2E/DX2                !
 ! D75   D(25,26,28,32)          0.0232         estimate D2E/DX2                !
 ! D76   D(25,26,28,33)       -179.9704         estimate D2E/DX2                !
 ! D77   D(29,26,28,32)       -179.9701         estimate D2E/DX2                !
 ! D78   D(29,26,28,33)          0.0363         estimate D2E/DX2                !
 ! D79   D(25,27,30,32)          0.0153         estimate D2E/DX2                !
 ! D80   D(25,27,30,34)       -179.9923         estimate D2E/DX2                !
 ! D81   D(31,27,30,32)       -179.9841         estimate D2E/DX2                !
 ! D82   D(31,27,30,34)          0.0082         estimate D2E/DX2                !
 ! D83   D(26,28,32,30)          0.0032         estimate D2E/DX2                !
 ! D84   D(26,28,32,35)       -179.9988         estimate D2E/DX2                !
 ! D85   D(33,28,32,30)        179.9968         estimate D2E/DX2                !
 ! D86   D(33,28,32,35)         -0.0052         estimate D2E/DX2                !
 ! D87   D(27,30,32,28)         -0.0224         estimate D2E/DX2                !
 ! D88   D(27,30,32,35)        179.9796         estimate D2E/DX2                !
 ! D89   D(34,30,32,28)        179.9853         estimate D2E/DX2                !
 ! D90   D(34,30,32,35)         -0.0127         estimate D2E/DX2                !
 --------------------------------------------------------------------------------
 Trust Radius=3.00D-01 FncErr=1.00D-07 GrdErr=1.00D-07
 Number of steps in this run= 197 maximum allowed number of steps= 210.
 GradGradGradGradGradGradGradGradGradGradGradGradGradGradGradGradGradGrad

                          Input orientation:                          
 ---------------------------------------------------------------------
 Center     Atomic      Atomic             Coordinates (Angstroms)
 Number     Number       Type             X           Y           Z
 ---------------------------------------------------------------------
      1          6           0        0.000000    0.000000   -0.774438
      2          1           0        0.000000    0.000000   -1.899115
      3          6           0       -0.414567   -1.385195   -0.340538
      4          6           0       -0.524552   -1.742524    1.004170
      5          6           0       -0.697843   -2.340769   -1.319867
      6          6           0       -0.910093   -3.027443    1.365481
      7          1           0       -0.299590   -0.985858    1.776938
      8          6           0       -1.083211   -3.626507   -0.957733
      9          1           0       -0.616601   -2.077959   -2.381344
     10          6           0       -1.190425   -3.972662    0.384717
     11          1           0       -0.992762   -3.293960    2.424072
     12          1           0       -1.302752   -4.367669   -1.733142
     13          1           0       -1.494274   -4.985265    0.668430
     14          6           0        1.406897    0.333572   -0.340538
     15          6           0        1.771346    0.416987    1.004170
     16          6           0        2.376087    0.566035   -1.319867
     17          6           0        3.076889    0.725558    1.365481
     18          1           0        1.003573    0.233477    1.776938
     19          6           0        3.682252    0.875165   -0.957733
     20          1           0        2.107865    0.504987   -2.381344
     21          6           0        4.035639    0.955393    0.384717
     22          1           0        3.349034    0.787223    2.424072
     23          1           0        4.433889    1.055618   -1.733142
     24          1           0        5.064503    1.198553    0.668430
     25          6           0       -0.992330    1.051623   -0.340538
     26          6           0       -1.246794    1.325537    1.004170
     27          6           0       -1.678245    1.774734   -1.319867
     28          6           0       -2.166796    2.301885    1.365481
     29          1           0       -0.703984    0.752382    1.776938
     30          6           0       -2.599041    2.751341   -0.957733
     31          1           0       -1.491265    1.572971   -2.381344
     32          6           0       -2.845214    3.017269    0.384717
     33          1           0       -2.356272    2.506737    2.424072
     34          1           0       -3.131137    3.312051   -1.733142
     35          1           0       -3.570229    3.786712    0.668430
 ---------------------------------------------------------------------
                    Distance matrix (angstroms):
                    1          2          3          4          5
     1  C    0.000000
     2  H    1.124676   0.000000
     3  C    1.509603   2.125980   0.000000
     4  C    2.544601   3.426457   1.395715   0.000000
     5  C    2.502734   2.510321   1.397302   2.406050   0.000000
     6  C    3.817451   4.544366   2.419302   1.389318   2.779867
     7  H    2.751580   3.817726   2.157868   1.104681   3.403615
     8  C    3.789260   3.900140   2.418986   2.776789   1.390241
     9  H    2.698194   2.220508   2.164631   3.403336   1.096541
    10  C    4.306135   4.734453   2.796952   2.408449   2.410667
    11  H    4.697469   5.525006   3.408924   2.154598   3.874613
    12  H    4.657554   4.560838   3.409307   3.871674   2.155234
    13  H    5.400703   5.803275   3.891566   3.401243   3.403085
    14  C    1.509603   2.125980   2.504374   3.138297   3.541344
    15  C    2.544601   3.426457   3.135971   3.151925   4.370728
    16  C    2.502734   2.510321   3.543182   4.375420   4.230669
    17  C    3.817451   4.544366   4.422221   4.380907   5.555362
    18  H    2.751580   3.817726   3.019093   2.614750   4.371700
    19  C    3.789260   3.900140   4.719543   5.329030   5.445972
    20  H    2.698194   2.220508   3.755042   4.841759   4.134859
    21  C    4.306135   4.734453   5.080224   5.334587   6.014660
    22  H    4.697469   5.525006   5.150452   4.839463   6.338661
    23  H    4.657554   4.560838   5.603966   6.317326   6.167732
    24  H    5.400703   5.803275   6.141171   6.324570   7.048741
    25  C    1.509603   2.125980   2.504374   3.135971   3.543182
    26  C    2.544601   3.426457   3.138297   3.151926   4.375420
    27  C    2.502734   2.510321   3.541344   4.370728   4.230669
    28  C    3.817451   4.544366   4.424405   4.380041   5.560859
    29  H    2.751580   3.817726   3.022697   2.617999   4.376965
    30  C    3.789260   3.900140   4.718452   5.324227   5.447503
    31  H    2.698194   2.220508   3.751654   4.836191   4.132023
    32  C    4.306135   4.734453   5.080918   5.331494   6.018753
    33  H    4.697469   5.525006   5.153680   4.840200   6.345533
    34  H    4.657554   4.560838   5.602072   6.311568   6.168152
    35  H    5.400703   5.803275   6.142055   6.321497   7.053365
                    6          7          8          9         10
     6  C    0.000000
     7  H    2.170272   0.000000
     8  C    2.405446   3.881432   0.000000
     9  H    3.876384   4.310973   2.154621   0.000000
    10  C    1.390656   3.413629   1.390500   3.401509   0.000000
    11  H    1.094752   2.495316   3.399320   4.971134   2.158397
    12  H    3.398801   4.976308   1.094888   2.476640   2.157307
    13  H    2.158753   4.318717   2.158611   4.303935   1.094615
    14  C    4.424405   3.022697   4.718452   3.751654   5.080918
    15  C    4.380041   2.617999   5.324227   4.836191   5.331494
    16  C    5.560860   4.376965   5.447503   4.132023   6.018753
    17  C    5.475494   3.807736   6.453233   5.961565   6.422237
    18  H    3.803290   1.784660   5.170355   5.025834   4.944038
    19  C    6.458894   5.176572   6.555508   5.406269   7.003326
    20  H    5.968654   5.030882   5.410996   3.754241   6.211212
    21  C    6.425352   4.949843   6.999900   6.204486   7.183138
    22  H    5.814847   4.107926   7.110725   6.857663   6.886375
    23  H    7.404795   6.236514   7.277495   5.978872   7.835932
    24  H    7.351239   5.896943   7.982480   7.232675   8.120719
    25  C    4.422221   3.019093   4.719543   3.755042   5.080224
    26  C    4.380907   2.614750   5.329030   4.841759   5.334587
    27  C    5.555362   4.371700   5.445972   4.134859   6.014660
    28  C    5.475494   3.803290   6.458894   5.968654   6.425352
    29  H    3.807736   1.784660   5.176572   5.030882   4.949843
    30  C    6.453233   5.170355   6.555508   5.410996   6.999900
    31  H    5.961565   5.025834   5.406269   3.754241   6.204486
    32  C    6.422237   4.944038   7.003326   6.211212   7.183138
    33  H    5.817147   4.104503   7.118565   6.865705   6.892081
    34  H    7.397546   6.229795   7.275908   5.982914   7.830628
    35  H    7.348123   5.890951   7.986581   7.240124   8.121074
                   11         12         13         14         15
    11  H    0.000000
    12  H    4.304808   0.000000
    13  H    2.488837   2.487097   0.000000
    14  C    5.153680   5.602072   6.142055   0.000000
    15  C    4.840200   6.311568   6.321497   1.395715   0.000000
    16  C    6.345533   6.168152   7.053365   1.397302   2.406050
    17  C    5.817147   7.397546   7.348123   2.419302   1.389318
    18  H    4.104503   6.229795   5.890951   2.157868   1.104681
    19  C    7.118565   7.275908   7.986581   2.418986   2.776789
    20  H    6.865705   5.982914   7.240124   2.164631   3.403336
    21  C    6.892081   7.830628   8.121075   2.796952   2.408449
    22  H    5.958795   8.092864   7.737023   3.408924   2.154598
    23  H    8.102456   7.894371   8.797894   3.409307   3.871674
    24  H    7.743088   8.791605   9.014276   3.891566   3.401243
    25  C    5.150452   5.603966   6.141171   2.504374   3.138297
    26  C    4.839463   6.317326   6.324571   3.135971   3.151926
    27  C    6.338661   6.167732   7.048741   3.543182   4.375420
    28  C    5.814847   7.404795   7.351239   4.422221   4.380907
    29  H    4.107926   6.236514   5.896943   3.019093   2.614750
    30  C    7.110725   7.277495   7.982480   4.719543   5.329030
    31  H    6.857663   5.978872   7.232675   3.755042   4.841759
    32  C    6.886375   7.835932   8.120719   5.080224   5.334587
    33  H    5.958795   8.102456   7.743088   5.150452   4.839463
    34  H    8.092864   7.894371   8.791605   5.603966   6.317326
    35  H    7.737023   8.797894   9.014276   6.141171   6.324571
                   16         17         18         19         20
    16  C    0.000000
    17  C    2.779867   0.000000
    18  H    3.403615   2.170272   0.000000
    19  C    1.390241   2.405446   3.881432   0.000000
    20  H    1.096541   3.876384   4.310973   2.154621   0.000000
    21  C    2.410667   1.390656   3.413629   1.390500   3.401509
    22  H    3.874613   1.094752   2.495316   3.399320   4.971134
    23  H    2.155234   3.398801   4.976308   1.094888   2.476640
    24  H    3.403084   2.158753   4.318717   2.158611   4.303935
    25  C    3.541344   4.424405   3.022697   4.718452   3.751654
    26  C    4.370728   4.380041   2.617999   5.324227   4.836191
    27  C    4.230669   5.560860   4.376965   5.447503   4.132023
    28  C    5.555363   5.475494   3.807736   6.453233   5.961565
    29  H    4.371700   3.803290   1.784660   5.170355   5.025834
    30  C    5.445972   6.458894   5.176572   6.555508   5.406269
    31  H    4.134859   5.968654   5.030881   5.410996   3.754241
    32  C    6.014660   6.425352   4.949843   6.999900   6.204486
    33  H    6.338661   5.814848   4.107926   7.110725   6.857663
    34  H    6.167732   7.404795   6.236514   7.277495   5.978872
    35  H    7.048741   7.351239   5.896943   7.982480   7.232675
                   21         22         23         24         25
    21  C    0.000000
    22  H    2.158397   0.000000
    23  H    2.157307   4.304808   0.000000
    24  H    1.094615   2.488837   2.487097   0.000000
    25  C    5.080918   5.153680   5.602072   6.142055   0.000000
    26  C    5.331494   4.840200   6.311568   6.321497   1.395715
    27  C    6.018753   6.345533   6.168152   7.053365   1.397302
    28  C    6.422237   5.817147   7.397546   7.348123   2.419302
    29  H    4.944038   4.104503   6.229795   5.890951   2.157868
    30  C    7.003327   7.118565   7.275908   7.986581   2.418986
    31  H    6.211212   6.865705   5.982914   7.240124   2.164631
    32  C    7.183138   6.892081   7.830628   8.121074   2.796951
    33  H    6.886375   5.958795   8.092864   7.737023   3.408924
    34  H    7.835932   8.102456   7.894371   8.797894   3.409307
    35  H    8.120719   7.743088   8.791605   9.014276   3.891566
                   26         27         28         29         30
    26  C    0.000000
    27  C    2.406050   0.000000
    28  C    1.389318   2.779867   0.000000
    29  H    1.104681   3.403615   2.170272   0.000000
    30  C    2.776789   1.390241   2.405446   3.881432   0.000000
    31  H    3.403336   1.096541   3.876384   4.310973   2.154621
    32  C    2.408449   2.410667   1.390656   3.413629   1.390500
    33  H    2.154598   3.874613   1.094752   2.495316   3.399320
    34  H    3.871674   2.155234   3.398801   4.976308   1.094888
    35  H    3.401243   3.403084   2.158753   4.318717   2.158611
                   31         32         33         34         35
    31  H    0.000000
    32  C    3.401509   0.000000
    33  H    4.971134   2.158397   0.000000
    34  H    2.476640   2.157307   4.304808   0.000000
    35  H    4.303935   1.094615   2.488837   2.487097   0.000000
 Stoichiometry    C19H16
 Framework group  C3[C3(CH),X(C18H15)]
 Deg. of freedom    33
 Full point group                 C3      NOp   3
 Largest Abelian subgroup         C1      NOp   1
 Largest concise Abelian subgroup C1      NOp   1
                         Standard orientation:                         
 ---------------------------------------------------------------------
 Center     Atomic      Atomic             Coordinates (Angstroms)
 Number     Number       Type             X           Y           Z
 ---------------------------------------------------------------------
      1          6           0        0.000000    0.000000    0.760371
      2          1           0        0.000000    0.000000    1.885047
      3          6           0        0.000000    1.445901    0.326471
      4          6           0       -0.002914    1.819763   -1.018238
      5          6           0        0.002600    2.442576    1.305800
      6          6           0       -0.003857    3.161276   -1.379548
      7          1           0       -0.004347    1.030365   -1.791005
      8          6           0        0.002056    3.784824    0.943666
      9          1           0        0.005078    2.167506    2.367276
     10          6           0       -0.001407    4.147186   -0.398784
     11          1           0       -0.006640    3.440306   -2.438139
     12          1           0        0.004238    4.557815    1.719075
     13          1           0       -0.002167    5.204394   -0.682497
     14          6           0        1.252187   -0.722951    0.326471
     15          6           0        1.577418   -0.907358   -1.018238
     16          6           0        2.114033   -1.223540    1.305800
     17          6           0        2.739674   -1.577297   -1.379548
     18          1           0        0.894496   -0.511418   -1.791005
     19          6           0        3.276725   -1.894193    0.943666
     20          1           0        1.874577   -1.088150    2.367276
     21          6           0        3.592272   -2.072375   -0.398784
     22          1           0        2.982712   -1.714403   -2.438139
     23          1           0        3.945065   -2.282578    1.719075
     24          1           0        4.508221   -2.600320   -0.682497
     25          6           0       -1.252187   -0.722951    0.326471
     26          6           0       -1.574504   -0.912405   -1.018238
     27          6           0       -2.116633   -1.219037    1.305800
     28          6           0       -2.735817   -1.583978   -1.379548
     29          1           0       -0.890149   -0.518947   -1.791005
     30          6           0       -3.278782   -1.890631    0.943666
     31          1           0       -1.879654   -1.079356    2.367276
     32          6           0       -3.590865   -2.074811   -0.398784
     33          1           0       -2.976072   -1.725903   -2.438139
     34          1           0       -3.949303   -2.275237    1.719075
     35          1           0       -4.506054   -2.604074   -0.682497
 ---------------------------------------------------------------------
 Rotational constants (GHZ):      0.3813550      0.3813550      0.2404505
 Standard basis: 6-311G (5D, 7F)
 There are   295 symmetry adapted basis functions of A   symmetry.
 Integral buffers will be    262144 words long.
 Raffenetti 1 integral format.
 Two-electron integral symmetry is turned on.
   295 basis functions,   574 primitive gaussians,   295 cartesian basis functions
    65 alpha electrons       65 beta electrons
       nuclear repulsion energy      1288.1404998569 Hartrees.
 NAtoms=   35 NActive=   35 NUniq=   13 SFac= 3.00D+00 NAtFMM=   80 NAOKFM=F Big=F
 One-electron integrals computed using PRISM.
 PrsmSu:  requested number of processors reduced to:  10 ShMem   1 Linda.
 NBasis=   295 RedAO= T  NBF=   295
 NBsUse=   295 1.00D-06 NBFU=   295
 Harris functional with IExCor=  205 diagonalized for initial guess.
 ExpMin= 1.03D-01 ExpMax= 4.56D+03 ExpMxC= 6.82D+02 IAcc=1 IRadAn=         1 AccDes= 0.00D+00
 HarFok:  IExCor=  205 AccDes= 0.00D+00 IRadAn=         1 IDoV= 1
 ScaDFX=  1.000000  1.000000  1.000000  1.000000
 FoFCou: FMM=F IPFlag=           0 FMFlag=      100000 FMFlg1=           0
         NFxFlg=           0 DoJE=T BraDBF=F KetDBF=T FulRan=T
         Omega=  0.000000  0.000000  1.000000  0.000000  0.000000 ICntrl=     500 IOpCl=  0
         NMat0=    1 NMatS0=    1 NMatT0=    0 NMatD0=    1 NMtDS0=    0 NMtDT0=    0
         I1Cent=           4 NGrid=           0.
 Petite list used in FoFCou.
 Initial guess orbital symmetries:
       Occupied  (E) (E) (A) (A) (E) (E) (E) (E) (A) (A) (E) (E)
                 (E) (E) (A) (E) (E) (A) (A) (A) (E) (E) (A) (A)
                 (E) (E) (E) (E) (A) (A) (E) (E) (E) (E) (A) (E)
                 (E) (A) (A) (E) (E) (A) (E) (E) (A) (E) (E) (E)
                 (E) (A) (A) (E) (E) (A) (E) (E) (E) (E) (A) (E)
                 (E) (A) (E) (E) (A)
       Virtual   (E) (E) (E) (E) (A) (A) (A) (A) (E) (E) (E) (E)
                 (A) (A) (E) (E) (A) (A) (E) (E) (E) (E) (A) (A)
                 (E) (E) (E) (E) (A) (A) (E) (E) (A) (E) (E) (E)
                 (E) (E) (E) (A) (A) (E) (E) (A) (E) (E) (A) (A)
                 (E) (E) (A) (E) (E) (A) (E) (E) (A) (E) (E) (E)
                 (E) (E) (E) (A) (E) (E) (A) (E) (E) (A) (E) (E)
                 (A) (A) (E) (E) (E) (E) (A) (A) (E) (E) (A) (E)
                 (E) (E) (E) (A) (A) (E) (E) (A) (E) (E) (A) (A)
                 (E) (E) (E) (E) (A) (A) (E) (E) (A) (A) (E) (E)
                 (A) (E) (E) (A) (E) (E) (E) (E) (A) (E) (E) (E)
                 (E) (A) (A) (E) (E) (A) (E) (E) (E) (E) (A) (E)
                 (E) (A) (A) (E) (E) (A) (A) (E) (E) (A) (E) (E)
                 (A) (E) (E) (A) (E) (E) (A) (E) (E) (A) (E) (E)
                 (E) (E) (A) (A) (A) (E) (E) (A) (A) (E) (E) (E)
                 (E) (E) (E) (A) (E) (E) (A) (A) (E) (E) (A) (E)
                 (E) (E) (E) (A) (E) (E) (A) (E) (E) (A) (E) (E)
                 (A) (E) (E) (E) (E) (A) (E) (E) (A) (A) (E) (E)
                 (A) (E) (E) (A) (E) (E) (A) (A) (E) (E) (A) (E)
                 (E) (A) (E) (E) (A) (E) (E) (A) (E) (E) (A) (A)
                 (E) (E)
 The electronic state of the initial guess is 1-A.
 Requested convergence on RMS density matrix=1.00D-08 within 128 cycles.
 Requested convergence on MAX density matrix=1.00D-06.
 Requested convergence on             energy=1.00D-06.
 No special actions if energy rises.
 Integral accuracy reduced to 1.0D-05 until final iterations.
 Initial convergence to 1.0D-05 achieved.  Increase integral accuracy.
 SCF Done:  E(RHF) =  -728.661906157     A.U. after   14 cycles
             Convg  =    0.5631D-08             -V/T =  2.0001

 **********************************************************************

            Population analysis using the SCF density.

 **********************************************************************

 Orbital symmetries:
       Occupied  (A) (E) (E) (A) (E) (E) (A) (E) (E) (A) (E) (E)
                 (A) (E) (E) (A) (E) (E) (A) (A) (E) (E) (A) (A)
                 (E) (E) (E) (E) (A) (A) (E) (E) (E) (E) (A) (E)
                 (E) (A) (A) (E) (E) (A) (E) (E) (A) (E) (E) (E)
                 (E) (A) (A) (E) (E) (A) (E) (E) (A) (E) (E) (E)
                 (E) (E) (E) (A) (A)
       Virtual   (E) (E) (E) (E) (A) (A) (A) (E) (E) (A) (A) (E)
                 (E) (A) (E) (E) (A) (E) (E) (A) (E) (E) (A) (E)
                 (E) (A) (E) (E) (A) (A) (E) (E) (A) (E) (E) (E)
                 (E) (A) (E) (E) (A) (E) (E) (A) (E) (E) (A) (A)
                 (E) (E) (A) (E) (E) (E) (E) (A) (A) (E) (E) (E)
                 (E) (E) (E) (A) (A) (E) (E) (E) (E) (A) (A) (E)
                 (E) (E) (E) (A) (E) (E) (A) (E) (E) (A) (A) (E)
                 (E) (E) (E) (A) (A) (E) (E) (E) (E) (A) (A) (A)
                 (E) (E) (A) (E) (E) (A) (A) (E) (E) (E) (E) (A)
                 (A) (E) (E) (E) (E) (A) (A) (E) (E) (E) (E) (A)
                 (E) (E) (A) (E) (E) (A) (E) (E) (E) (E) (A) (E)
                 (E) (A) (A) (E) (E) (A) (A) (E) (E) (A) (E) (E)
                 (A) (A) (E) (E) (E) (E) (A) (A) (E) (E) (A) (E)
                 (E) (E) (E) (A) (E) (E) (A) (A) (E) (E) (A) (E)
                 (E) (E) (E) (A) (E) (E) (A) (A) (E) (E) (A) (E)
                 (E) (E) (E) (A) (A) (E) (E) (E) (E) (A) (E) (E)
                 (A) (E) (E) (E) (E) (A) (E) (E) (A) (A) (E) (E)
                 (E) (E) (A) (A) (E) (E) (A) (A) (E) (E) (A) (E)
                 (E) (A) (E) (E) (A) (A) (E) (E) (E) (E) (A) (A)
                 (E) (E)
 The electronic state is 1-A.
 Alpha  occ. eigenvalues --  -11.25909 -11.25314 -11.25314 -11.25307 -11.24434
 Alpha  occ. eigenvalues --  -11.24434 -11.24434 -11.24318 -11.24318 -11.24318
 Alpha  occ. eigenvalues --  -11.24169 -11.24169 -11.24168 -11.24085 -11.24085
 Alpha  occ. eigenvalues --  -11.24085 -11.23987 -11.23987 -11.23987  -1.18655
 Alpha  occ. eigenvalues --   -1.15800  -1.15800  -1.09070  -1.02577  -1.01966
 Alpha  occ. eigenvalues --   -1.01966  -1.01541  -1.01541  -0.93059  -0.85059
 Alpha  occ. eigenvalues --   -0.82361  -0.82361  -0.81932  -0.81932  -0.78034
 Alpha  occ. eigenvalues --   -0.70464  -0.70464  -0.69870  -0.66397  -0.63077
 Alpha  occ. eigenvalues --   -0.63077  -0.62916  -0.62306  -0.62306  -0.59922
 Alpha  occ. eigenvalues --   -0.58648  -0.58648  -0.57964  -0.57964  -0.53385
 Alpha  occ. eigenvalues --   -0.52146  -0.51250  -0.51250  -0.49543  -0.48622
 Alpha  occ. eigenvalues --   -0.48622  -0.48113  -0.47197  -0.47197  -0.34399
 Alpha  occ. eigenvalues --   -0.34399  -0.33774  -0.33774  -0.33414  -0.31075
 Alpha virt. eigenvalues --    0.12123   0.12123   0.12786   0.12786   0.14081
 Alpha virt. eigenvalues --    0.15510   0.15692   0.16375   0.16375   0.16680
 Alpha virt. eigenvalues --    0.18461   0.19285   0.19285   0.21244   0.21592
 Alpha virt. eigenvalues --    0.21592   0.23777   0.24506   0.24506   0.28412
 Alpha virt. eigenvalues --    0.30980   0.30980   0.33859   0.33992   0.33992
 Alpha virt. eigenvalues --    0.38185   0.39428   0.39428   0.40122   0.43671
 Alpha virt. eigenvalues --    0.44508   0.44508   0.44809   0.45915   0.45915
 Alpha virt. eigenvalues --    0.46987   0.46987   0.48784   0.50137   0.50137
 Alpha virt. eigenvalues --    0.50771   0.52409   0.52409   0.55399   0.57110
 Alpha virt. eigenvalues --    0.57110   0.57365   0.58298   0.58679   0.58679
 Alpha virt. eigenvalues --    0.58967   0.60510   0.60510   0.61959   0.61959
 Alpha virt. eigenvalues --    0.62012   0.62151   0.63136   0.63136   0.63899
 Alpha virt. eigenvalues --    0.63899   0.65382   0.65382   0.65723   0.65991
 Alpha virt. eigenvalues --    0.66932   0.66932   0.68943   0.68943   0.70500
 Alpha virt. eigenvalues --    0.71460   0.74290   0.74290   0.75596   0.75596
 Alpha virt. eigenvalues --    0.76034   0.78744   0.78744   0.79604   0.81304
 Alpha virt. eigenvalues --    0.81304   0.81934   0.82767   0.82797   0.82797
 Alpha virt. eigenvalues --    0.83475   0.83475   0.84090   0.84265   0.86391
 Alpha virt. eigenvalues --    0.86391   0.86737   0.86737   0.86977   0.88616
 Alpha virt. eigenvalues --    0.89535   0.90397   0.90397   0.95749   0.96687
 Alpha virt. eigenvalues --    0.96687   0.96859   0.97602   0.98001   0.98001
 Alpha virt. eigenvalues --    1.00687   1.00687   1.02860   1.06061   1.06216
 Alpha virt. eigenvalues --    1.06216   1.07651   1.07651   1.08067   1.11062
 Alpha virt. eigenvalues --    1.11899   1.11899   1.12625   1.12625   1.13000
 Alpha virt. eigenvalues --    1.14536   1.14536   1.15108   1.22649   1.22649
 Alpha virt. eigenvalues --    1.25063   1.25909   1.25909   1.27809   1.27809
 Alpha virt. eigenvalues --    1.31099   1.38610   1.38610   1.38911   1.43644
 Alpha virt. eigenvalues --    1.52654   1.52654   1.55440   2.45108   2.55199
 Alpha virt. eigenvalues --    2.55199   2.56984   2.62123   2.62123   2.63062
 Alpha virt. eigenvalues --    2.66399   2.67289   2.67289   2.77812   2.77812
 Alpha virt. eigenvalues --    2.78239   2.83353   2.89161   2.89161   2.93997
 Alpha virt. eigenvalues --    2.94070   2.94070   2.96562   2.96562   2.98228
 Alpha virt. eigenvalues --    3.00828   3.00828   3.04219   3.04747   3.08416
 Alpha virt. eigenvalues --    3.08416   3.09155   3.09754   3.09754   3.13038
 Alpha virt. eigenvalues --    3.13038   3.15939   3.16630   3.16630   3.19337
 Alpha virt. eigenvalues --    3.22840   3.24358   3.24358   3.29217   3.30397
 Alpha virt. eigenvalues --    3.30397   3.33693   3.33693   3.34690   3.43646
 Alpha virt. eigenvalues --    3.44335   3.44335   3.48437   3.48437   3.51040
 Alpha virt. eigenvalues --    3.52849   3.52849   3.59345   3.59744   3.59744
 Alpha virt. eigenvalues --    3.62702   3.62702   3.63244   3.65542   3.65542
 Alpha virt. eigenvalues --    3.66488   3.68445   3.71029   3.71029   3.74560
 Alpha virt. eigenvalues --    3.74560   3.76278   3.80825   3.84784   3.84784
 Alpha virt. eigenvalues --    3.98406  24.23880  24.30681  24.30681  24.50329
 Alpha virt. eigenvalues --   24.50779  24.50779  24.53768  24.54621  24.54621
 Alpha virt. eigenvalues --   24.76559  24.78590  24.78787  24.78787  24.81054
 Alpha virt. eigenvalues --   24.81054  24.82945  25.04356  25.06489  25.06489
          Condensed to atoms (all electrons):
              1          2          3          4          5          6
     1  C    5.768913   0.437418   0.198690  -0.052326  -0.022222   0.001665
     2  H    0.437418   0.507856  -0.063920   0.005140   0.003088  -0.000298
     3  C    0.198690  -0.063920   5.405190   0.425814   0.505806  -0.055345
     4  C   -0.052326   0.005140   0.425814   5.081504  -0.063320   0.483079
     5  C   -0.022222   0.003088   0.505806  -0.063320   5.045661  -0.035097
     6  C    0.001665  -0.000298  -0.055345   0.483079  -0.035097   5.037113
     7  H    0.002865   0.000005  -0.059186   0.385213   0.004151  -0.021651
     8  C    0.007764   0.001718  -0.075474  -0.028285   0.470060  -0.078028
     9  H   -0.000730   0.003401  -0.045974   0.004566   0.393497  -0.000175
    10  C    0.001291   0.000000  -0.021424  -0.093004  -0.085311   0.494716
    11  H   -0.000298   0.000012   0.005989  -0.038171  -0.000516   0.396534
    12  H   -0.000377  -0.000043   0.007514  -0.000734  -0.040183   0.006422
    13  H   -0.000011  -0.000002  -0.001591   0.008351   0.007563  -0.043051
    14  C    0.198690  -0.063920  -0.155110  -0.004056  -0.002671   0.001906
    15  C   -0.052326   0.005140  -0.003973  -0.009823   0.000220  -0.000321
    16  C   -0.022222   0.003088  -0.002711   0.000209   0.000718   0.000034
    17  C    0.001665  -0.000298   0.001913  -0.000305   0.000034  -0.000066
    18  H    0.002865   0.000005  -0.001998  -0.000353  -0.000328   0.000938
    19  C    0.007764   0.001718  -0.000558   0.000094  -0.000027  -0.000001
    20  H   -0.000730   0.003401   0.000303  -0.000040   0.000139   0.000000
    21  C    0.001291   0.000000  -0.000057  -0.000017  -0.000008   0.000001
    22  H   -0.000298   0.000012   0.000018   0.000030   0.000001  -0.000001
    23  H   -0.000377  -0.000043   0.000018   0.000000   0.000001   0.000000
    24  H   -0.000011  -0.000002  -0.000002   0.000001   0.000000   0.000000
    25  C    0.198690  -0.063920  -0.155110  -0.003973  -0.002711   0.001913
    26  C   -0.052326   0.005140  -0.004056  -0.009823   0.000209  -0.000305
    27  C   -0.022222   0.003088  -0.002671   0.000220   0.000718   0.000034
    28  C    0.001665  -0.000298   0.001906  -0.000321   0.000034  -0.000066
    29  H    0.002865   0.000005  -0.001988  -0.000495  -0.000324   0.000930
    30  C    0.007764   0.001718  -0.000558   0.000095  -0.000027  -0.000001
    31  H   -0.000730   0.003401   0.000301  -0.000040   0.000143   0.000000
    32  C    0.001291   0.000000  -0.000057  -0.000018  -0.000008   0.000001
    33  H   -0.000298   0.000012   0.000018   0.000030   0.000001  -0.000001
    34  H   -0.000377  -0.000043   0.000018   0.000000   0.000001   0.000000
    35  H   -0.000011  -0.000002  -0.000002   0.000000   0.000000   0.000000
              7          8          9         10         11         12
     1  C    0.002865   0.007764  -0.000730   0.001291  -0.000298  -0.000377
     2  H    0.000005   0.001718   0.003401   0.000000   0.000012  -0.000043
     3  C   -0.059186  -0.075474  -0.045974  -0.021424   0.005989   0.007514
     4  C    0.385213  -0.028285   0.004566  -0.093004  -0.038171  -0.000734
     5  C    0.004151   0.470060   0.393497  -0.085311  -0.000516  -0.040183
     6  C   -0.021651  -0.078028  -0.000175   0.494716   0.396534   0.006422
     7  H    0.530328   0.000083  -0.000303   0.004617  -0.003439   0.000022
     8  C    0.000083   5.043858  -0.033448   0.499757   0.005948   0.397002
     9  H   -0.000303  -0.033448   0.511769   0.005134   0.000027  -0.004160
    10  C    0.004617   0.499757   0.005134   5.031861  -0.039230  -0.041404
    11  H   -0.003439   0.005948   0.000027  -0.039230   0.515329  -0.000208
    12  H    0.000022   0.397002  -0.004160  -0.041404  -0.000208   0.518815
    13  H   -0.000208  -0.042991  -0.000190   0.399275  -0.004425  -0.004664
    14  C   -0.001988  -0.000558   0.000301  -0.000057   0.000018   0.000018
    15  C   -0.000495   0.000095  -0.000040  -0.000018   0.000030   0.000000
    16  C   -0.000324  -0.000027   0.000143  -0.000008   0.000001   0.000001
    17  C    0.000930  -0.000001   0.000000   0.000001  -0.000001   0.000000
    18  H   -0.002487  -0.000017   0.000001  -0.000010  -0.000027   0.000000
    19  C   -0.000016   0.000002   0.000001   0.000000   0.000000   0.000000
    20  H    0.000001   0.000001   0.000027   0.000000   0.000000   0.000000
    21  C   -0.000010   0.000000   0.000000   0.000000   0.000000   0.000000
    22  H   -0.000027   0.000000   0.000000   0.000000   0.000000   0.000000
    23  H    0.000000   0.000000   0.000000   0.000000   0.000000   0.000000
    24  H    0.000000   0.000000   0.000000   0.000000   0.000000   0.000000
    25  C   -0.001998  -0.000558   0.000303  -0.000057   0.000018   0.000018
    26  C   -0.000353   0.000094  -0.000040  -0.000017   0.000030   0.000000
    27  C   -0.000328  -0.000027   0.000139  -0.000008   0.000001   0.000001
    28  C    0.000938  -0.000001   0.000000   0.000001  -0.000001   0.000000
    29  H   -0.002487  -0.000016   0.000001  -0.000010  -0.000027   0.000000
    30  C   -0.000017   0.000002   0.000001   0.000000   0.000000   0.000000
    31  H    0.000001   0.000001   0.000027   0.000000   0.000000   0.000000
    32  C   -0.000010   0.000000   0.000000   0.000000   0.000000   0.000000
    33  H   -0.000027   0.000000   0.000000   0.000000   0.000000   0.000000
    34  H    0.000000   0.000000   0.000000   0.000000   0.000000   0.000000
    35  H    0.000000   0.000000   0.000000   0.000000   0.000000   0.000000
             13         14         15         16         17         18
     1  C   -0.000011   0.198690  -0.052326  -0.022222   0.001665   0.002865
     2  H   -0.000002  -0.063920   0.005140   0.003088  -0.000298   0.000005
     3  C   -0.001591  -0.155110  -0.003973  -0.002711   0.001913  -0.001998
     4  C    0.008351  -0.004056  -0.009823   0.000209  -0.000305  -0.000353
     5  C    0.007563  -0.002671   0.000220   0.000718   0.000034  -0.000328
     6  C   -0.043051   0.001906  -0.000321   0.000034  -0.000066   0.000938
     7  H   -0.000208  -0.001988  -0.000495  -0.000324   0.000930  -0.002487
     8  C   -0.042991  -0.000558   0.000095  -0.000027  -0.000001  -0.000017
     9  H   -0.000190   0.000301  -0.000040   0.000143   0.000000   0.000001
    10  C    0.399275  -0.000057  -0.000018  -0.000008   0.000001  -0.000010
    11  H   -0.004425   0.000018   0.000030   0.000001  -0.000001  -0.000027
    12  H   -0.004664   0.000018   0.000000   0.000001   0.000000   0.000000
    13  H    0.518089  -0.000002   0.000000   0.000000   0.000000   0.000000
    14  C   -0.000002   5.405190   0.425814   0.505806  -0.055345  -0.059186
    15  C    0.000000   0.425814   5.081504  -0.063320   0.483079   0.385213
    16  C    0.000000   0.505806  -0.063320   5.045661  -0.035097   0.004151
    17  C    0.000000  -0.055345   0.483079  -0.035097   5.037113  -0.021651
    18  H    0.000000  -0.059186   0.385213   0.004151  -0.021651   0.530328
    19  C    0.000000  -0.075474  -0.028285   0.470060  -0.078028   0.000083
    20  H    0.000000  -0.045974   0.004566   0.393497  -0.000175  -0.000303
    21  C    0.000000  -0.021424  -0.093004  -0.085311   0.494716   0.004617
    22  H    0.000000   0.005989  -0.038171  -0.000516   0.396534  -0.003439
    23  H    0.000000   0.007514  -0.000734  -0.040183   0.006422   0.000022
    24  H    0.000000  -0.001591   0.008351   0.007563  -0.043051  -0.000208
    25  C   -0.000002  -0.155110  -0.004056  -0.002671   0.001906  -0.001988
    26  C    0.000001  -0.003973  -0.009823   0.000220  -0.000321  -0.000495
    27  C    0.000000  -0.002711   0.000209   0.000718   0.000034  -0.000324
    28  C    0.000000   0.001913  -0.000305   0.000034  -0.000066   0.000930
    29  H    0.000000  -0.001998  -0.000353  -0.000328   0.000938  -0.002487
    30  C    0.000000  -0.000558   0.000094  -0.000027  -0.000001  -0.000016
    31  H    0.000000   0.000303  -0.000040   0.000139   0.000000   0.000001
    32  C    0.000000  -0.000057  -0.000017  -0.000008   0.000001  -0.000010
    33  H    0.000000   0.000018   0.000030   0.000001  -0.000001  -0.000027
    34  H    0.000000   0.000018   0.000000   0.000001   0.000000   0.000000
    35  H    0.000000  -0.000002   0.000001   0.000000   0.000000   0.000000
             19         20         21         22         23         24
     1  C    0.007764  -0.000730   0.001291  -0.000298  -0.000377  -0.000011
     2  H    0.001718   0.003401   0.000000   0.000012  -0.000043  -0.000002
     3  C   -0.000558   0.000303  -0.000057   0.000018   0.000018  -0.000002
     4  C    0.000094  -0.000040  -0.000017   0.000030   0.000000   0.000001
     5  C   -0.000027   0.000139  -0.000008   0.000001   0.000001   0.000000
     6  C   -0.000001   0.000000   0.000001  -0.000001   0.000000   0.000000
     7  H   -0.000016   0.000001  -0.000010  -0.000027   0.000000   0.000000
     8  C    0.000002   0.000001   0.000000   0.000000   0.000000   0.000000
     9  H    0.000001   0.000027   0.000000   0.000000   0.000000   0.000000
    10  C    0.000000   0.000000   0.000000   0.000000   0.000000   0.000000
    11  H    0.000000   0.000000   0.000000   0.000000   0.000000   0.000000
    12  H    0.000000   0.000000   0.000000   0.000000   0.000000   0.000000
    13  H    0.000000   0.000000   0.000000   0.000000   0.000000   0.000000
    14  C   -0.075474  -0.045974  -0.021424   0.005989   0.007514  -0.001591
    15  C   -0.028285   0.004566  -0.093004  -0.038171  -0.000734   0.008351
    16  C    0.470060   0.393497  -0.085311  -0.000516  -0.040183   0.007563
    17  C   -0.078028  -0.000175   0.494716   0.396534   0.006422  -0.043051
    18  H    0.000083  -0.000303   0.004617  -0.003439   0.000022  -0.000208
    19  C    5.043858  -0.033448   0.499757   0.005948   0.397002  -0.042991
    20  H   -0.033448   0.511769   0.005134   0.000027  -0.004160  -0.000190
    21  C    0.499757   0.005134   5.031861  -0.039230  -0.041404   0.399275
    22  H    0.005948   0.000027  -0.039230   0.515329  -0.000208  -0.004425
    23  H    0.397002  -0.004160  -0.041404  -0.000208   0.518815  -0.004664
    24  H   -0.042991  -0.000190   0.399275  -0.004425  -0.004664   0.518089
    25  C   -0.000558   0.000301  -0.000057   0.000018   0.000018  -0.000002
    26  C    0.000095  -0.000040  -0.000018   0.000030   0.000000   0.000000
    27  C   -0.000027   0.000143  -0.000008   0.000001   0.000001   0.000000
    28  C   -0.000001   0.000000   0.000001  -0.000001   0.000000   0.000000
    29  H   -0.000017   0.000001  -0.000010  -0.000027   0.000000   0.000000
    30  C    0.000002   0.000001   0.000000   0.000000   0.000000   0.000000
    31  H    0.000001   0.000027   0.000000   0.000000   0.000000   0.000000
    32  C    0.000000   0.000000   0.000000   0.000000   0.000000   0.000000
    33  H    0.000000   0.000000   0.000000   0.000000   0.000000   0.000000
    34  H    0.000000   0.000000   0.000000   0.000000   0.000000   0.000000
    35  H    0.000000   0.000000   0.000000   0.000000   0.000000   0.000000
             25         26         27         28         29         30
     1  C    0.198690  -0.052326  -0.022222   0.001665   0.002865   0.007764
     2  H   -0.063920   0.005140   0.003088  -0.000298   0.000005   0.001718
     3  C   -0.155110  -0.004056  -0.002671   0.001906  -0.001988  -0.000558
     4  C   -0.003973  -0.009823   0.000220  -0.000321  -0.000495   0.000095
     5  C   -0.002711   0.000209   0.000718   0.000034  -0.000324  -0.000027
     6  C    0.001913  -0.000305   0.000034  -0.000066   0.000930  -0.000001
     7  H   -0.001998  -0.000353  -0.000328   0.000938  -0.002487  -0.000017
     8  C   -0.000558   0.000094  -0.000027  -0.000001  -0.000016   0.000002
     9  H    0.000303  -0.000040   0.000139   0.000000   0.000001   0.000001
    10  C   -0.000057  -0.000017  -0.000008   0.000001  -0.000010   0.000000
    11  H    0.000018   0.000030   0.000001  -0.000001  -0.000027   0.000000
    12  H    0.000018   0.000000   0.000001   0.000000   0.000000   0.000000
    13  H   -0.000002   0.000001   0.000000   0.000000   0.000000   0.000000
    14  C   -0.155110  -0.003973  -0.002711   0.001913  -0.001998  -0.000558
    15  C   -0.004056  -0.009823   0.000209  -0.000305  -0.000353   0.000094
    16  C   -0.002671   0.000220   0.000718   0.000034  -0.000328  -0.000027
    17  C    0.001906  -0.000321   0.000034  -0.000066   0.000938  -0.000001
    18  H   -0.001988  -0.000495  -0.000324   0.000930  -0.002487  -0.000016
    19  C   -0.000558   0.000095  -0.000027  -0.000001  -0.000017   0.000002
    20  H    0.000301  -0.000040   0.000143   0.000000   0.000001   0.000001
    21  C   -0.000057  -0.000018  -0.000008   0.000001  -0.000010   0.000000
    22  H    0.000018   0.000030   0.000001  -0.000001  -0.000027   0.000000
    23  H    0.000018   0.000000   0.000001   0.000000   0.000000   0.000000
    24  H   -0.000002   0.000000   0.000000   0.000000   0.000000   0.000000
    25  C    5.405190   0.425814   0.505806  -0.055345  -0.059186  -0.075474
    26  C    0.425814   5.081504  -0.063320   0.483079   0.385213  -0.028285
    27  C    0.505806  -0.063320   5.045661  -0.035097   0.004151   0.470060
    28  C   -0.055345   0.483079  -0.035097   5.037113  -0.021651  -0.078028
    29  H   -0.059186   0.385213   0.004151  -0.021651   0.530328   0.000083
    30  C   -0.075474  -0.028285   0.470060  -0.078028   0.000083   5.043858
    31  H   -0.045974   0.004566   0.393497  -0.000175  -0.000303  -0.033448
    32  C   -0.021424  -0.093004  -0.085311   0.494716   0.004617   0.499757
    33  H    0.005989  -0.038171  -0.000516   0.396534  -0.003439   0.005948
    34  H    0.007514  -0.000734  -0.040183   0.006422   0.000022   0.397002
    35  H   -0.001591   0.008351   0.007563  -0.043051  -0.000208  -0.042991
             31         32         33         34         35
     1  C   -0.000730   0.001291  -0.000298  -0.000377  -0.000011
     2  H    0.003401   0.000000   0.000012  -0.000043  -0.000002
     3  C    0.000301  -0.000057   0.000018   0.000018  -0.000002
     4  C   -0.000040  -0.000018   0.000030   0.000000   0.000000
     5  C    0.000143  -0.000008   0.000001   0.000001   0.000000
     6  C    0.000000   0.000001  -0.000001   0.000000   0.000000
     7  H    0.000001  -0.000010  -0.000027   0.000000   0.000000
     8  C    0.000001   0.000000   0.000000   0.000000   0.000000
     9  H    0.000027   0.000000   0.000000   0.000000   0.000000
    10  C    0.000000   0.000000   0.000000   0.000000   0.000000
    11  H    0.000000   0.000000   0.000000   0.000000   0.000000
    12  H    0.000000   0.000000   0.000000   0.000000   0.000000
    13  H    0.000000   0.000000   0.000000   0.000000   0.000000
    14  C    0.000303  -0.000057   0.000018   0.000018  -0.000002
    15  C   -0.000040  -0.000017   0.000030   0.000000   0.000001
    16  C    0.000139  -0.000008   0.000001   0.000001   0.000000
    17  C    0.000000   0.000001  -0.000001   0.000000   0.000000
    18  H    0.000001  -0.000010  -0.000027   0.000000   0.000000
    19  C    0.000001   0.000000   0.000000   0.000000   0.000000
    20  H    0.000027   0.000000   0.000000   0.000000   0.000000
    21  C    0.000000   0.000000   0.000000   0.000000   0.000000
    22  H    0.000000   0.000000   0.000000   0.000000   0.000000
    23  H    0.000000   0.000000   0.000000   0.000000   0.000000
    24  H    0.000000   0.000000   0.000000   0.000000   0.000000
    25  C   -0.045974  -0.021424   0.005989   0.007514  -0.001591
    26  C    0.004566  -0.093004  -0.038171  -0.000734   0.008351
    27  C    0.393497  -0.085311  -0.000516  -0.040183   0.007563
    28  C   -0.000175   0.494716   0.396534   0.006422  -0.043051
    29  H   -0.000303   0.004617  -0.003439   0.000022  -0.000208
    30  C   -0.033448   0.499757   0.005948   0.397002  -0.042991
    31  H    0.511769   0.005134   0.000027  -0.004160  -0.000190
    32  C    0.005134   5.031861  -0.039230  -0.041404   0.399275
    33  H    0.000027  -0.039230   0.515329  -0.000208  -0.004425
    34  H   -0.004160  -0.041404  -0.000208   0.518815  -0.004664
    35  H   -0.000190   0.399275  -0.004425  -0.004664   0.518089
 Mulliken atomic charges:
              1
     1  C   -0.615264
     2  H    0.207419
     3  C    0.098266
     4  C   -0.089242
     5  C   -0.179293
     6  C   -0.190878
     7  H    0.166199
     8  C   -0.166956
     9  H    0.165723
    10  C   -0.156093
    11  H    0.162405
    12  H    0.161960
    13  H    0.163857
    14  C    0.098266
    15  C   -0.089242
    16  C   -0.179293
    17  C   -0.190878
    18  H    0.166199
    19  C   -0.166956
    20  H    0.165723
    21  C   -0.156093
    22  H    0.162405
    23  H    0.161960
    24  H    0.163857
    25  C    0.098266
    26  C   -0.089242
    27  C   -0.179293
    28  C   -0.190878
    29  H    0.166199
    30  C   -0.166956
    31  H    0.165723
    32  C   -0.156093
    33  H    0.162405
    34  H    0.161960
    35  H    0.163857
 Sum of Mulliken atomic charges =   0.00000
 Mulliken charges with hydrogens summed into heavy atoms:
              1
     1  C   -0.407845
     3  C    0.098266
     4  C    0.076957
     5  C   -0.013570
     6  C   -0.028473
     8  C   -0.004996
    10  C    0.007765
    14  C    0.098266
    15  C    0.076957
    16  C   -0.013570
    17  C   -0.028473
    19  C   -0.004996
    21  C    0.007765
    25  C    0.098266
    26  C    0.076957
    27  C   -0.013570
    28  C   -0.028473
    30  C   -0.004996
    32  C    0.007765
 Sum of Mulliken charges with hydrogens summed into heavy atoms =   0.00000
 Electronic spatial extent (au):  <R**2>=           4936.8385
 Charge=              0.0000 electrons
 Dipole moment (field-independent basis, Debye):
    X=              0.0000    Y=              0.0000    Z=              0.0940  Tot=              0.0940
 Quadrupole moment (field-independent basis, Debye-Ang):
   XX=           -113.6370   YY=           -113.6370   ZZ=           -100.1388
   XY=              0.0000   XZ=              0.0000   YZ=              0.0000
 Traceless Quadrupole moment (field-independent basis, Debye-Ang):
   XX=             -4.4994   YY=             -4.4994   ZZ=              8.9988
   XY=              0.0000   XZ=              0.0000   YZ=              0.0000
 Octapole moment (field-independent basis, Debye-Ang**2):
  XXX=              0.0044  YYY=             54.0250  ZZZ=             -0.1197  XYY=             -0.0044
  XXY=            -54.0250  XXZ=              0.4753  XZZ=              0.0000  YZZ=              0.0000
  YYZ=              0.4753  XYZ=              0.0000
 Hexadecapole moment (field-independent basis, Debye-Ang**3):
 XXXX=          -2947.9901 YYYY=          -2947.9901 ZZZZ=           -846.7960 XXXY=              0.0000
 XXXZ=             -0.5636 YYYX=              0.0000 YYYZ=             -1.5463 ZZZX=              0.0000
 ZZZY=              0.0000 XXYY=           -982.6634 XXZZ=           -617.2016 YYZZ=           -617.2016
 XXYZ=              1.5463 YYXZ=              0.5636 ZZXY=              0.0000
 N-N= 1.288140499857D+03 E-N=-4.272183291712D+03  KE= 7.285916445625D+02
 PrsmSu:  requested number of processors reduced to:  10 ShMem   1 Linda.
 Calling FoFJK, ICntrl=      2127 FMM=F ISym2X=1 I1Cent= 0 IOpClX= 0 NMat=1 NMatS=1 NMatT=0.
 ***** Axes restored to original set *****
 -------------------------------------------------------------------
 Center     Atomic                   Forces (Hartrees/Bohr)
 Number     Number              X              Y              Z
 -------------------------------------------------------------------
      1        6           0.000000000    0.000000000   -0.024096249
      2        1           0.000000000    0.000000000    0.028897921
      3        6          -0.003822915   -0.012714082   -0.005111443
      4        6           0.002424710    0.008180808    0.011904284
      5        6           0.000438552    0.001397212   -0.006050152
      6        6          -0.000381384   -0.001191345    0.012161657
      7        1          -0.009252785   -0.030745511   -0.017240232
      8        6          -0.003022545   -0.010157552   -0.007897040
      9        1          -0.001199269   -0.003856296    0.017404254
     10        6          -0.003835278   -0.012815584    0.001860580
     11        1           0.001250551    0.003981174   -0.016192982
     12        1           0.003316821    0.011221405    0.011914495
     13        1           0.004675056    0.015571305   -0.004353978
     14        6           0.012922176    0.003046299   -0.005111443
     15        6          -0.008297142   -0.001990544    0.011904284
     16        6          -0.001429297   -0.000318809   -0.006050152
     17        6           0.001222427    0.000265384    0.012161657
     18        1           0.031252786    0.007359609   -0.017240232
     19        6           0.010307970    0.002461175   -0.007897040
     20        1           0.003939284    0.000889551    0.017404254
     21        6           0.013016260    0.003086344    0.001860580
     22        1          -0.004073074   -0.000907578   -0.016192982
     23        1          -0.011376432   -0.002738251    0.011914495
     24        1          -0.015822674   -0.003736936   -0.004353978
     25        6          -0.009099260    0.009667783   -0.005111443
     26        6           0.005872432   -0.006190264    0.011904284
     27        6           0.000990745   -0.001078403   -0.006050152
     28        6          -0.000841043    0.000925961    0.012161657
     29        1          -0.022000001    0.023385902   -0.017240232
     30        6          -0.007285426    0.007696376   -0.007897040
     31        1          -0.002740016    0.002966745    0.017404254
     32        6          -0.009180982    0.009729240    0.001860580
     33        1           0.002822522   -0.003073596   -0.016192982
     34        1           0.008059611   -0.008483154    0.011914495
     35        1           0.011147618   -0.011834370   -0.004353978
 -------------------------------------------------------------------
 Cartesian Forces:  Max     0.031252786 RMS     0.010587381

 GradGradGradGradGradGradGradGradGradGradGradGradGradGradGradGradGradGrad
 Berny optimization.
 Internal  Forces:  Max     0.035395447 RMS     0.010598965
 Search for a local minimum.
 Step number   1 out of a maximum of  197
 All quantities printed in internal units (Hartrees-Bohrs-Radians)
 Mixed Optimization -- RFO/linear search
 Second derivative matrix not updated -- first step.
     Eigenvalues ---    0.00639   0.00639   0.00639   0.01531   0.01531
     Eigenvalues ---    0.01531   0.02144   0.02144   0.02144   0.02171
     Eigenvalues ---    0.02171   0.02171   0.02188   0.02188   0.02188
     Eigenvalues ---    0.02204   0.02204   0.02204   0.02213   0.02213
     Eigenvalues ---    0.02213   0.02216   0.02216   0.02216   0.02217
     Eigenvalues ---    0.02217   0.02217   0.02222   0.02222   0.02222
     Eigenvalues ---    0.04555   0.06510   0.06510   0.16000   0.16000
     Eigenvalues ---    0.16000   0.16000   0.16000   0.16000   0.16000
     Eigenvalues ---    0.16000   0.16000   0.16000   0.16000   0.16000
     Eigenvalues ---    0.16000   0.16000   0.16000   0.19113   0.19113
     Eigenvalues ---    0.22000   0.22000   0.22000   0.22000   0.22000
     Eigenvalues ---    0.22000   0.23477   0.23477   0.23477   0.25000
     Eigenvalues ---    0.25000   0.25000   0.31094   0.31390   0.31390
     Eigenvalues ---    0.31390   0.33170   0.33170   0.33170   0.34068
     Eigenvalues ---    0.34068   0.34068   0.34254   0.34254   0.34254
     Eigenvalues ---    0.34269   0.34269   0.34269   0.34285   0.34285
     Eigenvalues ---    0.34285   0.42476   0.42476   0.42476   0.42595
     Eigenvalues ---    0.42595   0.42595   0.46418   0.46418   0.46418
     Eigenvalues ---    0.46777   0.46777   0.46777   0.47236   0.47236
     Eigenvalues ---    0.47236   0.47371   0.47371   0.473711000.00000
     Eigenvalues --- 1000.000001000.000001000.000001000.000001000.00000
     Eigenvalues --- 1000.000001000.000001000.000001000.000001000.00000
     Eigenvalues --- 1000.000001000.000001000.000001000.000001000.00000
     Eigenvalues --- 1000.000001000.000001000.000001000.000001000.00000
     Eigenvalues --- 1000.000001000.000001000.000001000.000001000.00000
     Eigenvalues --- 1000.000001000.000001000.000001000.000001000.00000
     Eigenvalues --- 1000.000001000.000001000.000001000.000001000.00000
     Eigenvalues --- 1000.000001000.000001000.000001000.000001000.00000
     Eigenvalues --- 1000.000001000.000001000.000001000.000001000.00000
     Eigenvalues --- 1000.000001000.000001000.000001000.000001000.00000
     Eigenvalues --- 1000.000001000.000001000.000001000.000001000.00000
     Eigenvalues --- 1000.000001000.000001000.000001000.000001000.00000
     Eigenvalues --- 1000.000001000.000001000.000001000.000001000.00000
     Eigenvalues --- 1000.000001000.000001000.000001000.000001000.00000
     Eigenvalues --- 1000.000001000.000001000.000001000.000001000.00000
     Eigenvalues --- 1000.000001000.000001000.000001000.000001000.00000
     Eigenvalues --- 1000.000001000.000001000.000001000.000001000.00000
     Eigenvalues --- 1000.000001000.00000
 RFO step:  Lambda=-7.24552045D-02 EMin= 6.38924082D-03
 Linear search not attempted -- first point.
 Maximum step size (   0.300) exceeded in Quadratic search.
    -- Step size scaled by   0.525
 Iteration  1 RMS(Cart)=  0.16587751 RMS(Int)=  0.00451997
 Iteration  2 RMS(Cart)=  0.00948023 RMS(Int)=  0.00044002
 Iteration  3 RMS(Cart)=  0.00000969 RMS(Int)=  0.00044001
 Iteration  4 RMS(Cart)=  0.00000000 RMS(Int)=  0.00044001
 ClnCor:  largest displacement from symmetrization is 1.42D-08 for atom    24.
 Variable       Old X    -DE/DX   Delta X   Delta X   Delta X     New X
                                 (Linear)    (Quad)   (Total)
    R1        2.12533  -0.02890   0.00000  -0.03957  -0.03957   2.08576
    R2        2.85274   0.03069   0.00000   0.04169   0.04169   2.89443
    R3        2.85274   0.03069   0.00000   0.04169   0.04169   2.89443
    R4        2.85274   0.03069   0.00000   0.04169   0.04169   2.89443
    R5        2.63752   0.00349   0.00000   0.00367   0.00368   2.64120
    R6        2.64052  -0.00289   0.00000  -0.00272  -0.00270   2.63782
    R7        2.62543  -0.00401   0.00000  -0.00373  -0.00374   2.62169
    R8        2.08755  -0.03500   0.00000  -0.04547  -0.04547   2.04208
    R9        2.62717  -0.00332   0.00000  -0.00331  -0.00330   2.62387
   R10        2.07216  -0.01786   0.00000  -0.02269  -0.02269   2.04947
   R11        2.62796  -0.00716   0.00000  -0.00703  -0.00705   2.62090
   R12        2.06878  -0.01672   0.00000  -0.02114  -0.02114   2.04764
   R13        2.62766  -0.01018   0.00000  -0.01005  -0.01006   2.61760
   R14        2.06904  -0.01670   0.00000  -0.02112  -0.02112   2.04792
   R15        2.06852  -0.01683   0.00000  -0.02127  -0.02127   2.04725
   R16        2.63752   0.00349   0.00000   0.00367   0.00368   2.64120
   R17        2.64052  -0.00289   0.00000  -0.00272  -0.00270   2.63782
   R18        2.62543  -0.00401   0.00000  -0.00373  -0.00374   2.62169
   R19        2.08755  -0.03500   0.00000  -0.04547  -0.04547   2.04208
   R20        2.62717  -0.00332   0.00000  -0.00331  -0.00330   2.62387
   R21        2.07216  -0.01786   0.00000  -0.02269  -0.02269   2.04947
   R22        2.62796  -0.00716   0.00000  -0.00703  -0.00705   2.62090
   R23        2.06878  -0.01672   0.00000  -0.02114  -0.02114   2.04764
   R24        2.62766  -0.01018   0.00000  -0.01005  -0.01006   2.61760
   R25        2.06904  -0.01670   0.00000  -0.02112  -0.02112   2.04792
   R26        2.06852  -0.01683   0.00000  -0.02127  -0.02127   2.04725
   R27        2.63752   0.00349   0.00000   0.00367   0.00368   2.64120
   R28        2.64052  -0.00289   0.00000  -0.00272  -0.00270   2.63782
   R29        2.62543  -0.00401   0.00000  -0.00373  -0.00374   2.62169
   R30        2.08755  -0.03500   0.00000  -0.04547  -0.04547   2.04208
   R31        2.62717  -0.00332   0.00000  -0.00331  -0.00330   2.62387
   R32        2.07216  -0.01786   0.00000  -0.02269  -0.02269   2.04947
   R33        2.62796  -0.00716   0.00000  -0.00703  -0.00705   2.62090
   R34        2.06878  -0.01672   0.00000  -0.02114  -0.02114   2.04764
   R35        2.62766  -0.01018   0.00000  -0.01005  -0.01006   2.61760
   R36        2.06904  -0.01670   0.00000  -0.02112  -0.02112   2.04792
   R37        2.06852  -0.01683   0.00000  -0.02127  -0.02127   2.04725
    A1        1.86234  -0.00976   0.00000  -0.04344  -0.04244   1.81990
    A2        1.86234  -0.00976   0.00000  -0.04344  -0.04244   1.81990
    A3        1.86234  -0.00976   0.00000  -0.04344  -0.04244   1.81990
    A4        1.95636   0.00870   0.00000   0.03872   0.03562   1.99197
    A5        1.95636   0.00870   0.00000   0.03872   0.03562   1.99197
    A6        1.95636   0.00870   0.00000   0.03872   0.03562   1.99197
    A7        2.13351   0.03540   0.00000   0.05749   0.05747   2.19098
    A8        2.07343  -0.02012   0.00000  -0.03289  -0.03291   2.04053
    A9        2.07624  -0.01527   0.00000  -0.02460  -0.02457   2.05168
   A10        2.10506   0.00513   0.00000   0.00947   0.00947   2.11453
   A11        2.07438   0.00802   0.00000   0.01917   0.01917   2.09354
   A12        2.10375  -0.01315   0.00000  -0.02864  -0.02864   2.07511
   A13        2.10145   0.01024   0.00000   0.01799   0.01802   2.11947
   A14        2.09386  -0.00560   0.00000  -0.01006  -0.01008   2.08378
   A15        2.08788  -0.00465   0.00000  -0.00793  -0.00794   2.07994
   A16        2.09572   0.00339   0.00000   0.00564   0.00561   2.10133
   A17        2.09161  -0.00160   0.00000  -0.00260  -0.00259   2.08902
   A18        2.09586  -0.00179   0.00000  -0.00303  -0.00302   2.09284
   A19        2.09796   0.00005   0.00000  -0.00100  -0.00101   2.09695
   A20        2.09111   0.00010   0.00000   0.00079   0.00080   2.09191
   A21        2.09412  -0.00016   0.00000   0.00021   0.00021   2.09433
   A22        2.08994  -0.00355   0.00000  -0.00749  -0.00753   2.08241
   A23        2.09663   0.00176   0.00000   0.00372   0.00374   2.10037
   A24        2.09662   0.00178   0.00000   0.00376   0.00378   2.10041
   A25        2.13351   0.03540   0.00000   0.05749   0.05747   2.19098
   A26        2.07343  -0.02012   0.00000  -0.03289  -0.03291   2.04053
   A27        2.07624  -0.01527   0.00000  -0.02460  -0.02457   2.05168
   A28        2.10506   0.00513   0.00000   0.00947   0.00947   2.11453
   A29        2.07438   0.00802   0.00000   0.01917   0.01917   2.09354
   A30        2.10375  -0.01315   0.00000  -0.02864  -0.02864   2.07511
   A31        2.10145   0.01024   0.00000   0.01799   0.01802   2.11947
   A32        2.09386  -0.00560   0.00000  -0.01006  -0.01008   2.08378
   A33        2.08788  -0.00465   0.00000  -0.00793  -0.00794   2.07994
   A34        2.09572   0.00339   0.00000   0.00564   0.00561   2.10133
   A35        2.09161  -0.00160   0.00000  -0.00260  -0.00259   2.08902
   A36        2.09586  -0.00179   0.00000  -0.00303  -0.00302   2.09284
   A37        2.09796   0.00005   0.00000  -0.00100  -0.00101   2.09695
   A38        2.09111   0.00010   0.00000   0.00079   0.00080   2.09191
   A39        2.09412  -0.00016   0.00000   0.00021   0.00021   2.09433
   A40        2.08994  -0.00355   0.00000  -0.00749  -0.00753   2.08241
   A41        2.09663   0.00176   0.00000   0.00372   0.00374   2.10037
   A42        2.09662   0.00178   0.00000   0.00376   0.00378   2.10041
   A43        2.13351   0.03540   0.00000   0.05749   0.05747   2.19098
   A44        2.07343  -0.02012   0.00000  -0.03289  -0.03291   2.04053
   A45        2.07624  -0.01527   0.00000  -0.02460  -0.02457   2.05168
   A46        2.10506   0.00513   0.00000   0.00947   0.00947   2.11453
   A47        2.07438   0.00802   0.00000   0.01917   0.01917   2.09354
   A48        2.10375  -0.01315   0.00000  -0.02864  -0.02864   2.07511
   A49        2.10145   0.01024   0.00000   0.01799   0.01802   2.11947
   A50        2.09386  -0.00560   0.00000  -0.01006  -0.01008   2.08378
   A51        2.08788  -0.00465   0.00000  -0.00793  -0.00794   2.07994
   A52        2.09572   0.00339   0.00000   0.00564   0.00561   2.10133
   A53        2.09161  -0.00160   0.00000  -0.00260  -0.00259   2.08902
   A54        2.09586  -0.00179   0.00000  -0.00303  -0.00302   2.09284
   A55        2.09796   0.00005   0.00000  -0.00100  -0.00101   2.09695
[...]
 00064621,-0.00050684,-0.00013909,0.00018063,-0.00008656,-0.00021833,-0
 .00041168,-0.00002753,0.00001702,-0.00040649,-0.00014625,0.00019336,0.
 00004222,-0.00010843,0.00022363,0.00016635,-0.00019511,-0.00002825,0.0
 0001286,-0.00002460,-0.00016044,0.00009914,0.00024539,-0.00001967,-0.0
 0000602,0.00000237,0.00001634,-0.00002093,0.00001374,0.00000155,-0.000
 02018,0.00000012,-0.00083057,0.00095999,0.00107046,-0.00033230,-0.0001
 1454,-0.00014708,0.00016261,-0.00003074,-0.00021833,0.00023589,0.00002
 410,-0.00006551,-0.00003515,0.00004991,0.00000222,-0.00017146,-0.00007
 912,-0.00019511,-0.00002231,0.00000917,0.00013118,-0.00006984,-0.00012
 404,0.00018607,-0.00000767,-0.00000256,-0.00000187,-0.00002071,-0.0000
 0593,-0.00000619,0.00000319,0.00000517,0.00001223,0.02514893,0.0302304
 0,0.06388103,0.02012780,-0.04641871,-0.04311887,-0.01959268,-0.0452439
 5,-0.14879742,-0.07372134,0.01604483,-0.03406923,0.00095107,-0.0002115
 7,-0.00057548,0.20478497,0.20507680,0.58232903,0.00037973,-0.00249757,
 -0.00027946,-0.00059240,0.00038772,0.00106295,0.00026698,0.00015500,-0
 .00008581,0.00000189,-0.00009758,-0.00013947,-0.00006274,-0.00006225,-
 0.00003095,-0.00005912,-0.00004295,0.00000410,0.00000042,0.00002277,0.
 00008764,0.00003257,0.00006683,0.00000321,-0.00004328,0.00003654,0.000
 02249,-0.00005805,-0.00002762,0.00004152,-0.00000933,-0.00002048,0.000
 02686,0.00000422,-0.00001715,0.00000057,0.00000078,-0.00001199,0.00001
 509,-0.00009303,-0.00005795,0.00034651,0.00013424,0.00008974,0.0000755
 2,0.00000382,0.00006436,-0.00007176,0.00003468,-0.00003792,0.00002650,
 -0.00000460,-0.00001644,0.00000326,0.00000531,-0.00001033,0.00002526,-
 0.00002515,-0.00004701,0.00000845,0.00002180,0.00000742,0.00000434,0.0
 0002107,-0.00000812,0.00000811,0.00000663,0.00000282,-0.00000556,0.000
 01083,-0.00000175,0.00000519,-0.00011036,-0.01783742,-0.02482805,-0.00
 296752,0.00368266,-0.00519597,-0.07608800,-0.02267278,-0.04789269,-0.0
 0107562,0.00033520,0.00028737,-0.00010715,-0.00094667,-0.00112754,0.00
 927631,0.01613612,0.02095704,0.07232817,-0.00050578,-0.00168567,0.0016
 4666,0.00002723,0.00058093,0.00083632,0.00014216,-0.00010707,0.0000784
 2,-0.00001406,-0.00001253,-0.00005329,-0.00005677,-0.00011742,-0.00007
 726,-0.00005136,-0.00002645,0.00003828,0.00000690,0.00005649,0.0000209
 3,0.00003300,-0.00003182,-0.00002391,0.00000076,0.00000242,0.00000647,
 0.00000697,0.00001844,0.00002259,0.00000364,-0.00000351,-0.00000632,-0
 .00000152,0.00000978,0.00000859,0.00000151,0.00001365,-0.00000208,-0.0
 0014227,0.00018855,0.00020116,-0.00000084,0.00003412,0.00004512,-0.000
 09126,0.00006186,-0.00014694,0.00000710,-0.00004849,0.00001902,0.00000
 267,-0.00000351,0.00001370,0.00002423,-0.00002100,0.00001803,-0.000011
 22,-0.00001570,0.00002838,-0.00002662,0.00000683,-0.00001036,-0.000000
 06,-0.00000572,-0.00000678,-0.00001639,-0.00000904,0.00000054,-0.00000
 305,-0.00000243,0.00000282,0.00323552,0.00702455,0.00448253,0.00349007
 ,0.00389085,-0.00176978,-0.02267024,-0.16138500,-0.14564004,0.00027983
 ,-0.00037761,0.00088960,0.00007891,0.00010520,0.00030120,-0.00739971,-
 0.00868423,-0.02189558,0.01956974,0.16201493,0.00217734,0.00146594,-0.
 00084711,-0.00054862,0.00026011,0.00039312,-0.00032502,0.00033044,0.00
 035808,0.00025012,-0.00011914,-0.00007435,0.00011176,0.00038131,0.0000
 9180,0.00010408,0.00018887,0.00000473,-0.00012701,-0.00011286,-0.00006
 014,-0.00007729,0.00001438,0.00013118,-0.00002880,-0.00000687,-0.00003
 108,0.00003766,-0.00003481,-0.00008388,-0.00002390,-0.00000319,-0.0000
 0282,0.00000035,-0.00000148,-0.00001779,-0.00001289,-0.00001247,-0.000
 00196,0.00000522,-0.00024077,0.00032715,0.00015119,0.00006794,0.000060
 50,0.00002441,0.00003919,0.00006678,0.00003180,-0.00000561,0.00004893,
 0.00000021,-0.00001772,-0.00003722,0.00000949,0.00003228,-0.00002460,-
 0.00000564,-0.00002271,-0.00003108,0.00000717,-0.00000343,0.00000554,0
 .00001440,-0.00000134,-0.00000059,0.00001352,-0.00000173,-0.00000357,0
 .00000385,-0.00000317,-0.00000368,0.00007796,-0.01441401,-0.01064529,-
 0.00542045,-0.00133968,0.00203996,-0.04834723,-0.14470931,-0.25169603,
 0.00020812,0.00098401,0.00029814,-0.00003125,-0.00060905,-0.00074782,-
 0.00523770,-0.00281918,-0.00178198,0.05537499,0.16214109,0.25998565,0.
 00017890,-0.00152511,-0.00034326,-0.00020140,0.00003463,0.00065279,0.0
 0045368,-0.00037555,0.00029248,0.00013350,0.00005289,0.00012330,0.0002
 0949,0.00032064,-0.00000387,-0.00004576,0.00030053,0.00009301,-0.00032
 177,0.00008952,0.00021210,-0.00015717,-0.00010210,0.00014234,0.0000022
 6,-0.00001870,-0.00000062,0.00012171,-0.00003951,-0.00018332,0.0000242
 0,0.00004475,-0.00002039,-0.00001872,0.00002270,-0.00002123,0.00000213
 ,0.00001815,0.00000308,0.00025206,0.00035600,-0.00025100,0.00018685,0.
 00003061,0.00024436,-0.00035365,0.00007323,0.00001612,-0.00020337,-0.0
 0015001,0.00005323,0.00001809,-0.00002114,0.00001985,0.00027929,0.0000
 1421,0.00016608,0.00000826,-0.00001066,-0.00004898,-0.00004080,0.00013
 334,-0.00025360,-0.00002009,0.00000248,-0.00001971,-0.00002288,-0.0000
 0718,0.00002095,-0.00002205,0.00000038,-0.00000231,-0.03933892,-0.0186
 8955,-0.04813121,-0.04667699,0.06208886,0.02352670,0.06291554,-0.01156
 791,0.02970949,-0.28661680,0.02249121,-0.14460319,0.00059359,0.0055520
 6,-0.00055636,-0.14919622,0.03241778,-0.01882680,-0.00088669,0.0064688
 0,-0.00094788,0.65350495,-0.00093083,-0.00122685,-0.00012036,0.0001494
 7,-0.00010599,0.00043137,0.00100179,0.00003667,-0.00005239,0.00004514,
 -0.00018683,-0.00010686,-0.00002143,-0.00008714,0.00022509,-0.00003980
 ,0.00014847,0.00009094,-0.00007282,0.00000121,0.00003745,-0.00009505,-
 0.00005960,0.00000154,0.00001534,0.00002637,0.00000793,0.00003731,-0.0
 0009623,-0.00007094,-0.00000320,-0.00003030,0.00002961,-0.00002140,-0.
 00003428,-0.00000724,-0.00000891,-0.00000266,0.00000875,-0.00000464,-0
 .00004716,-0.00025834,0.00013147,0.00005951,-0.00003235,-0.00006510,-0
 .00001599,0.00009597,-0.00007857,-0.00003634,-0.00000914,0.00000138,-0
 .00001344,-0.00000183,0.00005632,0.00001677,0.00008938,-0.00004525,-0.
 00004787,-0.00001521,0.00005651,0.00006627,-0.00003459,0.00001968,-0.0
 0000791,0.00000650,0.00003841,0.00000154,-0.00001460,0.00001395,-0.000
 00305,-0.00000005,-0.01918029,-0.00967262,-0.01974474,0.02151434,0.020
 13351,0.02971562,0.02868587,-0.03312551,-0.02524988,0.07483632,-0.1337
 3570,0.00701154,0.00560269,0.00033283,-0.00473519,-0.01934014,-0.19660
 084,-0.14388188,0.00612500,0.00119951,-0.00381522,-0.23110257,0.551292
 55,-0.00008953,-0.00176609,-0.00115525,0.00022419,-0.00030485,0.000967
 38,0.00117847,-0.00013444,0.00037610,0.00024079,-0.00034983,0.00007305
 ,0.00019101,0.00032797,0.00028447,-0.00001817,0.00046741,0.00010786,-0
 .00023295,-0.00005576,0.00006634,-0.00027681,-0.00018981,0.00018607,0.
 00000680,0.00000894,0.00000554,0.00015675,-0.00020233,-0.00027652,0.00
 001242,-0.00002724,0.00004701,-0.00003956,-0.00001409,-0.00002642,-0.0
 0000800,-0.00000035,0.00000405,0.00023025,0.00013756,-0.00051960,0.000
 38671,0.00009206,0.00023171,-0.00037921,0.00014140,0.00010551,-0.00028
 719,-0.00018817,0.00003964,0.00001555,-0.00001549,0.00000275,0.0003369
 7,0.00005383,0.00024539,-0.00000119,-0.00004725,-0.00008388,0.00003022
 ,0.00019423,-0.00027652,0.00000476,-0.00000610,-0.00000762,0.00000264,
 -0.00000638,0.00000988,-0.00000730,-0.00000031,-0.00000719,-0.04902850
 ,-0.01807173,-0.07028109,-0.02313705,0.06349989,0.06270769,0.07712259,
 -0.05855506,0.00646602,-0.08645259,-0.03703964,-0.19716056,-0.00023555
 ,-0.00504334,0.00329285,-0.07741349,-0.09987055,-0.26218386,-0.0014739
 4,-0.00334736,0.00406253,0.14227539,0.22989426,0.55402675,0.00048267,0
 .00027457,0.00085215,-0.00012548,0.00016397,0.00013199,-0.00011137,0.0
 0001924,0.00004612,0.00001843,-0.00000935,-0.00002741,-0.00000333,0.00
 004607,-0.00001636,0.00000896,0.00000217,-0.00000443,0.00000703,0.0000
 0978,-0.00000943,0.00000969,0.00001154,0.00000605,-0.00000257,-0.00000
 553,-0.00000604,-0.00000136,0.00000834,0.00000290,0.00000031,-0.000003
 07,-0.00000036,0.00000196,0.00000639,0.00000256,-0.00000070,0.00000209
 ,-0.00000208,0.00013954,-0.00003010,-0.00000349,0.00002025,-0.00001589
 ,-0.00002199,-0.00004143,-0.00001491,-0.00001102,-0.00002393,-0.000019
 10,-0.00001464,0.00000368,0.00001090,0.00000912,0.00001458,-0.00001643
 ,0.00000462,0.00000233,0.00001375,0.00000919,-0.00003467,-0.00001076,-
 0.00002980,-0.00000927,0.00000861,0.00000189,-0.00001299,0.00000190,0.
 00000877,-0.00000714,0.00000640,0.00000350,-0.00101506,0.00624186,-0.0
 0116755,0.00922628,0.01565868,0.02066300,-0.00123778,0.00036152,0.0002
 1571,-0.07682013,-0.02314864,-0.04918476,-0.00012224,-0.00239076,0.001
 38043,-0.00263258,0.00397876,-0.00524101,-0.00021958,-0.00044444,0.000
 36560,0.00115908,-0.01935619,-0.02534152,0.07177537,-0.00050155,-0.000
 33750,-0.00078844,0.00021158,-0.00029480,-0.00009309,0.00017408,0.0001
 0181,-0.00016088,0.00002869,-0.00011623,0.00002086,-0.00005844,-0.0001
 1159,0.00006355,0.00001450,0.00000980,-0.00000614,-0.00000169,0.000030
 73,-0.00006420,0.00000119,-0.00000672,-0.00000536,-0.00001358,0.000017
 91,0.00001314,-0.00000887,-0.00002664,0.00000717,-0.00001856,-0.000024
 95,0.00001462,-0.00000170,-0.00001642,0.00000083,-0.00000584,-0.000010
 20,0.00000070,-0.00028203,-0.00002373,-0.00002461,0.00009195,0.0000496
 3,0.00003278,0.00001498,0.00003756,0.00000535,-0.00002276,-0.00000233,
 0.00001641,-0.00000844,-0.00002017,-0.00001252,0.00000938,-0.00000798,
 0.00002004,-0.00001037,-0.00001516,0.00002229,0.00003718,0.00002857,0.
 00000287,0.00002409,-0.00001537,0.00001012,0.00000843,0.00000374,-0.00
 000333,0.00001421,-0.00000183,-0.00000052,0.00623874,0.00116287,-0.003
 14558,-0.00730933,-0.00861019,-0.02191776,0.00034133,-0.00035638,0.000
 96018,-0.02317469,-0.16268548,-0.14703613,-0.00155213,-0.00141632,0.00
 271089,0.00371521,0.00437296,-0.00201905,-0.00045878,-0.00055550,0.000
 39804,0.00379440,0.00793222,0.00575944,0.02105901,0.16228757,-0.000445
 90,0.00017220,-0.00029388,0.00004701,-0.00008346,-0.00006460,0.0001573
 9,-0.00000619,-0.00003224,-0.00002966,-0.00001867,0.00004334,-0.000011
 61,-0.00004580,0.00004706,0.00001896,0.00000817,-0.00001998,0.00000706
 ,0.00000702,-0.00003668,-0.00001379,-0.00001588,-0.00000187,0.00000182
 ,0.00001042,-0.00000059,0.00000423,-0.00002032,-0.00000762,-0.00000971
 ,-0.00000343,0.00000612,-0.00000166,-0.00001541,-0.00000639,-0.0000023
 8,-0.00001353,0.00000118,-0.00007434,-0.00009368,-0.00001653,0.0000047
 3,0.00001798,-0.00003746,0.00007127,-0.00000005,0.00001641,0.00002069,
 0.00002879,-0.00000132,-0.00000949,0.00000436,-0.00001108,-0.00004151,
 0.00000954,0.00000237,-0.00001890,-0.00002010,-0.00000282,0.00003583,0
 .00000285,0.00004701,0.00001284,-0.00000700,0.00000612,0.00002522,0.00
 000315,-0.00001894,0.00001856,-0.00000510,0.00000002,-0.00083443,-0.00
 367288,0.00383865,-0.00511383,-0.00255478,-0.00162026,0.00034376,0.000
 92420,0.00036753,-0.04896897,-0.14693797,-0.25419276,0.00207412,0.0021
 2312,-0.00089619,-0.00559727,-0.00172721,0.00234017,0.00036248,0.00040
 617,-0.00051136,0.00043447,-0.01363046,-0.00925539,0.05624148,0.162972
 46,0.26195024,-0.00065094,-0.00033604,-0.00078260,-0.00001148,0.000020
 77,0.00006395,-0.00012933,-0.00012809,0.00008261,0.00004226,0.00002988
 ,-0.00003735,0.00006090,0.00008384,-0.00002396,-0.00001187,0.00000157,
 0.00001515,-0.00002364,-0.00001899,0.00003764,0.00000537,0.00001531,0.
 00001549,-0.00001100,-0.00001300,-0.00000526,0.00000895,0.00002556,0.0
 0000421,0.00000403,0.00000792,-0.00001534,-0.00000688,0.00002259,0.000
 00095,0.00000088,0.00001668,-0.00000381,0.00003649,0.00028102,0.000181
 51,-0.00010411,-0.00004701,0.00000738,-0.00005469,0.00001784,-0.000061
 48,0.00002799,-0.00001154,-0.00000158,0.00000627,-0.00000276,0.0000042
 3,0.00000200,0.00000514,-0.00002629,0.00001648,0.00001007,-0.00000146,
 -0.00003096,-0.00001564,0.00000757,-0.00001386,0.00000274,-0.00001252,
 -0.00002049,-0.00001473,0.00000387,-0.00001475,-0.00000222,-0.00000272
 ,0.00085691,0.00591427,-0.00032695,0.00032536,-0.00003033,0.00101966,-
 0.01312074,-0.00027509,-0.01620216,0.00336648,0.00171129,-0.00255450,-
 0.00036116,-0.00042242,0.00028481,-0.26979599,0.03912842,-0.14299601,-
 0.00028963,-0.00166539,0.00227069,0.00051152,0.00388050,0.00017818,-0.
 00022110,0.00006531,-0.00003328,0.27988417,0.00078691,0.00012845,0.000
 78025,-0.00004947,0.00007848,-0.00000159,0.00012472,0.00005957,-0.0000
 5168,-0.00003481,-0.00004168,0.00000538,-0.00001914,-0.00005987,0.0000
 2239,-0.00001431,-0.00001045,-0.00001519,0.00003908,0.00000966,0.00000
 267,-0.00001089,-0.00000288,-0.00001497,0.00000621,0.00000859,0.000012
 57,-0.00002003,-0.00003030,0.00000547,0.00000140,-0.00001329,0.0000202
 7,0.00000306,-0.00001021,0.00000314,0.00000498,-0.00000746,0.00000549,
 0.00008777,-0.00038803,-0.00006491,0.00003756,0.00002977,-0.00000332,0
 .00006731,0.00002283,-0.00001353,0.00002643,0.00004035,0.00000998,0.00
 000188,-0.00001658,-0.00000532,-0.00005057,0.00000449,-0.00000369,-0.0
 0000556,-0.00000247,0.00000044,0.00002846,-0.00002205,0.00004130,0.000
 01084,-0.00000060,0.00000914,0.00000479,0.00000340,-0.00000442,0.00000
 665,-0.00000120,0.00000033,0.00536330,0.00043983,-0.00503653,-0.000163
 21,-0.00108390,-0.00032700,0.02274108,0.00257552,0.01587005,0.00206873
 ,0.00129466,-0.00657841,-0.00036610,-0.00047680,0.00056010,0.03903150,
 -0.06740011,0.01186703,-0.00244783,-0.00144952,0.00213388,-0.01899375,
 0.00826664,-0.01290148,-0.00088804,0.00010019,-0.00053632,-0.04593620,
 0.05930731,0.00044873,-0.00000798,0.00021831,-0.00001903,0.00003021,-0
 .00004028,-0.00010046,0.00005519,0.00002032,0.00001782,0.00002282,-0.0
 0001370,-0.00000664,0.00000017,-0.00004490,-0.00000052,-0.00001333,0.0
 0003089,-0.00003050,-0.00002357,-0.00000065,0.00001586,0.00000824,-0.0
 0000619,0.00000232,-0.00000509,-0.00000357,0.00000217,0.00002544,0.000
 00988,-0.00000150,0.00000926,-0.00001894,0.00000189,0.00000556,0.00000
 195,-0.00000271,0.00000901,-0.00000264,0.00000235,0.00000997,-0.000083
 17,0.00001465,0.00001008,0.00003698,-0.00002326,0.00000295,0.00003059,
 -0.00002490,-0.00000961,0.00001417,0.00000358,-0.00000773,-0.00000327,
 0.00003636,0.00001323,0.00001374,0.00000716,-0.00000479,-0.00001779,0.
 00000434,0.00002201,-0.00002642,-0.00000056,-0.00000264,-0.00000639,0.
 00000225,-0.00000239,0.00000195,-0.00000356,-0.00000252,-0.00000373,-0
 .00054849,-0.00480244,0.00329969,0.00101368,-0.00031111,-0.00044266,0.
 00975477,-0.00373151,0.00975785,-0.00219322,-0.00682673,-0.00094306,0.
 00028489,0.00052584,-0.00042446,-0.14318186,0.01200238,-0.15676220,0.0
 0140172,0.00272710,-0.00090563,-0.02562249,0.00655152,-0.00886689,-0.0
 0114878,0.00026938,-0.00072476,0.15769805,-0.00847757,0.15666713,-0.00
 016019,-0.00046024,0.00030913,-0.00000714,0.00008068,0.00012265,0.0000
 0765,-0.00008194,-0.00001601,0.00002851,0.00000437,-0.00003939,0.00000
 656,0.00000328,-0.00001246,-0.00001809,-0.00000185,0.00002263,-0.00002
 379,-0.00001267,0.00002459,0.00000568,0.00000503,-0.00000607,-0.000001
 19,-0.00000519,0.00000082,-0.00000159,0.00001143,0.00000392,0.00000577
 ,0.00000105,-0.00000486,-0.00000267,0.00000920,0.00000397,0.00000187,0
 .00001137,-0.00000041,0.00004768,0.00005180,0.00002944,-0.00005593,-0.
 00000126,0.00004027,-0.00000449,0.00002691,-0.00003134,0.00003038,0.00
 000902,0.00002223,0.00000845,-0.00002389,0.00000023,0.00000601,0.00000
 982,-0.00001825,0.00001497,0.00000380,-0.00000435,-0.00000547,-0.00001
 376,0.00000370,-0.00000620,0.00000109,-0.00001053,-0.00001475,-0.00000
 765,0.00000915,-0.00001463,-0.00000184,-0.00000269,-0.00032080,-0.0009
 3626,-0.00049734,-0.00155793,0.00230326,-0.00626599,0.00273409,0.00130
 216,-0.00357298,-0.01258324,0.02304862,0.01089187,-0.00082585,0.000960
 67,0.00045511,0.00880576,-0.00685333,-0.00454217,0.00016279,-0.0002780
 9,-0.00010621,-0.19643178,0.14815471,0.04182886,-0.00022745,-0.0024155
 1,0.00132483,-0.00028345,-0.00144273,0.00219591,0.20068047,-0.00029260
 ,-0.00050344,0.00041217,0.00000154,0.00004551,0.00012368,0.00014109,-0
 .00002320,-0.00008891,-0.00001690,-0.00004652,0.00001821,-0.00003427,-
 0.00005120,0.00004381,0.00001729,0.00001883,-0.00003124,0.00003073,0.0
 0003064,-0.00003716,-0.00000982,-0.00001142,0.00000017,-0.00000389,0.0
 0000959,0.00000492,-0.00000214,-0.00002351,-0.00000616,-0.00000676,-0.
 00001474,0.00001862,0.00000033,-0.00001329,-0.00000182,-0.00000058,-0.
 00001391,0.00000203,-0.00001459,-0.00006665,-0.00000115,0.00002833,0.0
 0001443,-0.00003344,0.00002859,-0.00002670,-0.00001356,-0.00001130,0.0
 0000480,-0.00000975,-0.00000678,0.00000601,0.00000331,-0.00001565,-0.0
 0001852,0.00000875,-0.00000970,-0.00000054,0.00001740,0.00001330,0.000
 00494,0.00000710,0.00000902,-0.00000470,0.00000883,0.00000405,0.000008
 17,-0.00000216,0.00001011,0.00000260,0.00000351,-0.00103594,0.00011675
 ,0.00029830,0.00274225,0.00472444,-0.00247542,0.00092685,0.00254915,-0
 .00614268,-0.00021054,0.00190060,-0.00387567,0.00000390,-0.00015924,-0
 .00008092,0.01609453,-0.00855736,-0.00170775,0.00063867,-0.00066586,-0
 .00014374,0.14829657,-0.21437775,-0.06243930,-0.00153235,-0.00148004,0
 .00271781,-0.00232127,-0.00135233,0.00192867,-0.16346207,0.21797441,0.
 00033277,0.00048332,-0.00029676,-0.00007201,-0.00001968,-0.00003235,-0
 .00002251,0.00008192,0.00006373,0.00001751,-0.00000284,0.00001436,0.00
 001511,0.00002895,0.00000361,0.00000374,0.00000705,0.00000113,-0.00002
 197,-0.00001093,-0.00000774,-0.00000399,0.00000389,0.00001223,-0.00000
 503,0.00000308,-0.00000368,0.00000120,-0.00000198,-0.00000719,-0.00000
 129,0.00000329,0.00000002,0.00000107,-0.00000252,-0.00000373,-0.000001
 69,-0.00000409,0.00000083,-0.00004624,-0.00003554,0.00000975,0.0000302
 7,0.00001897,0.00003942,0.00002051,0.00004059,0.00001034,0.00001860,0.
 00000406,0.00000949,-0.00000029,-0.00000514,-0.00000887,-0.00000300,0.
 00000539,0.00000012,-0.00000935,-0.00001203,-0.00000196,0.00000603,-0.
 00000704,0.00000405,0.00000165,0.00000145,0.00000118,0.00000666,0.0000
 0056,-0.00000264,0.00000197,-0.00000066,0.00000083,-0.00045808,0.00020
 864,-0.00113651,-0.00579492,-0.00276715,0.00108224,-0.00403841,-0.0058
 3650,-0.00136506,-0.01489552,0.01560397,0.01021476,-0.00057378,0.00070
 582,0.00022473,0.02132178,-0.02125965,-0.00084345,0.00098005,-0.000955
 02,-0.00036610,0.04185049,-0.06241621,-0.08320777,0.00228560,0.0019764
 9,-0.00091349,0.00121133,0.00268602,-0.00076220,-0.04215827,0.07147354
 ,0.07726667||0.,0.,-0.00006694,0.,0.,-0.00002384,0.00000496,0.00001149
 ,0.00006287,0.00004764,0.00006315,-0.00004543,-0.00002016,-0.00002914,
 -0.00001377,-0.00004233,-0.00008003,-0.00003582,-0.00000137,-0.0000085
 0,0.00001367,0.00000538,0.00002918,-0.00002019,0.00000814,0.00000369,0
 .00000002,0.00000485,0.00003260,0.00006100,-0.00000131,0.00000204,0.00
 001639,0.00000399,-0.00001281,-0.00000598,-0.00000193,-0.00001191,-0.0
 0000251,-0.00001243,-0.00000145,0.00006287,-0.00007851,0.00000969,-0.0
 0004543,0.00003532,-0.00000289,-0.00001377,0.00009048,0.00000335,-0.00
 003582,0.00000805,0.00000306,0.00001367,-0.00002797,-0.00000993,-0.000
 02019,-0.00000726,0.00000520,0.00000002,-0.00003066,-0.00001210,0.0000
 6100,-0.00000111,-0.00000216,0.00001639,0.00000910,0.00000986,-0.00000
 598,0.00001128,0.00000428,-0.00000251,0.00000747,-0.00001004,0.0000628
 7,0.00003086,-0.00007283,-0.00004543,-0.00001516,0.00003203,-0.0000137
 7,-0.00004814,0.00007668,-0.00003582,-0.00000668,0.00000544,0.00001367
 ,0.00002258,-0.00001925,-0.00002019,-0.00000087,-0.00000889,0.00000002
 ,0.00002581,-0.00002050,0.00006100,0.00000243,0.00000011,0.00001639,-0
 .00001309,0.00000295,-0.00000598,-0.00000935,0.00000763,-0.00000251|||
 @


 THERE IS NO SUBJECT, HOWEVER COMPLEX,
 WHICH, IF STUDIED WITH PATIENCE AND INTELLIGIENCE
 WILL NOT BECOME
 MORE COMPLEX
                        QUOTED BY D. GORDON ROHMAN
 Job cpu time:  0 days  0 hours  3 minutes 26.0 seconds.
 File lengths (MBytes):  RWF=    178 Int=      0 D2E=      0 Chk=      7 Scr=      1
 Normal termination of Gaussian 09 at Tue Sep 07 02:09:03 2021.
