 Entering Link 1 = b:\programy\g09w\l1.exe PID=     16656.
  
 Copyright (c) 1988,1990,1992,1993,1995,1998,2003,2009, Gaussian, Inc.
                  All Rights Reserved.
  
 This is part of the Gaussian(R) 09 program.  It is based on
 the Gaussian(R) 03 system (copyright 2003, Gaussian, Inc.),
 the Gaussian(R) 98 system (copyright 1998, Gaussian, Inc.),
 the Gaussian(R) 94 system (copyright 1995, Gaussian, Inc.),
 the Gaussian 92(TM) system (copyright 1992, Gaussian, Inc.),
 the Gaussian 90(TM) system (copyright 1990, Gaussian, Inc.),
 the Gaussian 88(TM) system (copyright 1988, Gaussian, Inc.),
 the Gaussian 86(TM) system (copyright 1986, Carnegie Mellon
 University), and the Gaussian 82(TM) system (copyright 1983,
 Carnegie Mellon University). Gaussian is a federally registered
 trademark of Gaussian, Inc.
  
 This software contains proprietary and confidential information,
 including trade secrets, belonging to Gaussian, Inc.
  
 This software is provided under written license and may be
 used, copied, transmitted, or stored only in accord with that
 written license.
  
 The following legend is applicable only to US Government
 contracts under FAR:
  
                    RESTRICTED RIGHTS LEGEND
  
 Use, reproduction and disclosure by the US Government is
 subject to restrictions as set forth in subparagraphs (a)
 and (c) of the Commercial Computer Software - Restricted
 Rights clause in FAR 52.227-19.
  
 Gaussian, Inc.
 340 Quinnipiac St., Bldg. 40, Wallingford CT 06492
  
  
 ---------------------------------------------------------------
 Warning -- This program may not be used in any manner that
 competes with the business of Gaussian, Inc. or will provide
 assistance to any competitor of Gaussian, Inc.  The licensee
 of this program is prohibited from giving any competitor of
 Gaussian, Inc. access to this program.  By using this program,
 the user acknowledges that Gaussian, Inc. is engaged in the
 business of creating and licensing software in the field of
 computational chemistry and represents and warrants to the
 licensee that it is not a competitor of Gaussian, Inc. and that
 it will not use this program in any manner prohibited above.
 ---------------------------------------------------------------
  

 Cite this work as:
 Gaussian 09, Revision A.02,
 M. J. Frisch, G. W. Trucks, H. B. Schlegel, G. E. Scuseria, 
 M. A. Robb, J. R. Cheeseman, G. Scalmani, V. Barone, B. Mennucci, 
 G. A. Petersson, H. Nakatsuji, M. Caricato, X. Li, H. P. Hratchian, 
 A. F. Izmaylov, J. Bloino, G. Zheng, J. L. Sonnenberg, M. Hada, 
 M. Ehara, K. Toyota, R. Fukuda, J. Hasegawa, M. Ishida, T. Nakajima, 
 Y. Honda, O. Kitao, H. Nakai, T. Vreven, J. A. Montgomery, Jr., 
 J. E. Peralta, F. Ogliaro, M. Bearpark, J. J. Heyd, E. Brothers, 
 K. N. Kudin, V. N. Staroverov, R. Kobayashi, J. Normand, 
 K. Raghavachari, A. Rendell, J. C. Burant, S. S. Iyengar, J. Tomasi, 
 M. Cossi, N. Rega, J. M. Millam, M. Klene, J. E. Knox, J. B. Cross, 
 V. Bakken, C. Adamo, J. Jaramillo, R. Gomperts, R. E. Stratmann, 
 O. Yazyev, A. J. Austin, R. Cammi, C. Pomelli, J. W. Ochterski, 
 R. L. Martin, K. Morokuma, V. G. Zakrzewski, G. A. Voth, 
 P. Salvador, J. J. Dannenberg, S. Dapprich, A. D. Daniels, 
 O. Farkas, J. B. Foresman, J. V. Ortiz, J. Cioslowski, 
 and D. J. Fox, Gaussian, Inc., Wallingford CT, 2009.
 
 ******************************************
 Gaussian 09:  IA32W-G09RevA.02 11-Jun-2009
                06-Sep-2021 
 ******************************************
 %nprocshared=12
 Will use up to   12 processors via shared memory.
 ----------------------------------------------
 # opt freq=noraman hf/6-311g geom=connectivity
 ----------------------------------------------
 1/18=20,19=15,38=1,57=2/1,3;
 2/9=110,12=2,17=6,18=5,40=1/2;
 3/5=4,6=6,11=9,16=1,25=1,30=1,71=1/1,2,3;
 4//1;
 5/5=2,38=5/2;
 6/7=2,8=2,9=2,10=2,28=1/1;
 7//1,2,3,16;
 1/18=20,19=15/3(2);
 2/9=110/2;
 99//99;
 2/9=110/2;
 3/5=4,6=6,11=9,16=1,25=1,30=1,71=1/1,2,3;
 4/5=5,16=3/1;
 5/5=2,38=5/2;
 7//1,2,3,16;
 1/18=20,19=15/3(-5);
 2/9=110/2;
 6/7=2,8=2,9=2,10=2,19=2,28=1/1;
 99/9=1/99;
 -----
 M0001
 -----
 Symbolic Z-matrix:
 Charge =  0 Multiplicity = 1
 C                    -0.28298  -0.71348  -0.02815 
 H                    -0.75635  -1.73228  -0.06464 
 C                    -0.38528  -0.23055   1.39792 
 C                    -0.01685   1.0644    1.76622 
 C                    -0.88281  -1.09788   2.37361 
 C                    -0.15214   1.48952   3.08232 
 H                     0.40245   1.7367    1.00221 
 C                    -1.01465  -0.6724    3.69063 
 H                    -1.17256  -2.11998   2.10226 
 C                    -0.65345   0.62227   4.04696 
 H                     0.13747   2.50869   3.35799 
 H                    -1.40577  -1.3594    4.44809 
 H                    -0.76182   0.95709   5.08347 
 C                     1.14041  -0.8907   -0.49506 
 C                     2.14019   0.0505   -0.2441 
 C                     1.46501  -2.04638  -1.21199 
 C                     3.43805  -0.16019  -0.69573 
 H                     1.89633   0.96285   0.3238 
 C                     2.76218  -2.25406  -1.6654 
 H                     0.69273  -2.79621  -1.42098 
 C                     3.7522   -1.31201  -1.40758 
 H                     4.21329   0.58448  -0.48811 
 H                     3.00416  -3.16268  -2.22629 
 H                     4.77419  -1.47742  -1.76307 
 C                    -1.09828   0.17076  -0.94101 
 C                    -0.5484    1.25218  -1.62854 
 C                    -2.46055  -0.10765  -1.09191 
 C                    -1.34434   2.04125  -2.45235 
 H                     0.52082   1.47792  -1.52762 
 C                    -3.25404   0.68296  -1.91358 
 H                    -2.90856  -0.95273  -0.5563 
 C                    -2.69754   1.75975  -2.59622 
 H                    -0.90042   2.88603  -2.98886 
 H                    -4.31961   0.45704  -2.0236 
 H                    -3.32307   2.3816   -3.2444 
 

 GradGradGradGradGradGradGradGradGradGradGradGradGradGradGradGradGradGrad
 Berny optimization.
 Initialization pass.
                           ----------------------------
                           !    Initial Parameters    !
                           ! (Angstroms and Degrees)  !
 --------------------------                            --------------------------
 ! Name  Definition              Value          Derivative Info.                !
 --------------------------------------------------------------------------------
 ! R1    R(1,2)                  1.124          estimate D2E/DX2                !
 ! R2    R(1,3)                  1.5091         estimate D2E/DX2                !
 ! R3    R(1,14)                 1.5085         estimate D2E/DX2                !
 ! R4    R(1,25)                 1.5099         estimate D2E/DX2                !
 ! R5    R(3,4)                  1.3958         estimate D2E/DX2                !
 ! R6    R(3,5)                  1.3971         estimate D2E/DX2                !
 ! R7    R(4,6)                  1.3897         estimate D2E/DX2                !
 ! R8    R(4,7)                  1.1007         estimate D2E/DX2                !
 ! R9    R(5,8)                  1.3903         estimate D2E/DX2                !
 ! R10   R(5,9)                  1.0965         estimate D2E/DX2                !
 ! R11   R(6,10)                 1.3907         estimate D2E/DX2                !
 ! R12   R(6,11)                 1.0948         estimate D2E/DX2                !
 ! R13   R(8,10)                 1.3905         estimate D2E/DX2                !
 ! R14   R(8,12)                 1.0948         estimate D2E/DX2                !
 ! R15   R(10,13)                1.0946         estimate D2E/DX2                !
 ! R16   R(14,15)                1.3958         estimate D2E/DX2                !
 ! R17   R(14,16)                1.3982         estimate D2E/DX2                !
 ! R18   R(15,17)                1.3903         estimate D2E/DX2                !
 ! R19   R(15,18)                1.102          estimate D2E/DX2                !
 ! R20   R(16,19)                1.3897         estimate D2E/DX2                !
 ! R21   R(16,20)                1.0965         estimate D2E/DX2                !
 ! R22   R(17,21)                1.39           estimate D2E/DX2                !
 ! R23   R(17,22)                1.0948         estimate D2E/DX2                !
 ! R24   R(19,21)                1.3907         estimate D2E/DX2                !
 ! R25   R(19,23)                1.0949         estimate D2E/DX2                !
 ! R26   R(21,24)                1.0946         estimate D2E/DX2                !
 ! R27   R(25,26)                1.3945         estimate D2E/DX2                !
 ! R28   R(25,27)                1.3986         estimate D2E/DX2                !
 ! R29   R(26,28)                1.391          estimate D2E/DX2                !
 ! R30   R(26,29)                1.0974         estimate D2E/DX2                !
 ! R31   R(27,30)                1.3892         estimate D2E/DX2                !
 ! R32   R(27,31)                1.0962         estimate D2E/DX2                !
 ! R33   R(28,32)                1.3896         estimate D2E/DX2                !
 ! R34   R(28,33)                1.0948         estimate D2E/DX2                !
 ! R35   R(30,32)                1.3911         estimate D2E/DX2                !
 ! R36   R(30,34)                1.0948         estimate D2E/DX2                !
 ! R37   R(32,35)                1.0946         estimate D2E/DX2                !
 ! A1    A(2,1,3)              106.9895         estimate D2E/DX2                !
 ! A2    A(2,1,14)             106.3114         estimate D2E/DX2                !
 ! A3    A(2,1,25)             106.4856         estimate D2E/DX2                !
 ! A4    A(3,1,14)             113.2073         estimate D2E/DX2                !
 ! A5    A(3,1,25)             110.3226         estimate D2E/DX2                !
 ! A6    A(14,1,25)            113.0276         estimate D2E/DX2                !
 ! A7    A(1,3,4)              121.8934         estimate D2E/DX2                !
 ! A8    A(1,3,5)              119.041          estimate D2E/DX2                !
 ! A9    A(4,3,5)              119.0578         estimate D2E/DX2                !
 ! A10   A(3,4,6)              120.5312         estimate D2E/DX2                !
 ! A11   A(3,4,7)              118.9512         estimate D2E/DX2                !
 ! A12   A(6,4,7)              120.5051         estimate D2E/DX2                !
 ! A13   A(3,5,8)              120.3543         estimate D2E/DX2                !
 ! A14   A(3,5,9)              119.9996         estimate D2E/DX2                !
 ! A15   A(8,5,9)              119.6461         estimate D2E/DX2                !
 ! A16   A(4,6,10)             120.0832         estimate D2E/DX2                !
 ! A17   A(4,6,11)             119.8345         estimate D2E/DX2                !
 ! A18   A(10,6,11)            120.0823         estimate D2E/DX2                !
 ! A19   A(5,8,10)             120.2019         estimate D2E/DX2                !
 ! A20   A(5,8,12)             119.8152         estimate D2E/DX2                !
 ! A21   A(10,8,12)            119.9829         estimate D2E/DX2                !
 ! A22   A(6,10,8)             119.7694         estimate D2E/DX2                !
 ! A23   A(6,10,13)            120.1167         estimate D2E/DX2                !
 ! A24   A(8,10,13)            120.1138         estimate D2E/DX2                !
 ! A25   A(1,14,15)            122.7512         estimate D2E/DX2                !
 ! A26   A(1,14,16)            118.3512         estimate D2E/DX2                !
 ! A27   A(15,14,16)           118.8973         estimate D2E/DX2                !
 ! A28   A(14,15,17)           120.5348         estimate D2E/DX2                !
 ! A29   A(14,15,18)           119.499          estimate D2E/DX2                !
 ! A30   A(17,15,18)           119.9645         estimate D2E/DX2                !
 ! A31   A(14,16,19)           120.497          estimate D2E/DX2                !
 ! A32   A(14,16,20)           119.9631         estimate D2E/DX2                !
 ! A33   A(19,16,20)           119.5399         estimate D2E/DX2                !
 ! A34   A(15,17,21)           120.1938         estimate D2E/DX2                !
 ! A35   A(15,17,22)           119.759          estimate D2E/DX2                !
 ! A36   A(21,17,22)           120.0472         estimate D2E/DX2                !
 ! A37   A(16,19,21)           120.1829         estimate D2E/DX2                !
 ! A38   A(16,19,23)           119.8314         estimate D2E/DX2                !
 ! A39   A(21,19,23)           119.9857         estimate D2E/DX2                !
 ! A40   A(17,21,19)           119.6938         estimate D2E/DX2                !
 ! A41   A(17,21,24)           120.1682         estimate D2E/DX2                !
 ! A42   A(19,21,24)           120.138          estimate D2E/DX2                !
 ! A43   A(1,25,26)            122.6362         estimate D2E/DX2                !
 ! A44   A(1,25,27)            118.332          estimate D2E/DX2                !
 ! A45   A(26,25,27)           119.0307         estimate D2E/DX2                !
 ! A46   A(25,26,28)           120.4168         estimate D2E/DX2                !
 ! A47   A(25,26,29)           119.8922         estimate D2E/DX2                !
 ! A48   A(28,26,29)           119.6885         estimate D2E/DX2                !
 ! A49   A(25,27,30)           120.4558         estimate D2E/DX2                !
 ! A50   A(25,27,31)           119.9215         estimate D2E/DX2                !
 ! A51   A(30,27,31)           119.6222         estimate D2E/DX2                !
 ! A52   A(26,28,32)           120.2399         estimate D2E/DX2                !
 ! A53   A(26,28,33)           119.7321         estimate D2E/DX2                !
 ! A54   A(32,28,33)           120.0279         estimate D2E/DX2                !
 ! A55   A(27,30,32)           120.1508         estimate D2E/DX2                !
 ! A56   A(27,30,34)           119.8633         estimate D2E/DX2                !
 ! A57   A(32,30,34)           119.9858         estimate D2E/DX2                !
 ! A58   A(28,32,30)           119.7058         estimate D2E/DX2                !
 ! A59   A(28,32,35)           120.1798         estimate D2E/DX2                !
 ! A60   A(30,32,35)           120.1144         estimate D2E/DX2                !
 ! D1    D(2,1,3,4)           -173.2002         estimate D2E/DX2                !
 ! D2    D(2,1,3,5)              5.7755         estimate D2E/DX2                !
 ! D3    D(14,1,3,4)            70.0224         estimate D2E/DX2                !
 ! D4    D(14,1,3,5)          -111.0019         estimate D2E/DX2                !
 ! D5    D(25,1,3,4)           -57.7595         estimate D2E/DX2                !
 ! D6    D(25,1,3,5)           121.2162         estimate D2E/DX2                !
 ! D7    D(2,1,14,15)         -161.7835         estimate D2E/DX2                !
 ! D8    D(2,1,14,16)           18.4003         estimate D2E/DX2                !
 ! D9    D(3,1,14,15)          -44.6078         estimate D2E/DX2                !
 ! D10   D(3,1,14,16)          135.5761         estimate D2E/DX2                !
 ! D11   D(25,1,14,15)          81.7509         estimate D2E/DX2                !
 ! D12   D(25,1,14,16)         -98.0652         estimate D2E/DX2                !
 ! D13   D(2,1,25,26)         -150.0913         estimate D2E/DX2                !
 ! D14   D(2,1,25,27)           30.2872         estimate D2E/DX2                !
 ! D15   D(3,1,25,26)           94.1517         estimate D2E/DX2                !
 ! D16   D(3,1,25,27)          -85.4697         estimate D2E/DX2                !
 ! D17   D(14,1,25,26)         -33.729          estimate D2E/DX2                !
 ! D18   D(14,1,25,27)         146.6495         estimate D2E/DX2                !
 ! D19   D(1,3,4,6)            178.484          estimate D2E/DX2                !
 ! D20   D(1,3,4,7)             -2.7956         estimate D2E/DX2                !
 ! D21   D(5,3,4,6)             -0.4915         estimate D2E/DX2                !
 ! D22   D(5,3,4,7)            178.2289         estimate D2E/DX2                !
 ! D23   D(1,3,5,8)           -178.6707         estimate D2E/DX2                !
 ! D24   D(1,3,5,9)              1.2766         estimate D2E/DX2                !
 ! D25   D(4,3,5,8)              0.3344         estimate D2E/DX2                !
 ! D26   D(4,3,5,9)           -179.7183         estimate D2E/DX2                !
 ! D27   D(3,4,6,10)             0.2261         estimate D2E/DX2                !
 ! D28   D(3,4,6,11)          -179.8092         estimate D2E/DX2                !
 ! D29   D(7,4,6,10)          -178.4744         estimate D2E/DX2                !
 ! D30   D(7,4,6,11)             1.4904         estimate D2E/DX2                !
 ! D31   D(3,5,8,10)             0.0881         estimate D2E/DX2                !
 ! D32   D(3,5,8,12)           179.9859         estimate D2E/DX2                !
 ! D33   D(9,5,8,10)          -179.8594         estimate D2E/DX2                !
 ! D34   D(9,5,8,12)             0.0385         estimate D2E/DX2                !
 ! D35   D(4,6,10,8)             0.2018         estimate D2E/DX2                !
 ! D36   D(4,6,10,13)         -179.8973         estimate D2E/DX2                !
 ! D37   D(11,6,10,8)         -179.7629         estimate D2E/DX2                !
 ! D38   D(11,6,10,13)           0.1381         estimate D2E/DX2                !
 ! D39   D(5,8,10,6)            -0.3581         estimate D2E/DX2                !
 ! D40   D(5,8,10,13)          179.7409         estimate D2E/DX2                !
 ! D41   D(12,8,10,6)          179.7442         estimate D2E/DX2                !
 ! D42   D(12,8,10,13)          -0.1568         estimate D2E/DX2                !
 ! D43   D(1,14,15,17)         179.9681         estimate D2E/DX2                !
 ! D44   D(1,14,15,18)           0.4491         estimate D2E/DX2                !
 ! D45   D(16,14,15,17)         -0.2167         estimate D2E/DX2                !
 ! D46   D(16,14,15,18)       -179.7357         estimate D2E/DX2                !
 ! D47   D(1,14,16,19)         179.8923         estimate D2E/DX2                !
 ! D48   D(1,14,16,20)          -0.0387         estimate D2E/DX2                !
 ! D49   D(15,14,16,19)          0.0689         estimate D2E/DX2                !
 ! D50   D(15,14,16,20)       -179.8621         estimate D2E/DX2                !
 ! D51   D(14,15,17,21)          0.2097         estimate D2E/DX2                !
 ! D52   D(14,15,17,22)       -179.7439         estimate D2E/DX2                !
 ! D53   D(18,15,17,21)        179.7265         estimate D2E/DX2                !
 ! D54   D(18,15,17,22)         -0.2271         estimate D2E/DX2                !
 ! D55   D(14,16,19,21)          0.0865         estimate D2E/DX2                !
 ! D56   D(14,16,19,23)       -179.9646         estimate D2E/DX2                !
 ! D57   D(20,16,19,21)       -179.9821         estimate D2E/DX2                !
 ! D58   D(20,16,19,23)         -0.0332         estimate D2E/DX2                !
 ! D59   D(15,17,21,19)         -0.0517         estimate D2E/DX2                !
 ! D60   D(15,17,21,24)        179.993          estimate D2E/DX2                !
 ! D61   D(22,17,21,19)        179.9018         estimate D2E/DX2                !
 ! D62   D(22,17,21,24)         -0.0534         estimate D2E/DX2                !
 ! D63   D(16,19,21,17)         -0.0956         estimate D2E/DX2                !
 ! D64   D(16,19,21,24)        179.8597         estimate D2E/DX2                !
 ! D65   D(23,19,21,17)        179.9556         estimate D2E/DX2                !
 ! D66   D(23,19,21,24)         -0.0891         estimate D2E/DX2                !
 ! D67   D(1,25,26,28)        -179.6402         estimate D2E/DX2                !
 ! D68   D(1,25,26,29)           0.9377         estimate D2E/DX2                !
 ! D69   D(27,25,26,28)         -0.0213         estimate D2E/DX2                !
 ! D70   D(27,25,26,29)       -179.4434         estimate D2E/DX2                !
 ! D71   D(1,25,27,30)         179.5575         estimate D2E/DX2                !
 ! D72   D(1,25,27,31)          -0.2129         estimate D2E/DX2                !
 ! D73   D(26,25,27,30)         -0.0779         estimate D2E/DX2                !
 ! D74   D(26,25,27,31)       -179.8483         estimate D2E/DX2                !
 ! D75   D(25,26,28,32)          0.1028         estimate D2E/DX2                !
 ! D76   D(25,26,28,33)       -179.846          estimate D2E/DX2                !
 ! D77   D(29,26,28,32)        179.5261         estimate D2E/DX2                !
 ! D78   D(29,26,28,33)         -0.4227         estimate D2E/DX2                !
 ! D79   D(25,27,30,32)          0.096          estimate D2E/DX2                !
 ! D80   D(25,27,30,34)       -179.9191         estimate D2E/DX2                !
 ! D81   D(31,27,30,32)        179.8671         estimate D2E/DX2                !
 ! D82   D(31,27,30,34)         -0.148          estimate D2E/DX2                !
 ! D83   D(26,28,32,30)         -0.0848         estimate D2E/DX2                !
 ! D84   D(26,28,32,35)        179.9726         estimate D2E/DX2                !
 ! D85   D(33,28,32,30)        179.8639         estimate D2E/DX2                !
 ! D86   D(33,28,32,35)         -0.0787         estimate D2E/DX2                !
 ! D87   D(27,30,32,28)         -0.0142         estimate D2E/DX2                !
 ! D88   D(27,30,32,35)        179.9284         estimate D2E/DX2                !
 ! D89   D(34,30,32,28)       -179.9991         estimate D2E/DX2                !
 ! D90   D(34,30,32,35)         -0.0565         estimate D2E/DX2                !
 --------------------------------------------------------------------------------
 Trust Radius=3.00D-01 FncErr=1.00D-07 GrdErr=1.00D-07
 Number of steps in this run= 197 maximum allowed number of steps= 210.
 GradGradGradGradGradGradGradGradGradGradGradGradGradGradGradGradGradGrad

                          Input orientation:                          
 ---------------------------------------------------------------------
 Center     Atomic      Atomic             Coordinates (Angstroms)
 Number     Number       Type             X           Y           Z
 ---------------------------------------------------------------------
      1          6           0       -0.282983   -0.713476   -0.028148
      2          1           0       -0.756348   -1.732275   -0.064645
      3          6           0       -0.385283   -0.230552    1.397920
      4          6           0       -0.016848    1.064400    1.766224
      5          6           0       -0.882812   -1.097885    2.373605
      6          6           0       -0.152137    1.489515    3.082324
      7          1           0        0.402446    1.736702    1.002213
      8          6           0       -1.014647   -0.672397    3.690634
      9          1           0       -1.172559   -2.119976    2.102265
     10          6           0       -0.653451    0.622273    4.046960
     11          1           0        0.137466    2.508690    3.357986
     12          1           0       -1.405767   -1.359405    4.448085
     13          1           0       -0.761824    0.957093    5.083468
     14          6           0        1.140414   -0.890696   -0.495056
     15          6           0        2.140185    0.050497   -0.244099
     16          6           0        1.465008   -2.046384   -1.211994
     17          6           0        3.438054   -0.160193   -0.695726
     18          1           0        1.896327    0.962852    0.323797
     19          6           0        2.762175   -2.254059   -1.665400
     20          1           0        0.692731   -2.796206   -1.420976
     21          6           0        3.752199   -1.312015   -1.407581
     22          1           0        4.213286    0.584478   -0.488109
     23          1           0        3.004161   -3.162675   -2.226290
     24          1           0        4.774186   -1.477421   -1.763070
     25          6           0       -1.098283    0.170764   -0.941015
     26          6           0       -0.548400    1.252184   -1.628540
     27          6           0       -2.460550   -0.107653   -1.091905
     28          6           0       -1.344339    2.041246   -2.452346
     29          1           0        0.520822    1.477921   -1.527618
     30          6           0       -3.254041    0.682963   -1.913577
     31          1           0       -2.908561   -0.952734   -0.556302
     32          6           0       -2.697538    1.759750   -2.596221
     33          1           0       -0.900416    2.886033   -2.988864
     34          1           0       -4.319608    0.457036   -2.023597
     35          1           0       -3.323066    2.381605   -3.244405
 ---------------------------------------------------------------------
                    Distance matrix (angstroms):
                    1          2          3          4          5
     1  C    0.000000
     2  H    1.123992   0.000000
     3  C    1.509089   2.128839   0.000000
     4  C    2.539969   3.423497   1.395813   0.000000
     5  C    2.505192   2.522599   1.397056   2.407132   0.000000
     6  C    3.813834   4.544053   2.418720   1.389657   2.780433
     7  H    2.744964   3.809828   2.155733   1.100685   3.401101
     8  C    3.790298   3.910521   2.418236   2.777665   1.390318
     9  H    2.703376   2.240321   2.164677   3.404238   1.096471
    10  C    4.304414   4.739174   2.795825   2.408837   2.410739
    11  H    4.693084   5.522598   3.408603   2.154877   3.875224
    12  H    4.659885   4.574441   3.408695   3.872506   2.155305
    13  H    5.398954   5.808252   3.890443   3.401560   3.403076
    14  C    1.508466   2.119249   2.519306   3.205471   3.516475
    15  C    2.549908   3.405934   3.025426   3.118042   4.160489
    16  C    2.496719   2.519821   3.678651   4.554410   4.389582
    17  C    3.820719   4.523573   4.359611   4.415560   5.382374
    18  H    2.771882   3.801484   2.789928   2.398155   4.021438
    19  C    3.785099   3.900600   4.835804   5.523693   5.562035
    20  H    2.688819   2.251980   3.961170   5.056285   4.445838
    21  C    4.306249   4.723039   5.114602   5.470475   5.985529
    22  H    4.702412   5.499448   5.036686   4.817299   6.081938
    23  H    4.651422   4.567296   5.763730   6.552468   6.366394
    24  H    5.400789   5.791063   6.177917   6.470763   7.018388
    25  C    1.509940   2.122852   2.477910   3.049136   3.555644
    26  C    2.548631   3.375797   3.374103   3.441254   4.653152
    27  C    2.498079   2.568845   3.243619   3.938819   3.934410
    28  C    3.819909   4.504032   4.572242   4.529105   5.775548
    29  H    2.774299   3.751908   3.506947   3.362957   4.881036
    30  C    3.785772   3.935784   4.475521   4.915877   5.212876
    31  H    2.688839   2.341245   3.272226   4.221962   3.564980
    32  C    4.306033   4.729834   5.026031   5.167256   6.013192
    33  H    4.701439   5.468143   5.405769   5.168162   6.680418
    34  H    4.652554   4.618159   5.259132   5.765880   5.793507
    35  H    5.400550   5.798528   6.083183   6.145934   7.044411
                    6          7          8          9         10
     6  C    0.000000
     7  H    2.166916   0.000000
     8  C    2.405791   3.878081   0.000000
     9  H    3.876880   4.308679   2.154840   0.000000
    10  C    1.390664   3.409890   1.390540   3.401652   0.000000
    11  H    1.094796   2.493160   3.399609   4.971675   2.158427
    12  H    3.399005   4.972880   1.094846   2.477040   2.157296
    13  H    2.158649   4.315084   2.158506   4.304025   1.094622
    14  C    4.487064   3.112817   4.712955   3.688773   5.112430
    15  C    4.288427   2.723292   5.094866   4.603330   5.152137
    16  C    5.793005   4.510376   5.663240   4.236329   6.266274
    17  C    5.466688   3.961834   6.271287   5.738227   6.312348
    18  H    3.476069   1.814049   4.741666   4.699450   4.525407
    19  C    6.711814   5.348893   6.741894   5.449349   7.250575
    20  H    6.273828   5.148141   5.792603   4.043490   6.587604
    21  C    6.576599   5.130558   7.008832   6.101234   7.273461
    22  H    5.711742   4.251021   6.809765   6.559834   6.652323
    23  H    7.732172   6.418416   7.573790   6.104802   8.188872
    24  H    7.519922   6.090114   7.993843   7.121619   8.223406
    25  C    4.338381   2.912127   4.708512   3.809797   5.028084
    26  C    4.733454   2.838966   5.675826   5.067537   5.711315
    27  C    5.030299   3.997965   5.028146   3.988870   5.496029
    28  C    5.688437   3.883037   6.723745   6.171689   6.688182
    29  H    4.658817   2.545786   5.849075   5.384092   5.760813
    30  C    5.935601   4.793964   6.185391   5.321280   6.503441
    31  H    5.177070   4.541454   4.658537   3.382918   5.362480
    32  C    6.228801   4.749648   6.947805   6.281210   7.043010
    33  H    6.274512   4.352828   7.569093   7.145192   7.395162
    34  H    6.671151   5.752466   6.697075   5.793759   7.093636
    35  H    7.132890   5.685869   7.921521   7.312714   7.961538
                   11         12         13         14         15
    11  H    0.000000
    12  H    4.304886   0.000000
    13  H    2.488667   2.486873   0.000000
    14  C    5.235233   5.580087   6.176792   0.000000
    15  C    4.798814   6.047991   6.134047   1.395839   0.000000
    16  C    6.587548   6.383556   7.322055   1.398204   2.406158
    17  C    5.869361   7.166554   7.230932   2.419308   1.390259
    18  H    3.832690   5.771174   5.451629   2.162767   1.101982
    19  C    7.403194   7.452976   8.263007   2.420449   2.778119
    20  H    7.161614   6.396403   7.649233   2.165344   3.403510
    21  C    7.097514   7.803568   8.225507   2.798505   2.410128
    22  H    5.925145   7.727771   7.478838   3.408625   2.154628
    23  H    8.459697   8.200399   9.197157   3.410662   3.872985
    24  H    7.975805   8.762659   9.135061   3.893123   3.402906
    25  C    5.047216   5.610558   6.084892   2.517407   3.314790
    26  C    5.187934   6.669396   6.721880   2.954456   3.254108
    27  C    5.778968   5.776759   6.492656   3.733139   4.680871
    28  C    6.014500   7.693123   7.635653   4.312918   4.580539
    29  H    5.007851   6.889934   6.754472   2.657146   2.511434
    30  C    6.528781   6.932397   7.432693   4.878508   5.681976
    31  H    6.048256   5.240960   6.329528   4.049914   5.156916
    32  C    6.637073   7.811533   7.960456   5.115626   5.644253
    33  H    6.442212   8.578306   8.300756   4.964649   4.981893
    34  H    7.282598   7.326158   7.963558   5.827921   6.712735
    35  H    7.455401   8.766162   8.828514   6.179767   6.654549
                   16         17         18         19         20
    16  C    0.000000
    17  C    2.777978   0.000000
    18  H    3.405905   2.162771   0.000000
    19  C    1.389730   2.404445   3.880092   0.000000
    20  H    1.096502   3.874448   4.315482   2.153199   0.000000
    21  C    2.410145   1.390006   3.408364   1.390707   3.400492
    22  H    3.872787   1.094817   2.484080   3.398386   4.969262
    23  H    2.154971   3.397910   4.974959   1.094870   2.474984
    24  H    3.402656   2.158602   4.311846   2.158911   4.302848
    25  C    3.399946   4.555003   3.345869   4.616019   3.498714
    26  C    3.886884   4.330908   3.141977   4.822344   4.239451
    27  C    4.379852   5.912127   4.704526   5.675633   4.156896
    28  C    5.112692   5.550074   4.401342   5.994363   5.349235
    29  H    3.662217   3.447565   2.363271   4.355494   4.278912
    30  C    5.496451   6.854065   5.622319   6.699444   5.284343
    31  H    4.555667   6.397428   5.246998   5.922904   4.137070
    32  C    5.807713   6.703995   5.501377   6.839997   5.799298
    33  H    5.751629   5.775837   4.742797   6.448773   6.106081
    34  H    6.355123   7.894652   6.663629   7.591442   6.005853
    35  H    6.831063   7.659585   6.479737   7.811069   6.801562
                   21         22         23         24         25
    21  C    0.000000
    22  H    2.157478   0.000000
    23  H    2.157497   4.304000   0.000000
    24  H    1.094618   2.488285   2.487497   0.000000
    25  C    5.093475   5.346872   5.440018   6.154525   0.000000
    26  C    5.011895   4.941666   5.698156   5.983207   1.394465
    27  C    6.336276   6.736742   6.362630   7.393790   1.398591
    28  C    6.189555   6.071869   6.785378   7.091718   2.417306
    29  H    4.270826   3.938669   5.309450   5.184650   2.162004
    30  C    7.302286   7.602804   7.351995   8.315188   2.419818
    31  H    6.724543   7.286177   6.529394   7.794626   2.165031
    32  C    7.242080   7.320170   7.541651   8.185358   2.796820
    33  H    6.463040   6.140104   7.239760   7.262466   3.406688
    34  H    8.286319   8.670885   8.171964   9.300919   3.410406
    35  H    8.190002   8.223347   8.474043   9.091311   3.891412
                   26         27         28         29         30
    26  C    0.000000
    27  C    2.406959   0.000000
    28  C    1.390969   2.777497   0.000000
    29  H    1.097441   3.404771   2.156682   0.000000
    30  C    2.779524   1.389189   2.404614   3.876920   0.000000
    31  H    3.403193   1.096242   3.873718   4.314187   2.153383
    32  C    2.410980   2.409631   1.389636   3.402820   1.391103
    33  H    2.154962   3.872290   1.094799   2.477486   3.398428
    34  H    3.874318   2.154767   3.397907   4.971716   1.094797
    35  H    3.403731   3.401999   2.158371   4.305749   2.158993
                   31         32         33         34         35
    31  H    0.000000
    32  C    3.400495   0.000000
    33  H    4.968515   2.156926   0.000000
    34  H    2.476178   2.157793   4.303794   0.000000
    35  H    4.302967   1.094592   2.487767   2.487455   0.000000
 Stoichiometry    C19H16
 Framework group  C1[X(C19H16)]
 Deg. of freedom    99
 Full point group                 C1      NOp   1
 Largest Abelian subgroup         C1      NOp   1
 Largest concise Abelian subgroup C1      NOp   1
                         Standard orientation:                         
 ---------------------------------------------------------------------
 Center     Atomic      Atomic             Coordinates (Angstroms)
 Number     Number       Type             X           Y           Z
 ---------------------------------------------------------------------
      1          6           0        0.022649   -0.013307   -0.753699
      2          1           0        0.000118   -0.006819   -1.877446
      3          6           0       -0.920217   -1.100752   -0.300027
      4          6           0       -1.237127   -1.287658    1.046422
      5          6           0       -1.509014   -1.930712   -1.257236
      6          6           0       -2.133313   -2.278106    1.429840
      7          1           0       -0.749865   -0.652265    1.801645
      8          6           0       -2.402999   -2.923389   -0.872052
      9          1           0       -1.267520   -1.800506   -2.318827
     10          6           0       -2.719771   -3.096773    0.470778
     11          1           0       -2.376065   -2.412675    2.488868
     12          1           0       -2.859451   -3.568694   -1.629628
     13          1           0       -3.427045   -3.876011    0.772024
     14          6           0        1.456526   -0.267457   -0.360158
     15          6           0        1.823596   -0.707799    0.912525
     16          6           0        2.455624   -0.047381   -1.313229
     17          6           0        3.160129   -0.928149    1.225487
     18          1           0        1.043897   -0.888603    1.669984
     19          6           0        3.791457   -0.265191   -0.997858
     20          1           0        2.187116    0.300755   -2.317730
     21          6           0        4.147033   -0.707066    0.271936
     22          1           0        3.433407   -1.277556    2.226416
     23          1           0        4.564965   -0.088821   -1.752390
     24          1           0        5.199232   -0.880585    0.518834
     25          6           0       -0.481747    1.338045   -0.307208
     26          6           0       -0.063640    1.942925    0.877629
     27          6           0       -1.411239    1.999943   -1.115905
     28          6           0       -0.564289    3.186643    1.248182
     29          1           0        0.672075    1.440300    1.518306
     30          6           0       -1.911484    3.241088   -0.742865
     31          1           0       -1.751886    1.536685   -2.049232
     32          6           0       -1.488892    3.837779    0.440580
     33          1           0       -0.226386    3.652413    2.179560
     34          1           0       -2.639734    3.750000   -1.382584
     35          1           0       -1.882560    4.816268    0.733354
 ---------------------------------------------------------------------
 Rotational constants (GHZ):      0.3999981      0.3719528      0.2369230
 Standard basis: 6-311G (5D, 7F)
 There are   295 symmetry adapted basis functions of A   symmetry.
 Integral buffers will be    262144 words long.
 Raffenetti 1 integral format.
 Two-electron integral symmetry is turned on.
   295 basis functions,   574 primitive gaussians,   295 cartesian basis functions
    65 alpha electrons       65 beta electrons
       nuclear repulsion energy      1288.3502523199 Hartrees.
 NAtoms=   35 NActive=   35 NUniq=   35 SFac= 7.50D-01 NAtFMM=   80 NAOKFM=F Big=F
 One-electron integrals computed using PRISM.
 PrsmSu:  requested number of processors reduced to:  10 ShMem   1 Linda.
 NBasis=   295 RedAO= T  NBF=   295
 NBsUse=   295 1.00D-06 NBFU=   295
 Harris functional with IExCor=  205 diagonalized for initial guess.
 ExpMin= 1.03D-01 ExpMax= 4.56D+03 ExpMxC= 6.82D+02 IAcc=1 IRadAn=         1 AccDes= 0.00D+00
 HarFok:  IExCor=  205 AccDes= 0.00D+00 IRadAn=         1 IDoV= 1
 ScaDFX=  1.000000  1.000000  1.000000  1.000000
 FoFCou: FMM=F IPFlag=           0 FMFlag=      100000 FMFlg1=           0
         NFxFlg=           0 DoJE=T BraDBF=F KetDBF=T FulRan=T
         Omega=  0.000000  0.000000  1.000000  0.000000  0.000000 ICntrl=     500 IOpCl=  0
         NMat0=    1 NMatS0=    1 NMatT0=    0 NMatD0=    1 NMtDS0=    0 NMtDT0=    0
         I1Cent=           4 NGrid=           0.
 Petite list used in FoFCou.
 Initial guess orbital symmetries:
       Occupied  (A) (A) (A) (A) (A) (A) (A) (A) (A) (A) (A) (A)
                 (A) (A) (A) (A) (A) (A) (A) (A) (A) (A) (A) (A)
                 (A) (A) (A) (A) (A) (A) (A) (A) (A) (A) (A) (A)
                 (A) (A) (A) (A) (A) (A) (A) (A) (A) (A) (A) (A)
                 (A) (A) (A) (A) (A) (A) (A) (A) (A) (A) (A) (A)
                 (A) (A) (A) (A) (A)
       Virtual   (A) (A) (A) (A) (A) (A) (A) (A) (A) (A) (A) (A)
                 (A) (A) (A) (A) (A) (A) (A) (A) (A) (A) (A) (A)
                 (A) (A) (A) (A) (A) (A) (A) (A) (A) (A) (A) (A)
                 (A) (A) (A) (A) (A) (A) (A) (A) (A) (A) (A) (A)
                 (A) (A) (A) (A) (A) (A) (A) (A) (A) (A) (A) (A)
                 (A) (A) (A) (A) (A) (A) (A) (A) (A) (A) (A) (A)
                 (A) (A) (A) (A) (A) (A) (A) (A) (A) (A) (A) (A)
                 (A) (A) (A) (A) (A) (A) (A) (A) (A) (A) (A) (A)
                 (A) (A) (A) (A) (A) (A) (A) (A) (A) (A) (A) (A)
                 (A) (A) (A) (A) (A) (A) (A) (A) (A) (A) (A) (A)
                 (A) (A) (A) (A) (A) (A) (A) (A) (A) (A) (A) (A)
                 (A) (A) (A) (A) (A) (A) (A) (A) (A) (A) (A) (A)
                 (A) (A) (A) (A) (A) (A) (A) (A) (A) (A) (A) (A)
                 (A) (A) (A) (A) (A) (A) (A) (A) (A) (A) (A) (A)
                 (A) (A) (A) (A) (A) (A) (A) (A) (A) (A) (A) (A)
                 (A) (A) (A) (A) (A) (A) (A) (A) (A) (A) (A) (A)
                 (A) (A) (A) (A) (A) (A) (A) (A) (A) (A) (A) (A)
                 (A) (A) (A) (A) (A) (A) (A) (A) (A) (A) (A) (A)
                 (A) (A) (A) (A) (A) (A) (A) (A) (A) (A) (A) (A)
                 (A) (A)
 The electronic state of the initial guess is 1-A.
 Requested convergence on RMS density matrix=1.00D-08 within 128 cycles.
 Requested convergence on MAX density matrix=1.00D-06.
 Requested convergence on             energy=1.00D-06.
 No special actions if energy rises.
 Integral accuracy reduced to 1.0D-05 until final iterations.
 Initial convergence to 1.0D-05 achieved.  Increase integral accuracy.
 SCF Done:  E(RHF) =  -728.671704127     A.U. after   14 cycles
             Convg  =    0.6176D-08             -V/T =  2.0001

 **********************************************************************

            Population analysis using the SCF density.

 **********************************************************************

 Orbital symmetries:
       Occupied  (A) (A) (A) (A) (A) (A) (A) (A) (A) (A) (A) (A)
                 (A) (A) (A) (A) (A) (A) (A) (A) (A) (A) (A) (A)
                 (A) (A) (A) (A) (A) (A) (A) (A) (A) (A) (A) (A)
                 (A) (A) (A) (A) (A) (A) (A) (A) (A) (A) (A) (A)
                 (A) (A) (A) (A) (A) (A) (A) (A) (A) (A) (A) (A)
                 (A) (A) (A) (A) (A)
       Virtual   (A) (A) (A) (A) (A) (A) (A) (A) (A) (A) (A) (A)
                 (A) (A) (A) (A) (A) (A) (A) (A) (A) (A) (A) (A)
                 (A) (A) (A) (A) (A) (A) (A) (A) (A) (A) (A) (A)
                 (A) (A) (A) (A) (A) (A) (A) (A) (A) (A) (A) (A)
                 (A) (A) (A) (A) (A) (A) (A) (A) (A) (A) (A) (A)
                 (A) (A) (A) (A) (A) (A) (A) (A) (A) (A) (A) (A)
                 (A) (A) (A) (A) (A) (A) (A) (A) (A) (A) (A) (A)
                 (A) (A) (A) (A) (A) (A) (A) (A) (A) (A) (A) (A)
                 (A) (A) (A) (A) (A) (A) (A) (A) (A) (A) (A) (A)
                 (A) (A) (A) (A) (A) (A) (A) (A) (A) (A) (A) (A)
                 (A) (A) (A) (A) (A) (A) (A) (A) (A) (A) (A) (A)
                 (A) (A) (A) (A) (A) (A) (A) (A) (A) (A) (A) (A)
                 (A) (A) (A) (A) (A) (A) (A) (A) (A) (A) (A) (A)
                 (A) (A) (A) (A) (A) (A) (A) (A) (A) (A) (A) (A)
                 (A) (A) (A) (A) (A) (A) (A) (A) (A) (A) (A) (A)
                 (A) (A) (A) (A) (A) (A) (A) (A) (A) (A) (A) (A)
                 (A) (A) (A) (A) (A) (A) (A) (A) (A) (A) (A) (A)
                 (A) (A) (A) (A) (A) (A) (A) (A) (A) (A) (A) (A)
                 (A) (A) (A) (A) (A) (A) (A) (A) (A) (A) (A) (A)
                 (A) (A)
 The electronic state is 1-A.
 Alpha  occ. eigenvalues --  -11.25832 -11.25272 -11.25264 -11.25132 -11.24449
 Alpha  occ. eigenvalues --  -11.24430 -11.24354 -11.24349 -11.24210 -11.24190
 Alpha  occ. eigenvalues --  -11.24129 -11.24114 -11.24112 -11.24051 -11.24025
 Alpha  occ. eigenvalues --  -11.24019 -11.23915 -11.23834 -11.23741  -1.18592
 Alpha  occ. eigenvalues --   -1.15827  -1.15684  -1.09039  -1.02411  -1.02114
 Alpha  occ. eigenvalues --   -1.01889  -1.01499  -1.01393  -0.92964  -0.84541
 Alpha  occ. eigenvalues --   -0.82937  -0.82542  -0.81710  -0.81569  -0.77737
 Alpha  occ. eigenvalues --   -0.70731  -0.70449  -0.69111  -0.66003  -0.63613
 Alpha  occ. eigenvalues --   -0.63498  -0.62371  -0.62040  -0.61905  -0.59569
 Alpha  occ. eigenvalues --   -0.58771  -0.58520  -0.58432  -0.57621  -0.53906
 Alpha  occ. eigenvalues --   -0.51744  -0.51085  -0.50859  -0.49672  -0.49163
 Alpha  occ. eigenvalues --   -0.48684  -0.47795  -0.47470  -0.46769  -0.34690
 Alpha  occ. eigenvalues --   -0.34245  -0.33697  -0.33591  -0.33282  -0.31181
 Alpha virt. eigenvalues --    0.11656   0.12009   0.13592   0.13741   0.14042
 Alpha virt. eigenvalues --    0.14935   0.15135   0.16275   0.16374   0.16878
 Alpha virt. eigenvalues --    0.18804   0.19135   0.19285   0.21288   0.21419
 Alpha virt. eigenvalues --    0.21511   0.23648   0.24240   0.24978   0.27193
 Alpha virt. eigenvalues --    0.28526   0.29492   0.34032   0.34188   0.35883
 Alpha virt. eigenvalues --    0.37442   0.38519   0.39676   0.40940   0.43684
 Alpha virt. eigenvalues --    0.44101   0.44380   0.45040   0.45402   0.45576
 Alpha virt. eigenvalues --    0.45875   0.46404   0.48423   0.49921   0.50389
 Alpha virt. eigenvalues --    0.50791   0.51007   0.51452   0.54987   0.55780
 Alpha virt. eigenvalues --    0.56805   0.57910   0.58955   0.59062   0.59609
 Alpha virt. eigenvalues --    0.59679   0.60665   0.61063   0.61499   0.61695
 Alpha virt. eigenvalues --    0.61852   0.62379   0.62473   0.63282   0.63460
 Alpha virt. eigenvalues --    0.64115   0.64995   0.65157   0.65426   0.66899
 Alpha virt. eigenvalues --    0.67412   0.68204   0.68444   0.70109   0.71365
 Alpha virt. eigenvalues --    0.72343   0.73804   0.74451   0.75078   0.76207
 Alpha virt. eigenvalues --    0.77280   0.78311   0.78651   0.80474   0.81199
 Alpha virt. eigenvalues --    0.81864   0.82192   0.82342   0.82822   0.82902
 Alpha virt. eigenvalues --    0.83528   0.83907   0.84053   0.84781   0.85607
 Alpha virt. eigenvalues --    0.86046   0.86388   0.86913   0.87466   0.88059
 Alpha virt. eigenvalues --    0.89641   0.90569   0.91257   0.92979   0.94439
 Alpha virt. eigenvalues --    0.96091   0.96857   0.97671   0.98105   0.98932
 Alpha virt. eigenvalues --    0.99329   1.00282   1.02787   1.05761   1.06240
 Alpha virt. eigenvalues --    1.06815   1.07143   1.08009   1.08394   1.10482
 Alpha virt. eigenvalues --    1.11081   1.12218   1.12492   1.12964   1.14262
 Alpha virt. eigenvalues --    1.14650   1.15359   1.18596   1.19554   1.21728
 Alpha virt. eigenvalues --    1.25352   1.26731   1.27669   1.28231   1.28883
 Alpha virt. eigenvalues --    1.30340   1.35174   1.39599   1.45198   1.46577
 Alpha virt. eigenvalues --    1.51638   1.52257   1.56479   2.54620   2.55620
 Alpha virt. eigenvalues --    2.56165   2.59206   2.61964   2.62499   2.64478
 Alpha virt. eigenvalues --    2.67016   2.67703   2.68436   2.72317   2.76775
 Alpha virt. eigenvalues --    2.77789   2.83498   2.87923   2.88660   2.94127
 Alpha virt. eigenvalues --    2.94270   2.94419   2.97074   2.97451   2.98029
 Alpha virt. eigenvalues --    3.00361   3.00754   3.04043   3.05734   3.07112
 Alpha virt. eigenvalues --    3.08134   3.08436   3.08999   3.09969   3.14332
 Alpha virt. eigenvalues --    3.14752   3.16349   3.16826   3.17581   3.18801
 Alpha virt. eigenvalues --    3.22657   3.25636   3.25830   3.28292   3.28927
 Alpha virt. eigenvalues --    3.30921   3.33385   3.34271   3.35135   3.42632
 Alpha virt. eigenvalues --    3.43065   3.44428   3.46980   3.49467   3.52233
 Alpha virt. eigenvalues --    3.53455   3.54452   3.59284   3.60652   3.60667
 Alpha virt. eigenvalues --    3.63150   3.63473   3.63784   3.65978   3.66660
 Alpha virt. eigenvalues --    3.68395   3.70299   3.70458   3.71434   3.73499
 Alpha virt. eigenvalues --    3.74193   3.75569   3.80872   3.85866   3.86643
 Alpha virt. eigenvalues --    3.93056  24.24819  24.30685  24.31550  24.50541
 Alpha virt. eigenvalues --   24.50837  24.51119  24.53984  24.54675  24.56089
 Alpha virt. eigenvalues --   24.77291  24.78612  24.79136  24.79610  24.80645
 Alpha virt. eigenvalues --   24.81846  24.83229  25.05547  25.05810  25.06135
          Condensed to atoms (all electrons):
              1          2          3          4          5          6
     1  C    5.828330   0.463529   0.185520  -0.054387  -0.026230   0.001405
     2  H    0.463529   0.512420  -0.074278   0.005542   0.002108  -0.000283
     3  C    0.185520  -0.074278   5.374796   0.438859   0.503729  -0.061697
     4  C   -0.054387   0.005542   0.438859   5.095300  -0.065325   0.479166
     5  C   -0.026230   0.002108   0.503729  -0.065325   5.069748  -0.033527
     6  C    0.001405  -0.000283  -0.061697   0.479166  -0.033527   5.036260
     7  H    0.003117   0.000067  -0.048568   0.388559   0.004048  -0.027216
     8  C    0.007695   0.001759  -0.072835  -0.029642   0.459955  -0.076818
     9  H   -0.000492   0.002430  -0.046602   0.004633   0.395663  -0.000237
    10  C    0.001272  -0.000013  -0.017864  -0.092133  -0.086335   0.494379
    11  H   -0.000318   0.000012   0.006069  -0.039043  -0.000448   0.396660
    12  H   -0.000368  -0.000037   0.007064  -0.000617  -0.039699   0.006224
    13  H   -0.000013  -0.000001  -0.001594   0.008021   0.007536  -0.042918
    14  C    0.171286  -0.073638  -0.112362  -0.006254  -0.000352   0.001776
    15  C   -0.045781   0.005110  -0.004565  -0.017209   0.001495  -0.001738
    16  C   -0.045292   0.002770   0.001985   0.000218   0.000192   0.000028
    17  C    0.003583  -0.000276   0.001538  -0.000012   0.000042  -0.000089
    18  H   -0.000321  -0.000140  -0.003004   0.002863  -0.000259   0.001158
    19  C    0.008266   0.001518  -0.000680   0.000029  -0.000004  -0.000001
    20  H   -0.000701   0.002686   0.000367  -0.000026  -0.000022   0.000002
    21  C    0.001133  -0.000016   0.000020  -0.000004  -0.000011   0.000001
    22  H   -0.000294   0.000014   0.000011   0.000031   0.000002   0.000000
    23  H   -0.000388  -0.000029   0.000014   0.000000   0.000001   0.000000
    24  H   -0.000019  -0.000001  -0.000002   0.000001   0.000000   0.000000
    25  C    0.158713  -0.059934  -0.154629  -0.007609  -0.005737   0.000766
    26  C   -0.040407   0.004931  -0.014117  -0.000119  -0.000313  -0.000034
    27  C   -0.049502  -0.003198   0.000690   0.000819   0.002040  -0.000062
    28  C    0.004754  -0.000249   0.000655  -0.000668   0.000028  -0.000017
    29  H   -0.001542  -0.000064  -0.001063   0.000496  -0.000083   0.000066
    30  C    0.006277   0.001555  -0.000420   0.000193  -0.000036   0.000002
    31  H    0.001750   0.001090   0.000542  -0.000051   0.001417  -0.000017
    32  C    0.000993   0.000009   0.000074   0.000028  -0.000003   0.000003
    33  H   -0.000325   0.000013   0.000005   0.000014   0.000000   0.000000
    34  H   -0.000351  -0.000027   0.000012   0.000003  -0.000001   0.000000
    35  H   -0.000012  -0.000002  -0.000001  -0.000001   0.000000   0.000000
              7          8          9         10         11         12
     1  C    0.003117   0.007695  -0.000492   0.001272  -0.000318  -0.000368
     2  H    0.000067   0.001759   0.002430  -0.000013   0.000012  -0.000037
     3  C   -0.048568  -0.072835  -0.046602  -0.017864   0.006069   0.007064
     4  C    0.388559  -0.029642   0.004633  -0.092133  -0.039043  -0.000617
     5  C    0.004048   0.459955   0.395663  -0.086335  -0.000448  -0.039699
     6  C   -0.027216  -0.076818  -0.000237   0.494379   0.396660   0.006224
     7  H    0.495451  -0.000170  -0.000260   0.004559  -0.003437   0.000021
     8  C   -0.000170   5.054770  -0.035016   0.497001   0.005998   0.396769
     9  H   -0.000260  -0.035016   0.510850   0.005162   0.000024  -0.004173
    10  C    0.004559   0.497001   0.005162   5.030938  -0.039543  -0.040781
    11  H   -0.003437   0.005998   0.000024  -0.039543   0.515380  -0.000211
    12  H    0.000021   0.396769  -0.004173  -0.040781  -0.000211   0.518278
    13  H   -0.000169  -0.042756  -0.000186   0.399616  -0.004453  -0.004581
    14  C   -0.003186  -0.000603   0.000558  -0.000035   0.000008   0.000020
    15  C    0.000309   0.000124   0.000002   0.000045   0.000016  -0.000001
    16  C   -0.000196  -0.000009   0.000135  -0.000001   0.000000   0.000000
    17  C    0.000862   0.000000   0.000003   0.000003   0.000001   0.000000
    18  H    0.003446  -0.000138  -0.000005   0.000079  -0.000105   0.000000
    19  C    0.000016   0.000001   0.000003   0.000000   0.000000   0.000000
    20  H   -0.000007   0.000001  -0.000025   0.000000   0.000000   0.000000
    21  C   -0.000012   0.000000  -0.000001   0.000000   0.000000   0.000000
    22  H   -0.000053   0.000000   0.000000  -0.000001   0.000001   0.000000
    23  H    0.000000   0.000000   0.000000   0.000000   0.000000   0.000000
    24  H    0.000000   0.000000   0.000000   0.000000   0.000000   0.000000
    25  C   -0.001914  -0.000464   0.000150   0.000096   0.000018   0.000011
    26  C    0.004834   0.000048  -0.000048  -0.000004  -0.000002   0.000000
    27  C   -0.000265  -0.000098   0.000250  -0.000014   0.000006   0.000003
    28  C    0.000450  -0.000001   0.000000   0.000000  -0.000001   0.000000
    29  H    0.001070   0.000002   0.000000   0.000002  -0.000009   0.000000
    30  C   -0.000097   0.000006  -0.000006   0.000000   0.000001   0.000000
    31  H   -0.000037   0.000030   0.000254  -0.000011   0.000000  -0.000003
    32  C   -0.000010   0.000000   0.000000   0.000000   0.000000   0.000000
    33  H   -0.000002   0.000000   0.000000   0.000000   0.000000   0.000000
    34  H    0.000001   0.000000  -0.000001   0.000000   0.000000   0.000000
    35  H   -0.000001   0.000000   0.000000   0.000000   0.000000   0.000000
             13         14         15         16         17         18
     1  C   -0.000013   0.171286  -0.045781  -0.045292   0.003583  -0.000321
     2  H   -0.000001  -0.073638   0.005110   0.002770  -0.000276  -0.000140
     3  C   -0.001594  -0.112362  -0.004565   0.001985   0.001538  -0.003004
     4  C    0.008021  -0.006254  -0.017209   0.000218  -0.000012   0.002863
     5  C    0.007536  -0.000352   0.001495   0.000192   0.000042  -0.000259
     6  C   -0.042918   0.001776  -0.001738   0.000028  -0.000089   0.001158
     7  H   -0.000169  -0.003186   0.000309  -0.000196   0.000862   0.003446
     8  C   -0.042756  -0.000603   0.000124  -0.000009   0.000000  -0.000138
     9  H   -0.000186   0.000558   0.000002   0.000135   0.000003  -0.000005
    10  C    0.399616  -0.000035   0.000045  -0.000001   0.000003   0.000079
    11  H   -0.004453   0.000008   0.000016   0.000000   0.000001  -0.000105
    12  H   -0.004581   0.000020  -0.000001   0.000000   0.000000   0.000000
    13  H    0.517476  -0.000001   0.000001   0.000000   0.000000   0.000000
    14  C   -0.000001   5.366575   0.450242   0.494967  -0.064339  -0.053076
    15  C    0.000001   0.450242   5.121567  -0.061545   0.473443   0.386571
    16  C    0.000000   0.494967  -0.061545   5.041114  -0.036131   0.004504
    17  C    0.000000  -0.064339   0.473443  -0.036131   5.056426  -0.025335
    18  H    0.000000  -0.053076   0.386571   0.004504  -0.025335   0.498506
    19  C    0.000000  -0.071520  -0.031229   0.471699  -0.075132  -0.000212
    20  H    0.000000  -0.045683   0.004751   0.394475  -0.000399  -0.000243
    21  C    0.000000  -0.017805  -0.094842  -0.086694   0.495884   0.004797
    22  H    0.000000   0.006029  -0.036752  -0.000393   0.395573  -0.003438
    23  H    0.000000   0.007152  -0.000599  -0.039673   0.006231   0.000020
    24  H    0.000000  -0.001593   0.008122   0.007488  -0.042536  -0.000183
    25  C   -0.000002  -0.104589  -0.005998  -0.001434   0.000877  -0.000501
    26  C    0.000000  -0.014328  -0.007299   0.001916  -0.001489   0.000321
    27  C    0.000000   0.006253  -0.000179   0.000464   0.000023  -0.000030
    28  C    0.000000   0.000536   0.000019  -0.000087  -0.000031   0.000053
    29  H    0.000000  -0.003172   0.001174  -0.000873   0.000949   0.000154
    30  C    0.000000  -0.000756   0.000025  -0.000017   0.000000   0.000006
    31  H    0.000000   0.000688  -0.000038   0.000014   0.000000   0.000007
    32  C    0.000000   0.000045  -0.000019  -0.000014   0.000000   0.000001
    33  H    0.000000   0.000037   0.000028   0.000007  -0.000001  -0.000017
    34  H    0.000000   0.000011   0.000000   0.000001   0.000000   0.000000
    35  H    0.000000  -0.000001   0.000001   0.000000   0.000000   0.000000
             19         20         21         22         23         24
     1  C    0.008266  -0.000701   0.001133  -0.000294  -0.000388  -0.000019
     2  H    0.001518   0.002686  -0.000016   0.000014  -0.000029  -0.000001
     3  C   -0.000680   0.000367   0.000020   0.000011   0.000014  -0.000002
     4  C    0.000029  -0.000026  -0.000004   0.000031   0.000000   0.000001
     5  C   -0.000004  -0.000022  -0.000011   0.000002   0.000001   0.000000
     6  C   -0.000001   0.000002   0.000001   0.000000   0.000000   0.000000
     7  H    0.000016  -0.000007  -0.000012  -0.000053   0.000000   0.000000
     8  C    0.000001   0.000001   0.000000   0.000000   0.000000   0.000000
     9  H    0.000003  -0.000025  -0.000001   0.000000   0.000000   0.000000
    10  C    0.000000   0.000000   0.000000  -0.000001   0.000000   0.000000
    11  H    0.000000   0.000000   0.000000   0.000001   0.000000   0.000000
    12  H    0.000000   0.000000   0.000000   0.000000   0.000000   0.000000
    13  H    0.000000   0.000000   0.000000   0.000000   0.000000   0.000000
    14  C   -0.071520  -0.045683  -0.017805   0.006029   0.007152  -0.001593
    15  C   -0.031229   0.004751  -0.094842  -0.036752  -0.000599   0.008122
    16  C    0.471699   0.394475  -0.086694  -0.000393  -0.039673   0.007488
    17  C   -0.075132  -0.000399   0.495884   0.395573   0.006231  -0.042536
    18  H   -0.000212  -0.000243   0.004797  -0.003438   0.000020  -0.000183
    19  C    5.044557  -0.034686   0.494609   0.005899   0.396666  -0.042958
    20  H   -0.034686   0.507722   0.005350   0.000022  -0.004218  -0.000183
    21  C    0.494609   0.005350   5.030318  -0.039650  -0.041068   0.399169
    22  H    0.005899   0.000022  -0.039650   0.515479  -0.000212  -0.004356
    23  H    0.396666  -0.004218  -0.041068  -0.000212   0.517960  -0.004550
    24  H   -0.042958  -0.000183   0.399169  -0.004356  -0.004550   0.517645
    25  C   -0.000715   0.000478   0.000024  -0.000007   0.000021   0.000001
    26  C    0.000222   0.000183   0.000082   0.000013  -0.000001   0.000000
    27  C    0.000003   0.000124  -0.000001  -0.000001   0.000000   0.000000
    28  C   -0.000003   0.000009   0.000004   0.000001   0.000000   0.000000
    29  H   -0.000135  -0.000037   0.000047  -0.000004   0.000001   0.000000
    30  C    0.000001  -0.000008   0.000000   0.000000   0.000000   0.000000
    31  H    0.000001   0.000004   0.000000   0.000000   0.000000   0.000000
    32  C    0.000000  -0.000004   0.000000   0.000000   0.000000   0.000000
    33  H    0.000001   0.000000  -0.000001   0.000000   0.000000   0.000000
    34  H    0.000000   0.000000   0.000000   0.000000   0.000000   0.000000
    35  H    0.000000   0.000000   0.000000   0.000000   0.000000   0.000000
             25         26         27         28         29         30
     1  C    0.158713  -0.040407  -0.049502   0.004754  -0.001542   0.006277
     2  H   -0.059934   0.004931  -0.003198  -0.000249  -0.000064   0.001555
     3  C   -0.154629  -0.014117   0.000690   0.000655  -0.001063  -0.000420
     4  C   -0.007609  -0.000119   0.000819  -0.000668   0.000496   0.000193
     5  C   -0.005737  -0.000313   0.002040   0.000028  -0.000083  -0.000036
     6  C    0.000766  -0.000034  -0.000062  -0.000017   0.000066   0.000002
     7  H   -0.001914   0.004834  -0.000265   0.000450   0.001070  -0.000097
     8  C   -0.000464   0.000048  -0.000098  -0.000001   0.000002   0.000006
     9  H    0.000150  -0.000048   0.000250   0.000000   0.000000  -0.000006
    10  C    0.000096  -0.000004  -0.000014   0.000000   0.000002   0.000000
    11  H    0.000018  -0.000002   0.000006  -0.000001  -0.000009   0.000001
    12  H    0.000011   0.000000   0.000003   0.000000   0.000000   0.000000
    13  H   -0.000002   0.000000   0.000000   0.000000   0.000000   0.000000
    14  C   -0.104589  -0.014328   0.006253   0.000536  -0.003172  -0.000756
    15  C   -0.005998  -0.007299  -0.000179   0.000019   0.001174   0.000025
    16  C   -0.001434   0.001916   0.000464  -0.000087  -0.000873  -0.000017
    17  C    0.000877  -0.001489   0.000023  -0.000031   0.000949   0.000000
    18  H   -0.000501   0.000321  -0.000030   0.000053   0.000154   0.000006
    19  C   -0.000715   0.000222   0.000003  -0.000003  -0.000135   0.000001
    20  H    0.000478   0.000183   0.000124   0.000009  -0.000037  -0.000008
    21  C    0.000024   0.000082  -0.000001   0.000004   0.000047   0.000000
    22  H   -0.000007   0.000013  -0.000001   0.000001  -0.000004   0.000000
    23  H    0.000021  -0.000001   0.000000   0.000000   0.000001   0.000000
    24  H    0.000001   0.000000   0.000000   0.000000   0.000000   0.000000
    25  C    5.366801   0.485157   0.473545  -0.064472  -0.042807  -0.065466
    26  C    0.485157   5.087357  -0.071853   0.471874   0.390141  -0.027914
    27  C    0.473545  -0.071853   5.071311  -0.031582   0.004183   0.466259
    28  C   -0.064472   0.471874  -0.031582   5.049949  -0.029851  -0.076954
    29  H   -0.042807   0.390141   0.004183  -0.029851   0.481786  -0.000179
    30  C   -0.065466  -0.027914   0.466259  -0.076954  -0.000179   5.050260
    31  H   -0.050623   0.004151   0.399547  -0.000333  -0.000249  -0.035569
    32  C   -0.018527  -0.093458  -0.086117   0.499239   0.004710   0.489102
    33  H    0.006179  -0.037599  -0.000425   0.395924  -0.003337   0.006003
    34  H    0.006711  -0.000524  -0.039647   0.006128   0.000020   0.397088
    35  H   -0.001480   0.007825   0.007375  -0.042206  -0.000182  -0.042945
             31         32         33         34         35
     1  C    0.001750   0.000993  -0.000325  -0.000351  -0.000012
     2  H    0.001090   0.000009   0.000013  -0.000027  -0.000002
     3  C    0.000542   0.000074   0.000005   0.000012  -0.000001
     4  C   -0.000051   0.000028   0.000014   0.000003  -0.000001
     5  C    0.001417  -0.000003   0.000000  -0.000001   0.000000
     6  C   -0.000017   0.000003   0.000000   0.000000   0.000000
     7  H   -0.000037  -0.000010  -0.000002   0.000001  -0.000001
     8  C    0.000030   0.000000   0.000000   0.000000   0.000000
     9  H    0.000254   0.000000   0.000000  -0.000001   0.000000
    10  C   -0.000011   0.000000   0.000000   0.000000   0.000000
    11  H    0.000000   0.000000   0.000000   0.000000   0.000000
    12  H   -0.000003   0.000000   0.000000   0.000000   0.000000
    13  H    0.000000   0.000000   0.000000   0.000000   0.000000
    14  C    0.000688   0.000045   0.000037   0.000011  -0.000001
    15  C   -0.000038  -0.000019   0.000028   0.000000   0.000001
    16  C    0.000014  -0.000014   0.000007   0.000001   0.000000
    17  C    0.000000   0.000000  -0.000001   0.000000   0.000000
    18  H    0.000007   0.000001  -0.000017   0.000000   0.000000
    19  C    0.000001   0.000000   0.000001   0.000000   0.000000
    20  H    0.000004  -0.000004   0.000000   0.000000   0.000000
    21  C    0.000000   0.000000  -0.000001   0.000000   0.000000
    22  H    0.000000   0.000000   0.000000   0.000000   0.000000
    23  H    0.000000   0.000000   0.000000   0.000000   0.000000
    24  H    0.000000   0.000000   0.000000   0.000000   0.000000
    25  C   -0.050623  -0.018527   0.006179   0.006711  -0.001480
    26  C    0.004151  -0.093458  -0.037599  -0.000524   0.007825
    27  C    0.399547  -0.086117  -0.000425  -0.039647   0.007375
    28  C   -0.000333   0.499239   0.395924   0.006128  -0.042206
    29  H   -0.000249   0.004710  -0.003337   0.000020  -0.000182
    30  C   -0.035569   0.489102   0.006003   0.397088  -0.042945
    31  H    0.510090   0.005343   0.000025  -0.004289  -0.000185
    32  C    0.005343   5.033327  -0.040254  -0.040729   0.399189
    33  H    0.000025  -0.040254   0.516823  -0.000213  -0.004445
    34  H   -0.004289  -0.040729  -0.000213   0.518593  -0.004490
    35  H   -0.000185   0.399189  -0.004445  -0.004490   0.518505
 Mulliken atomic charges:
              1
     1  C   -0.580878
     2  H    0.204622
     3  C    0.092329
     4  C   -0.111675
     5  C   -0.189618
     6  C   -0.173243
     7  H    0.178789
     8  C   -0.165612
     9  H    0.166934
    10  C   -0.156418
    11  H    0.163377
    12  H    0.162083
    13  H    0.164025
    14  C    0.067109
    15  C   -0.145249
    16  C   -0.149616
    17  C   -0.189668
    18  H    0.184522
    19  C   -0.166215
    20  H    0.170071
    21  C   -0.151333
    22  H    0.162085
    23  H    0.162674
    24  H    0.163956
    25  C    0.087362
    26  C   -0.149545
    27  C   -0.149922
    28  C   -0.183166
    29  H    0.198786
    30  C   -0.166411
    31  H    0.166453
    32  C   -0.152926
    33  H    0.161562
    34  H    0.161702
    35  H    0.163055
 Sum of Mulliken atomic charges =   0.00000
 Mulliken charges with hydrogens summed into heavy atoms:
              1
     1  C   -0.376256
     3  C    0.092329
     4  C    0.067114
     5  C   -0.022685
     6  C   -0.009866
     8  C   -0.003530
    10  C    0.007607
    14  C    0.067109
    15  C    0.039273
    16  C    0.020454
    17  C   -0.027583
    19  C   -0.003540
    21  C    0.012623
    25  C    0.087362
    26  C    0.049241
    27  C    0.016531
    28  C   -0.021604
    30  C   -0.004709
    32  C    0.010129
 Sum of Mulliken charges with hydrogens summed into heavy atoms =   0.00000
 Electronic spatial extent (au):  <R**2>=           4940.0391
 Charge=              0.0000 electrons
 Dipole moment (field-independent basis, Debye):
    X=             -0.0145    Y=             -0.0645    Z=             -0.0432  Tot=              0.0790
 Quadrupole moment (field-independent basis, Debye-Ang):
   XX=           -110.6379   YY=           -114.0700   ZZ=           -102.8139
   XY=              0.7766   XZ=              2.2653   YZ=             -0.2040
 Traceless Quadrupole moment (field-independent basis, Debye-Ang):
   XX=             -1.4639   YY=             -4.8961   ZZ=              6.3601
   XY=              0.7766   XZ=              2.2653   YZ=             -0.2040
 Octapole moment (field-independent basis, Debye-Ang**2):
  XXX=             39.8403  YYY=             19.0184  ZZZ=             -0.1736  XYY=            -44.5001
  XXY=            -14.9850  XXZ=             -6.4853  XZZ=              0.6224  YZZ=             -4.6965
  YYZ=             10.3000  XYZ=              0.0966
 Hexadecapole moment (field-independent basis, Debye-Ang**3):
 XXXX=          -3091.7420 YYYY=          -2907.5994 ZZZZ=           -787.7372 XXXY=             -5.1304
 XXXZ=              0.1642 YYYX=              1.6282 YYYZ=             57.5583 ZZZX=              6.3866
 ZZZY=             -4.0939 XXYY=           -972.7929 XXZZ=           -631.5007 YYZZ=           -601.1731
 XXYZ=            -49.6589 YYXZ=             23.0649 ZZXY=             15.3637
 N-N= 1.288350252320D+03 E-N=-4.272709784796D+03  KE= 7.285925789011D+02
 PrsmSu:  requested number of processors reduced to:  10 ShMem   1 Linda.
 Calling FoFJK, ICntrl=      2127 FMM=F ISym2X=0 I1Cent= 0 IOpClX= 0 NMat=1 NMatS=1 NMatT=0.
 ***** Axes restored to original set *****
 -------------------------------------------------------------------
 Center     Atomic                   Forces (Hartrees/Bohr)
 Number     Number              X              Y              Z
 -------------------------------------------------------------------
      1        6          -0.009052918   -0.022223206   -0.000206904
      2        1           0.011381418    0.024995961    0.001671943
      3        6          -0.004229376   -0.004454816    0.012839364
      4        6           0.003954184    0.008836754   -0.006696521
      5        6          -0.001639485   -0.005702081   -0.001314416
      6        6           0.004329792    0.011610401    0.001003460
      7        1          -0.015993320   -0.008958383    0.020072524
      8        6          -0.004456077   -0.006840241    0.010510302
      9        1           0.004829173    0.016636063    0.003854354
     10        6          -0.001962317    0.002440489    0.013204605
     11        1          -0.004399140   -0.015611897   -0.004110099
     12        1           0.005906041    0.010573189   -0.011431882
     13        1           0.001617770   -0.005123867   -0.015938169
     14        6           0.009264519   -0.008833171   -0.003841904
     15        6          -0.000319354    0.011105850    0.007714272
     16        6          -0.003841903   -0.004680072   -0.001904397
     17        6           0.008199975    0.008740232    0.002001224
     18        1           0.012798921   -0.023583547   -0.014578039
     19        6           0.003698784   -0.010365245   -0.007100041
     20        1           0.012037076    0.012455844    0.003813838
     21        6           0.012365271   -0.002706386   -0.004725928
     22        1          -0.011785474   -0.011382765   -0.003193567
     23        1          -0.003594042    0.013804804    0.008688616
     24        1          -0.015647341    0.002481591    0.005567423
     25        6          -0.009663124    0.002671662   -0.010612756
     26        6           0.010778777    0.002861748    0.000115658
     27        6          -0.004140199   -0.004322321    0.002403120
     28        6           0.003860391    0.010101691   -0.005491350
     29        1          -0.021124519   -0.003830621   -0.004559443
     30        6          -0.012497588   -0.002716320   -0.000622269
     31        1           0.007658639    0.013147206   -0.008360439
     32        6          -0.007376582    0.008004267   -0.008155923
     33        1          -0.006783782   -0.012889440    0.008097339
     34        1           0.016204614    0.003360143    0.001518548
     35        1           0.009621196   -0.009603516    0.009767457
 -------------------------------------------------------------------
 Cartesian Forces:  Max     0.024995961 RMS     0.009563698

 GradGradGradGradGradGradGradGradGradGradGradGradGradGradGradGradGradGrad
 Berny optimization.
 Internal  Forces:  Max     0.029870270 RMS     0.007837044
 Search for a local minimum.
 Step number   1 out of a maximum of  197
 All quantities printed in internal units (Hartrees-Bohrs-Radians)
 Mixed Optimization -- RFO/linear search
 Second derivative matrix not updated -- first step.
     Eigenvalues ---    0.00634   0.00646   0.00654   0.01530   0.01533
     Eigenvalues ---    0.01536   0.02138   0.02141   0.02145   0.02168
     Eigenvalues ---    0.02171   0.02171   0.02181   0.02185   0.02186
     Eigenvalues ---    0.02202   0.02203   0.02203   0.02213   0.02213
     Eigenvalues ---    0.02215   0.02216   0.02216   0.02217   0.02218
     Eigenvalues ---    0.02218   0.02219   0.02220   0.02220   0.02222
     Eigenvalues ---    0.04517   0.06374   0.06675   0.15996   0.15999
     Eigenvalues ---    0.15999   0.16000   0.16000   0.16000   0.16000
     Eigenvalues ---    0.16000   0.16000   0.16000   0.16000   0.16000
     Eigenvalues ---    0.16000   0.16000   0.16000   0.18943   0.19367
     Eigenvalues ---    0.22000   0.22000   0.22000   0.22000   0.22000
     Eigenvalues ---    0.22000   0.23476   0.23476   0.23477   0.24996
     Eigenvalues ---    0.24999   0.25000   0.31162   0.31356   0.31442
     Eigenvalues ---    0.31505   0.33464   0.33606   0.33967   0.34072
     Eigenvalues ---    0.34075   0.34101   0.34256   0.34259   0.34262
     Eigenvalues ---    0.34264   0.34264   0.34264   0.34284   0.34284
     Eigenvalues ---    0.34287   0.42422   0.42433   0.42482   0.42572
     Eigenvalues ---    0.42580   0.42621   0.46346   0.46364   0.46426
     Eigenvalues ---    0.46769   0.46773   0.46838   0.47226   0.47229
     Eigenvalues ---    0.47265   0.47328   0.47330   0.473701000.00000
     Eigenvalues --- 1000.000001000.000001000.000001000.000001000.00000
     Eigenvalues --- 1000.000001000.000001000.000001000.000001000.00000
     Eigenvalues --- 1000.000001000.000001000.000001000.000001000.00000
     Eigenvalues --- 1000.000001000.000001000.000001000.000001000.00000
     Eigenvalues --- 1000.000001000.000001000.000001000.000001000.00000
     Eigenvalues --- 1000.000001000.000001000.000001000.000001000.00000
     Eigenvalues --- 1000.000001000.000001000.000001000.000001000.00000
     Eigenvalues --- 1000.000001000.000001000.000001000.000001000.00000
     Eigenvalues --- 1000.000001000.000001000.000001000.000001000.00000
     Eigenvalues --- 1000.000001000.000001000.000001000.000001000.00000
     Eigenvalues --- 1000.000001000.000001000.000001000.000001000.00000
     Eigenvalues --- 1000.000001000.000001000.000001000.000001000.00000
     Eigenvalues --- 1000.000001000.000001000.000001000.000001000.00000
     Eigenvalues --- 1000.000001000.000001000.000001000.000001000.00000
     Eigenvalues --- 1000.000001000.000001000.000001000.000001000.00000
     Eigenvalues --- 1000.000001000.000001000.000001000.000001000.00000
     Eigenvalues --- 1000.000001000.000001000.000001000.000001000.00000
     Eigenvalues --- 1000.000001000.00000
 RFO step:  Lambda=-4.28963593D-02 EMin= 6.34456534D-03
 Linear search not attempted -- first point.
 Maximum step size (   0.300) exceeded in Quadratic search.
    -- Step size scaled by   0.575
 Iteration  1 RMS(Cart)=  0.12600210 RMS(Int)=  0.00284477
 Iteration  2 RMS(Cart)=  0.00585370 RMS(Int)=  0.00028937
 Iteration  3 RMS(Cart)=  0.00000906 RMS(Int)=  0.00028932
 Iteration  4 RMS(Cart)=  0.00000000 RMS(Int)=  0.00028932
 Variable       Old X    -DE/DX   Delta X   Delta X   Delta X     New X
                                 (Linear)    (Quad)   (Total)
    R1        2.12404  -0.02750   0.00000  -0.04462  -0.04462   2.07942
    R2        2.85177   0.02269   0.00000   0.03652   0.03652   2.88828
    R3        2.85059   0.02573   0.00000   0.04134   0.04134   2.89193
    R4        2.85337   0.02085   0.00000   0.03365   0.03365   2.88702
    R5        2.63770   0.00074   0.00000   0.00099   0.00101   2.63871
    R6        2.64005  -0.00425   0.00000  -0.00477  -0.00476   2.63530
    R7        2.62607  -0.00459   0.00000  -0.00504  -0.00503   2.62104
    R8        2.07999  -0.02550   0.00000  -0.03869  -0.03869   2.04130
    R9        2.62732  -0.00282   0.00000  -0.00321  -0.00322   2.62410
   R10        2.07203  -0.01774   0.00000  -0.02659  -0.02659   2.04544
   R11        2.62798  -0.00551   0.00000  -0.00623  -0.00625   2.62173
   R12        2.06886  -0.01673   0.00000  -0.02496  -0.02496   2.04391
   R13        2.62774  -0.00837   0.00000  -0.00949  -0.00951   2.61823
   R14        2.06896  -0.01665   0.00000  -0.02484  -0.02484   2.04411
   R15        2.06854  -0.01682   0.00000  -0.02508  -0.02508   2.04346
   R16        2.63775   0.00075   0.00000   0.00104   0.00105   2.63880
   R17        2.64222  -0.00348   0.00000  -0.00392  -0.00390   2.63832
   R18        2.62721  -0.00320   0.00000  -0.00345  -0.00345   2.62376
   R19        2.08244  -0.02987   0.00000  -0.04550  -0.04550   2.03694
   R20        2.62621  -0.00361   0.00000  -0.00414  -0.00413   2.62208
   R21        2.07209  -0.01772   0.00000  -0.02657  -0.02657   2.04552
   R22        2.62673  -0.00669   0.00000  -0.00751  -0.00753   2.61920
   R23        2.06890  -0.01669   0.00000  -0.02490  -0.02490   2.04400
   R24        2.62806  -0.00838   0.00000  -0.00955  -0.00956   2.61849
   R25        2.06900  -0.01670   0.00000  -0.02492  -0.02492   2.04408
   R26        2.06853  -0.01679   0.00000  -0.02504  -0.02504   2.04349
   R27        2.63516  -0.00242   0.00000  -0.00268  -0.00267   2.63248
   R28        2.64295  -0.00425   0.00000  -0.00489  -0.00488   2.63807
   R29        2.62855  -0.00279   0.00000  -0.00305  -0.00305   2.62550
   R30        2.07386  -0.02179   0.00000  -0.03275  -0.03275   2.04111
   R31        2.62519  -0.00410   0.00000  -0.00463  -0.00462   2.62056
   R32        2.07160  -0.01735   0.00000  -0.02599  -0.02599   2.04561
   R33        2.62603  -0.00618   0.00000  -0.00686  -0.00687   2.61916
   R34        2.06887  -0.01666   0.00000  -0.02486  -0.02486   2.04401
   R35        2.62880  -0.00598   0.00000  -0.00674  -0.00675   2.62206
   R36        2.06887  -0.01662   0.00000  -0.02479  -0.02479   2.04408
   R37        2.06848  -0.01674   0.00000  -0.02495  -0.02495   2.04353
    A1        1.86732  -0.00589   0.00000  -0.03531  -0.03456   1.83276
    A2        1.85548  -0.00922   0.00000  -0.04548  -0.04453   1.81095
    A3        1.85852  -0.00031   0.00000  -0.01916  -0.01899   1.83954
    A4        1.97584   0.01474   0.00000   0.05381   0.05263   2.02847
    A5        1.92549  -0.00406   0.00000   0.00953   0.00719   1.93268
    A6        1.97270   0.00301   0.00000   0.02543   0.02352   1.99622
    A7        2.12744   0.01650   0.00000   0.03230   0.03221   2.15965
    A8        2.07766  -0.00632   0.00000  -0.01252  -0.01259   2.06507
    A9        2.07795  -0.01021   0.00000  -0.02007  -0.02007   2.05788
   A10        2.10367   0.00378   0.00000   0.00842   0.00836   2.11202
   A11        2.07609   0.00413   0.00000   0.01302   0.01290   2.08899
   A12        2.10321  -0.00785   0.00000  -0.02093  -0.02105   2.08216
   A13        2.10058   0.00695   0.00000   0.01485   0.01485   2.11543
   A14        2.09439  -0.00406   0.00000  -0.00908  -0.00909   2.08530
   A15        2.08822  -0.00289   0.00000  -0.00577  -0.00578   2.08244
   A16        2.09585   0.00212   0.00000   0.00426   0.00426   2.10010
   A17        2.09151  -0.00096   0.00000  -0.00185  -0.00186   2.08965
   A18        2.09583  -0.00116   0.00000  -0.00241  -0.00242   2.09341
   A19        2.09792  -0.00010   0.00000  -0.00100  -0.00102   2.09689
   A20        2.09117   0.00020   0.00000   0.00093   0.00094   2.09211
   A21        2.09410  -0.00010   0.00000   0.00007   0.00008   2.09418
   A22        2.09037  -0.00253   0.00000  -0.00634  -0.00638   2.08400
   A23        2.09643   0.00126   0.00000   0.00316   0.00316   2.09960
   A24        2.09638   0.00127   0.00000   0.00319   0.00319   2.09957
   A25        2.14241   0.02506   0.00000   0.04918   0.04917   2.19158
   A26        2.06562  -0.01296   0.00000  -0.02546  -0.02547   2.04014
   A27        2.07515  -0.01210   0.00000  -0.02372  -0.02369   2.05146
   A28        2.10373   0.00439   0.00000   0.00976   0.00976   2.11349
   A29        2.08565   0.00421   0.00000   0.01327   0.01327   2.09892
   A30        2.09377  -0.00861   0.00000  -0.02306  -0.02306   2.07071
   A31        2.10307   0.00830   0.00000   0.01759   0.01761   2.12068
   A32        2.09375  -0.00487   0.00000  -0.01085  -0.01086   2.08289
   A33        2.08637  -0.00342   0.00000  -0.00674  -0.00676   2.07961
   A34        2.09778   0.00244   0.00000   0.00500   0.00497   2.10275
   A35        2.09019  -0.00117   0.00000  -0.00234  -0.00233   2.08786
   A36        2.09522  -0.00128   0.00000  -0.00266  -0.00264   2.09258
   A37        2.09759   0.00002   0.00000  -0.00100  -0.00101   2.09658
   A38        2.09145   0.00006   0.00000   0.00069   0.00069   2.09215
   A39        2.09415  -0.00008   0.00000   0.00031   0.00032   2.09446
   A40        2.08905  -0.00305   0.00000  -0.00761  -0.00765   2.08140
   A41        2.09733   0.00152   0.00000   0.00379   0.00380   2.10113
   A42        2.09680   0.00153   0.00000   0.00382   0.00384   2.10064
   A43        2.14041   0.00959   0.00000   0.01891   0.01890   2.15931
   A44        2.06528  -0.00204   0.00000  -0.00392  -0.00392   2.06136
   A45        2.07748  -0.00755   0.00000  -0.01500  -0.01499   2.06249
   A46        2.10167   0.00315   0.00000   0.00686   0.00686   2.10853
   A47        2.09251   0.00059   0.00000   0.00269   0.00269   2.09521
   A48        2.08896  -0.00374   0.00000  -0.00958  -0.00959   2.07937
   A49        2.10235   0.00529   0.00000   0.01110   0.01110   2.11345
   A50        2.09303  -0.00326   0.00000  -0.00731  -0.00732   2.08571
   A51        2.08780  -0.00202   0.00000  -0.00379  -0.00379   2.08401
   A52        2.09858   0.00130   0.00000   0.00275   0.00274   2.10132
   A53        2.08972  -0.00061   0.00000  -0.00124  -0.00124   2.08848
   A54        2.09488  -0.00070   0.00000  -0.00151  -0.00150   2.09338
   A55        2.09703   0.00009   0.00000  -0.00036  -0.00036   2.09666
   A56        2.09201   0.00000   0.00000   0.00029   0.00029   2.09230
   A57        2.09415  -0.00008   0.00000   0.00007   0.00007   2.09422
[...]
 1593,0.00005649,-0.00050749,-0.00042459,0.00043152,0.00014699,-0.00009
 642,-0.00041387,0.00027036,-0.00007246,-0.00021738,0.00018056,0.000249
 76,0.00003129,0.00000497,0.00002175,0.00045951,0.00004804,-0.00007815,
 -0.00002381,-0.00007814,0.00002347,-0.00020166,-0.00028363,-0.00019994
 ,-0.00002538,-0.00001132,0.00000158,-0.00000827,0.00003150,0.00001236,
 -0.00002391,0.00000613,0.00000231,-0.07933492,-0.04149543,0.02913329,-
 0.03496536,0.07075148,-0.07424875,0.09550725,-0.01319340,0.02334754,-0
 .36656523,-0.05877931,0.01610540,0.00028691,0.00153414,-0.00255325,-0.
 20163441,-0.03373322,0.01486018,-0.00160679,0.00241270,-0.00381297,0.7
 6609670,-0.00049895,-0.00075112,0.00097953,0.00056508,0.00038045,0.000
 26451,0.00089504,-0.00022638,-0.00015513,0.00017561,-0.00009057,0.0003
 2663,0.00017447,0.00021647,-0.00014729,-0.00000010,0.00007203,-0.00028
 908,-0.00006685,-0.00000503,0.00009668,-0.00010300,0.00016464,0.000149
 22,0.00000620,0.00000356,-0.00001857,0.00001795,-0.00020089,0.00015521
 ,0.00002857,0.00004421,0.00004666,-0.00002916,-0.00000190,0.00002793,-
 0.00000555,0.00000582,0.00000960,-0.00008126,-0.00037188,0.00002371,0.
 00027502,-0.00003124,-0.00010213,-0.00013034,0.00017177,-0.00006872,-0
 .00013584,0.00007933,0.00012247,0.00000272,-0.00000886,0.00000442,0.00
 022270,0.00005658,-0.00006146,-0.00002730,-0.00004728,0.00004035,-0.00
 002957,-0.00013495,-0.00012472,0.00001467,-0.00000479,0.00000533,0.000
 01292,-0.00000828,0.00000056,0.00000141,-0.00000676,0.00000007,-0.0425
 9093,-0.02610325,0.01096205,0.01991236,0.04339438,-0.02947628,0.038335
 03,-0.03039263,0.04373234,0.00482645,-0.12712676,0.04335518,0.00189134
 ,0.00216481,0.00696600,-0.09776752,-0.21529865,0.11281600,0.00183098,0
 .00324425,0.00587544,0.00715952,0.50039013,0.00072927,-0.00018744,-0.0
 0146882,-0.00033991,-0.00037816,-0.00008840,-0.00090552,0.00048314,0.0
 0011597,-0.00002623,0.00011958,-0.00016528,-0.00010512,-0.00019182,-0.
 00005586,0.00001194,-0.00012040,0.00016864,0.00006845,-0.00010323,-0.0
 0000096,0.00008283,-0.00005841,-0.00008113,-0.00001479,-0.00000153,0.0
 0002542,-0.00001336,0.00010703,-0.00008985,-0.00001392,-0.00002217,-0.
 00002471,0.00002145,0.00000007,-0.00003356,0.00000339,-0.00001179,-0.0
 0000162,0.00010655,0.00025919,-0.00000033,-0.00012147,0.00006768,0.000
 07845,0.00004538,-0.00013015,-0.00002227,0.00008335,-0.00003755,-0.000
 06225,-0.00000466,0.00000212,-0.00001513,-0.00012041,-0.00005704,0.000
 02589,0.00004319,0.00000100,-0.00005279,-0.00001003,0.00007154,0.00008
 516,-0.00001784,0.00000438,-0.00000547,-0.00002582,0.00002671,0.000005
 11,-0.00001027,0.00000548,-0.00000161,0.03025678,0.01213312,-0.0138579
 4,-0.02595985,-0.02249810,0.02773575,-0.02438557,0.03710545,-0.0288594
 9,-0.04653639,0.03373110,-0.12375931,-0.00271348,0.00674675,0.00176933
 ,0.07692648,0.12262612,-0.19107740,-0.00333078,0.00608134,0.00273709,0
 .08067440,-0.31474882,0.49233082,0.00052606,0.00052402,-0.00037533,-0.
 00006791,0.00014506,-0.00012148,-0.00002090,0.00005789,0.00000167,-0.0
 0000247,-0.00000639,0.00000513,-0.00000501,0.00000355,-0.00003063,0.00
 000731,-0.00001748,-0.00000657,-0.00000078,-0.00002032,-0.00001012,0.0
 0000389,0.00000375,-0.00000388,-0.00000303,-0.00000625,0.00000187,0.00
 000060,-0.00000207,-0.00000103,-0.00000139,0.00000180,0.00000208,0.000
 00068,-0.00000112,-0.00000046,-0.00000129,-0.00000094,0.00000335,0.000
 10744,-0.00006442,0.00005228,-0.00000718,-0.00004101,0.00000891,-0.000
 00489,-0.00000104,0.00001749,-0.00001499,-0.00000948,0.00000455,0.0000
 0042,0.00000483,-0.00001342,-0.00000366,0.00000527,0.00001025,-0.00000
 318,0.00000693,-0.00000385,-0.00001747,0.00000260,0.00001307,-0.000003
 26,0.00000560,-0.00000532,-0.00000132,0.00000019,-0.00000262,0.0000016
 7,0.00000275,-0.00000356,-0.00159117,0.00199491,-0.00349386,0.01343181
 ,0.01553964,-0.01399062,-0.00082223,0.00072141,-0.00065037,-0.13612534
 ,-0.09367998,0.07885458,0.00122088,-0.00001622,0.00090363,-0.00639843,
 -0.00052761,-0.00172812,0.00005249,0.00003098,0.00015320,-0.00917967,-
 0.02621338,0.02347746,0.13842998,-0.00088847,-0.00032998,0.00005824,0.
 00006018,-0.00017059,0.00015114,0.00015223,-0.00014414,-0.00001706,-0.
 00000352,0.00006001,0.00002437,0.00001976,0.00004884,0.00007047,0.0000
 0425,-0.00002021,-0.00000870,-0.00001246,-0.00003020,-0.00000465,-0.00
 001485,0.00000189,0.00002150,0.00000176,0.00000269,-0.00001302,0.00000
 225,-0.00001001,0.00002285,-0.00000557,0.00001012,0.00000454,-0.000003
 52,-0.00000610,0.00001775,0.00000033,0.00000191,0.00001385,-0.00012990
 ,0.00004814,0.00008818,-0.00001136,-0.00001791,-0.00002661,0.00008178,
 -0.00001895,-0.00001851,0.00002413,-0.00000448,-0.00003705,-0.00001589
 ,-0.00000855,0.00000333,-0.00003902,0.00002146,-0.00001015,-0.00001634
 ,0.00000207,0.00002703,0.00006845,0.00002770,-0.00001422,0.00001868,-0
 .00000372,0.00000905,0.00001584,-0.00003156,-0.00000587,0.00001834,-0.
 00001116,0.00000502,0.00238804,0.00289609,0.00599146,-0.01263773,-0.00
 734250,0.01070017,0.00085358,-0.00009199,-0.00073437,-0.09347061,-0.19
 468382,0.12873157,0.00075249,-0.00172909,-0.00308127,-0.00091980,0.005
 24036,0.00349231,0.00002679,-0.00067109,-0.00057555,0.00196109,0.00284
 916,0.00298470,0.10177074,0.19608920,0.00066260,0.00043012,-0.00034515
 ,-0.00016506,0.00017268,-0.00024659,-0.00005984,0.00020111,0.00012333,
 -0.00004673,0.00000632,-0.00011205,0.00001386,-0.00007331,-0.00011167,
 -0.00000962,0.00001184,0.00001169,0.00003311,0.00005498,0.00003212,-0.
 00000066,0.00000552,-0.00000471,0.00000835,-0.00001830,0.00001510,0.00
 000208,-0.00000914,-0.00002621,0.00000721,-0.00001939,-0.00002726,-0.0
 0000079,-0.00000073,-0.00001543,0.00000403,-0.00000238,-0.00001034,0.0
 0024140,-0.00009404,-0.00005632,-0.00009215,0.00001170,0.00005741,-0.0
 0000612,-0.00000170,0.00003636,0.00001570,-0.00002423,-0.00000816,0.00
 001014,0.00000771,-0.00001942,-0.00002054,-0.00001236,-0.00000884,-0.0
 0000318,-0.00002426,-0.00001455,-0.00002542,0.00001391,0.00003073,-0.0
 0002609,0.00000200,-0.00001153,-0.00000447,0.00000448,0.00000466,-0.00
 001160,0.00000600,0.00000055,-0.00370495,0.00555366,0.00268387,0.01349
 175,0.01492242,-0.00709085,-0.00063869,-0.00076237,-0.00031247,0.07894
 018,0.12883680,-0.16291938,-0.00006368,-0.00315367,-0.00192766,-0.0013
 8670,0.00359844,0.00523751,0.00016952,-0.00057502,-0.00066798,-0.00418
 424,-0.00118854,0.00616561,-0.08403454,-0.14478622,0.16152255,-0.00067
 329,-0.00041712,0.00035613,0.00000280,0.00004221,-0.00002198,-0.000103
 86,0.00014916,0.00011518,0.00002133,-0.00005477,-0.00004690,0.00001911
 ,-0.00005750,-0.00008655,0.00000514,0.00002973,0.00000504,-0.00001658,
 0.00004469,0.00003323,0.00001539,0.00000638,-0.00001881,-0.00001020,-0
 .00000348,0.00001557,0.00000944,0.00000435,-0.00003807,-0.00000972,-0.
 00002197,-0.00001307,-0.00000660,0.00000527,-0.00002271,-0.00000508,-0
 .00000287,-0.00001941,0.00005173,0.00012336,-0.00029110,-0.00006457,0.
 00005850,0.00005063,-0.00007737,-0.00000463,-0.00000757,0.00001333,-0.
 00000254,0.00001721,0.00000788,-0.00000091,0.00000348,0.00001201,-0.00
 002464,-0.00001303,0.00001135,-0.00001619,-0.00000926,-0.00002912,0.00
 000426,0.00000492,-0.00001893,-0.00000709,0.00000011,-0.00001202,0.000
 01118,0.00001651,-0.00001517,0.00000300,0.00000472,0.00045435,0.001720
 19,-0.00298072,0.00101516,0.00031018,-0.00001943,-0.01337739,-0.006171
 17,0.00312813,0.00082855,-0.00273130,0.00145004,-0.00012628,0.00006832
 ,0.00010719,-0.36738170,-0.03643921,-0.01296788,0.00118809,0.00095802,
 0.00004475,-0.00992892,0.00221003,-0.00449577,-0.00071111,0.00002076,-
 0.00009905,0.38781462,0.00091302,0.00020828,-0.00023003,-0.00004488,-0
 .00004942,-0.00002169,-0.00004190,-0.00000212,-0.00010709,-0.00000287,
 0.00000698,-0.00000356,-0.00003900,-0.00001208,0.00004467,0.00001373,0
 .00001502,0.00001297,-0.00001913,-0.00000986,0.00001323,0.00000368,-0.
 00001690,-0.00000178,0.00000635,-0.00000320,-0.00000270,-0.00000062,0.
 00000860,-0.00000871,-0.00000702,-0.00000614,-0.00000357,0.00000566,-0
 .00000124,0.00000522,-0.00000235,0.00000086,0.00000021,-0.00006584,-0.
 00014762,0.00014013,0.00006530,0.00000050,-0.00003866,0.00003193,0.000
 04421,0.00000362,-0.00002286,0.00002724,0.00000486,-0.00000121,-0.0000
 0528,0.00000655,0.00003486,0.00000919,-0.00001270,-0.00000719,-0.00001
 351,0.00000884,0.00000386,-0.00002878,-0.00002767,0.00000626,-0.000002
 67,0.00000284,0.00000959,-0.00000509,-0.00000601,0.00000261,-0.0000036
 8,0.00000084,0.00146588,0.00225002,0.00695295,0.00030085,-0.00113412,0
 .00023172,0.02221083,0.00776295,0.00135765,-0.00233750,0.00094199,0.00
 711325,0.00007287,-0.00055379,-0.00067516,-0.03664039,-0.06564926,0.01
 062455,0.00001478,-0.00184985,-0.00322782,-0.02599921,0.00331929,-0.00
 187140,-0.00119425,-0.00013980,-0.00010954,0.04023649,0.05669271,-0.00
 091847,-0.00029893,0.00016090,0.00004950,-0.00003345,0.00007343,-0.000
 07429,0.00008387,0.00005659,0.00002219,-0.00001190,-0.00004144,-0.0000
 0353,-0.00001992,-0.00005094,0.00001902,0.00000590,-0.00001161,-0.0000
 3474,0.00000951,0.00001182,0.00001496,0.00000699,-0.00000221,-0.000008
 98,-0.00000891,0.00000744,0.00001138,-0.00001185,-0.00002952,-0.000011
 29,-0.00001492,-0.00001232,-0.00000415,-0.00000138,-0.00000730,-0.0000
 0733,-0.00000185,-0.00000500,-0.00009696,0.00010128,-0.00033870,-0.000
 01838,0.00001225,0.00002673,-0.00004182,0.00004440,0.00003199,-0.00002
 696,0.00000234,0.00004194,-0.00000176,0.00000646,-0.00001619,0.0000483
 4,-0.00001674,-0.00000101,0.00000291,-0.00000203,-0.00000164,-0.000043
 28,-0.00002509,-0.00002156,-0.00001161,-0.00000275,0.00000074,-0.00000
 010,0.00000446,0.00000199,-0.00000453,0.00000224,-0.00000082,-0.002398
 65,0.00688877,0.00189105,0.00010564,0.00018652,-0.00108245,-0.02449136
 ,-0.00304341,0.00482916,0.00104494,0.00708905,0.00194884,0.00004136,-0
 .00067995,-0.00058244,-0.01283517,0.01068236,-0.06096130,0.00095197,-0
 .00314112,-0.00198258,0.02294180,0.00247686,0.00652068,0.00103955,0.00
 006335,0.00000505,0.01485183,-0.01727463,0.05138362,0.00009179,0.00006
 254,0.00013562,-0.00000330,0.00009430,-0.00005205,-0.00000145,0.000026
 47,0.00003540,0.00001652,-0.00004208,-0.00001162,0.00000591,-0.0000180
 6,-0.00002296,-0.00000350,0.00002826,0.00000250,-0.00001837,0.00003359
 ,0.00002336,0.00000305,-0.00000129,-0.00000778,-0.00000284,-0.00000022
 ,0.00000445,-0.00000135,0.00000179,-0.00001138,0.00000144,-0.00000755,
 -0.00000454,-0.00000161,0.00000319,-0.00000801,-0.00000019,0.00000003,
 -0.00000965,0.00003045,0.00001947,-0.00003842,-0.00000908,0.00006837,-
 0.00000062,-0.00001211,-0.00001754,-0.00004512,0.00004262,0.00000652,-
 0.00001319,0.00000762,-0.00000886,0.00002287,-0.00000403,-0.00001677,-
 0.00001379,0.00000613,-0.00001040,0.00000074,0.00000050,0.00000440,0.0
 0001620,-0.00000959,-0.00000594,-0.00000154,-0.00000532,0.00001057,0.0
 0000861,-0.00001244,0.00000361,0.00000368,-0.00071645,-0.00075191,0.00
 077446,-0.00600016,-0.00236356,0.00011595,-0.00081852,-0.00317329,0.00
 162356,-0.01190433,0.02284596,-0.02481526,-0.00076413,0.00097895,-0.00
 105464,0.01360717,-0.01184801,0.01282542,0.00041441,-0.00049367,0.0005
 4367,-0.16025373,0.08912171,-0.10337976,0.00120348,-0.00007243,0.00098
 419,0.00109766,0.00102766,-0.00011201,0.16401374,0.00007975,-0.0004527
 5,-0.00064617,-0.00008330,-0.00004352,0.00005647,0.00000298,0.00006524
 ,-0.00010502,0.00001657,0.00002694,0.00000767,0.00001055,0.00000804,-0
 .00002167,0.00000526,-0.00001504,-0.00000990,-0.00001514,-0.00001517,0
 .00000261,0.00000015,0.00001521,0.00000051,-0.00000580,-0.00000072,-0.
 00000521,-0.00000158,-0.00000893,0.00000806,-0.00000231,0.00000500,-0.
 00000096,0.00000028,-0.00000610,0.00000686,-0.00000068,0.00000139,0.00
 000987,-0.00005253,0.00002061,0.00006627,0.00005274,-0.00000963,-0.000
 02446,0.00002750,0.00001149,-0.00002456,0.00000103,-0.00000289,-0.0000
 0017,-0.00000814,-0.00000451,-0.00000603,-0.00000154,0.00001072,0.0000
 0167,-0.00001207,0.00000742,0.00001427,0.00000878,-0.00000176,-0.00000
 122,0.00000711,0.00000352,-0.00000098,0.00000793,-0.00001133,-0.000006
 02,0.00000889,-0.00000205,-0.00000143,-0.00070438,-0.00050010,-0.00057
 961,-0.00185595,0.00493429,0.00372151,-0.00367508,0.00175593,0.0061428
 6,-0.00535785,0.00722140,-0.00273896,-0.00014813,0.00006826,-0.0001711
 3,0.01643574,-0.00723823,0.01445158,0.00069240,-0.00068422,0.00066222,
 0.08914326,-0.15574566,0.11786150,0.00098005,-0.00183377,-0.00298451,-
 0.00005065,-0.00165343,-0.00307776,-0.09550581,0.15407433,0.00001929,-
 0.00050486,-0.00059926,-0.00005834,-0.00012558,0.00005291,-0.00008736,
 0.00014656,-0.00001567,0.00000161,-0.00001499,-0.00004710,0.00000563,-
 0.00004910,-0.00005495,0.00000137,0.00003082,0.00002038,-0.00000662,0.
 00004089,0.00003263,0.00000725,-0.00000272,-0.00001176,0.00000209,-0.0
 0000683,0.00000828,0.00000240,0.00000534,-0.00002202,-0.00000421,-0.00
 001773,-0.00001539,-0.00000061,0.00000194,-0.00001197,-0.00000183,-0.0
 0000109,-0.00001239,0.00000042,-0.00000177,-0.00006017,-0.00000420,0.0
 0003442,0.00001670,-0.00001899,0.00002938,-0.00002022,0.00001080,0.000
 00251,0.00000492,0.00000384,-0.00000584,0.00000248,0.00000847,-0.00001
 131,-0.00001903,-0.00000074,-0.00001846,-0.00000106,-0.00001410,-0.000
 00128,0.00000470,-0.00001112,-0.00000272,-0.00000367,-0.00000077,0.000
 00143,0.00000743,-0.00000855,0.00000074,0.00000330,0.00082506,-0.00070
 131,-0.00012419,-0.00037549,0.00370827,0.00531275,0.00206649,0.0061982
 7,0.00298168,0.00297573,0.00146270,0.00421455,0.00008380,-0.00000786,-
 0.00006418,-0.01471752,0.01005839,-0.00696315,-0.00056679,0.00046497,-
 0.00059921,-0.10349200,0.11794401,-0.17803972,-0.00007331,-0.00314763,
 -0.00198997,0.00094663,-0.00290139,-0.00184294,0.11248167,-0.13260818,
 0.17785532||0.00001365,-0.00000291,-0.00001485,-0.00000560,0.00000328,
 0.00000424,0.00000593,0.00000478,0.00000415,-0.00000173,-0.00001657,-0
 .00001528,-0.00000406,-0.00000073,0.00000261,-0.00000384,-0.00000402,0
 .00001706,0.,0.00000434,-0.00000045,0.00000408,-0.00000186,-0.00000502
 ,0.00000082,-0.00000093,-0.00000107,0.00000347,0.00001248,-0.00000044,
 0.00000256,0.00000219,-0.00000198,-0.00000193,-0.00000086,0.00000032,-
 0.00000107,-0.00000110,0.00000137,0.00000348,0.00004102,0.00002980,-0.
 00006336,-0.00001403,-0.00000667,0.00002915,-0.00002432,-0.00002755,0.
 00003852,-0.00003105,-0.00003265,0.00000150,0.00000393,0.00000686,-0.0
 0004631,-0.00000900,0.00000266,-0.00000465,0.00000234,0.00000241,0.000
 02151,0.00003889,0.00002906,-0.00000215,0.00000347,0.00000272,0.000003
 27,0.00000072,-0.00000023,0.00000020,-0.00000297,-0.00000257,0.0000265
 6,0.00002295,-0.00000437,0.00000250,-0.00003530,0.00003681,-0.00003004
 ,0.00000241,-0.00001526,-0.00003959,0.00000851,-0.00002370,0.00000637,
 -0.00000123,-0.00000317,0.00000404,-0.00003368,0.00002189,0.00000381,-
 0.00000183,0.00000177,0.00003501,0.00002817,-0.00000722,0.00000334,0.0
 0000007,0.00000151,-0.00000047,0.00000395,-0.00000326,-0.00000499,-0.0
 0000108,0.00000048|||@


                                                                                    A
                                                                                  AA
                                                                                 AAA
                                                                                AAAA
                                                                               AAAAA
                                                                              AAAAAA   KKKKKKKK
                                                                             AAAAAAA   KKKKKKKK
                                                                            AAAAAAAA   KKKKKKKK
                                       ZZZZZZZZZZZZZZZZZZZZ                AAAA  AAA   KKKKKKKK
                                       ZZZZZZZZZZZZZZZZZZZ                AAAA   AAA   KKKKKKKK          K
                                       ZZZZZZZZZZZZZZZZZZ                AAAA    AAA   KKKKKKKK         KKK
                                       ZZZZZZZZZZZZZZZZZ                AAAA     AAA   KKKKKKKK        KKKKK
                                       ZZZZZZZZZZZZZZZZ                AAAA      AAA   KKKKKKKK       KKKKKKK
                                                ZZZZZZ                AAAA       AAA   KKKKKKKK      KKKKKKK
                                               ZZZZZZ                AAAA        AAA   KKKKKKKK     KKKKKKK
                                              ZZZZZZ                AAAA         AAA   KKKKKKKK    KKKKKKK
                                             ZZZZZZ                AAAA          AAA   KKKKKKKK   KKKKKKK
                                            ZZZZZZ                AAAAAAAAAAAAAAAAAA   KKKKKKKK  KKKKKKK
                                           ZZZZZZ                AAAAAAAAAAAAAAAAAAA   KKKKKKKK KKKKKKK
                                          ZZZZZZ                AAAAAAAAAAAAAAAAAAAA   KKKKKKKKKKKKKKK
                                         ZZZZZZ                AAAAAAAAAAAAAAAAAAAAA   KKKKKKKKKKKKKK
                                        ZZZZZZ                AAAAAA        AAAAAAAA   KKKKKKKKKKKKK
                                       ZZZZZZ                AAAAAA         AAAAAAAA   KKKKKKKKKKKK
                                      ZZZZZZ                AAAAAA          AAAAAAAA   KKKKKKKKKKK
                                     ZZZZZZ                AAAAAA           AAAAAAAA   KKKKKKKKKKKK
                                    ZZZZZZ                AAAAAA            AAAAAAAA   KKKKKKKKKKKKK
                                   ZZZZZZ                AAAAAA             AAAAAAAA   KKKKKKKKKKKKKK
                                  ZZZZZZ                AAAAAA              AAAAAAAA   KKKKKKKKKKKKKKK
                                 ZZZZZZ                AAAAAA               AAAAAAAA   KKKKK KKKKKKKKKK
                                ZZZZZZ                AAAAAA                AAAAAAAA   KKKKK  KKKKKKKKKK
                               ZZZZZZ                AAAAAA                            KKKKK   KKKKKKKKKK
                              ZZZZZZ                AAAAAA                             KKKKK    KKKKKKKKKK
                             ZZZZZZ                                                    KKKKK     KKKKKKKKKK
                            ZZZZZZ                                                     KKKKK      KKKKKKKKKK
                           ZZZZZZ                                                      KKKKK       KKKKKKKKKK
                          ZZZZZZ                                                       KKKKK        KKKKKKKKKK
                         ZZZZZZZZZZZZZZZZZZZZZZZZZZZZZZZZZZZZZZZZ                      KKKKK         KKKKKKKKKK
                        ZZZZZZZZZZZZZZZZZZZZZZZZZZZZZZZZZZZZZZZZZ                      KKKKK          KKKKKKKKKK
                       ZZZZZZZZZZZZZZZZZZZZZZZZZZZZZZZZZZZZZZZZZZ                      KKKKK           KKKKKKKKKK
                       ZZZZZZZZZZZZZZZZZZZZZZZZZZZZZZZZZZZZZZZZZZ                      KKKKK            KKKKKKKKKK
                       ZZZZZZZZZZZZZZZZZZZZZZZZZZZZZZZZZZZZZZZZZZ                      KKKKK             KKKKKKKKKK
                       ZZZZZZZZZZZZZZZZZZZZZZZZZZZZZZZZZZZZZZZZZZ                      KKKKK              KKKKKKKKKK
                       ZZZZZZZZZZZZZZZZZZZZZZZZZZZZZZZZZZZZZZZZZZ                      KKKKK               KKKKKKKKKK
                       ZZZZZZZZZZZZZZZZZZZZZZZZZZZZZZZZZZZZZZZZZZ                      KKKKK                KKKKKKKKKK
                       ZZZZZZZZZZZZZZZZZZZZZZZZZZZZZZZZZZZZZZZZZZ                      KKKKK
                                                                                       KKKKK
                                                                                          (J.P.)
 Job cpu time:  0 days  0 hours  6 minutes 26.0 seconds.
 File lengths (MBytes):  RWF=    350 Int=      0 D2E=      0 Chk=      7 Scr=      1
 Normal termination of Gaussian 09 at Mon Sep 06 19:17:36 2021.
