 Entering Link 1 = b:\programy\g09w\l1.exe PID=       280.
  
 Copyright (c) 1988,1990,1992,1993,1995,1998,2003,2009, Gaussian, Inc.
                  All Rights Reserved.
  
 This is part of the Gaussian(R) 09 program.  It is based on
 the Gaussian(R) 03 system (copyright 2003, Gaussian, Inc.),
 the Gaussian(R) 98 system (copyright 1998, Gaussian, Inc.),
 the Gaussian(R) 94 system (copyright 1995, Gaussian, Inc.),
 the Gaussian 92(TM) system (copyright 1992, Gaussian, Inc.),
 the Gaussian 90(TM) system (copyright 1990, Gaussian, Inc.),
 the Gaussian 88(TM) system (copyright 1988, Gaussian, Inc.),
 the Gaussian 86(TM) system (copyright 1986, Carnegie Mellon
 University), and the Gaussian 82(TM) system (copyright 1983,
 Carnegie Mellon University). Gaussian is a federally registered
 trademark of Gaussian, Inc.
  
 This software contains proprietary and confidential information,
 including trade secrets, belonging to Gaussian, Inc.
  
 This software is provided under written license and may be
 used, copied, transmitted, or stored only in accord with that
 written license.
  
 The following legend is applicable only to US Government
 contracts under FAR:
  
                    RESTRICTED RIGHTS LEGEND
  
 Use, reproduction and disclosure by the US Government is
 subject to restrictions as set forth in subparagraphs (a)
 and (c) of the Commercial Computer Software - Restricted
 Rights clause in FAR 52.227-19.
  
 Gaussian, Inc.
 340 Quinnipiac St., Bldg. 40, Wallingford CT 06492
  
  
 ---------------------------------------------------------------
 Warning -- This program may not be used in any manner that
 competes with the business of Gaussian, Inc. or will provide
 assistance to any competitor of Gaussian, Inc.  The licensee
 of this program is prohibited from giving any competitor of
 Gaussian, Inc. access to this program.  By using this program,
 the user acknowledges that Gaussian, Inc. is engaged in the
 business of creating and licensing software in the field of
 computational chemistry and represents and warrants to the
 licensee that it is not a competitor of Gaussian, Inc. and that
 it will not use this program in any manner prohibited above.
 ---------------------------------------------------------------
  

 Cite this work as:
 Gaussian 09, Revision A.02,
 M. J. Frisch, G. W. Trucks, H. B. Schlegel, G. E. Scuseria, 
 M. A. Robb, J. R. Cheeseman, G. Scalmani, V. Barone, B. Mennucci, 
 G. A. Petersson, H. Nakatsuji, M. Caricato, X. Li, H. P. Hratchian, 
 A. F. Izmaylov, J. Bloino, G. Zheng, J. L. Sonnenberg, M. Hada, 
 M. Ehara, K. Toyota, R. Fukuda, J. Hasegawa, M. Ishida, T. Nakajima, 
 Y. Honda, O. Kitao, H. Nakai, T. Vreven, J. A. Montgomery, Jr., 
 J. E. Peralta, F. Ogliaro, M. Bearpark, J. J. Heyd, E. Brothers, 
 K. N. Kudin, V. N. Staroverov, R. Kobayashi, J. Normand, 
 K. Raghavachari, A. Rendell, J. C. Burant, S. S. Iyengar, J. Tomasi, 
 M. Cossi, N. Rega, J. M. Millam, M. Klene, J. E. Knox, J. B. Cross, 
 V. Bakken, C. Adamo, J. Jaramillo, R. Gomperts, R. E. Stratmann, 
 O. Yazyev, A. J. Austin, R. Cammi, C. Pomelli, J. W. Ochterski, 
 R. L. Martin, K. Morokuma, V. G. Zakrzewski, G. A. Voth, 
 P. Salvador, J. J. Dannenberg, S. Dapprich, A. D. Daniels, 
 O. Farkas, J. B. Foresman, J. V. Ortiz, J. Cioslowski, 
 and D. J. Fox, Gaussian, Inc., Wallingford CT, 2009.
 
 ******************************************
 Gaussian 09:  IA32W-G09RevA.02 11-Jun-2009
                07-Sep-2021 
 ******************************************
 %nprocshared=12
 Will use up to   12 processors via shared memory.
 ----------------------------------------------
 # opt freq=noraman hf/6-311g geom=connectivity
 ----------------------------------------------
 1/18=20,19=15,38=1,57=2/1,3;
 2/9=110,12=2,17=6,18=5,40=1/2;
 3/5=4,6=6,11=9,16=1,25=1,30=1,71=1/1,2,3;
 4//1;
 5/5=2,38=5/2;
 6/7=2,8=2,9=2,10=2,28=1/1;
 7//1,2,3,16;
 1/18=20,19=15/3(2);
 2/9=110/2;
 99//99;
 2/9=110/2;
 3/5=4,6=6,11=9,16=1,25=1,30=1,71=1/1,2,3;
 4/5=5,16=3/1;
 5/5=2,38=5/2;
 7//1,2,3,16;
 1/18=20,19=15/3(-5);
 2/9=110/2;
 6/7=2,8=2,9=2,10=2,19=2,28=1/1;
 99/9=1/99;
 -----
 M0001
 -----
 Symbolic Z-matrix:
 Charge =  0 Multiplicity = 1
 C                     0.00501   0.74942  -0.19703 
 H                     0.05956   1.8314   -0.49304 
 C                    -0.1012   -0.00078  -1.5018 
 C                     1.00689  -0.01994  -2.35566 
 C                    -1.28038  -0.62248  -1.91127 
 C                     0.93596  -0.65429  -3.58883 
 H                     1.938     0.46698  -2.04138 
 C                    -1.34978  -1.25602  -3.14801 
 H                    -2.15979  -0.61346  -1.25494 
 C                    -0.24384  -1.27455  -3.98857 
 H                     1.81059  -0.66491  -4.2472 
 H                    -2.28157  -1.74022  -3.45767 
 H                    -0.29981  -1.77371  -4.9611 
 C                     1.2778    0.40428   0.53824 
 C                     1.5662   -0.90909   0.91445 
 C                     2.18871   1.41705   0.84568 
 C                     2.74873  -1.20627   1.58076 
 H                     0.83589  -1.70181   0.69123 
 C                     3.37039   1.11748   1.51488 
 H                     1.97406   2.45358   0.56035 
 C                     3.65373  -0.19351   1.88098 
 H                     2.96628  -2.23941   1.87015 
 H                     4.07883   1.91751   1.75314 
 H                     4.58555  -0.42782   2.40549 
 C                    -1.18993   0.58703   0.70889 
 C                    -1.52864  -0.64939   1.26383 
 C                    -1.97423   1.70378   1.00724 
 C                    -2.63193  -0.76747   2.1 
 H                    -0.90044  -1.52613   1.04073 
 C                    -3.07793   1.58335   1.8445 
 H                    -1.72098   2.68159   0.58083 
 C                    -3.40946   0.34883   2.3913 
 H                    -2.88712  -1.74105   2.53065 
 H                    -3.68645   2.46439   2.07303 
 H                    -4.27871   0.25565   3.05014 
 

 GradGradGradGradGradGradGradGradGradGradGradGradGradGradGradGradGradGrad
 Berny optimization.
 Initialization pass.
                           ----------------------------
                           !    Initial Parameters    !
                           ! (Angstroms and Degrees)  !
 --------------------------                            --------------------------
 ! Name  Definition              Value          Derivative Info.                !
 --------------------------------------------------------------------------------
 ! R1    R(1,2)                  1.1231         estimate D2E/DX2                !
 ! R2    R(1,3)                  1.5088         estimate D2E/DX2                !
 ! R3    R(1,14)                 1.5099         estimate D2E/DX2                !
 ! R4    R(1,25)                 1.5083         estimate D2E/DX2                !
 ! R5    R(3,4)                  1.399          estimate D2E/DX2                !
 ! R6    R(3,5)                  1.3945         estimate D2E/DX2                !
 ! R7    R(4,6)                  1.3886         estimate D2E/DX2                !
 ! R8    R(4,7)                  1.0967         estimate D2E/DX2                !
 ! R9    R(5,8)                  1.3913         estimate D2E/DX2                !
 ! R10   R(5,9)                  1.0974         estimate D2E/DX2                !
 ! R11   R(6,10)                 1.3916         estimate D2E/DX2                !
 ! R12   R(6,11)                 1.0948         estimate D2E/DX2                !
 ! R13   R(8,10)                 1.3892         estimate D2E/DX2                !
 ! R14   R(8,12)                 1.0948         estimate D2E/DX2                !
 ! R15   R(10,13)                1.0946         estimate D2E/DX2                !
 ! R16   R(14,15)                1.3963         estimate D2E/DX2                !
 ! R17   R(14,16)                1.3964         estimate D2E/DX2                !
 ! R18   R(15,17)                1.3895         estimate D2E/DX2                !
 ! R19   R(15,18)                1.1007         estimate D2E/DX2                !
 ! R20   R(16,19)                1.3907         estimate D2E/DX2                !
 ! R21   R(16,20)                1.0963         estimate D2E/DX2                !
 ! R22   R(17,21)                1.391          estimate D2E/DX2                !
 ! R23   R(17,22)                1.0947         estimate D2E/DX2                !
 ! R24   R(19,21)                1.3903         estimate D2E/DX2                !
 ! R25   R(19,23)                1.0949         estimate D2E/DX2                !
 ! R26   R(21,24)                1.0947         estimate D2E/DX2                !
 ! R27   R(25,26)                1.3969         estimate D2E/DX2                !
 ! R28   R(25,27)                1.3969         estimate D2E/DX2                !
 ! R29   R(26,28)                1.3894         estimate D2E/DX2                !
 ! R30   R(26,29)                1.1014         estimate D2E/DX2                !
 ! R31   R(27,30)                1.3906         estimate D2E/DX2                !
 ! R32   R(27,31)                1.0964         estimate D2E/DX2                !
 ! R33   R(28,32)                1.3912         estimate D2E/DX2                !
 ! R34   R(28,33)                1.0947         estimate D2E/DX2                !
 ! R35   R(30,32)                1.3903         estimate D2E/DX2                !
 ! R36   R(30,34)                1.0949         estimate D2E/DX2                !
 ! R37   R(32,35)                1.0947         estimate D2E/DX2                !
 ! A1    A(2,1,3)              104.7444         estimate D2E/DX2                !
 ! A2    A(2,1,14)             107.9165         estimate D2E/DX2                !
 ! A3    A(2,1,25)             107.489          estimate D2E/DX2                !
 ! A4    A(3,1,14)             111.5184         estimate D2E/DX2                !
 ! A5    A(3,1,25)             114.2109         estimate D2E/DX2                !
 ! A6    A(14,1,25)            110.5332         estimate D2E/DX2                !
 ! A7    A(1,3,4)              118.6094         estimate D2E/DX2                !
 ! A8    A(1,3,5)              122.3518         estimate D2E/DX2                !
 ! A9    A(4,3,5)              118.975          estimate D2E/DX2                !
 ! A10   A(3,4,6)              120.5183         estimate D2E/DX2                !
 ! A11   A(3,4,7)              119.4365         estimate D2E/DX2                !
 ! A12   A(6,4,7)              120.0444         estimate D2E/DX2                !
 ! A13   A(3,5,8)              120.4112         estimate D2E/DX2                !
 ! A14   A(3,5,9)              119.8914         estimate D2E/DX2                !
 ! A15   A(8,5,9)              119.6974         estimate D2E/DX2                !
 ! A16   A(4,6,10)             120.1351         estimate D2E/DX2                !
 ! A17   A(4,6,11)             119.8477         estimate D2E/DX2                !
 ! A18   A(10,6,11)            120.0172         estimate D2E/DX2                !
 ! A19   A(5,8,10)             120.2782         estimate D2E/DX2                !
 ! A20   A(5,8,12)             119.6886         estimate D2E/DX2                !
 ! A21   A(10,8,12)            120.0332         estimate D2E/DX2                !
 ! A22   A(6,10,8)             119.6815         estimate D2E/DX2                !
 ! A23   A(6,10,13)            120.122          estimate D2E/DX2                !
 ! A24   A(8,10,13)            120.1965         estimate D2E/DX2                !
 ! A25   A(1,14,15)            121.3546         estimate D2E/DX2                !
 ! A26   A(1,14,16)            119.4272         estimate D2E/DX2                !
 ! A27   A(15,14,16)           119.2179         estimate D2E/DX2                !
 ! A28   A(14,15,17)           120.4087         estimate D2E/DX2                !
 ! A29   A(14,15,18)           119.0603         estimate D2E/DX2                !
 ! A30   A(17,15,18)           120.5225         estimate D2E/DX2                !
 ! A31   A(14,16,19)           120.2654         estimate D2E/DX2                !
 ! A32   A(14,16,20)           120.0464         estimate D2E/DX2                !
 ! A33   A(19,16,20)           119.6882         estimate D2E/DX2                !
 ! A34   A(15,17,21)           120.0986         estimate D2E/DX2                !
 ! A35   A(15,17,22)           119.8502         estimate D2E/DX2                !
 ! A36   A(21,17,22)           120.0512         estimate D2E/DX2                !
 ! A37   A(16,19,21)           120.1989         estimate D2E/DX2                !
 ! A38   A(16,19,23)           119.8105         estimate D2E/DX2                !
 ! A39   A(21,19,23)           119.9906         estimate D2E/DX2                !
 ! A40   A(17,21,19)           119.8095         estimate D2E/DX2                !
 ! A41   A(17,21,24)           120.0924         estimate D2E/DX2                !
 ! A42   A(19,21,24)           120.098          estimate D2E/DX2                !
 ! A43   A(1,25,26)            121.735          estimate D2E/DX2                !
 ! A44   A(1,25,27)            119.1455         estimate D2E/DX2                !
 ! A45   A(26,25,27)           119.1184         estimate D2E/DX2                !
 ! A46   A(25,26,28)           120.4539         estimate D2E/DX2                !
 ! A47   A(25,26,29)           119.0646         estimate D2E/DX2                !
 ! A48   A(28,26,29)           120.4758         estimate D2E/DX2                !
 ! A49   A(25,27,30)           120.3319         estimate D2E/DX2                !
 ! A50   A(25,27,31)           120.0157         estimate D2E/DX2                !
 ! A51   A(30,27,31)           119.6524         estimate D2E/DX2                !
 ! A52   A(26,28,32)           120.1073         estimate D2E/DX2                !
 ! A53   A(26,28,33)           119.8312         estimate D2E/DX2                !
 ! A54   A(32,28,33)           120.0614         estimate D2E/DX2                !
 ! A55   A(27,30,32)           120.1964         estimate D2E/DX2                !
 ! A56   A(27,30,34)           119.8102         estimate D2E/DX2                !
 ! A57   A(32,30,34)           119.9934         estimate D2E/DX2                !
 ! A58   A(28,32,30)           119.792          estimate D2E/DX2                !
 ! A59   A(28,32,35)           120.0996         estimate D2E/DX2                !
 ! A60   A(30,32,35)           120.1083         estimate D2E/DX2                !
 ! D1    D(2,1,3,4)             68.7277         estimate D2E/DX2                !
 ! D2    D(2,1,3,5)           -108.3356         estimate D2E/DX2                !
 ! D3    D(14,1,3,4)           -47.7406         estimate D2E/DX2                !
 ! D4    D(14,1,3,5)           135.1961         estimate D2E/DX2                !
 ! D5    D(25,1,3,4)          -173.9457         estimate D2E/DX2                !
 ! D6    D(25,1,3,5)             8.991          estimate D2E/DX2                !
 ! D7    D(2,1,14,15)         -173.3645         estimate D2E/DX2                !
 ! D8    D(2,1,14,16)            6.4304         estimate D2E/DX2                !
 ! D9    D(3,1,14,15)          -58.8456         estimate D2E/DX2                !
 ! D10   D(3,1,14,16)          120.9493         estimate D2E/DX2                !
 ! D11   D(25,1,14,15)          69.3541         estimate D2E/DX2                !
 ! D12   D(25,1,14,16)        -110.851          estimate D2E/DX2                !
 ! D13   D(2,1,25,26)         -179.3847         estimate D2E/DX2                !
 ! D14   D(2,1,25,27)            0.2361         estimate D2E/DX2                !
 ! D15   D(3,1,25,26)           64.8773         estimate D2E/DX2                !
 ! D16   D(3,1,25,27)         -115.5019         estimate D2E/DX2                !
 ! D17   D(14,1,25,26)         -61.8403         estimate D2E/DX2                !
 ! D18   D(14,1,25,27)         117.7805         estimate D2E/DX2                !
 ! D19   D(1,3,4,6)           -177.5021         estimate D2E/DX2                !
 ! D20   D(1,3,4,7)              2.8141         estimate D2E/DX2                !
 ! D21   D(5,3,4,6)             -0.3378         estimate D2E/DX2                !
 ! D22   D(5,3,4,7)            179.9783         estimate D2E/DX2                !
 ! D23   D(1,3,5,8)            177.3077         estimate D2E/DX2                !
 ! D24   D(1,3,5,9)             -2.7305         estimate D2E/DX2                !
 ! D25   D(4,3,5,8)              0.2547         estimate D2E/DX2                !
 ! D26   D(4,3,5,9)           -179.7835         estimate D2E/DX2                !
 ! D27   D(3,4,6,10)             0.2154         estimate D2E/DX2                !
 ! D28   D(3,4,6,11)          -179.836          estimate D2E/DX2                !
 ! D29   D(7,4,6,10)           179.8973         estimate D2E/DX2                !
 ! D30   D(7,4,6,11)            -0.154          estimate D2E/DX2                !
 ! D31   D(3,5,8,10)            -0.0496         estimate D2E/DX2                !
 ! D32   D(3,5,8,12)          -179.9885         estimate D2E/DX2                !
 ! D33   D(9,5,8,10)           179.9885         estimate D2E/DX2                !
 ! D34   D(9,5,8,12)             0.0497         estimate D2E/DX2                !
 ! D35   D(4,6,10,8)            -0.0056         estimate D2E/DX2                !
 ! D36   D(4,6,10,13)          179.9415         estimate D2E/DX2                !
 ! D37   D(11,6,10,8)         -179.9542         estimate D2E/DX2                !
 ! D38   D(11,6,10,13)          -0.0071         estimate D2E/DX2                !
 ! D39   D(5,8,10,6)            -0.077          estimate D2E/DX2                !
 ! D40   D(5,8,10,13)          179.9759         estimate D2E/DX2                !
 ! D41   D(12,8,10,6)          179.8617         estimate D2E/DX2                !
 ! D42   D(12,8,10,13)          -0.0854         estimate D2E/DX2                !
 ! D43   D(1,14,15,17)         179.4645         estimate D2E/DX2                !
 ! D44   D(1,14,15,18)          -1.5882         estimate D2E/DX2                !
 ! D45   D(16,14,15,17)         -0.3308         estimate D2E/DX2                !
 ! D46   D(16,14,15,18)        178.6165         estimate D2E/DX2                !
 ! D47   D(1,14,16,19)        -179.5912         estimate D2E/DX2                !
 ! D48   D(1,14,16,20)           0.4514         estimate D2E/DX2                !
 ! D49   D(15,14,16,19)          0.208          estimate D2E/DX2                !
 ! D50   D(15,14,16,20)       -179.7494         estimate D2E/DX2                !
 ! D51   D(14,15,17,21)          0.1618         estimate D2E/DX2                !
 ! D52   D(14,15,17,22)       -179.9098         estimate D2E/DX2                !
 ! D53   D(18,15,17,21)       -178.77           estimate D2E/DX2                !
 ! D54   D(18,15,17,22)          1.1584         estimate D2E/DX2                !
 ! D55   D(14,16,19,21)          0.0837         estimate D2E/DX2                !
 ! D56   D(14,16,19,23)       -179.9351         estimate D2E/DX2                !
 ! D57   D(20,16,19,21)       -179.9587         estimate D2E/DX2                !
 ! D58   D(20,16,19,23)          0.0224         estimate D2E/DX2                !
 ! D59   D(15,17,21,19)          0.1328         estimate D2E/DX2                !
 ! D60   D(15,17,21,24)       -179.9704         estimate D2E/DX2                !
 ! D61   D(22,17,21,19)       -179.7955         estimate D2E/DX2                !
 ! D62   D(22,17,21,24)          0.1013         estimate D2E/DX2                !
 ! D63   D(16,19,21,17)         -0.2552         estimate D2E/DX2                !
 ! D64   D(16,19,21,24)        179.848          estimate D2E/DX2                !
 ! D65   D(23,19,21,17)        179.7637         estimate D2E/DX2                !
 ! D66   D(23,19,21,24)         -0.1331         estimate D2E/DX2                !
 ! D67   D(1,25,26,28)         179.7069         estimate D2E/DX2                !
 ! D68   D(1,25,26,29)           0.5749         estimate D2E/DX2                !
 ! D69   D(27,25,26,28)          0.086          estimate D2E/DX2                !
 ! D70   D(27,25,26,29)       -179.0459         estimate D2E/DX2                !
 ! D71   D(1,25,27,30)        -179.7089         estimate D2E/DX2                !
 ! D72   D(1,25,27,31)           0.2859         estimate D2E/DX2                !
 ! D73   D(26,25,27,30)         -0.0781         estimate D2E/DX2                !
 ! D74   D(26,25,27,31)        179.9167         estimate D2E/DX2                !
 ! D75   D(25,26,28,32)         -0.0037         estimate D2E/DX2                !
 ! D76   D(25,26,28,33)       -179.8997         estimate D2E/DX2                !
 ! D77   D(29,26,28,32)        179.1159         estimate D2E/DX2                !
 ! D78   D(29,26,28,33)         -0.7801         estimate D2E/DX2                !
 ! D79   D(25,27,30,32)         -0.012          estimate D2E/DX2                !
 ! D80   D(25,27,30,34)        179.9694         estimate D2E/DX2                !
 ! D81   D(31,27,30,32)        179.9932         estimate D2E/DX2                !
 ! D82   D(31,27,30,34)         -0.0254         estimate D2E/DX2                !
 ! D83   D(26,28,32,30)         -0.0872         estimate D2E/DX2                !
 ! D84   D(26,28,32,35)       -179.9995         estimate D2E/DX2                !
 ! D85   D(33,28,32,30)        179.8085         estimate D2E/DX2                !
 ! D86   D(33,28,32,35)         -0.1038         estimate D2E/DX2                !
 ! D87   D(27,30,32,28)          0.095          estimate D2E/DX2                !
 ! D88   D(27,30,32,35)       -179.9926         estimate D2E/DX2                !
 ! D89   D(34,30,32,28)       -179.8863         estimate D2E/DX2                !
 ! D90   D(34,30,32,35)          0.026          estimate D2E/DX2                !
 --------------------------------------------------------------------------------
 Trust Radius=3.00D-01 FncErr=1.00D-07 GrdErr=1.00D-07
 Number of steps in this run= 197 maximum allowed number of steps= 210.
 GradGradGradGradGradGradGradGradGradGradGradGradGradGradGradGradGradGrad

                          Input orientation:                          
 ---------------------------------------------------------------------
 Center     Atomic      Atomic             Coordinates (Angstroms)
 Number     Number       Type             X           Y           Z
 ---------------------------------------------------------------------
      1          6           0        0.005008    0.749419   -0.197026
      2          1           0        0.059560    1.831401   -0.493042
      3          6           0       -0.101204   -0.000783   -1.501800
      4          6           0        1.006888   -0.019939   -2.355658
      5          6           0       -1.280381   -0.622484   -1.911269
      6          6           0        0.935964   -0.654290   -3.588827
      7          1           0        1.937996    0.466983   -2.041385
      8          6           0       -1.349785   -1.256020   -3.148006
      9          1           0       -2.159794   -0.613463   -1.254937
     10          6           0       -0.243843   -1.274551   -3.988571
     11          1           0        1.810589   -0.664907   -4.247200
     12          1           0       -2.281566   -1.740223   -3.457673
     13          1           0       -0.299808   -1.773706   -4.961104
     14          6           0        1.277801    0.404280    0.538239
     15          6           0        1.566204   -0.909086    0.914450
     16          6           0        2.188706    1.417046    0.845681
     17          6           0        2.748733   -1.206267    1.580761
     18          1           0        0.835888   -1.701813    0.691232
     19          6           0        3.370394    1.117476    1.514879
     20          1           0        1.974060    2.453576    0.560352
     21          6           0        3.653730   -0.193507    1.880981
     22          1           0        2.966285   -2.239410    1.870151
     23          1           0        4.078830    1.917514    1.753137
     24          1           0        4.585553   -0.427821    2.405495
     25          6           0       -1.189932    0.587025    0.708888
     26          6           0       -1.528639   -0.649390    1.263827
     27          6           0       -1.974230    1.703776    1.007243
     28          6           0       -2.631925   -0.767472    2.099996
     29          1           0       -0.900439   -1.526131    1.040726
     30          6           0       -3.077930    1.583355    1.844500
     31          1           0       -1.720979    2.681592    0.580834
     32          6           0       -3.409459    0.348830    2.391302
     33          1           0       -2.887119   -1.741048    2.530650
     34          1           0       -3.686449    2.464388    2.073033
     35          1           0       -4.278706    0.255651    3.050141
 ---------------------------------------------------------------------
                    Distance matrix (angstroms):
                    1          2          3          4          5
     1  C    0.000000
     2  H    1.123070   0.000000
     3  C    1.508815   2.097698   0.000000
     4  C    2.501074   2.791815   1.399038   0.000000
     5  C    2.544203   3.135022   1.394501   2.406687   0.000000
     6  C    3.787004   4.065788   2.420427   1.388574   2.779820
     7  H    2.686610   2.790613   2.160623   1.096733   3.400267
     8  C    3.816482   4.308974   2.417554   2.776620   1.391296
     9  H    2.768211   3.388713   2.161970   3.404664   1.097370
    10  C    4.305136   4.685906   2.797652   2.409312   2.411387
    11  H    4.654498   4.836461   3.410752   2.154030   3.874593
    12  H    4.696654   5.198693   3.406621   3.871401   2.154781
    13  H    5.399585   5.752349   3.892233   3.401691   3.404164
    14  C    1.509880   2.141104   2.495495   2.937346   3.687632
    15  C    2.534433   3.429472   3.073032   3.434679   4.021178
    16  C    2.510279   2.548947   3.572757   3.702728   4.878013
    17  C    3.809628   4.556285   4.367781   4.465063   5.363658
    18  H    2.736403   3.806414   2.929340   3.484463   3.523713
    19  C    3.793667   3.937392   4.733165   4.675567   6.032881
    20  H    2.711999   2.272014   3.818779   3.944213   5.114923
    21  C    4.303533   4.759653   5.057656   4.998501   6.237839
    22  H    4.687801   5.532199   5.078483   5.159724   5.911662
    23  H    4.665148   4.605134   5.634462   5.483862   6.971412
    24  H    5.398185   5.830112   6.116781   5.970075   7.285707
    25  C    1.508288   2.134090   2.533375   3.819145   2.887267
    26  C    2.538273   3.429766   3.179144   4.463830   3.184901
    27  C    2.505682   2.530504   3.564975   4.813249   3.796132
    28  C    3.811914   4.552152   4.468255   5.801088   4.235321
    29  H    2.744083   3.814061   3.070815   4.176354   3.110499
    30  C    3.790485   3.920392   4.750591   6.074341   4.711974
    31  H    2.705067   2.246409   3.762469   4.833478   4.161925
    32  C    4.303313   4.748848   5.120843   6.494132   4.897810
    33  H    4.691166   5.530644   5.201009   6.480857   4.854218
    34  H    4.660594   4.584540   5.631207   6.914666   5.585034
    35  H    5.397972   5.818736   6.183644   7.565455   5.863161
                    6          7          8          9         10
     6  C    0.000000
     7  H    2.157753   0.000000
     8  C    2.404381   3.873351   0.000000
     9  H    3.877168   4.310191   2.157013   0.000000
    10  C    1.391569   3.403659   1.389244   3.403037   0.000000
    11  H    1.094777   2.482544   3.397883   4.971944   2.158529
    12  H    3.398375   4.968132   1.094789   2.477189   2.156622
    13  H    2.159483   4.307344   2.158187   4.305971   1.094581
    14  C    4.274354   2.663504   4.821744   4.008534   5.062202
    15  C    4.554298   3.281578   5.012674   4.321654   5.239222
    16  C    5.052193   3.049692   5.967892   5.238799   6.044169
    17  C    5.505947   4.071486   6.257920   5.699670   6.322787
    18  H    4.407519   3.658622   4.440230   3.734460   4.821714
    19  C    5.925658   3.888691   7.046706   6.422694   7.005174
    20  H    5.286981   3.273666   6.209748   5.458090   6.285756
    21  C    6.125143   4.331853   7.173201   6.618717   7.128210
    22  H    6.036162   4.866421   6.691593   6.219852   6.749852
    23  H    6.710318   4.591907   7.972602   7.373925   7.863968
    24  H    7.021587   5.252140   8.170405   7.676779   8.057549
    25  C    4.952843   4.166815   4.277616   2.497681   5.140688
    26  C    5.442660   4.918157   4.456934   2.596887   5.443273
    27  C    5.929044   5.111683   5.139691   3.243684   6.068182
    28  C    6.716052   6.289602   5.424398   3.391490   6.559780
    29  H    5.056208   4.639894   4.221415   2.772906   5.078212
    30  C    7.116139   6.442507   5.997804   3.908387   7.086916
    31  H    5.964354   5.016834   5.435699   3.797367   6.221933
    32  C    7.459953   6.946795   6.123867   3.972748   7.304744
    33  H    7.296917   7.004329   5.903031   4.016356   7.050161
    34  H    7.946667   7.249307   6.823539   4.783223   7.910388
    35  H    8.490976   8.038387   7.020025   4.876355   8.256216
                   11         12         13         14         15
    11  H    0.000000
    12  H    4.304114   0.000000
    13  H    2.488549   2.487727   0.000000
    14  C    4.932287   5.765007   6.121703   0.000000
    15  C    5.173197   5.883161   6.225086   1.396296   0.000000
    16  C    5.514973   6.962079   7.077595   1.396411   2.408968
    17  C    5.927757   7.139666   7.239585   2.417510   1.389483
    18  H    5.139389   5.189740   5.765750   2.157388   1.100729
    19  C    6.229882   8.052165   7.985466   2.416902   2.778951
    20  H    5.732731   7.200196   7.316206   2.164458   3.405764
    21  C    6.416696   8.131501   8.058637   2.793805   2.409150
    22  H    6.421578   7.494987   7.586190   3.407941   2.154844
    23  H    6.915045   8.999234   8.824885   3.407582   3.873803
    24  H    7.212141   9.124498   8.941193   3.888478   3.401661
    25  C    5.927332   4.895710   6.205979   2.480368   3.142752
    26  C    6.443765   4.904017   6.443902   3.084283   3.125309
    27  C    6.895265   5.647217   7.107583   3.533321   4.401174
    28  C    7.748119   5.653025   7.504026   4.370131   4.364615
    29  H    6.004460   4.710514   6.036887   2.953592   2.545784
    30  C    8.127798   6.308201   8.081092   4.697757   5.352124
    31  H    6.854264   6.014669   7.251378   3.765719   4.879533
    32  C    8.505662   6.312432   8.260325   5.040568   5.340475
    33  H    8.316597   6.018862   7.926009   5.091040   4.810026
    34  H    8.941771   7.088100   8.883122   5.589581   6.349253
    35  H    9.548723   7.093922   9.172238   6.099713   6.330937
                   16         17         18         19         20
    16  C    0.000000
    17  C    2.781320   0.000000
    18  H    3.403124   2.166981   0.000000
    19  C    1.390667   2.406362   3.879498   0.000000
    20  H    1.096303   3.877602   4.310432   2.155466   0.000000
    21  C    2.410814   1.390983   3.410385   1.390319   3.401823
    22  H    3.876060   1.094742   2.493482   3.399736   4.972344
    23  H    2.155577   3.399540   4.974318   1.094856   2.477934
    24  H    3.403150   2.158720   4.315292   2.158183   4.304289
    25  C    3.481788   4.414651   3.056639   4.661285   3.676536
    26  C    4.273600   4.325097   2.650744   5.213958   4.732037
    27  C    4.175925   5.577065   4.426586   5.400596   4.043625
    28  C    5.439110   5.423434   3.857893   6.318483   5.827585
    29  H    4.271200   3.702757   1.779843   5.045145   4.932704
    30  C    5.363092   6.465412   5.238351   6.473528   5.284782
    31  H    4.117628   6.007797   5.075824   5.407492   3.702124
    32  C    5.905039   6.403018   5.011821   6.879342   6.063383
    33  H    6.211013   5.740306   4.152804   6.954093   6.716249
    34  H    6.092682   7.424797   6.302233   7.205882   5.859154
    35  H    6.930793   7.326744   5.962817   7.849107   7.080042
                   21         22         23         24         25
    21  C    0.000000
    22  H    2.158337   0.000000
    23  H    2.157188   4.304819   0.000000
    24  H    1.094674   2.488067   2.486551   0.000000
    25  C    5.044215   5.158625   5.533580   6.104476   0.000000
    26  C    5.238860   4.806259   6.186447   6.223812   1.396926
    27  C    6.003085   6.379813   6.102587   7.037724   1.396879
    28  C    6.315605   5.793046   7.236276   7.231921   2.418510
    29  H    4.818959   4.018490   6.095845   5.758905   2.158553
    30  C    6.962314   7.151694   7.165139   7.942828   2.418020
    31  H    6.232501   6.917300   5.966229   7.264309   2.164629
    32  C    7.102338   6.900775   7.677402   8.032659   2.795274
    33  H    6.752752   5.911595   7.906582   7.588218   3.408692
    34  H    7.808938   8.150199   7.791082   8.769346   3.408516
    35  H    8.030704   7.752909   8.619304   8.913910   3.889961
                   26         27         28         29         30
    26  C    0.000000
    27  C    2.408688   0.000000
    28  C    1.389375   2.780960   0.000000
    29  H    1.101401   3.403887   2.166948   0.000000
    30  C    2.778963   1.390558   2.406364   3.880260   0.000000
    31  H    3.405718   1.096397   3.877334   4.311579   2.155062
    32  C    2.409384   2.410681   1.391240   3.410970   1.390308
    33  H    2.154536   3.875686   1.094731   2.492581   3.399833
    34  H    3.873832   2.155489   3.399657   4.975113   1.094871
    35  H    3.401894   3.403102   2.159037   4.315690   2.158293
                   31         32         33         34         35
    31  H    0.000000
    32  C    3.401550   0.000000
    33  H    4.972063   2.158668   0.000000
    34  H    2.477279   2.157222   4.305117   0.000000
    35  H    4.304025   1.094687   2.488612   2.486770   0.000000
 Stoichiometry    C19H16
 Framework group  C1[X(C19H16)]
 Deg. of freedom    99
 Full point group                 C1      NOp   1
 Largest Abelian subgroup         C1      NOp   1
 Largest concise Abelian subgroup C1      NOp   1
                         Standard orientation:                         
 ---------------------------------------------------------------------
 Center     Atomic      Atomic             Coordinates (Angstroms)
 Number     Number       Type             X           Y           Z
 ---------------------------------------------------------------------
      1          6           0        0.010867    0.012179   -0.760460
      2          1           0       -0.017831    0.016782   -1.883154
      3          6           0       -0.653369    1.304519   -0.354049
      4          6           0       -2.026364    1.451652   -0.578864
      5          6           0        0.062204    2.375408    0.180541
      6          6           0       -2.668107    2.643131   -0.267927
      7          1           0       -2.596455    0.614399   -0.999370
      8          6           0       -0.582474    3.568923    0.489763
      9          1           0        1.140433    2.277654    0.359669
     10          6           0       -1.946992    3.705942    0.267695
     11          1           0       -3.743476    2.745364   -0.445877
     12          1           0       -0.009128    4.402139    0.908796
     13          1           0       -2.452903    4.645389    0.511829
     14          6           0       -0.770982   -1.187124   -0.280751
     15          6           0       -1.031897   -1.389024    1.076011
     16          6           0       -1.247561   -2.112516   -1.211602
     17          6           0       -1.763015   -2.493898    1.494797
     18          1           0       -0.635440   -0.670335    1.809436
     19          6           0       -1.976899   -3.218894   -0.789763
     20          1           0       -1.047063   -1.969504   -2.279885
     21          6           0       -2.238080   -3.410226    0.562333
     22          1           0       -1.963494   -2.642464    2.560723
     23          1           0       -2.346091   -3.940344   -1.525913
     24          1           0       -2.814479   -4.280384    0.892334
     25          6           0        1.456468   -0.097797   -0.344436
     26          6           0        1.832801   -0.141906    1.000120
     27          6           0        2.444637   -0.165176   -1.329449
     28          6           0        3.172214   -0.249543    1.353320
     29          1           0        1.051798   -0.104703    1.775835
     30          6           0        3.784585   -0.273045   -0.973702
     31          1           0        2.165675   -0.133186   -2.389281
     32          6           0        4.151050   -0.314424    0.366801
     33          1           0        3.455571   -0.284917    2.410152
     34          1           0        4.552036   -0.325745   -1.752795
     35          1           0        5.206333   -0.399238    0.645229
 ---------------------------------------------------------------------
 Rotational constants (GHZ):      0.4039804      0.3820370      0.2325224
 Standard basis: 6-311G (5D, 7F)
 There are   295 symmetry adapted basis functions of A   symmetry.
 Integral buffers will be    262144 words long.
 Raffenetti 1 integral format.
 Two-electron integral symmetry is turned on.
   295 basis functions,   574 primitive gaussians,   295 cartesian basis functions
    65 alpha electrons       65 beta electrons
       nuclear repulsion energy      1290.6650052425 Hartrees.
 NAtoms=   35 NActive=   35 NUniq=   35 SFac= 7.50D-01 NAtFMM=   80 NAOKFM=F Big=F
 One-electron integrals computed using PRISM.
 PrsmSu:  requested number of processors reduced to:  10 ShMem   1 Linda.
 NBasis=   295 RedAO= T  NBF=   295
 NBsUse=   295 1.00D-06 NBFU=   295
 Harris functional with IExCor=  205 diagonalized for initial guess.
 ExpMin= 1.03D-01 ExpMax= 4.56D+03 ExpMxC= 6.82D+02 IAcc=1 IRadAn=         1 AccDes= 0.00D+00
 HarFok:  IExCor=  205 AccDes= 0.00D+00 IRadAn=         1 IDoV= 1
 ScaDFX=  1.000000  1.000000  1.000000  1.000000
 FoFCou: FMM=F IPFlag=           0 FMFlag=      100000 FMFlg1=           0
         NFxFlg=           0 DoJE=T BraDBF=F KetDBF=T FulRan=T
         Omega=  0.000000  0.000000  1.000000  0.000000  0.000000 ICntrl=     500 IOpCl=  0
         NMat0=    1 NMatS0=    1 NMatT0=    0 NMatD0=    1 NMtDS0=    0 NMtDT0=    0
         I1Cent=           4 NGrid=           0.
 Petite list used in FoFCou.
 Initial guess orbital symmetries:
       Occupied  (A) (A) (A) (A) (A) (A) (A) (A) (A) (A) (A) (A)
                 (A) (A) (A) (A) (A) (A) (A) (A) (A) (A) (A) (A)
                 (A) (A) (A) (A) (A) (A) (A) (A) (A) (A) (A) (A)
                 (A) (A) (A) (A) (A) (A) (A) (A) (A) (A) (A) (A)
                 (A) (A) (A) (A) (A) (A) (A) (A) (A) (A) (A) (A)
                 (A) (A) (A) (A) (A)
       Virtual   (A) (A) (A) (A) (A) (A) (A) (A) (A) (A) (A) (A)
                 (A) (A) (A) (A) (A) (A) (A) (A) (A) (A) (A) (A)
                 (A) (A) (A) (A) (A) (A) (A) (A) (A) (A) (A) (A)
                 (A) (A) (A) (A) (A) (A) (A) (A) (A) (A) (A) (A)
                 (A) (A) (A) (A) (A) (A) (A) (A) (A) (A) (A) (A)
                 (A) (A) (A) (A) (A) (A) (A) (A) (A) (A) (A) (A)
                 (A) (A) (A) (A) (A) (A) (A) (A) (A) (A) (A) (A)
                 (A) (A) (A) (A) (A) (A) (A) (A) (A) (A) (A) (A)
                 (A) (A) (A) (A) (A) (A) (A) (A) (A) (A) (A) (A)
                 (A) (A) (A) (A) (A) (A) (A) (A) (A) (A) (A) (A)
                 (A) (A) (A) (A) (A) (A) (A) (A) (A) (A) (A) (A)
                 (A) (A) (A) (A) (A) (A) (A) (A) (A) (A) (A) (A)
                 (A) (A) (A) (A) (A) (A) (A) (A) (A) (A) (A) (A)
                 (A) (A) (A) (A) (A) (A) (A) (A) (A) (A) (A) (A)
                 (A) (A) (A) (A) (A) (A) (A) (A) (A) (A) (A) (A)
                 (A) (A) (A) (A) (A) (A) (A) (A) (A) (A) (A) (A)
                 (A) (A) (A) (A) (A) (A) (A) (A) (A) (A) (A) (A)
                 (A) (A) (A) (A) (A) (A) (A) (A) (A) (A) (A) (A)
                 (A) (A) (A) (A) (A) (A) (A) (A) (A) (A) (A) (A)
                 (A) (A)
 The electronic state of the initial guess is 1-A.
 Requested convergence on RMS density matrix=1.00D-08 within 128 cycles.
 Requested convergence on MAX density matrix=1.00D-06.
 Requested convergence on             energy=1.00D-06.
 No special actions if energy rises.
 Integral accuracy reduced to 1.0D-05 until final iterations.
 Initial convergence to 1.0D-05 achieved.  Increase integral accuracy.
 SCF Done:  E(RHF) =  -728.672410719     A.U. after   14 cycles
             Convg  =    0.8770D-08             -V/T =  2.0001

 **********************************************************************

            Population analysis using the SCF density.

 **********************************************************************

 Orbital symmetries:
       Occupied  (A) (A) (A) (A) (A) (A) (A) (A) (A) (A) (A) (A)
                 (A) (A) (A) (A) (A) (A) (A) (A) (A) (A) (A) (A)
                 (A) (A) (A) (A) (A) (A) (A) (A) (A) (A) (A) (A)
                 (A) (A) (A) (A) (A) (A) (A) (A) (A) (A) (A) (A)
                 (A) (A) (A) (A) (A) (A) (A) (A) (A) (A) (A) (A)
                 (A) (A) (A) (A) (A)
       Virtual   (A) (A) (A) (A) (A) (A) (A) (A) (A) (A) (A) (A)
                 (A) (A) (A) (A) (A) (A) (A) (A) (A) (A) (A) (A)
                 (A) (A) (A) (A) (A) (A) (A) (A) (A) (A) (A) (A)
                 (A) (A) (A) (A) (A) (A) (A) (A) (A) (A) (A) (A)
                 (A) (A) (A) (A) (A) (A) (A) (A) (A) (A) (A) (A)
                 (A) (A) (A) (A) (A) (A) (A) (A) (A) (A) (A) (A)
                 (A) (A) (A) (A) (A) (A) (A) (A) (A) (A) (A) (A)
                 (A) (A) (A) (A) (A) (A) (A) (A) (A) (A) (A) (A)
                 (A) (A) (A) (A) (A) (A) (A) (A) (A) (A) (A) (A)
                 (A) (A) (A) (A) (A) (A) (A) (A) (A) (A) (A) (A)
                 (A) (A) (A) (A) (A) (A) (A) (A) (A) (A) (A) (A)
                 (A) (A) (A) (A) (A) (A) (A) (A) (A) (A) (A) (A)
                 (A) (A) (A) (A) (A) (A) (A) (A) (A) (A) (A) (A)
                 (A) (A) (A) (A) (A) (A) (A) (A) (A) (A) (A) (A)
                 (A) (A) (A) (A) (A) (A) (A) (A) (A) (A) (A) (A)
                 (A) (A) (A) (A) (A) (A) (A) (A) (A) (A) (A) (A)
                 (A) (A) (A) (A) (A) (A) (A) (A) (A) (A) (A) (A)
                 (A) (A) (A) (A) (A) (A) (A) (A) (A) (A) (A) (A)
                 (A) (A) (A) (A) (A) (A) (A) (A) (A) (A) (A) (A)
                 (A) (A)
 The electronic state is 1-A.
 Alpha  occ. eigenvalues --  -11.25761 -11.25235 -11.25186 -11.24915 -11.24524
 Alpha  occ. eigenvalues --  -11.24436 -11.24421 -11.24375 -11.24223 -11.24171
 Alpha  occ. eigenvalues --  -11.24145 -11.24124 -11.24076 -11.24037 -11.24026
 Alpha  occ. eigenvalues --  -11.23965 -11.23728 -11.23626 -11.23500  -1.18614
 Alpha  occ. eigenvalues --   -1.15873  -1.15569  -1.09027  -1.02379  -1.02239
 Alpha  occ. eigenvalues --   -1.01876  -1.01487  -1.01083  -0.92920  -0.84280
 Alpha  occ. eigenvalues --   -0.83364  -0.82320  -0.81927  -0.81129  -0.77585
 Alpha  occ. eigenvalues --   -0.70871  -0.70366  -0.68983  -0.65681  -0.63904
 Alpha  occ. eigenvalues --   -0.63613  -0.62517  -0.61703  -0.61576  -0.59728
 Alpha  occ. eigenvalues --   -0.58846  -0.58491  -0.58315  -0.56747  -0.55101
 Alpha  occ. eigenvalues --   -0.51726  -0.50911  -0.50218  -0.49866  -0.49380
 Alpha  occ. eigenvalues --   -0.48416  -0.47964  -0.47501  -0.46310  -0.35025
 Alpha  occ. eigenvalues --   -0.34319  -0.33964  -0.33325  -0.32518  -0.31477
 Alpha virt. eigenvalues --    0.11542   0.12291   0.12740   0.13491   0.14995
 Alpha virt. eigenvalues --    0.15138   0.15653   0.16237   0.16488   0.16910
 Alpha virt. eigenvalues --    0.18902   0.19188   0.19234   0.21237   0.21293
 Alpha virt. eigenvalues --    0.21593   0.23560   0.24019   0.24934   0.25412
 Alpha virt. eigenvalues --    0.26781   0.31579   0.33124   0.34237   0.35775
 Alpha virt. eigenvalues --    0.37595   0.39766   0.40570   0.41491   0.43090
 Alpha virt. eigenvalues --    0.44094   0.44431   0.44948   0.45447   0.45602
 Alpha virt. eigenvalues --    0.45878   0.46749   0.47246   0.47922   0.50600
 Alpha virt. eigenvalues --    0.51071   0.51420   0.52235   0.54968   0.56091
 Alpha virt. eigenvalues --    0.57304   0.57835   0.58519   0.58870   0.59340
 Alpha virt. eigenvalues --    0.60251   0.60460   0.60626   0.61121   0.61477
 Alpha virt. eigenvalues --    0.62047   0.62201   0.62956   0.63342   0.63669
 Alpha virt. eigenvalues --    0.64250   0.64596   0.65233   0.65944   0.66393
 Alpha virt. eigenvalues --    0.67241   0.67826   0.68582   0.69817   0.72343
 Alpha virt. eigenvalues --    0.73103   0.73914   0.74548   0.75333   0.75731
 Alpha virt. eigenvalues --    0.76809   0.78857   0.79411   0.79941   0.81228
 Alpha virt. eigenvalues --    0.81505   0.82231   0.82493   0.82884   0.83314
 Alpha virt. eigenvalues --    0.83836   0.84370   0.84863   0.84979   0.85477
 Alpha virt. eigenvalues --    0.85916   0.86193   0.86512   0.87763   0.88138
 Alpha virt. eigenvalues --    0.90167   0.90866   0.92147   0.93490   0.95103
 Alpha virt. eigenvalues --    0.95923   0.96338   0.97019   0.98262   0.99750
 Alpha virt. eigenvalues --    1.00094   1.02331   1.03092   1.04850   1.06210
 Alpha virt. eigenvalues --    1.07132   1.08100   1.09366   1.10078   1.10938
 Alpha virt. eigenvalues --    1.11568   1.11720   1.12388   1.12804   1.13780
 Alpha virt. eigenvalues --    1.15007   1.16500   1.19827   1.20542   1.21187
 Alpha virt. eigenvalues --    1.23642   1.25637   1.27334   1.28018   1.29106
 Alpha virt. eigenvalues --    1.29453   1.31879   1.32804   1.46963   1.47792
 Alpha virt. eigenvalues --    1.51966   1.54242   1.56869   2.53478   2.55703
 Alpha virt. eigenvalues --    2.56026   2.57732   2.62087   2.62355   2.63865
 Alpha virt. eigenvalues --    2.66445   2.67075   2.68448   2.72120   2.74281
 Alpha virt. eigenvalues --    2.78359   2.83358   2.86699   2.91845   2.94348
 Alpha virt. eigenvalues --    2.94620   2.94744   2.96019   2.98140   2.98589
 Alpha virt. eigenvalues --    2.99908   3.02261   3.03938   3.04379   3.06557
 Alpha virt. eigenvalues --    3.08483   3.09306   3.09870   3.10069   3.13199
 Alpha virt. eigenvalues --    3.15121   3.16132   3.17710   3.18393   3.19435
 Alpha virt. eigenvalues --    3.21640   3.24093   3.25021   3.27690   3.28784
 Alpha virt. eigenvalues --    3.31488   3.33872   3.34354   3.35724   3.40853
 Alpha virt. eigenvalues --    3.41248   3.44140   3.45021   3.49968   3.52611
 Alpha virt. eigenvalues --    3.53526   3.55980   3.57631   3.58325   3.59499
 Alpha virt. eigenvalues --    3.62421   3.64026   3.65086   3.66248   3.66842
 Alpha virt. eigenvalues --    3.67694   3.69209   3.71258   3.72220   3.74360
 Alpha virt. eigenvalues --    3.76436   3.77580   3.78438   3.85622   3.88119
 Alpha virt. eigenvalues --    3.91050  24.26086  24.30022  24.31724  24.50543
 Alpha virt. eigenvalues --   24.50775  24.51042  24.53008  24.54607  24.56481
 Alpha virt. eigenvalues --   24.76166  24.77054  24.79113  24.80208  24.80735
 Alpha virt. eigenvalues --   24.82836  24.87478  25.04635  25.05786  25.07112
          Condensed to atoms (all electrons):
              1          2          3          4          5          6
     1  C    6.112184   0.472308   0.033137  -0.085324  -0.031564   0.008477
     2  H    0.472308   0.502241  -0.062227  -0.004729   0.000684   0.000590
     3  C    0.033137  -0.062227   5.351534   0.471708   0.499809  -0.056896
     4  C   -0.085324  -0.004729   0.471708   5.125506  -0.084170   0.463397
     5  C   -0.031564   0.000684   0.499809  -0.084170   5.098055  -0.030226
     6  C    0.008477   0.000590  -0.056896   0.463397  -0.030226   5.062486
     7  H   -0.003359  -0.000136  -0.044723   0.397360   0.004498  -0.035136
     8  C    0.012264  -0.000111  -0.068570  -0.033300   0.454376  -0.073844
     9  H   -0.011381  -0.000271  -0.034903   0.004976   0.394126  -0.000443
    10  C    0.000369   0.000036  -0.020750  -0.085120  -0.089771   0.480702
    11  H   -0.000355   0.000005   0.006150  -0.038274  -0.000433   0.397061
    12  H   -0.000362   0.000014   0.006481  -0.000406  -0.036858   0.006014
    13  H   -0.000014  -0.000002  -0.001452   0.007443   0.007653  -0.043177
    14  C    0.148116  -0.070516  -0.093864  -0.007443   0.001637  -0.001653
    15  C   -0.056572   0.005406  -0.006466  -0.009113   0.001646  -0.000315
    16  C   -0.024358   0.001855  -0.001589   0.000517  -0.000446  -0.000049
    17  C    0.003314  -0.000259  -0.000522  -0.000341   0.000019  -0.000010
    18  H    0.000116   0.000102   0.001142   0.000370  -0.000197   0.000079
    19  C    0.006847   0.001555  -0.000417  -0.000098   0.000020   0.000014
    20  H   -0.000126   0.002403   0.000146   0.000291  -0.000033  -0.000008
    21  C    0.001275  -0.000001   0.000037   0.000116  -0.000002   0.000002
    22  H   -0.000350   0.000011   0.000025   0.000016   0.000000   0.000001
    23  H   -0.000340  -0.000039   0.000011  -0.000002   0.000000   0.000000
    24  H   -0.000012  -0.000001   0.000001   0.000000   0.000000   0.000000
    25  C    0.117551  -0.075009  -0.065069   0.011462  -0.012723  -0.000882
    26  C   -0.072413   0.004446   0.006693   0.000876  -0.018548  -0.000023
    27  C   -0.023987   0.006381  -0.000401  -0.000288   0.000886   0.000009
    28  C    0.002721  -0.000226   0.000713   0.000015  -0.001439   0.000000
    29  H    0.000633  -0.000018   0.001483   0.000002   0.001718  -0.000059
    30  C    0.008183   0.001452  -0.000758   0.000005   0.000341   0.000000
    31  H   -0.002025   0.002842   0.000491   0.000012   0.000132   0.000000
    32  C    0.001687   0.000006  -0.000067   0.000000   0.000145   0.000000
    33  H   -0.000372   0.000011   0.000020   0.000000   0.000002   0.000000
    34  H   -0.000407  -0.000034   0.000023   0.000000  -0.000008   0.000000
    35  H   -0.000026  -0.000002   0.000002   0.000000  -0.000003   0.000000
              7          8          9         10         11         12
     1  C   -0.003359   0.012264  -0.011381   0.000369  -0.000355  -0.000362
     2  H   -0.000136  -0.000111  -0.000271   0.000036   0.000005   0.000014
     3  C   -0.044723  -0.068570  -0.034903  -0.020750   0.006150   0.006481
     4  C    0.397360  -0.033300   0.004976  -0.085120  -0.038274  -0.000406
     5  C    0.004498   0.454376   0.394126  -0.089771  -0.000433  -0.036858
     6  C   -0.035136  -0.073844  -0.000443   0.480702   0.397061   0.006014
     7  H    0.489183  -0.000471  -0.000195   0.005224  -0.003854   0.000017
     8  C   -0.000471   5.078598  -0.036441   0.495195   0.005998   0.395657
     9  H   -0.000195  -0.036441   0.477622   0.005053   0.000017  -0.003535
    10  C    0.005224   0.495195   0.005053   5.042903  -0.040859  -0.041265
    11  H   -0.003854   0.005998   0.000017  -0.040859   0.517594  -0.000213
    12  H    0.000017   0.395657  -0.003535  -0.041265  -0.000213   0.517827
    13  H   -0.000173  -0.042156  -0.000170   0.399479  -0.004404  -0.004467
    14  C    0.004101  -0.000820   0.000433   0.000130   0.000016   0.000012
    15  C   -0.000628   0.000048   0.000054   0.000032   0.000014   0.000000
    16  C    0.001540   0.000007  -0.000017  -0.000003  -0.000004   0.000000
    17  C   -0.000263   0.000004   0.000000   0.000002   0.000002   0.000000
    18  H   -0.000055  -0.000113   0.000025  -0.000038   0.000005   0.000000
    19  C    0.000121   0.000000   0.000000   0.000000  -0.000001   0.000000
    20  H    0.000204   0.000000   0.000001   0.000001   0.000000   0.000000
    21  C   -0.000084   0.000000   0.000000   0.000000   0.000000   0.000000
    22  H    0.000005   0.000000   0.000000   0.000000   0.000000   0.000000
    23  H    0.000007   0.000000   0.000000   0.000000   0.000000   0.000000
    24  H    0.000001   0.000000   0.000000   0.000000   0.000000   0.000000
    25  C    0.000804  -0.001643   0.001114   0.000123   0.000012   0.000059
    26  C   -0.000040  -0.000976  -0.000973  -0.000015   0.000000   0.000025
    27  C   -0.000006  -0.000112  -0.001030  -0.000004   0.000000   0.000004
    28  C    0.000000  -0.000040   0.000236   0.000000   0.000000  -0.000001
    29  H    0.000022   0.000126   0.000055   0.000000  -0.000001   0.000001
    30  C    0.000000   0.000005  -0.000125   0.000000   0.000000   0.000000
    31  H   -0.000001   0.000004   0.000093   0.000000   0.000000   0.000000
    32  C    0.000000   0.000004   0.000110   0.000000   0.000000  -0.000001
    33  H    0.000000  -0.000002   0.000037   0.000000   0.000000   0.000000
    34  H    0.000000   0.000000   0.000011   0.000000   0.000000   0.000000
    35  H    0.000000   0.000000   0.000010   0.000000   0.000000   0.000000
             13         14         15         16         17         18
     1  C   -0.000014   0.148116  -0.056572  -0.024358   0.003314   0.000116
     2  H   -0.000002  -0.070516   0.005406   0.001855  -0.000259   0.000102
     3  C   -0.001452  -0.093864  -0.006466  -0.001589  -0.000522   0.001142
     4  C    0.007443  -0.007443  -0.009113   0.000517  -0.000341   0.000370
     5  C    0.007653   0.001637   0.001646  -0.000446   0.000019  -0.000197
     6  C   -0.043177  -0.001653  -0.000315  -0.000049  -0.000010   0.000079
     7  H   -0.000173   0.004101  -0.000628   0.001540  -0.000263  -0.000055
     8  C   -0.042156  -0.000820   0.000048   0.000007   0.000004  -0.000113
     9  H   -0.000170   0.000433   0.000054  -0.000017   0.000000   0.000025
    10  C    0.399479   0.000130   0.000032  -0.000003   0.000002  -0.000038
    11  H   -0.004404   0.000016   0.000014  -0.000004   0.000002   0.000005
    12  H   -0.004467   0.000012   0.000000   0.000000   0.000000   0.000000
    13  H    0.519363   0.000002   0.000000   0.000000   0.000000   0.000001
    14  C    0.000002   5.392565   0.448193   0.492672  -0.058065  -0.044518
    15  C    0.000000   0.448193   5.066948  -0.072099   0.478944   0.388522
    16  C    0.000000   0.492672  -0.072099   5.091673  -0.030716   0.004115
    17  C    0.000000  -0.058065   0.478944  -0.030716   5.040856  -0.028559
    18  H    0.000001  -0.044518   0.388522   0.004115  -0.028559   0.497565
    19  C    0.000000  -0.074141  -0.026374   0.454621  -0.078749   0.000028
    20  H    0.000000  -0.050598   0.004341   0.400349  -0.000280  -0.000273
    21  C    0.000000  -0.018785  -0.091368  -0.086441   0.491088   0.004560
    22  H    0.000000   0.006019  -0.038872  -0.000475   0.397244  -0.003323
    23  H    0.000000   0.006924  -0.000687  -0.039660   0.006248   0.000014
    24  H    0.000000  -0.001549   0.007888   0.007488  -0.042897  -0.000173
    25  C    0.000001  -0.141694  -0.003123  -0.002230   0.001895  -0.002889
    26  C    0.000001  -0.003153  -0.011644   0.000509  -0.000364  -0.000883
    27  C    0.000000  -0.004539   0.000758   0.000614   0.000029  -0.000200
    28  C    0.000000   0.001966  -0.000104   0.000042  -0.000101   0.000896
    29  H    0.000000  -0.003737   0.001751  -0.000212   0.001130   0.001466
    30  C    0.000000  -0.000583   0.000056  -0.000012   0.000000  -0.000001
    31  H    0.000000   0.000155  -0.000025   0.000216   0.000001  -0.000002
    32  C    0.000000  -0.000064  -0.000007  -0.000013   0.000002  -0.000015
    33  H    0.000000   0.000028   0.000039   0.000001   0.000000  -0.000033
    34  H    0.000000   0.000021  -0.000001   0.000001   0.000000   0.000000
    35  H    0.000000  -0.000002   0.000001   0.000000   0.000000   0.000000
             19         20         21         22         23         24
     1  C    0.006847  -0.000126   0.001275  -0.000350  -0.000340  -0.000012
     2  H    0.001555   0.002403  -0.000001   0.000011  -0.000039  -0.000001
     3  C   -0.000417   0.000146   0.000037   0.000025   0.000011   0.000001
     4  C   -0.000098   0.000291   0.000116   0.000016  -0.000002   0.000000
     5  C    0.000020  -0.000033  -0.000002   0.000000   0.000000   0.000000
     6  C    0.000014  -0.000008   0.000002   0.000001   0.000000   0.000000
     7  H    0.000121   0.000204  -0.000084   0.000005   0.000007   0.000001
     8  C    0.000000   0.000000   0.000000   0.000000   0.000000   0.000000
     9  H    0.000000   0.000001   0.000000   0.000000   0.000000   0.000000
    10  C    0.000000   0.000001   0.000000   0.000000   0.000000   0.000000
    11  H   -0.000001   0.000000   0.000000   0.000000   0.000000   0.000000
    12  H    0.000000   0.000000   0.000000   0.000000   0.000000   0.000000
    13  H    0.000000   0.000000   0.000000   0.000000   0.000000   0.000000
    14  C   -0.074141  -0.050598  -0.018785   0.006019   0.006924  -0.001549
    15  C   -0.026374   0.004341  -0.091368  -0.038872  -0.000687   0.007888
    16  C    0.454621   0.400349  -0.086441  -0.000475  -0.039660   0.007488
    17  C   -0.078749  -0.000280   0.491088   0.397244   0.006248  -0.042897
    18  H    0.000028  -0.000273   0.004560  -0.003323   0.000014  -0.000173
    19  C    5.058997  -0.034771   0.497939   0.005969   0.396919  -0.042549
    20  H   -0.034771   0.509545   0.005232   0.000025  -0.004200  -0.000184
    21  C    0.497939   0.005232   5.034152  -0.039850  -0.040694   0.399640
    22  H    0.005969   0.000025  -0.039850   0.514784  -0.000205  -0.004467
    23  H    0.396919  -0.004200  -0.040694  -0.000205   0.518095  -0.004587
    24  H   -0.042549  -0.000184   0.399640  -0.004467  -0.004587   0.517358
    25  C   -0.000520   0.000344  -0.000088   0.000028   0.000025  -0.000003
    26  C    0.000124  -0.000008  -0.000025   0.000056   0.000000   0.000000
    27  C   -0.000016   0.000267  -0.000009   0.000001   0.000001   0.000000
    28  C    0.000001  -0.000001   0.000001   0.000002   0.000000   0.000000
    29  H   -0.000055   0.000001   0.000002  -0.000056   0.000001   0.000000
    30  C    0.000002   0.000006   0.000000   0.000000   0.000000   0.000000
    31  H   -0.000002   0.000067  -0.000001   0.000000   0.000000   0.000000
    32  C    0.000000  -0.000002   0.000000   0.000000   0.000000   0.000000
    33  H    0.000000   0.000000   0.000000   0.000001   0.000000   0.000000
    34  H    0.000000   0.000000   0.000000   0.000000   0.000000   0.000000
    35  H    0.000000   0.000000   0.000000   0.000000   0.000000   0.000000
             25         26         27         28         29         30
     1  C    0.117551  -0.072413  -0.023987   0.002721   0.000633   0.008183
     2  H   -0.075009   0.004446   0.006381  -0.000226  -0.000018   0.001452
     3  C   -0.065069   0.006693  -0.000401   0.000713   0.001483  -0.000758
     4  C    0.011462   0.000876  -0.000288   0.000015   0.000002   0.000005
     5  C   -0.012723  -0.018548   0.000886  -0.001439   0.001718   0.000341
     6  C   -0.000882  -0.000023   0.000009   0.000000  -0.000059   0.000000
     7  H    0.000804  -0.000040  -0.000006   0.000000   0.000022   0.000000
     8  C   -0.001643  -0.000976  -0.000112  -0.000040   0.000126   0.000005
     9  H    0.001114  -0.000973  -0.001030   0.000236   0.000055  -0.000125
    10  C    0.000123  -0.000015  -0.000004   0.000000   0.000000   0.000000
    11  H    0.000012   0.000000   0.000000   0.000000  -0.000001   0.000000
    12  H    0.000059   0.000025   0.000004  -0.000001   0.000001   0.000000
    13  H    0.000001   0.000001   0.000000   0.000000   0.000000   0.000000
    14  C   -0.141694  -0.003153  -0.004539   0.001966  -0.003737  -0.000583
    15  C   -0.003123  -0.011644   0.000758  -0.000104   0.001751   0.000056
    16  C   -0.002230   0.000509   0.000614   0.000042  -0.000212  -0.000012
    17  C    0.001895  -0.000364   0.000029  -0.000101   0.001130   0.000000
    18  H   -0.002889  -0.000883  -0.000200   0.000896   0.001466  -0.000001
    19  C   -0.000520   0.000124  -0.000016   0.000001  -0.000055   0.000002
    20  H    0.000344  -0.000008   0.000267  -0.000001   0.000001   0.000006
    21  C   -0.000088  -0.000025  -0.000009   0.000001   0.000002   0.000000
    22  H    0.000028   0.000056   0.000001   0.000002  -0.000056   0.000000
    23  H    0.000025   0.000000   0.000001   0.000000   0.000001   0.000000
    24  H   -0.000003   0.000000   0.000000   0.000000   0.000000   0.000000
    25  C    5.394162   0.451160   0.498194  -0.063553  -0.047266  -0.076772
    26  C    0.451160   5.096658  -0.063625   0.480096   0.386382  -0.029449
    27  C    0.498194  -0.063625   5.049789  -0.033818   0.004589   0.467896
    28  C   -0.063553   0.480096  -0.033818   5.046335  -0.027236  -0.077410
    29  H   -0.047266   0.386382   0.004589  -0.027236   0.497261  -0.000119
    30  C   -0.076772  -0.029449   0.467896  -0.077410  -0.000119   5.047553
    31  H   -0.045818   0.004756   0.394678  -0.000285  -0.000271  -0.033759
    32  C   -0.016143  -0.093514  -0.089002   0.490317   0.004625   0.499823
    33  H    0.005973  -0.038567  -0.000380   0.397013  -0.003385   0.005895
    34  H    0.007001  -0.000633  -0.039426   0.006263   0.000016   0.396348
    35  H   -0.001680   0.007982   0.007571  -0.042968  -0.000170  -0.042543
             31         32         33         34         35
     1  C   -0.002025   0.001687  -0.000372  -0.000407  -0.000026
     2  H    0.002842   0.000006   0.000011  -0.000034  -0.000002
     3  C    0.000491  -0.000067   0.000020   0.000023   0.000002
     4  C    0.000012   0.000000   0.000000   0.000000   0.000000
     5  C    0.000132   0.000145   0.000002  -0.000008  -0.000003
     6  C    0.000000   0.000000   0.000000   0.000000   0.000000
     7  H   -0.000001   0.000000   0.000000   0.000000   0.000000
     8  C    0.000004   0.000004  -0.000002   0.000000   0.000000
     9  H    0.000093   0.000110   0.000037   0.000011   0.000010
    10  C    0.000000   0.000000   0.000000   0.000000   0.000000
    11  H    0.000000   0.000000   0.000000   0.000000   0.000000
    12  H    0.000000  -0.000001   0.000000   0.000000   0.000000
    13  H    0.000000   0.000000   0.000000   0.000000   0.000000
    14  C    0.000155  -0.000064   0.000028   0.000021  -0.000002
    15  C   -0.000025  -0.000007   0.000039  -0.000001   0.000001
    16  C    0.000216  -0.000013   0.000001   0.000001   0.000000
    17  C    0.000001   0.000002   0.000000   0.000000   0.000000
    18  H   -0.000002  -0.000015  -0.000033   0.000000   0.000000
    19  C   -0.000002   0.000000   0.000000   0.000000   0.000000
    20  H    0.000067  -0.000002   0.000000   0.000000   0.000000
    21  C   -0.000001   0.000000   0.000000   0.000000   0.000000
    22  H    0.000000   0.000000   0.000001   0.000000   0.000000
    23  H    0.000000   0.000000   0.000000   0.000000   0.000000
    24  H    0.000000   0.000000   0.000000   0.000000   0.000000
    25  C   -0.045818  -0.016143   0.005973   0.007001  -0.001680
    26  C    0.004756  -0.093514  -0.038567  -0.000633   0.007982
    27  C    0.394678  -0.089002  -0.000380  -0.039426   0.007571
    28  C   -0.000285   0.490317   0.397013   0.006263  -0.042968
    29  H   -0.000271   0.004625  -0.003385   0.000016  -0.000170
    30  C   -0.033759   0.499823   0.005895   0.396348  -0.042543
    31  H    0.506589   0.005070   0.000025  -0.004075  -0.000178
    32  C    0.005070   5.033542  -0.039770  -0.041000   0.399432
    33  H    0.000025  -0.039770   0.514344  -0.000206  -0.004364
    34  H   -0.004075  -0.041000  -0.000206   0.517911  -0.004553
    35  H   -0.000178   0.399432  -0.004364  -0.004553   0.516934
 Mulliken atomic charges:
              1
     1  C   -0.615834
     2  H    0.211233
     3  C    0.079068
     4  C   -0.135463
     5  C   -0.159324
     6  C   -0.176109
     7  H    0.186039
     8  C   -0.183687
     9  H    0.205510
    10  C   -0.151423
    11  H    0.161525
    12  H    0.160998
    13  H    0.162072
    14  C    0.072733
    15  C   -0.087244
    16  C   -0.197896
    17  C   -0.179649
    18  H    0.182268
    19  C   -0.165463
    20  H    0.167263
    21  C   -0.156697
    22  H    0.163414
    23  H    0.162169
    24  H    0.164048
    25  C    0.067197
    26  C   -0.104913
    27  C   -0.174823
    28  C   -0.179436
    29  H    0.181318
    30  C   -0.166035
    31  H    0.171312
    32  C   -0.155166
    33  H    0.163690
    34  H    0.162747
    35  H    0.164558
 Sum of Mulliken atomic charges =   0.00000
 Mulliken charges with hydrogens summed into heavy atoms:
              1
     1  C   -0.404601
     3  C    0.079068
     4  C    0.050576
     5  C    0.046186
     6  C   -0.014584
     8  C   -0.022688
    10  C    0.010649
    14  C    0.072733
    15  C    0.095024
    16  C   -0.030633
    17  C   -0.016236
    19  C   -0.003294
    21  C    0.007352
    25  C    0.067197
    26  C    0.076405
    27  C   -0.003511
    28  C   -0.015747
    30  C   -0.003287
    32  C    0.009392
 Sum of Mulliken charges with hydrogens summed into heavy atoms =   0.00000
 Electronic spatial extent (au):  <R**2>=           4932.4179
 Charge=              0.0000 electrons
 Dipole moment (field-independent basis, Debye):
    X=              0.0925    Y=             -0.1684    Z=             -0.0189  Tot=              0.1931
 Quadrupole moment (field-independent basis, Debye-Ang):
   XX=           -107.5316   YY=           -113.3202   ZZ=           -106.9130
   XY=              2.7432   XZ=              0.9103   YZ=              2.6170
 Traceless Quadrupole moment (field-independent basis, Debye-Ang):
   XX=              1.7233   YY=             -4.0653   ZZ=              2.3420
   XY=              2.7432   XZ=              0.9103   YZ=              2.6170
 Octapole moment (field-independent basis, Debye-Ang**2):
  XXX=             27.6312  YYY=             11.7287  ZZZ=              0.8052  XYY=            -36.4637
  XXY=             -0.4651  XXZ=             -2.6506  XZZ=              9.8257  YZZ=            -19.0058
  YYZ=             11.7180  XYZ=              1.6016
 Hexadecapole moment (field-independent basis, Debye-Ang**3):
 XXXX=          -3058.0957 YYYY=          -2919.6926 ZZZZ=           -663.1972 XXXY=            -64.0952
 XXXZ=             13.9390 YYYX=             67.6621 YYYZ=             73.2993 ZZZX=             -6.3844
 ZZZY=             -2.3049 XXYY=          -1014.3803 XXZZ=           -627.2466 YYZZ=           -637.8992
 XXYZ=             -7.5838 YYXZ=             -9.4918 ZZXY=             32.6454
 N-N= 1.290665005243D+03 E-N=-4.277406020992D+03  KE= 7.286013413354D+02
 PrsmSu:  requested number of processors reduced to:  10 ShMem   1 Linda.
 Calling FoFJK, ICntrl=      2127 FMM=F ISym2X=0 I1Cent= 0 IOpClX= 0 NMat=1 NMatS=1 NMatT=0.
 ***** Axes restored to original set *****
 -------------------------------------------------------------------
 Center     Atomic                   Forces (Hartrees/Bohr)
 Number     Number              X              Y              Z
 -------------------------------------------------------------------
      1        6           0.000589018    0.022667530   -0.004905488
      2        1          -0.000506387   -0.022805749    0.010937228
      3        6          -0.003099487   -0.006998121   -0.012910910
      4        6           0.008229753    0.003157671   -0.000060050
      5        6          -0.010013778    0.000578981    0.006734015
      6        6           0.010896638    0.001319566   -0.006346556
      7        1          -0.015472486   -0.008818364   -0.006249336
      8        6          -0.009174818   -0.006364084   -0.006160407
      9        1           0.016417264   -0.000196770   -0.014541045
     10        6          -0.002599342   -0.006811782   -0.011618058
     11        1          -0.013292762    0.000209990    0.009971593
     12        1           0.014170414    0.007333057    0.004667447
     13        1           0.000854839    0.007492163    0.014834216
     14        6           0.011974818    0.006921110    0.004181523
     15        6          -0.005885531   -0.009695406   -0.001683981
     16        6          -0.001590474    0.005483688   -0.001316841
     17        6          -0.000167590   -0.012200241    0.002403981
     18        1           0.023908811    0.014376455    0.002207797
     19        6           0.010178473    0.008210492    0.004140380
     20        1           0.002890428   -0.016772692    0.004234873
     21        6           0.012124259   -0.000735306    0.006495007
     22        1          -0.003259256    0.015781917   -0.004372423
     23        1          -0.010604224   -0.012285372   -0.003606959
     24        1          -0.014295436    0.003615532   -0.008099174
     25        6          -0.009757452    0.008603543    0.004786975
     26        6           0.006215895   -0.010556584    0.000313715
     27        6           0.001769885    0.004839616   -0.002997887
     28        6          -0.001002500   -0.011753604    0.003659722
     29        1          -0.022099634    0.018416360    0.006571741
     30        6          -0.009003574    0.009344746    0.004380049
     31        1          -0.003682819   -0.016128779    0.006505321
     32        6          -0.011103632    0.000969140    0.007811670
     33        1           0.003810641    0.014865262   -0.006511123
     34        1           0.009198393   -0.013518653   -0.003357519
     35        1           0.013381656    0.001454690   -0.010099495
 -------------------------------------------------------------------
 Cartesian Forces:  Max     0.023908811 RMS     0.009547478

 GradGradGradGradGradGradGradGradGradGradGradGradGradGradGradGradGradGrad
 Berny optimization.
 Internal  Forces:  Max     0.028595882 RMS     0.007782640
 Search for a local minimum.
 Step number   1 out of a maximum of  197
 All quantities printed in internal units (Hartrees-Bohrs-Radians)
 Mixed Optimization -- RFO/linear search
 Second derivative matrix not updated -- first step.
     Eigenvalues ---    0.00635   0.00649   0.00656   0.01533   0.01537
     Eigenvalues ---    0.01539   0.02138   0.02140   0.02147   0.02170
     Eigenvalues ---    0.02172   0.02173   0.02181   0.02183   0.02184
     Eigenvalues ---    0.02200   0.02201   0.02202   0.02210   0.02211
     Eigenvalues ---    0.02212   0.02214   0.02215   0.02215   0.02215
     Eigenvalues ---    0.02218   0.02219   0.02219   0.02219   0.02225
     Eigenvalues ---    0.04555   0.06400   0.06627   0.15997   0.15998
     Eigenvalues ---    0.16000   0.16000   0.16000   0.16000   0.16000
     Eigenvalues ---    0.16000   0.16000   0.16000   0.16000   0.16000
     Eigenvalues ---    0.16000   0.16000   0.16000   0.18869   0.19340
     Eigenvalues ---    0.22000   0.22000   0.22000   0.22000   0.22000
     Eigenvalues ---    0.22000   0.23465   0.23477   0.23478   0.24966
     Eigenvalues ---    0.24999   0.25000   0.31254   0.31362   0.31470
     Eigenvalues ---    0.31523   0.33528   0.33602   0.33975   0.34046
     Eigenvalues ---    0.34084   0.34094   0.34256   0.34257   0.34265
     Eigenvalues ---    0.34266   0.34270   0.34272   0.34277   0.34278
     Eigenvalues ---    0.34289   0.42401   0.42442   0.42491   0.42555
     Eigenvalues ---    0.42572   0.42609   0.46332   0.46373   0.46440
     Eigenvalues ---    0.46707   0.46760   0.46802   0.47202   0.47208
     Eigenvalues ---    0.47218   0.47331   0.47346   0.474371000.00000
     Eigenvalues --- 1000.000001000.000001000.000001000.000001000.00000
     Eigenvalues --- 1000.000001000.000001000.000001000.000001000.00000
     Eigenvalues --- 1000.000001000.000001000.000001000.000001000.00000
     Eigenvalues --- 1000.000001000.000001000.000001000.000001000.00000
     Eigenvalues --- 1000.000001000.000001000.000001000.000001000.00000
     Eigenvalues --- 1000.000001000.000001000.000001000.000001000.00000
     Eigenvalues --- 1000.000001000.000001000.000001000.000001000.00000
     Eigenvalues --- 1000.000001000.000001000.000001000.000001000.00000
     Eigenvalues --- 1000.000001000.000001000.000001000.000001000.00000
     Eigenvalues --- 1000.000001000.000001000.000001000.000001000.00000
     Eigenvalues --- 1000.000001000.000001000.000001000.000001000.00000
     Eigenvalues --- 1000.000001000.000001000.000001000.000001000.00000
     Eigenvalues --- 1000.000001000.000001000.000001000.000001000.00000
     Eigenvalues --- 1000.000001000.000001000.000001000.000001000.00000
     Eigenvalues --- 1000.000001000.000001000.000001000.000001000.00000
     Eigenvalues --- 1000.000001000.000001000.000001000.000001000.00000
     Eigenvalues --- 1000.000001000.000001000.000001000.000001000.00000
     Eigenvalues --- 1000.000001000.00000
 RFO step:  Lambda=-4.18080132D-02 EMin= 6.35251108D-03
 Linear search not attempted -- first point.
 Maximum step size (   0.300) exceeded in Quadratic search.
    -- Step size scaled by   0.592
 Iteration  1 RMS(Cart)=  0.12545553 RMS(Int)=  0.00303451
 Iteration  2 RMS(Cart)=  0.00613428 RMS(Int)=  0.00028124
 Iteration  3 RMS(Cart)=  0.00001070 RMS(Int)=  0.00028118
 Iteration  4 RMS(Cart)=  0.00000000 RMS(Int)=  0.00028118
 Variable       Old X    -DE/DX   Delta X   Delta X   Delta X     New X
                                 (Linear)    (Quad)   (Total)
    R1        2.12230  -0.02488   0.00000  -0.04157  -0.04157   2.08072
    R2        2.85125   0.02349   0.00000   0.03901   0.03901   2.89026
    R3        2.85326   0.02292   0.00000   0.03818   0.03818   2.89144
    R4        2.85025   0.02359   0.00000   0.03912   0.03912   2.88937
    R5        2.64380  -0.00198   0.00000  -0.00229  -0.00228   2.64152
    R6        2.63523  -0.00228   0.00000  -0.00253  -0.00252   2.63270
    R7        2.62402  -0.00482   0.00000  -0.00559  -0.00559   2.61843
    R8        2.07252  -0.01884   0.00000  -0.02918  -0.02918   2.04334
    R9        2.62917  -0.00143   0.00000  -0.00157  -0.00157   2.62760
   R10        2.07373  -0.02186   0.00000  -0.03392  -0.03392   2.03981
   R11        2.62968  -0.00501   0.00000  -0.00593  -0.00593   2.62375
   R12        2.06883  -0.01662   0.00000  -0.02559  -0.02559   2.04324
   R13        2.62529  -0.00733   0.00000  -0.00845  -0.00846   2.61683
   R14        2.06885  -0.01662   0.00000  -0.02560  -0.02560   2.04325
   R15        2.06846  -0.01664   0.00000  -0.02561  -0.02561   2.04285
   R16        2.63862  -0.00003   0.00000   0.00007   0.00009   2.63871
   R17        2.63883  -0.00424   0.00000  -0.00492  -0.00490   2.63393
   R18        2.62574  -0.00476   0.00000  -0.00541  -0.00541   2.62033
   R19        2.08008  -0.02666   0.00000  -0.04179  -0.04179   2.03829
   R20        2.62798  -0.00234   0.00000  -0.00275  -0.00275   2.62523
   R21        2.07171  -0.01753   0.00000  -0.02711  -0.02711   2.04460
   R22        2.62858  -0.00527   0.00000  -0.00614  -0.00615   2.62243
   R23        2.06876  -0.01670   0.00000  -0.02571  -0.02571   2.04305
   R24        2.62732  -0.00872   0.00000  -0.01014  -0.01016   2.61716
   R25        2.06898  -0.01662   0.00000  -0.02561  -0.02561   2.04337
   R26        2.06863  -0.01682   0.00000  -0.02590  -0.02590   2.04273
   R27        2.63981   0.00064   0.00000   0.00089   0.00091   2.64072
   R28        2.63972  -0.00446   0.00000  -0.00519  -0.00517   2.63455
   R29        2.62554  -0.00442   0.00000  -0.00500  -0.00500   2.62054
   R30        2.08135  -0.02860   0.00000  -0.04490  -0.04490   2.03644
   R31        2.62777  -0.00237   0.00000  -0.00281  -0.00280   2.62497
   R32        2.07189  -0.01777   0.00000  -0.02749  -0.02749   2.04440
   R33        2.62906  -0.00581   0.00000  -0.00677  -0.00679   2.62227
   R34        2.06874  -0.01667   0.00000  -0.02567  -0.02567   2.04307
   R35        2.62730  -0.00920   0.00000  -0.01072  -0.01074   2.61656
   R36        2.06901  -0.01669   0.00000  -0.02571  -0.02571   2.04329
   R37        2.06866  -0.01683   0.00000  -0.02591  -0.02591   2.04275
    A1        1.82814   0.00385   0.00000   0.00038   0.00064   1.82877
    A2        1.88350  -0.00873   0.00000  -0.04862  -0.04781   1.83569
    A3        1.87604  -0.00995   0.00000  -0.05144  -0.05053   1.82550
    A4        1.94636  -0.00312   0.00000   0.01240   0.01024   1.95660
    A5        1.99336   0.00073   0.00000   0.02136   0.01945   2.01281
    A6        1.92917   0.01532   0.00000   0.05430   0.05314   1.98231
    A7        2.07013   0.00077   0.00000   0.00145   0.00144   2.07157
    A8        2.13544   0.00713   0.00000   0.01438   0.01436   2.14981
    A9        2.07651  -0.00792   0.00000  -0.01610  -0.01609   2.06042
   A10        2.10344   0.00469   0.00000   0.01027   0.01028   2.11372
   A11        2.08456  -0.00123   0.00000  -0.00186  -0.00186   2.08270
   A12        2.09517  -0.00347   0.00000  -0.00842  -0.00843   2.08674
   A13        2.10157   0.00351   0.00000   0.00805   0.00806   2.10963
   A14        2.09250  -0.00012   0.00000   0.00077   0.00077   2.09327
   A15        2.08911  -0.00339   0.00000  -0.00882  -0.00882   2.08029
   A16        2.09675   0.00081   0.00000   0.00114   0.00113   2.09789
   A17        2.09174  -0.00041   0.00000  -0.00057  -0.00057   2.09117
   A18        2.09469  -0.00041   0.00000  -0.00056  -0.00056   2.09413
   A19        2.09925   0.00110   0.00000   0.00224   0.00223   2.10148
   A20        2.08896  -0.00050   0.00000  -0.00098  -0.00098   2.08798
   A21        2.09497  -0.00060   0.00000  -0.00126  -0.00125   2.09372
   A22        2.08884  -0.00219   0.00000  -0.00562  -0.00563   2.08320
   A23        2.09652   0.00113   0.00000   0.00290   0.00290   2.09943
   A24        2.09782   0.00107   0.00000   0.00272   0.00273   2.10055
   A25        2.11804   0.01871   0.00000   0.03799   0.03792   2.15596
   A26        2.08440  -0.00798   0.00000  -0.01616  -0.01622   2.06818
   A27        2.08074  -0.01073   0.00000  -0.02187  -0.02187   2.05888
   A28        2.10153   0.00420   0.00000   0.00944   0.00939   2.11091
   A29        2.07799   0.00377   0.00000   0.01263   0.01253   2.09053
   A30        2.10351  -0.00793   0.00000  -0.02169  -0.02179   2.08173
   A31        2.09903   0.00739   0.00000   0.01632   0.01633   2.11535
   A32        2.09520  -0.00438   0.00000  -0.01017  -0.01018   2.08503
   A33        2.08895  -0.00301   0.00000  -0.00616  -0.00617   2.08279
   A34        2.09612   0.00224   0.00000   0.00464   0.00463   2.10075
   A35        2.09178  -0.00105   0.00000  -0.00209  -0.00210   2.08968
   A36        2.09529  -0.00120   0.00000  -0.00254  -0.00254   2.09274
   A37        2.09787  -0.00032   0.00000  -0.00145  -0.00147   2.09640
   A38        2.09109   0.00036   0.00000   0.00130   0.00131   2.09239
   A39        2.09423  -0.00003   0.00000   0.00015   0.00016   2.09439
   A40        2.09107  -0.00277   0.00000  -0.00701  -0.00704   2.08403
   A41        2.09601   0.00141   0.00000   0.00357   0.00358   2.09959
   A42        2.09611   0.00136   0.00000   0.00344   0.00345   2.09956
   A43        2.12468   0.02273   0.00000   0.04617   0.04614   2.17082
   A44        2.07948  -0.01092   0.00000  -0.02211  -0.02214   2.05734
   A45        2.07901  -0.01181   0.00000  -0.02402  -0.02398   2.05503
   A46        2.10232   0.00453   0.00000   0.01023   0.01021   2.11253
   A47        2.07807   0.00434   0.00000   0.01433   0.01429   2.09236
   A48        2.10270  -0.00885   0.00000  -0.02437  -0.02441   2.07829
   A49        2.10019   0.00810   0.00000   0.01783   0.01785   2.11804
   A50        2.09467  -0.00471   0.00000  -0.01085  -0.01086   2.08381
   A51        2.08833  -0.00339   0.00000  -0.00698  -0.00700   2.08133
   A52        2.09627   0.00239   0.00000   0.00498   0.00496   2.10123
   A53        2.09145  -0.00110   0.00000  -0.00220  -0.00219   2.08926
   A54        2.09547  -0.00130   0.00000  -0.00278  -0.00277   2.09269
   A55        2.09782  -0.00021   0.00000  -0.00136  -0.00137   2.09645
   A56        2.09108   0.00028   0.00000   0.00119   0.00120   2.09228
   A57        2.09428  -0.00007   0.00000   0.00017   0.00018   2.09446
[...]
 20427,-0.00061726,-0.00155198,0.00038199,-0.00008399,-0.00003934,0.000
 21636,-0.00020321,-0.00009495,0.00022842,0.00014959,0.00020507,0.00013
 136,0.00025860,-0.00003258,0.00002404,-0.00001821,0.00014281,-0.000020
 15,-0.00039839,0.00017390,0.00006332,0.00010284,-0.00022139,-0.0001778
 5,0.00016855,0.00002966,-0.00001859,0.00002545,-0.00002118,0.00003866,
 -0.00000379,0.00000255,0.00000356,-0.00000886,-0.00032577,-0.00063202,
 -0.00021031,-0.00024739,0.00034841,-0.00023434,0.00045849,-0.00003490,
 0.00001494,0.00029284,0.00005436,0.00026959,-0.00002141,0.00002474,0.0
 0001258,-0.00033051,0.00031697,-0.00020619,-0.00003124,-0.00008090,0.0
 0007218,-0.00001643,-0.00039198,-0.00014184,-0.00000050,-0.00001383,0.
 00001378,0.00001183,0.00001682,-0.00000085,0.00001263,-0.00000667,0.00
 000585,0.03189839,-0.06435241,0.05768215,0.04380212,0.02750486,-0.0647
 2041,0.08377775,0.04982384,-0.19591705,-0.08005927,0.04943307,0.009640
 66,0.00048338,-0.00011293,-0.00100103,-0.12792580,-0.24660636,0.531066
 29,0.00071892,-0.00009987,-0.00218926,-0.00063308,-0.00062758,0.000218
 85,0.00026529,0.00015513,0.00014917,-0.00003590,0.00000835,-0.00011408
 ,-0.00000062,0.00009054,-0.00009988,0.00002118,0.00002667,0.00007163,-
 0.00004776,-0.00001123,0.00002912,-0.00004304,-0.00000486,-0.00008059,
 -0.00000215,-0.00008080,0.00005101,-0.00006331,-0.00004632,-0.00002964
 ,0.00000819,-0.00000666,-0.00001583,-0.00000593,-0.00003064,-0.0000126
 0,0.00000282,-0.00001818,-0.00000774,-0.00007966,-0.00023001,-0.000019
 79,0.00007483,-0.00004370,0.00010141,0.00001813,0.00005215,0.00003365,
 0.00002856,-0.00002117,-0.00001285,-0.00000312,-0.00000845,-0.00001118
 ,-0.00000366,-0.00002565,-0.00000505,-0.00001203,-0.00001385,-0.000039
 24,0.00002243,-0.00000659,0.00001387,0.00001689,-0.00001256,0.00000098
 ,0.00000719,0.00000513,0.00000582,0.00000930,-0.00000600,0.00000333,0.
 00683519,0.01806379,-0.02059576,-0.00246440,0.00573677,0.00086110,-0.0
 7142870,-0.01255717,0.02852551,-0.00114242,0.00016569,-0.00006928,0.00
 025427,0.00078469,-0.00103411,0.00254181,-0.02110960,0.02551259,0.0686
 1950,-0.00201391,-0.00137779,-0.00180298,0.00065201,0.00016560,-0.0000
 3519,0.00044399,0.00017588,-0.00032284,-0.00000211,0.00001329,-0.00041
 994,-0.00027408,-0.00001239,0.00006504,0.00010516,0.00011157,-0.000035
 13,0.00002542,-0.00003063,0.00001821,-0.00006041,-0.00004014,-0.000200
 07,0.00008141,-0.00003433,0.00015804,-0.00005054,-0.00006539,0.0000491
 7,-0.00000570,-0.00001690,0.00000930,0.00002313,0.00000013,0.00001032,
 0.00000829,0.00000318,0.00001905,-0.00004626,0.00036438,0.00019372,-0.
 00012840,0.00005266,-0.00011660,-0.00002274,0.00008817,-0.00006022,-0.
 00002282,0.00004589,-0.00002133,-0.00000977,-0.00003294,0.00002557,0.0
 0000061,-0.00003323,-0.00002843,-0.00000640,-0.00002956,0.00003076,-0.
 00001492,0.00001091,-0.00000213,-0.00001522,0.00000384,-0.00000410,-0.
 00001761,-0.00000234,-0.00000474,-0.00000663,-0.00000229,0.00000177,-0
 .00571281,-0.00906457,0.01975313,0.00601935,0.00158918,0.00307724,-0.0
 1187854,-0.18112149,0.15320102,0.00025284,-0.00018808,-0.00103436,-0.0
 0026100,-0.00070432,0.00088696,0.00337724,0.00533454,-0.00193026,0.009
 58558,0.18209014,0.00033259,-0.00173895,-0.00149735,-0.00060118,-0.000
 90245,0.00084891,0.00010281,-0.00013509,0.00007652,-0.00002343,0.00005
 203,-0.00006571,0.00007302,0.00007862,-0.00007156,0.00002257,-0.000011
 71,-0.00000068,-0.00001978,-0.00000049,0.00000642,-0.00004697,-0.00003
 082,0.00000238,-0.00003346,-0.00001755,0.00003303,-0.00000347,-0.00001
 261,0.00000497,-0.00000193,-0.00000303,0.00000489,-0.00000205,-0.00000
 254,-0.00000989,-0.00000304,0.00000031,0.00000648,-0.00023532,-0.00029
 482,0.00013767,0.00003612,-0.00006203,0.00010139,-0.00007149,0.0001666
 2,0.00002624,0.00002916,-0.00005124,-0.00003940,0.00000303,-0.00000840
 ,-0.00000928,0.00002566,-0.00002427,-0.00000336,-0.00001387,-0.0000274
 4,-0.00003037,-0.00001739,0.00001091,0.00000086,0.00001091,0.00000124,
 -0.00000598,-0.00000800,0.00000075,-0.00001084,0.00000111,-0.00000406,
 -0.00000229,0.00400748,0.00391141,-0.00149621,0.00066376,0.00346946,0.
 00384602,0.02850828,0.15397977,-0.23663285,-0.00013247,-0.00095358,0.0
 0017541,0.00013469,0.00009783,-0.00029999,-0.00176370,0.01420506,-0.00
 906940,-0.03485901,-0.17135871,0.24363031,0.00060793,-0.00016619,-0.00
 074022,-0.00034067,-0.00029172,0.00011140,0.00004484,-0.00030823,-0.00
 027356,0.00012031,0.00015082,0.00027907,0.00001569,-0.00009499,0.00019
 256,-0.00008396,-0.00010521,-0.00004780,0.00000409,-0.00000304,-0.0000
 2541,-0.00007914,0.00000025,0.00016661,-0.00029423,-0.00012480,0.00006
 185,0.00009280,0.00010430,0.00001435,-0.00001112,0.00002253,0.00002531
 ,0.00001404,0.00004453,0.00004944,0.00000099,0.00000383,0.00001845,0.0
 0013411,0.00015166,0.00034237,0.00004588,-0.00020365,0.00006667,-0.000
 25655,0.00006408,-0.00002782,-0.00010665,-0.00005737,-0.00012129,0.000
 01397,-0.00002345,-0.00000558,0.00017300,-0.00011421,0.00007476,0.0000
 2073,0.00002852,0.00000689,-0.00004177,0.00020759,0.00001810,-0.000021
 61,0.00002231,-0.00000584,-0.00003222,-0.00001920,-0.00000933,-0.00002
 224,0.00000373,-0.00000534,-0.01598991,0.02796041,-0.02502481,-0.05501
 803,0.01129415,0.03028214,0.03180178,-0.03461919,0.02423190,-0.2612451
 6,0.14726545,-0.04218309,-0.00208495,0.00161707,0.00553216,-0.15191195
 ,-0.01993952,0.06753909,-0.00333349,0.00254781,0.00538528,0.72016030,-
 0.00071128,-0.00065683,0.00165058,-0.00006026,0.00093794,0.00000851,-0
 .00085872,0.00053404,-0.00016804,-0.00007951,0.00013462,-0.00045250,-0
 .00027104,0.00020402,0.00017883,0.00023876,0.00020388,0.00019352,-0.00
 000224,0.00000347,-0.00000133,0.00012996,-0.00002783,-0.00043250,0.000
 23178,0.00005923,0.00008887,-0.00023307,-0.00019583,0.00018102,0.00002
 818,-0.00002788,0.00001710,-0.00001193,0.00003920,0.00000092,0.0000058
 1,0.00000078,-0.00000119,-0.00027355,-0.00046220,-0.00013612,-0.000282
 11,0.00026571,-0.00022371,0.00041741,-0.00000317,-0.00005307,0.0002303
 3,0.00006255,0.00024012,-0.00001815,0.00001025,0.00000730,-0.00027490,
 0.00024559,-0.00018730,-0.00003264,-0.00006902,0.00004722,-0.00001481,
 -0.00031905,-0.00011311,-0.00000019,-0.00001001,0.00000647,0.00001022,
 0.00001568,0.00000603,0.00001129,-0.00000840,0.00000455,0.02914447,-0.
 06560186,0.04310078,0.05515463,0.03354604,-0.06205245,-0.07913632,0.03
 558651,0.02292326,0.09247693,-0.21287744,0.07988459,0.00124329,0.00508
 925,0.00355021,0.03538580,-0.20704682,0.11032883,0.00308948,0.00498448
 ,0.00242602,-0.15900118,0.48377152,-0.00027980,0.00003223,-0.00215338,
 0.00003319,-0.00081581,0.00006310,0.00126808,-0.00027258,0.00028743,0.
 00001086,-0.00025111,0.00015185,0.00018937,-0.00002582,-0.00019993,-0.
 00016842,-0.00008853,-0.00015075,0.00000930,-0.00000438,0.00002666,-0.
 00014879,-0.00004048,0.00031753,-0.00021734,-0.00007660,-0.00001974,0.
 00016116,0.00012138,-0.00014804,-0.00002247,0.00001370,-0.00004046,0.0
 0000568,-0.00003786,-0.00001227,-0.00001133,-0.00000796,0.00000175,0.0
 0016108,0.00041589,0.00001296,0.00021332,-0.00008854,0.00016685,-0.000
 25700,-0.00007851,-0.00000442,-0.00015869,-0.00002286,-0.00015621,0.00
 001351,-0.00001054,-0.00001691,0.00015502,-0.00018860,0.00012320,-0.00
 001757,0.00003359,-0.00007552,0.00004117,0.00018538,0.00010955,0.00001
 560,-0.00000279,-0.00000401,0.00003069,0.00000198,0.00000509,0.0000064
 1,0.00000084,-0.00000166,-0.02554782,0.04457479,-0.03770876,-0.0170422
 9,-0.03372912,0.05763854,0.07148251,-0.00471326,-0.03113189,0.01829165
 ,0.04241579,-0.14307894,0.00562806,0.00332145,0.00122339,0.00751420,0.
 14755523,-0.24929515,0.00496943,0.00280892,0.00271732,-0.19193892,-0.2
 3035253,0.55488333,0.00037728,-0.00099828,0.00069890,-0.00025250,-0.00
 007260,0.00021265,-0.00018007,-0.00006621,-0.00003115,0.00000018,0.000
 05546,0.00006793,0.00001681,0.00004056,0.00001572,0.00000604,-0.000004
 39,0.00001898,0.00000446,0.00000550,-0.00001234,0.00000220,-0.00000112
 ,-0.00000079,0.00000341,-0.00001196,0.00000520,-0.00000445,0.00000220,
 0.00001705,-0.00000103,-0.00000028,0.00001319,0.00000599,0.00000480,0.
 00000385,-0.00000011,0.00000385,0.00000602,0.00020377,-0.00002945,0.00
 005056,0.00000806,0.00001418,-0.00003362,-0.00004506,0.00001401,-0.000
 03954,-0.00001202,0.00001340,-0.00003073,0.00000115,-0.00001007,0.0000
 1836,0.00002172,-0.00000536,-0.00000965,0.00000213,0.00000035,0.000021
 84,-0.00003558,0.00003635,-0.00003728,-0.00001870,0.00000660,0.0000074
 1,-0.00002005,-0.00000978,-0.00000186,-0.00001501,-0.00000002,0.000004
 18,-0.00348669,0.00285424,0.00510050,0.00262866,-0.02094177,0.02494290
 ,-0.00131783,0.00028670,-0.00011315,-0.07186208,-0.01199419,0.02852998
 ,0.00029741,-0.00139146,-0.00201899,-0.00222823,0.00579927,0.00115219,
 -0.00013050,-0.00040593,-0.00031049,0.00840507,0.01846996,-0.02223155,
 0.06731201,0.00030555,-0.00008917,-0.00019937,0.00002012,-0.00002892,-
 0.00000050,-0.00009531,0.00003227,-0.00000052,-0.00000118,0.00002922,0
 .00000305,0.00004059,0.00002563,-0.00000842,0.00000916,0.00000199,0.00
 001484,-0.00000439,-0.00000510,-0.00000486,-0.00001656,-0.00001713,-0.
 00000535,-0.00001098,-0.00001816,0.00000228,-0.00001015,-0.00000481,0.
 00001137,-0.00000243,-0.00000341,0.00001091,0.00000536,0.00000083,-0.0
 0000184,-0.00000141,0.00000321,0.00000960,-0.00003693,0.00001438,0.000
 07977,0.00000902,-0.00004750,0.00001205,-0.00005822,0.00002201,-0.0000
 0841,-0.00001732,-0.00001099,-0.00002930,0.00000764,-0.00000960,-0.000
 00667,0.00004090,-0.00000908,0.00000256,0.00001012,-0.00000520,0.00001
 882,-0.00001473,0.00004344,-0.00000933,-0.00000482,0.00000438,-0.00000
 040,-0.00002205,-0.00001414,-0.00000405,-0.00001364,0.00000290,-0.0000
 0019,0.00239831,0.00474265,0.00267551,0.00335530,0.00542617,-0.0021506
 4,0.00015275,-0.00012180,-0.00101435,-0.01218185,-0.18274051,0.1555569
 2,-0.00201405,-0.00165073,-0.00234097,0.00615441,0.00201267,0.00348290
 ,-0.00040387,-0.00060940,-0.00045114,-0.00578750,-0.00821104,0.0191233
 2,0.00973693,0.18354998,-0.00027630,0.00054880,-0.00043715,0.00023763,
 -0.00001921,-0.00020350,0.00016256,0.00014748,0.00010608,-0.00004297,-
 0.00008302,-0.00009734,0.00004751,-0.00005323,-0.00009690,0.00000284,0
 .00000189,-0.00000694,-0.00001838,-0.00000427,0.00001538,0.00001853,0.
 00001168,0.00001373,0.00000599,0.00007631,0.00001587,-0.00000207,-0.00
 001173,-0.00002636,0.00000260,-0.00000427,-0.00001642,-0.00001536,-0.0
 0001867,-0.00002535,-0.00000320,-0.00000276,-0.00001283,-0.00021698,0.
 00003955,-0.00011893,0.00007533,-0.00001407,0.00007183,0.00000955,0.00
 000053,0.00003558,-0.00002392,-0.00000855,-0.00000466,-0.00000317,0.00
 000842,-0.00001910,0.00000226,-0.00002268,-0.00000368,-0.00001305,-0.0
 0002428,-0.00001261,0.00002556,-0.00000214,0.00003315,0.00002327,-0.00
 001685,-0.00000421,0.00000932,0.00000491,0.00000599,0.00001505,-0.0000
 0237,0.00000318,0.00512457,0.00224851,0.00273870,-0.00165913,0.0142550
 9,-0.00905213,-0.00010388,-0.00101381,0.00021285,0.02857676,0.15571738
 ,-0.23912668,-0.00109686,-0.00288368,-0.00108626,0.00084056,0.00372402
 ,0.00428885,-0.00032426,-0.00044149,-0.00054672,0.00453544,0.00264765,
 -0.00036388,-0.03395722,-0.17268133,0.24518153,-0.00060078,0.00093437,
 -0.00077717,-0.00000711,-0.00006699,0.00001278,-0.00011106,-0.00010698
 ,-0.00015388,0.00004268,0.00003705,0.00010099,0.00004144,0.00003727,0.
 00003685,-0.00000171,-0.00001559,0.00001864,-0.00000743,0.00000492,-0.
 00001768,-0.00001121,-0.00000990,0.00000655,-0.00002763,-0.00003551,-0
 .00001474,0.00000582,0.00000455,0.00002925,-0.00001264,0.00000685,0.00
 001959,0.00000424,0.00001752,0.00000601,-0.00000288,0.00000844,0.00001
 424,-0.00010390,-0.00010503,0.00038423,-0.00009404,-0.00000345,-0.0000
 7958,-0.00005378,0.00006818,-0.00001995,0.00002921,-0.00000146,-0.0000
 1242,0.00000319,-0.00000550,0.00000497,0.00001136,0.00002522,-0.000002
 26,0.00001237,-0.00000030,0.00001493,-0.00003265,-0.00000151,-0.000022
 13,-0.00001360,0.00001503,-0.00000404,-0.00001759,-0.00000569,-0.00001
 826,-0.00001376,0.00000322,-0.00000581,-0.00185707,0.00137139,0.005955
 05,-0.00008133,-0.00103168,0.00055379,-0.01511821,0.02205766,-0.010011
 50,0.00253023,0.00103332,0.00299784,-0.00024262,-0.00027045,-0.0003938
 4,-0.22600497,0.14798206,-0.04188321,0.00014644,-0.00220289,-0.0011921
 3,0.00788899,-0.00528971,0.00413547,0.00014546,-0.00022814,0.00009172,
 0.23343956,-0.00018400,-0.00003362,0.00004508,0.00000388,-0.00003382,-
 0.00000171,0.00014881,0.00001857,0.00000623,-0.00000780,-0.00005510,-0
 .00001297,-0.00002403,-0.00002363,-0.00003769,-0.00001550,-0.00000110,
 -0.00001449,-0.00000267,-0.00000482,0.00000968,0.00000180,0.00003655,0
 .00000111,0.00003423,0.00000506,0.00003607,0.00000175,0.00000015,-0.00
 003683,0.00000233,-0.00000149,-0.00001006,0.00000015,-0.00002754,-0.00
 000648,0.00000577,-0.00000774,-0.00000961,0.00004052,-0.00007948,-0.00
 011615,0.00001192,0.00003580,-0.00000363,0.00004768,0.00002071,0.00000
 736,0.00002354,0.00001282,0.00002450,-0.00000452,0.,0.00000260,-0.0000
 4134,0.00001295,-0.00002670,-0.00001324,-0.00001488,0.00000386,0.00000
 608,-0.00004088,-0.00001415,0.00000245,-0.00000941,0.00000540,0.000000
 67,0.00000436,0.00000403,0.00000520,-0.00000392,0.00000487,0.00152046,
 0.00510195,0.00335066,-0.00104997,-0.00010540,-0.00020657,-0.00246144,
 0.00477171,0.00264284,0.00070479,0.00196052,0.00679285,-0.00026688,-0.
 00061418,-0.00051945,0.14817266,-0.18955229,0.05330643,-0.00140128,-0.
 00163799,-0.00289784,0.01907351,-0.00827519,0.00209062,0.00082353,-0.0
 0069842,0.00013843,-0.16304935,0.19071883,0.00053267,-0.00061226,0.000
 33040,-0.00007252,0.00002123,0.00006774,0.00005366,0.00002332,0.000043
 12,0.00000401,-0.00001285,-0.00003152,-0.00000931,0.00000285,-0.000030
 94,-0.00000391,0.00001222,-0.00000089,0.00000083,-0.00000871,0.0000062
 8,-0.00001256,0.00000191,-0.00001677,0.00002084,-0.00001473,0.00000794
 ,-0.00001295,-0.00001049,-0.00001743,0.00000132,-0.00000424,-0.0000010
 1,0.00000209,-0.00001268,-0.00000490,0.00000366,-0.00000402,0.00000139
 ,0.00016072,-0.00005370,-0.00025136,0.00000498,-0.00000332,0.00002093,
 0.00003915,0.00002369,0.00003188,0.00001605,-0.00000612,0.00004045,0.0
 0000900,-0.00000064,-0.00001676,-0.00003801,0.00001350,-0.00000405,0.0
 0000153,0.00000349,-0.00000130,0.00001738,-0.00004080,-0.00000594,0.00
 000553,-0.00000447,0.00000215,0.00000030,0.00000230,-0.00000191,0.0000
 0219,0.00000044,-0.00000199,0.00539372,0.00361452,0.00134479,0.0004276
 5,-0.00016846,-0.00101477,0.01664815,-0.01396302,0.00955640,0.00340539
 ,0.00657879,-0.00076495,-0.00034322,-0.00056169,-0.00040574,-0.0420055
 4,0.05340695,-0.07843696,-0.00210228,-0.00239993,-0.00114911,-0.022368
 23,0.01856785,0.00030217,-0.00102353,0.00081128,-0.00029289,0.04225788
 ,-0.06235616,0.07173368,-0.00008305,-0.00032864,-0.00036261,-0.0000274
 1,-0.00007313,0.00008770,0.00000023,-0.00001474,-0.00008849,0.00001266
 ,0.00002322,0.00000770,0.00003096,0.00004355,0.00001233,0.00000780,0.0
 0000845,0.00000689,0.00000234,-0.00000229,-0.00000703,-0.00002419,-0.0
 0002714,-0.00000643,-0.00002671,-0.00003384,-0.00001599,-0.00000616,-0
 .00000174,0.00001680,-0.00000638,-0.00000122,0.00001188,0.00000762,0.0
 0000885,0.00000362,-0.00000116,0.00000452,0.00001427,0.00003336,-0.000
 01371,0.00008778,-0.00006737,-0.00003322,-0.00001597,-0.00001486,0.000
 03544,0.00001350,0.00002210,-0.00002240,0.00001885,0.00001460,-0.00000
 791,-0.00001915,0.00000982,0.00002099,0.00001040,0.00001740,0.00000714
 ,0.00000855,-0.00000610,-0.00000350,-0.00001456,-0.00000634,0.00001322
 ,-0.00000315,-0.00001498,-0.00000999,-0.00001093,-0.00001487,0.0000046
 1,-0.00000735,0.00029344,0.00009402,-0.00097509,-0.00053155,0.00591307
 ,-0.00006750,0.00286935,0.00178592,0.00196996,-0.01514094,-0.00336917,
 0.01741910,-0.00093122,-0.00011234,0.00069283,0.00193194,0.00329068,-0
 .00148197,-0.00016115,0.00003586,0.00000269,-0.27867084,0.01028335,0.1
 4370622,0.00016809,-0.00132062,-0.00205032,0.00011498,-0.00210966,-0.0
 0101665,0.29019859,-0.00029479,-0.00044216,-0.00053223,0.00005391,-0.0
 0004964,0.00005030,0.00008570,0.00005353,-0.00007410,-0.00001486,-0.00
 001660,-0.00004309,-0.00002005,0.00000489,-0.00001652,0.00000424,0.000
 00872,-0.00000895,0.00000299,-0.00000494,0.00000213,0.00000497,0.00001
 027,-0.00000348,0.00002636,0.00000611,0.00002584,-0.00000107,-0.000005
 93,-0.00000429,-0.00000063,-0.00000301,-0.00000140,-0.00000030,-0.0000
 0672,-0.00000574,0.00000146,-0.00000012,-0.00000049,0.00003364,0.00001
 139,0.00001767,-0.00000336,0.00004676,-0.00002890,0.00000162,-0.000001
 49,-0.00005113,-0.00001978,0.00001506,-0.00001287,-0.00000593,-0.00000
 643,0.00000989,0.00000018,-0.00000650,-0.00000988,0.00000101,-0.000004
 24,0.00001316,-0.00000355,0.00000498,0.00000787,0.00000158,-0.00000299
 ,-0.00000169,-0.00000436,0.00000004,0.00000143,0.00000174,-0.00000023,
 0.00000209,0.00001119,-0.00121475,0.00025895,0.00549010,0.00120066,0.0
 0489104,0.00221961,0.00104334,0.00679200,0.02090701,0.00549651,-0.0143
 9479,0.00085286,-0.00000388,-0.00066273,-0.02114091,0.00587373,0.01337
 284,-0.00099793,-0.00003006,0.00058872,0.01029688,-0.06190219,0.008112
 76,-0.00222500,-0.00161662,-0.00226221,-0.00117690,-0.00147911,-0.0028
 4606,-0.01408762,0.05302161,-0.00018767,-0.00048693,-0.00043470,-0.000
 05339,-0.00011907,0.00008301,0.00014225,0.00005042,-0.00000563,-0.0000
 2292,-0.00004457,-0.00003704,0.00000418,-0.00001990,-0.00003947,-0.000
 00644,-0.00000244,-0.00000998,-0.00000747,-0.00000121,0.00000731,0.000
 01123,0.00002558,0.00001575,0.00001662,0.00003282,0.00001966,0.0000035
 0,0.00000133,-0.00002021,0.00000255,-0.00000126,-0.00001028,-0.0000046
 2,-0.00001827,-0.00000984,0.00000181,-0.00000465,-0.00000991,0.0000009
 9,-0.00002189,-0.00005408,0.00001552,0.00001398,0.00001857,0.00003413,
 0.00001259,-0.00000448,-0.00000010,0.00000291,0.00000749,-0.00000377,-
 0.00000119,-0.00000258,-0.00001057,-0.00000523,-0.00001567,-0.00000884
 ,-0.00001394,-0.00000068,0.00001053,-0.00000968,0.00000462,0.00000679,
 -0.00000725,-0.00000039,-0.00000004,0.00000148,0.00000571,0.00000488,-
 0.00000283,0.00000391,-0.00107029,0.00019768,-0.00041953,0.00044305,0.
 00464695,0.00357170,0.00152174,0.00704087,0.00001241,-0.00944146,0.002
 17641,0.00917104,-0.00040517,0.00001230,0.00017510,0.02510016,-0.00319
 307,-0.00839500,0.00107495,-0.00008976,-0.00067784,0.14384339,0.008113
 64,-0.15346881,-0.00103550,-0.00289755,-0.00116821,-0.00203216,-0.0022
 0213,-0.00103814,-0.15794786,-0.01318614,0.15272619||0.00001822,-0.000
 00722,0.00000176,-0.00000411,-0.00000435,-0.00000041,0.00003407,0.0000
 4187,-0.00002344,-0.00001894,0.00000196,0.00007388,-0.00002925,-0.0000
 5974,-0.00004607,-0.00002937,-0.00005347,-0.00004222,0.00000427,0.0000
 0363,-0.00000487,-0.00001403,0.00000309,0.00007464,0.00000137,0.000004
 95,-0.00000205,0.00004590,0.00005232,-0.00003276,0.00000394,0.00000584
 ,0.00000522,0.00000061,0.00000007,-0.00000647,-0.00000486,-0.00000580,
 0.00000326,0.00000006,0.00000538,-0.00000589,-0.00000410,0.00000149,-0
 .00000101,0.00000026,0.00000223,0.00000660,0.00000326,-0.00000131,0.00
 000643,-0.00000253,-0.00000014,0.00000093,-0.00000410,0.00000581,-0.00
 000257,-0.00000148,-0.00000055,0.00000006,0.00000063,-0.00000735,-0.00
 000447,0.00000154,-0.00000006,-0.00000072,0.00000027,-0.00000082,0.000
 00009,-0.00000026,-0.00000045,0.,-0.00003117,0.00004831,-0.00002569,-0
 .00002351,-0.00001942,0.00003831,0.00004957,-0.00001841,-0.00000784,0.
 00004575,-0.00002202,-0.00001348,0.00000957,-0.00000007,-0.00000142,-0
 .00003042,-0.00001855,0.00003438,-0.00000375,0.00000203,0.00000138,-0.
 00001693,0.00004018,-0.00002592,-0.00000310,0.00000195,0.00000089,0.00
 000209,0.00000156,-0.00000203,0.00000053,-0.00000293,0.00000151|||@


 NO MATTER HOW THIN YOU SLICE IT, IT'S STILL BALONEY

                                   -- ALFRED E. SMITH
 Job cpu time:  0 days  0 hours  6 minutes 23.0 seconds.
 File lengths (MBytes):  RWF=    350 Int=      0 D2E=      0 Chk=      7 Scr=      1
 Normal termination of Gaussian 09 at Tue Sep 07 04:47:55 2021.
