 Entering Link 1 = b:\programy\g09w\l1.exe PID=     17100.
  
 Copyright (c) 1988,1990,1992,1993,1995,1998,2003,2009, Gaussian, Inc.
                  All Rights Reserved.
  
 This is part of the Gaussian(R) 09 program.  It is based on
 the Gaussian(R) 03 system (copyright 2003, Gaussian, Inc.),
 the Gaussian(R) 98 system (copyright 1998, Gaussian, Inc.),
 the Gaussian(R) 94 system (copyright 1995, Gaussian, Inc.),
 the Gaussian 92(TM) system (copyright 1992, Gaussian, Inc.),
 the Gaussian 90(TM) system (copyright 1990, Gaussian, Inc.),
 the Gaussian 88(TM) system (copyright 1988, Gaussian, Inc.),
 the Gaussian 86(TM) system (copyright 1986, Carnegie Mellon
 University), and the Gaussian 82(TM) system (copyright 1983,
 Carnegie Mellon University). Gaussian is a federally registered
 trademark of Gaussian, Inc.
  
 This software contains proprietary and confidential information,
 including trade secrets, belonging to Gaussian, Inc.
  
 This software is provided under written license and may be
 used, copied, transmitted, or stored only in accord with that
 written license.
  
 The following legend is applicable only to US Government
 contracts under FAR:
  
                    RESTRICTED RIGHTS LEGEND
  
 Use, reproduction and disclosure by the US Government is
 subject to restrictions as set forth in subparagraphs (a)
 and (c) of the Commercial Computer Software - Restricted
 Rights clause in FAR 52.227-19.
  
 Gaussian, Inc.
 340 Quinnipiac St., Bldg. 40, Wallingford CT 06492
  
  
 ---------------------------------------------------------------
 Warning -- This program may not be used in any manner that
 competes with the business of Gaussian, Inc. or will provide
 assistance to any competitor of Gaussian, Inc.  The licensee
 of this program is prohibited from giving any competitor of
 Gaussian, Inc. access to this program.  By using this program,
 the user acknowledges that Gaussian, Inc. is engaged in the
 business of creating and licensing software in the field of
 computational chemistry and represents and warrants to the
 licensee that it is not a competitor of Gaussian, Inc. and that
 it will not use this program in any manner prohibited above.
 ---------------------------------------------------------------
  

 Cite this work as:
 Gaussian 09, Revision A.02,
 M. J. Frisch, G. W. Trucks, H. B. Schlegel, G. E. Scuseria, 
 M. A. Robb, J. R. Cheeseman, G. Scalmani, V. Barone, B. Mennucci, 
 G. A. Petersson, H. Nakatsuji, M. Caricato, X. Li, H. P. Hratchian, 
 A. F. Izmaylov, J. Bloino, G. Zheng, J. L. Sonnenberg, M. Hada, 
 M. Ehara, K. Toyota, R. Fukuda, J. Hasegawa, M. Ishida, T. Nakajima, 
 Y. Honda, O. Kitao, H. Nakai, T. Vreven, J. A. Montgomery, Jr., 
 J. E. Peralta, F. Ogliaro, M. Bearpark, J. J. Heyd, E. Brothers, 
 K. N. Kudin, V. N. Staroverov, R. Kobayashi, J. Normand, 
 K. Raghavachari, A. Rendell, J. C. Burant, S. S. Iyengar, J. Tomasi, 
 M. Cossi, N. Rega, J. M. Millam, M. Klene, J. E. Knox, J. B. Cross, 
 V. Bakken, C. Adamo, J. Jaramillo, R. Gomperts, R. E. Stratmann, 
 O. Yazyev, A. J. Austin, R. Cammi, C. Pomelli, J. W. Ochterski, 
 R. L. Martin, K. Morokuma, V. G. Zakrzewski, G. A. Voth, 
 P. Salvador, J. J. Dannenberg, S. Dapprich, A. D. Daniels, 
 O. Farkas, J. B. Foresman, J. V. Ortiz, J. Cioslowski, 
 and D. J. Fox, Gaussian, Inc., Wallingford CT, 2009.
 
 ******************************************
 Gaussian 09:  IA32W-G09RevA.02 11-Jun-2009
                07-Sep-2021 
 ******************************************
 %nprocshared=12
 Will use up to   12 processors via shared memory.
 ----------------------------------------------
 # opt freq=noraman hf/6-311g geom=connectivity
 ----------------------------------------------
 1/18=20,19=15,38=1,57=2/1,3;
 2/9=110,12=2,17=6,18=5,40=1/2;
 3/5=4,6=6,11=9,16=1,25=1,30=1,71=1/1,2,3;
 4//1;
 5/5=2,38=5/2;
 6/7=2,8=2,9=2,10=2,28=1/1;
 7//1,2,3,16;
 1/18=20,19=15/3(2);
 2/9=110/2;
 99//99;
 2/9=110/2;
 3/5=4,6=6,11=9,16=1,25=1,30=1,71=1/1,2,3;
 4/5=5,16=3/1;
 5/5=2,38=5/2;
 7//1,2,3,16;
 1/18=20,19=15/3(-5);
 2/9=110/2;
 6/7=2,8=2,9=2,10=2,19=2,28=1/1;
 99/9=1/99;
 -----
 M0001
 -----
 Symbolic Z-matrix:
 Charge =  0 Multiplicity = 1
 C                     0.        0.       -0.7956 
 H                     0.        0.       -1.91831 
 C                     1.39142  -0.38246  -0.35529 
 C                     2.1706   -1.1795   -1.19841 
 C                     1.91992   0.03384   0.8674 
 C                     3.45526  -1.55282  -0.82172 
 H                     1.76808  -1.51551  -2.16107 
 C                     3.20641  -0.33929   1.24052 
 H                     1.31623   0.66768   1.53029 
 C                     3.97592  -1.13342   0.39792 
 H                     4.0582   -2.17825  -1.48805 
 H                     3.61271  -0.00446   2.20045 
 H                     4.98849  -1.42682   0.69259 
 C                    -0.36449   1.39624  -0.35529 
 C                    -0.98927   1.64578   0.8674 
 C                    -0.06383   2.46955  -1.19841 
 C                    -1.30937   2.94648   1.24052 
 H                    -1.23634   0.80605   1.53029 
 C                    -0.38285   3.76876  -0.82172 
 H                     0.42843   2.28895  -2.16107 
 C                    -1.00639   4.00995   0.39792 
 H                    -1.80249   3.13093   2.20045 
 H                    -0.14268   4.60363  -1.48805 
 H                    -1.25858   5.03357   0.69259 
 C                    -1.02693  -1.01378  -0.35529 
 C                    -2.10678  -1.29005  -1.19841 
 C                    -0.93065  -1.67962   0.8674 
 C                    -3.07242  -2.21593  -0.82172 
 H                    -2.19651  -0.77344  -2.16107 
 C                    -1.89704  -2.60719   1.24052 
 H                    -0.07989  -1.47373   1.53029 
 C                    -2.96953  -2.87654   0.39792 
 H                    -3.91552  -2.42538  -1.48805 
 H                    -1.81022  -3.12647   2.20045 
 H                    -3.72991  -3.60674   0.69259 
 

 GradGradGradGradGradGradGradGradGradGradGradGradGradGradGradGradGradGrad
 Berny optimization.
 Initialization pass.
                           ----------------------------
                           !    Initial Parameters    !
                           ! (Angstroms and Degrees)  !
 --------------------------                            --------------------------
 ! Name  Definition              Value          Derivative Info.                !
 --------------------------------------------------------------------------------
 ! R1    R(1,2)                  1.1227         estimate D2E/DX2                !
 ! R2    R(1,3)                  1.5087         estimate D2E/DX2                !
 ! R3    R(1,14)                 1.5087         estimate D2E/DX2                !
 ! R4    R(1,25)                 1.5087         estimate D2E/DX2                !
 ! R5    R(3,4)                  1.3976         estimate D2E/DX2                !
 ! R6    R(3,5)                  1.3956         estimate D2E/DX2                !
 ! R7    R(4,6)                  1.3898         estimate D2E/DX2                !
 ! R8    R(4,7)                  1.0962         estimate D2E/DX2                !
 ! R9    R(5,8)                  1.3905         estimate D2E/DX2                !
 ! R10   R(5,9)                  1.098          estimate D2E/DX2                !
 ! R11   R(6,10)                 1.3909         estimate D2E/DX2                !
 ! R12   R(6,11)                 1.0948         estimate D2E/DX2                !
 ! R13   R(8,10)                 1.3902         estimate D2E/DX2                !
 ! R14   R(8,12)                 1.0948         estimate D2E/DX2                !
 ! R15   R(10,13)                1.0946         estimate D2E/DX2                !
 ! R16   R(14,15)                1.3956         estimate D2E/DX2                !
 ! R17   R(14,16)                1.3976         estimate D2E/DX2                !
 ! R18   R(15,17)                1.3905         estimate D2E/DX2                !
 ! R19   R(15,18)                1.098          estimate D2E/DX2                !
 ! R20   R(16,19)                1.3898         estimate D2E/DX2                !
 ! R21   R(16,20)                1.0962         estimate D2E/DX2                !
 ! R22   R(17,21)                1.3902         estimate D2E/DX2                !
 ! R23   R(17,22)                1.0948         estimate D2E/DX2                !
 ! R24   R(19,21)                1.3909         estimate D2E/DX2                !
 ! R25   R(19,23)                1.0948         estimate D2E/DX2                !
 ! R26   R(21,24)                1.0946         estimate D2E/DX2                !
 ! R27   R(25,26)                1.3976         estimate D2E/DX2                !
 ! R28   R(25,27)                1.3956         estimate D2E/DX2                !
 ! R29   R(26,28)                1.3898         estimate D2E/DX2                !
 ! R30   R(26,29)                1.0962         estimate D2E/DX2                !
 ! R31   R(27,30)                1.3905         estimate D2E/DX2                !
 ! R32   R(27,31)                1.098          estimate D2E/DX2                !
 ! R33   R(28,32)                1.3909         estimate D2E/DX2                !
 ! R34   R(28,33)                1.0948         estimate D2E/DX2                !
 ! R35   R(30,32)                1.3902         estimate D2E/DX2                !
 ! R36   R(30,34)                1.0948         estimate D2E/DX2                !
 ! R37   R(32,35)                1.0946         estimate D2E/DX2                !
 ! A1    A(2,1,3)              106.9688         estimate D2E/DX2                !
 ! A2    A(2,1,14)             106.9688         estimate D2E/DX2                !
 ! A3    A(2,1,25)             106.9688         estimate D2E/DX2                !
 ! A4    A(3,1,14)             111.8535         estimate D2E/DX2                !
 ! A5    A(3,1,25)             111.8535         estimate D2E/DX2                !
 ! A6    A(14,1,25)            111.8535         estimate D2E/DX2                !
 ! A7    A(1,3,4)              118.8607         estimate D2E/DX2                !
 ! A8    A(1,3,5)              121.9608         estimate D2E/DX2                !
 ! A9    A(4,3,5)              119.1784         estimate D2E/DX2                !
 ! A10   A(3,4,6)              120.3325         estimate D2E/DX2                !
 ! A11   A(3,4,7)              119.9913         estimate D2E/DX2                !
 ! A12   A(6,4,7)              119.676          estimate D2E/DX2                !
 ! A13   A(3,5,8)              120.3593         estimate D2E/DX2                !
 ! A14   A(3,5,9)              119.533          estimate D2E/DX2                !
 ! A15   A(8,5,9)              120.1049         estimate D2E/DX2                !
 ! A16   A(4,6,10)             120.1775         estimate D2E/DX2                !
 ! A17   A(4,6,11)             119.8365         estimate D2E/DX2                !
 ! A18   A(10,6,11)            119.9861         estimate D2E/DX2                !
 ! A19   A(5,8,10)             120.1823         estimate D2E/DX2                !
 ! A20   A(5,8,12)             119.7719         estimate D2E/DX2                !
 ! A21   A(10,8,12)            120.0457         estimate D2E/DX2                !
 ! A22   A(6,10,8)             119.77           estimate D2E/DX2                !
 ! A23   A(6,10,13)            120.0997         estimate D2E/DX2                !
 ! A24   A(8,10,13)            120.1303         estimate D2E/DX2                !
 ! A25   A(1,14,15)            121.9608         estimate D2E/DX2                !
 ! A26   A(1,14,16)            118.8607         estimate D2E/DX2                !
 ! A27   A(15,14,16)           119.1784         estimate D2E/DX2                !
 ! A28   A(14,15,17)           120.3593         estimate D2E/DX2                !
 ! A29   A(14,15,18)           119.533          estimate D2E/DX2                !
 ! A30   A(17,15,18)           120.1049         estimate D2E/DX2                !
 ! A31   A(14,16,19)           120.3325         estimate D2E/DX2                !
 ! A32   A(14,16,20)           119.9913         estimate D2E/DX2                !
 ! A33   A(19,16,20)           119.676          estimate D2E/DX2                !
 ! A34   A(15,17,21)           120.1823         estimate D2E/DX2                !
 ! A35   A(15,17,22)           119.7719         estimate D2E/DX2                !
 ! A36   A(21,17,22)           120.0457         estimate D2E/DX2                !
 ! A37   A(16,19,21)           120.1775         estimate D2E/DX2                !
 ! A38   A(16,19,23)           119.8365         estimate D2E/DX2                !
 ! A39   A(21,19,23)           119.9861         estimate D2E/DX2                !
 ! A40   A(17,21,19)           119.77           estimate D2E/DX2                !
 ! A41   A(17,21,24)           120.1303         estimate D2E/DX2                !
 ! A42   A(19,21,24)           120.0997         estimate D2E/DX2                !
 ! A43   A(1,25,26)            118.8607         estimate D2E/DX2                !
 ! A44   A(1,25,27)            121.9608         estimate D2E/DX2                !
 ! A45   A(26,25,27)           119.1784         estimate D2E/DX2                !
 ! A46   A(25,26,28)           120.3325         estimate D2E/DX2                !
 ! A47   A(25,26,29)           119.9913         estimate D2E/DX2                !
 ! A48   A(28,26,29)           119.676          estimate D2E/DX2                !
 ! A49   A(25,27,30)           120.3593         estimate D2E/DX2                !
 ! A50   A(25,27,31)           119.533          estimate D2E/DX2                !
 ! A51   A(30,27,31)           120.1049         estimate D2E/DX2                !
 ! A52   A(26,28,32)           120.1775         estimate D2E/DX2                !
 ! A53   A(26,28,33)           119.8365         estimate D2E/DX2                !
 ! A54   A(32,28,33)           119.9861         estimate D2E/DX2                !
 ! A55   A(27,30,32)           120.1823         estimate D2E/DX2                !
 ! A56   A(27,30,34)           119.7719         estimate D2E/DX2                !
 ! A57   A(32,30,34)           120.0457         estimate D2E/DX2                !
 ! A58   A(28,32,30)           119.77           estimate D2E/DX2                !
 ! A59   A(28,32,35)           120.0997         estimate D2E/DX2                !
 ! A60   A(30,32,35)           120.1303         estimate D2E/DX2                !
 ! D1    D(2,1,3,4)            -27.3336         estimate D2E/DX2                !
 ! D2    D(2,1,3,5)            152.7847         estimate D2E/DX2                !
 ! D3    D(14,1,3,4)          -144.1501         estimate D2E/DX2                !
 ! D4    D(14,1,3,5)            35.9681         estimate D2E/DX2                !
 ! D5    D(25,1,3,4)            89.483          estimate D2E/DX2                !
 ! D6    D(25,1,3,5)           -90.3987         estimate D2E/DX2                !
 ! D7    D(2,1,14,15)          152.7847         estimate D2E/DX2                !
 ! D8    D(2,1,14,16)          -27.3336         estimate D2E/DX2                !
 ! D9    D(3,1,14,15)          -90.3987         estimate D2E/DX2                !
 ! D10   D(3,1,14,16)           89.483          estimate D2E/DX2                !
 ! D11   D(25,1,14,15)          35.9681         estimate D2E/DX2                !
 ! D12   D(25,1,14,16)        -144.1501         estimate D2E/DX2                !
 ! D13   D(2,1,25,26)          -27.3336         estimate D2E/DX2                !
 ! D14   D(2,1,25,27)          152.7847         estimate D2E/DX2                !
 ! D15   D(3,1,25,26)         -144.1501         estimate D2E/DX2                !
 ! D16   D(3,1,25,27)           35.9681         estimate D2E/DX2                !
 ! D17   D(14,1,25,26)          89.483          estimate D2E/DX2                !
 ! D18   D(14,1,25,27)         -90.3987         estimate D2E/DX2                !
 ! D19   D(1,3,4,6)           -179.8334         estimate D2E/DX2                !
 ! D20   D(1,3,4,7)              0.0066         estimate D2E/DX2                !
 ! D21   D(5,3,4,6)              0.0517         estimate D2E/DX2                !
 ! D22   D(5,3,4,7)            179.8917         estimate D2E/DX2                !
 ! D23   D(1,3,5,8)            179.9435         estimate D2E/DX2                !
 ! D24   D(1,3,5,9)             -0.6677         estimate D2E/DX2                !
 ! D25   D(4,3,5,8)              0.0622         estimate D2E/DX2                !
 ! D26   D(4,3,5,9)            179.4509         estimate D2E/DX2                !
 ! D27   D(3,4,6,10)            -0.1001         estimate D2E/DX2                !
 ! D28   D(3,4,6,11)           179.9376         estimate D2E/DX2                !
 ! D29   D(7,4,6,10)          -179.9406         estimate D2E/DX2                !
 ! D30   D(7,4,6,11)             0.0971         estimate D2E/DX2                !
 ! D31   D(3,5,8,10)            -0.1282         estimate D2E/DX2                !
 ! D32   D(3,5,8,12)           179.7942         estimate D2E/DX2                !
 ! D33   D(9,5,8,10)          -179.5135         estimate D2E/DX2                !
 ! D34   D(9,5,8,12)             0.4089         estimate D2E/DX2                !
 ! D35   D(4,6,10,8)             0.0342         estimate D2E/DX2                !
 ! D36   D(4,6,10,13)         -179.8986         estimate D2E/DX2                !
 ! D37   D(11,6,10,8)          179.9965         estimate D2E/DX2                !
 ! D38   D(11,6,10,13)           0.0637         estimate D2E/DX2                !
 ! D39   D(5,8,10,6)             0.0796         estimate D2E/DX2                !
 ! D40   D(5,8,10,13)         -179.9876         estimate D2E/DX2                !
 ! D41   D(12,8,10,6)         -179.8425         estimate D2E/DX2                !
 ! D42   D(12,8,10,13)           0.0902         estimate D2E/DX2                !
 ! D43   D(1,14,15,17)         179.9435         estimate D2E/DX2                !
 ! D44   D(1,14,15,18)          -0.6677         estimate D2E/DX2                !
 ! D45   D(16,14,15,17)          0.0622         estimate D2E/DX2                !
 ! D46   D(16,14,15,18)        179.4509         estimate D2E/DX2                !
 ! D47   D(1,14,16,19)        -179.8334         estimate D2E/DX2                !
 ! D48   D(1,14,16,20)           0.0066         estimate D2E/DX2                !
 ! D49   D(15,14,16,19)          0.0517         estimate D2E/DX2                !
 ! D50   D(15,14,16,20)        179.8917         estimate D2E/DX2                !
 ! D51   D(14,15,17,21)         -0.1282         estimate D2E/DX2                !
 ! D52   D(14,15,17,22)        179.7942         estimate D2E/DX2                !
 ! D53   D(18,15,17,21)       -179.5135         estimate D2E/DX2                !
 ! D54   D(18,15,17,22)          0.4089         estimate D2E/DX2                !
 ! D55   D(14,16,19,21)         -0.1001         estimate D2E/DX2                !
 ! D56   D(14,16,19,23)        179.9376         estimate D2E/DX2                !
 ! D57   D(20,16,19,21)       -179.9406         estimate D2E/DX2                !
 ! D58   D(20,16,19,23)          0.0971         estimate D2E/DX2                !
 ! D59   D(15,17,21,19)          0.0797         estimate D2E/DX2                !
 ! D60   D(15,17,21,24)       -179.9876         estimate D2E/DX2                !
 ! D61   D(22,17,21,19)       -179.8425         estimate D2E/DX2                !
 ! D62   D(22,17,21,24)          0.0902         estimate D2E/DX2                !
 ! D63   D(16,19,21,17)          0.0342         estimate D2E/DX2                !
 ! D64   D(16,19,21,24)       -179.8986         estimate D2E/DX2                !
 ! D65   D(23,19,21,17)        179.9965         estimate D2E/DX2                !
 ! D66   D(23,19,21,24)          0.0637         estimate D2E/DX2                !
 ! D67   D(1,25,26,28)        -179.8334         estimate D2E/DX2                !
 ! D68   D(1,25,26,29)           0.0066         estimate D2E/DX2                !
 ! D69   D(27,25,26,28)          0.0517         estimate D2E/DX2                !
 ! D70   D(27,25,26,29)        179.8917         estimate D2E/DX2                !
 ! D71   D(1,25,27,30)         179.9435         estimate D2E/DX2                !
 ! D72   D(1,25,27,31)          -0.6677         estimate D2E/DX2                !
 ! D73   D(26,25,27,30)          0.0622         estimate D2E/DX2                !
 ! D74   D(26,25,27,31)        179.4509         estimate D2E/DX2                !
 ! D75   D(25,26,28,32)         -0.1001         estimate D2E/DX2                !
 ! D76   D(25,26,28,33)        179.9376         estimate D2E/DX2                !
 ! D77   D(29,26,28,32)       -179.9406         estimate D2E/DX2                !
 ! D78   D(29,26,28,33)          0.0971         estimate D2E/DX2                !
 ! D79   D(25,27,30,32)         -0.1282         estimate D2E/DX2                !
 ! D80   D(25,27,30,34)        179.7942         estimate D2E/DX2                !
 ! D81   D(31,27,30,32)       -179.5135         estimate D2E/DX2                !
 ! D82   D(31,27,30,34)          0.4089         estimate D2E/DX2                !
 ! D83   D(26,28,32,30)          0.0342         estimate D2E/DX2                !
 ! D84   D(26,28,32,35)       -179.8986         estimate D2E/DX2                !
 ! D85   D(33,28,32,30)        179.9965         estimate D2E/DX2                !
 ! D86   D(33,28,32,35)          0.0637         estimate D2E/DX2                !
 ! D87   D(27,30,32,28)          0.0797         estimate D2E/DX2                !
 ! D88   D(27,30,32,35)       -179.9876         estimate D2E/DX2                !
 ! D89   D(34,30,32,28)       -179.8425         estimate D2E/DX2                !
 ! D90   D(34,30,32,35)          0.0902         estimate D2E/DX2                !
 --------------------------------------------------------------------------------
 Trust Radius=3.00D-01 FncErr=1.00D-07 GrdErr=1.00D-07
 Number of steps in this run= 197 maximum allowed number of steps= 210.
 GradGradGradGradGradGradGradGradGradGradGradGradGradGradGradGradGradGrad

                          Input orientation:                          
 ---------------------------------------------------------------------
 Center     Atomic      Atomic             Coordinates (Angstroms)
 Number     Number       Type             X           Y           Z
 ---------------------------------------------------------------------
      1          6           0        0.000000    0.000000   -0.795605
      2          1           0        0.000000    0.000000   -1.918306
      3          6           0        1.391422   -0.382458   -0.355287
      4          6           0        2.170602   -1.179498   -1.198408
      5          6           0        1.919922    0.033845    0.867397
      6          6           0        3.455261   -1.552824   -0.821722
      7          1           0        1.768076   -1.515509   -2.161068
      8          6           0        3.206411   -0.339293    1.240519
      9          1           0        1.316226    0.667680    1.530294
     10          6           0        3.975916   -1.133417    0.397920
     11          1           0        4.058196   -2.178251   -1.488052
     12          1           0        3.612709   -0.004461    2.200454
     13          1           0        4.988487   -1.426824    0.692592
     14          6           0       -0.364493    1.396235   -0.355287
     15          6           0       -0.989271    1.645779    0.867397
     16          6           0       -0.063826    2.469545   -1.198408
     17          6           0       -1.309369    2.946480    1.240519
     18          1           0       -1.236341    0.806045    1.530294
     19          6           0       -0.382846    3.768756   -0.821722
     20          1           0        0.428431    2.288953   -2.161068
     21          6           0       -1.006390    4.009953    0.397920
     22          1           0       -1.802491    3.130928    2.200454
     23          1           0       -0.142678    4.603626   -1.488052
     24          1           0       -1.258578    5.033568    0.692592
     25          6           0       -1.026929   -1.013778   -0.355287
     26          6           0       -2.106776   -1.290047   -1.198408
     27          6           0       -0.930651   -1.679624    0.867397
     28          6           0       -3.072415   -2.215932   -0.821722
     29          1           0       -2.196507   -0.773445   -2.161068
     30          6           0       -1.897042   -2.607187    1.240519
     31          1           0       -0.079885   -1.473725    1.530294
     32          6           0       -2.969526   -2.876536    0.397920
     33          1           0       -3.915518   -2.425376   -1.488052
     34          1           0       -1.810218   -3.126468    2.200454
     35          1           0       -3.729909   -3.606744    0.692592
 ---------------------------------------------------------------------
                    Distance matrix (angstroms):
                    1          2          3          4          5
     1  C    0.000000
     2  H    1.122701   0.000000
     3  C    1.508711   2.127288   0.000000
     4  C    2.502994   2.573126   1.397586   0.000000
     5  C    2.540240   3.383399   1.395556   2.408856   0.000000
     6  C    3.788241   3.943677   2.418006   1.389825   2.779911
     7  H    2.699509   2.341323   2.164836   1.096195   3.405165
     8  C    3.813396   4.513797   2.417157   2.779786   1.390505
     9  H    2.754643   3.751146   2.159598   3.404092   1.098012
    10  C    4.303144   4.738929   2.794794   2.410300   2.410398
    11  H    4.657597   4.625889   3.408770   2.155090   3.874754
    12  H    4.693405   5.478674   3.407171   3.874616   2.155002
    13  H    5.397736   5.808409   3.889425   3.402577   3.402969
    14  C    1.508711   2.127288   2.499397   3.711059   2.927391
    15  C    2.540240   3.383399   3.358035   4.715351   3.325920
    16  C    2.502994   2.573126   3.310969   4.278806   3.759713
    17  C    3.813396   4.513797   4.574133   5.923027   4.364744
    18  H    2.754643   3.751146   3.445736   4.795358   3.316282
    19  C    3.788241   3.943677   4.538519   5.580968   4.701641
    20  H    2.699509   2.341323   3.365209   3.999003   4.059761
    21  C    4.303144   4.738929   5.060642   6.290623   4.959148
    22  H    4.693405   5.478674   5.392288   6.776246   5.022483
    23  H    4.657597   4.625889   5.338319   6.235357   5.539437
    24  H    5.397736   5.808409   6.119958   7.344205   5.927112
    25  C    1.508711   2.127288   2.499397   3.310969   3.358035
    26  C    2.502994   2.573127   3.711059   4.278806   4.715351
    27  C    2.540240   3.383399   2.927391   3.759713   3.325920
    28  C    3.788241   3.943677   4.848199   5.357734   5.730450
    29  H    2.699509   2.341323   4.035709   4.490349   5.173809
    30  C    3.813396   4.513797   4.279020   4.953018   4.656553
    31  H    2.754643   3.751146   2.628884   3.549236   2.590643
    32  C    4.303144   4.738929   5.079923   5.643502   5.709416
    33  H    4.657597   4.625889   5.798300   6.219080   6.756350
    34  H    4.693405   5.478674   4.930710   5.584790   5.067402
    35  H    5.397736   5.808409   6.141833   6.654580   6.723469
                    6          7          8          9         10
     6  C    0.000000
     7  H    2.154491   0.000000
     8  C    2.405706   3.875962   0.000000
     9  H    3.877897   4.312381   2.161195   0.000000
    10  C    1.390867   3.401319   1.390232   3.405903   0.000000
    11  H    1.094845   2.477261   3.398883   4.972739   2.157623
    12  H    3.399377   4.970795   1.094836   2.484898   2.157682
    13  H    2.158658   4.303752   2.158412   4.309778   1.094631
    14  C    4.848199   4.035709   4.279020   2.628884   5.079923
    15  C    5.730450   5.173809   4.656553   2.590643   5.709416
    16  C    5.357734   4.490349   4.953018   3.549236   5.643502
    17  C    6.870100   6.399281   5.584673   3.488646   6.729768
    18  H    5.753901   5.295497   4.597153   2.556315   5.675510
    19  C    6.561271   5.860355   5.831952   4.246822   6.672154
    20  H    5.070976   4.033433   5.118168   4.128300   5.553890
    21  C    7.234524   6.691548   6.113396   4.224643   7.160841
    22  H    7.662574   7.304875   6.168713   4.030274   7.404307
    23  H    7.161776   6.445754   6.564598   5.170154   7.309814
    24  H    8.239780   7.758506   7.007424   5.137348   8.094348
    25  C    4.538519   3.365209   4.574133   3.445736   5.060642
    26  C    5.580968   3.999003   5.923027   4.795358   6.290623
    27  C    4.701641   4.059761   4.364744   3.316282   4.959148
    28  C    6.561271   5.070976   6.870100   5.753901   7.234525
    29  H    5.860355   4.033433   6.399281   5.295497   6.691548
    30  C    5.831952   5.118168   5.584673   4.597153   6.113396
    31  H    4.246822   4.128300   3.488646   2.556315   4.224643
    32  C    6.672154   5.553890   6.729768   5.675510   7.160841
    33  H    7.452096   5.795175   7.906878   6.785909   8.215886
    34  H    6.271776   5.867047   5.818624   4.961786   6.379712
    35  H    7.624855   6.537926   7.686937   6.666028   8.098390
                   11         12         13         14         15
    11  H    0.000000
    12  H    4.304521   0.000000
    13  H    2.487024   2.487877   0.000000
    14  C    5.798300   4.930710   6.141833   0.000000
    15  C    6.756350   5.067401   6.723469   1.395556   0.000000
    16  C    6.219080   5.584790   6.654580   1.397586   2.408856
    17  C    7.906878   5.818624   7.686937   2.417157   1.390505
    18  H    6.785909   4.961786   6.666028   2.159598   1.098012
    19  C    7.452096   6.271776   7.624855   2.418006   2.779911
    20  H    5.795175   5.867047   6.537926   2.164836   3.405165
    21  C    8.215886   6.379712   8.098390   2.794794   2.410398
    22  H    8.725830   6.257401   8.316498   3.407171   2.155003
    23  H    7.977543   6.995890   8.212818   3.408770   3.874754
    24  H    9.221368   7.168321   8.986795   3.889425   3.402969
    25  C    5.338319   5.392288   6.119958   2.499397   2.927391
    26  C    6.235357   6.776246   7.344205   3.310969   3.759713
    27  C    5.539437   5.022483   5.927112   3.358035   3.325920
    28  C    7.161776   7.662574   8.239780   4.538519   4.701641
    29  H    6.445754   7.304875   7.758506   3.365209   4.059761
    30  C    6.564598   6.168713   7.007424   4.574133   4.364744
    31  H    5.170154   4.030274   5.137348   3.445736   3.316282
    32  C    7.309814   7.404307   8.094348   5.060642   4.959148
    33  H    7.977543   8.725830   9.221368   5.338319   5.539437
    34  H    6.995890   6.257401   7.168321   5.392288   5.022483
    35  H    8.212818   8.316498   8.986795   6.119958   5.927112
                   16         17         18         19         20
    16  C    0.000000
    17  C    2.779786   0.000000
    18  H    3.404092   2.161195   0.000000
    19  C    1.389825   2.405706   3.877897   0.000000
    20  H    1.096195   3.875962   4.312381   2.154491   0.000000
    21  C    2.410300   1.390232   3.405903   1.390867   3.401319
    22  H    3.874616   1.094836   2.484898   3.399377   4.970795
    23  H    2.155090   3.398882   4.972739   1.094845   2.477261
    24  H    3.402576   2.158412   4.309778   2.158658   4.303752
    25  C    3.711059   4.279020   2.628884   4.848199   4.035709
    26  C    4.278806   4.953018   3.549236   5.357734   4.490349
    27  C    4.715351   4.656553   2.590643   5.730450   5.173809
    28  C    5.580968   5.831952   4.246822   6.561271   5.860355
    29  H    3.999003   5.118168   4.128300   5.070976   4.033433
    30  C    5.923027   5.584673   3.488646   6.870100   6.399281
    31  H    4.795358   4.597153   2.556315   5.753901   5.295497
    32  C    6.290623   6.113396   4.224643   7.234525   6.691548
    33  H    6.235357   6.564598   5.170154   7.161776   6.445754
    34  H    6.776246   6.168713   4.030274   7.662574   7.304875
    35  H    7.344205   7.007424   5.137348   8.239780   7.758506
                   21         22         23         24         25
    21  C    0.000000
    22  H    2.157682   0.000000
    23  H    2.157623   4.304521   0.000000
    24  H    1.094631   2.487877   2.487024   0.000000
    25  C    5.079923   4.930710   5.798300   6.141832   0.000000
    26  C    5.643502   5.584790   6.219080   6.654580   1.397586
    27  C    5.709416   5.067402   6.756350   6.723469   1.395556
    28  C    6.672154   6.271776   7.452096   7.624855   2.418006
    29  H    5.553890   5.867047   5.795175   6.537926   2.164836
    30  C    6.729768   5.818624   7.906878   7.686937   2.417157
    31  H    5.675510   4.961786   6.785909   6.666028   2.159598
    32  C    7.160841   6.379712   8.215886   8.098390   2.794794
    33  H    7.309814   6.995890   7.977543   8.212818   3.408770
    34  H    7.404307   6.257401   8.725830   8.316498   3.407171
    35  H    8.094348   7.168321   9.221368   8.986795   3.889425
                   26         27         28         29         30
    26  C    0.000000
    27  C    2.408856   0.000000
    28  C    1.389825   2.779911   0.000000
    29  H    1.096195   3.405165   2.154491   0.000000
    30  C    2.779786   1.390505   2.405706   3.875962   0.000000
    31  H    3.404092   1.098012   3.877898   4.312381   2.161195
    32  C    2.410300   2.410398   1.390867   3.401319   1.390232
    33  H    2.155090   3.874754   1.094845   2.477261   3.398883
    34  H    3.874616   2.155003   3.399377   4.970795   1.094836
    35  H    3.402576   3.402969   2.158658   4.303752   2.158412
                   31         32         33         34         35
    31  H    0.000000
    32  C    3.405903   0.000000
    33  H    4.972739   2.157623   0.000000
    34  H    2.484898   2.157682   4.304521   0.000000
    35  H    4.309778   1.094631   2.487024   2.487877   0.000000
 Stoichiometry    C19H16
 Framework group  C3[C3(CH),X(C18H15)]
 Deg. of freedom    33
 Full point group                 C3      NOp   3
 Largest Abelian subgroup         C1      NOp   1
 Largest concise Abelian subgroup C1      NOp   1
                         Standard orientation:                         
 ---------------------------------------------------------------------
 Center     Atomic      Atomic             Coordinates (Angstroms)
 Number     Number       Type             X           Y           Z
 ---------------------------------------------------------------------
      1          6           0        0.000000    0.000000    0.780053
      2          1           0        0.000000    0.000000    1.902754
      3          6           0        0.000000    1.443028    0.339735
      4          6           0       -0.562024    2.405588    1.182856
      5          6           0        0.541487    1.842292   -0.882949
      6          6           0       -0.581515    3.743251    0.806170
      7          1           0       -0.992703    2.106514    2.145516
      8          6           0        0.522662    3.181669   -1.256071
      9          1           0        0.992653    1.092195   -1.545846
     10          6           0       -0.039114    4.134128   -0.413472
     11          1           0       -1.024774    4.490386    1.472500
     12          1           0        0.953205    3.484693   -2.216006
     13          1           0       -0.053658    5.188251   -0.708144
     14          6           0        1.249699   -0.721514    0.339735
     15          6           0        1.324728   -1.390087   -0.882949
     16          6           0        2.364313   -0.716067    1.182856
     17          6           0        2.494075   -2.043473   -1.256071
     18          1           0        0.449542   -1.405760   -1.545846
     19          6           0        3.532508   -1.368019    0.806170
     20          1           0        2.320646   -0.193551    2.145516
     21          6           0        3.599817   -2.033190   -0.413472
     22          1           0        2.541230   -2.567846   -2.216006
     23          1           0        4.401176   -1.357712    1.472500
     24          1           0        4.519986   -2.547656   -0.708144
     25          6           0       -1.249699   -0.721514    0.339735
     26          6           0       -1.802289   -1.689521    1.182856
     27          6           0       -1.866215   -0.452204   -0.882949
     28          6           0       -2.950993   -2.375233    0.806170
     29          1           0       -1.327943   -1.912963    2.145516
     30          6           0       -3.016737   -1.138195   -1.256071
     31          1           0       -1.442195    0.313565   -1.545846
     32          6           0       -3.560703   -2.100938   -0.413472
     33          1           0       -3.376401   -3.132674    1.472500
     34          1           0       -3.494435   -0.916847   -2.216006
     35          1           0       -4.466328   -2.640595   -0.708144
 ---------------------------------------------------------------------
 Rotational constants (GHZ):      0.3903328      0.3903328      0.2359845
 Standard basis: 6-311G (5D, 7F)
 There are   295 symmetry adapted basis functions of A   symmetry.
 Integral buffers will be    262144 words long.
 Raffenetti 1 integral format.
 Two-electron integral symmetry is turned on.
   295 basis functions,   574 primitive gaussians,   295 cartesian basis functions
    65 alpha electrons       65 beta electrons
       nuclear repulsion energy      1290.4533311067 Hartrees.
 NAtoms=   35 NActive=   35 NUniq=   13 SFac= 3.00D+00 NAtFMM=   80 NAOKFM=F Big=F
 One-electron integrals computed using PRISM.
 PrsmSu:  requested number of processors reduced to:  10 ShMem   1 Linda.
 NBasis=   295 RedAO= T  NBF=   295
 NBsUse=   295 1.00D-06 NBFU=   295
 Harris functional with IExCor=  205 diagonalized for initial guess.
 ExpMin= 1.03D-01 ExpMax= 4.56D+03 ExpMxC= 6.82D+02 IAcc=1 IRadAn=         1 AccDes= 0.00D+00
 HarFok:  IExCor=  205 AccDes= 0.00D+00 IRadAn=         1 IDoV= 1
 ScaDFX=  1.000000  1.000000  1.000000  1.000000
 FoFCou: FMM=F IPFlag=           0 FMFlag=      100000 FMFlg1=           0
         NFxFlg=           0 DoJE=T BraDBF=F KetDBF=T FulRan=T
         Omega=  0.000000  0.000000  1.000000  0.000000  0.000000 ICntrl=     500 IOpCl=  0
         NMat0=    1 NMatS0=    1 NMatT0=    0 NMatD0=    1 NMtDS0=    0 NMtDT0=    0
         I1Cent=           4 NGrid=           0.
 Petite list used in FoFCou.
 Initial guess orbital symmetries:
       Occupied  (E) (E) (A) (A) (E) (E) (A) (E) (E) (E) (E) (A)
                 (E) (E) (A) (E) (E) (A) (A) (A) (E) (E) (A) (A)
                 (E) (E) (E) (E) (A) (A) (E) (E) (E) (E) (A) (E)
                 (E) (A) (A) (E) (E) (E) (E) (A) (E) (E) (A) (E)
                 (E) (A) (E) (E) (A) (A) (E) (E) (E) (E) (A) (E)
                 (E) (A) (E) (E) (A)
       Virtual   (E) (E) (A) (E) (E) (A) (A) (A) (E) (E) (E) (E)
                 (A) (A) (E) (E) (E) (E) (A) (A) (E) (E) (E) (E)
                 (A) (A) (E) (E) (A) (E) (E) (A) (E) (E) (E) (E)
                 (A) (E) (E) (A) (E) (E) (A) (E) (E) (A) (A) (E)
                 (E) (E) (E) (A) (A) (E) (E) (A) (E) (E) (E) (E)
                 (A) (E) (E) (A) (E) (E) (A) (A) (E) (E) (E) (E)
                 (A) (A) (E) (E) (A) (A) (E) (E) (A) (E) (E) (A)
                 (E) (E) (A) (A) (E) (E) (E) (E) (A) (E) (E) (A)
                 (E) (E) (A) (E) (E) (A) (E) (E) (E) (E) (A) (E)
                 (E) (A) (E) (E) (E) (E) (A) (A) (E) (E) (A) (E)
                 (E) (A) (A) (E) (E) (E) (E) (A) (E) (E) (A) (A)
                 (E) (E) (A) (E) (E) (A) (E) (E) (A) (A) (E) (E)
                 (E) (E) (A) (A) (E) (E) (A) (E) (E) (A) (E) (E)
                 (A) (E) (E) (E) (E) (A) (A) (A) (E) (E) (A) (E)
                 (E) (A) (E) (E) (A) (E) (E) (A) (E) (E) (E) (E)
                 (A) (A) (E) (E) (E) (E) (A) (E) (E) (E) (E) (A)
                 (E) (E) (A) (A) (E) (E) (E) (E) (E) (E) (A) (A)
                 (E) (E) (A) (A) (E) (E) (A) (A) (E) (E) (E) (E)
                 (A) (A) (E) (E) (A) (E) (E) (A) (E) (E) (A) (A)
                 (E) (E)
 The electronic state of the initial guess is 1-A.
 Requested convergence on RMS density matrix=1.00D-08 within 128 cycles.
 Requested convergence on MAX density matrix=1.00D-06.
 Requested convergence on             energy=1.00D-06.
 No special actions if energy rises.
 Integral accuracy reduced to 1.0D-05 until final iterations.
 Initial convergence to 1.0D-05 achieved.  Increase integral accuracy.
 SCF Done:  E(RHF) =  -728.678005200     A.U. after   14 cycles
             Convg  =    0.6867D-08             -V/T =  2.0001

 **********************************************************************

            Population analysis using the SCF density.

 **********************************************************************

 Orbital symmetries:
       Occupied  (A) (E) (E) (A) (E) (E) (A) (A) (E) (E) (E) (E)
                 (A) (E) (E) (A) (E) (E) (A) (A) (E) (E) (A) (A)
                 (E) (E) (E) (E) (A) (A) (E) (E) (E) (E) (A) (E)
                 (E) (A) (A) (E) (E) (E) (E) (A) (A) (E) (E) (E)
                 (E) (A) (A) (E) (E) (A) (E) (E) (A) (E) (E) (E)
                 (E) (A) (E) (E) (A)
       Virtual   (E) (E) (A) (A) (E) (E) (A) (E) (E) (A) (A) (E)
                 (E) (E) (E) (A) (E) (E) (A) (E) (E) (A) (E) (E)
                 (A) (E) (E) (A) (A) (A) (E) (E) (E) (E) (E) (E)
                 (A) (A) (E) (E) (A) (E) (E) (E) (E) (A) (E) (E)
                 (A) (A) (E) (E) (A) (E) (E) (A) (E) (E) (A) (E)
                 (E) (E) (E) (A) (A) (E) (E) (A) (E) (E) (A) (E)
                 (E) (A) (E) (E) (A) (E) (E) (A) (A) (E) (E) (E)
                 (E) (A) (E) (E) (A) (E) (E) (A) (A) (E) (E) (A)
                 (E) (E) (A) (E) (E) (E) (E) (A) (E) (E) (A) (E)
                 (E) (A) (E) (E) (E) (E) (A) (A) (A) (E) (E) (A)
                 (E) (E) (A) (E) (E) (A) (E) (E) (A) (E) (E) (A)
                 (E) (E) (A) (E) (E) (A) (E) (E) (A) (E) (E) (A)
                 (E) (E) (A) (E) (E) (A) (A) (E) (E) (A) (A) (E)
                 (E) (E) (E) (A) (E) (E) (A) (A) (E) (E) (E) (E)
                 (A) (E) (E) (A) (A) (E) (E) (A) (E) (E) (E) (E)
                 (A) (A) (E) (E) (E) (E) (A) (E) (E) (A) (E) (E)
                 (A) (E) (E) (A) (E) (E) (E) (E) (E) (E) (A) (A)
                 (A) (E) (E) (A) (E) (E) (A) (A) (E) (E) (E) (E)
                 (A) (A) (E) (E) (A) (E) (E) (A) (E) (E) (A) (A)
                 (E) (E)
 The electronic state is 1-A.
 Alpha  occ. eigenvalues --  -11.25724 -11.25095 -11.25095 -11.25089 -11.24307
 Alpha  occ. eigenvalues --  -11.24307 -11.24307 -11.24284 -11.24284 -11.24284
 Alpha  occ. eigenvalues --  -11.24021 -11.24021 -11.24021 -11.23962 -11.23962
 Alpha  occ. eigenvalues --  -11.23961 -11.23818 -11.23818 -11.23817  -1.18579
 Alpha  occ. eigenvalues --   -1.15713  -1.15713  -1.09020  -1.02190  -1.02041
 Alpha  occ. eigenvalues --   -1.02041  -1.01369  -1.01369  -0.92882  -0.84088
 Alpha  occ. eigenvalues --   -0.82987  -0.82987  -0.81455  -0.81455  -0.77513
 Alpha  occ. eigenvalues --   -0.70623  -0.70623  -0.68791  -0.65642  -0.63786
 Alpha  occ. eigenvalues --   -0.63786  -0.61931  -0.61931  -0.61747  -0.59103
 Alpha  occ. eigenvalues --   -0.58734  -0.58734  -0.58060  -0.58060  -0.54333
 Alpha  occ. eigenvalues --   -0.51188  -0.50837  -0.50837  -0.49661  -0.49104
 Alpha  occ. eigenvalues --   -0.49104  -0.47446  -0.47176  -0.47176  -0.34453
 Alpha  occ. eigenvalues --   -0.34453  -0.33998  -0.33234  -0.33234  -0.31220
 Alpha virt. eigenvalues --    0.12196   0.12196   0.12419   0.14453   0.14456
 Alpha virt. eigenvalues --    0.14456   0.15129   0.16316   0.16316   0.17107
 Alpha virt. eigenvalues --    0.19067   0.19127   0.19127   0.21254   0.21254
 Alpha virt. eigenvalues --    0.21552   0.23847   0.23847   0.24471   0.26764
 Alpha virt. eigenvalues --    0.26764   0.28543   0.34019   0.34019   0.35108
 Alpha virt. eigenvalues --    0.39169   0.39169   0.39316   0.41076   0.43771
 Alpha virt. eigenvalues --    0.43881   0.43881   0.44972   0.44972   0.45565
 Alpha virt. eigenvalues --    0.45565   0.45805   0.48363   0.49771   0.49771
 Alpha virt. eigenvalues --    0.50698   0.50882   0.50882   0.55383   0.55383
 Alpha virt. eigenvalues --    0.57217   0.58711   0.58711   0.58760   0.59453
 Alpha virt. eigenvalues --    0.60069   0.60069   0.61459   0.61552   0.61552
 Alpha virt. eigenvalues --    0.61701   0.62245   0.62245   0.63520   0.63792
 Alpha virt. eigenvalues --    0.63792   0.65419   0.65419   0.66720   0.67137
 Alpha virt. eigenvalues --    0.67865   0.67865   0.69138   0.70659   0.70659
 Alpha virt. eigenvalues --    0.73046   0.74590   0.74590   0.74991   0.75572
 Alpha virt. eigenvalues --    0.75572   0.78184   0.80242   0.80242   0.80270
 Alpha virt. eigenvalues --    0.81938   0.82009   0.82009   0.82961   0.82961
 Alpha virt. eigenvalues --    0.83737   0.84367   0.84367   0.85146   0.86017
 Alpha virt. eigenvalues --    0.86017   0.86229   0.87300   0.87738   0.87738
 Alpha virt. eigenvalues --    0.88556   0.90863   0.90863   0.92785   0.94606
 Alpha virt. eigenvalues --    0.94606   0.97235   0.97235   0.97800   1.00013
 Alpha virt. eigenvalues --    1.00013   1.00729   1.04020   1.04020   1.06245
 Alpha virt. eigenvalues --    1.07024   1.07024   1.08755   1.08755   1.09854
 Alpha virt. eigenvalues --    1.11152   1.12267   1.12924   1.12924   1.14216
 Alpha virt. eigenvalues --    1.14666   1.14666   1.17904   1.20746   1.20746
 Alpha virt. eigenvalues --    1.26761   1.27487   1.27487   1.28631   1.30042
 Alpha virt. eigenvalues --    1.30042   1.39628   1.40632   1.40632   1.49051
 Alpha virt. eigenvalues --    1.52292   1.52292   1.54950   2.55821   2.55821
 Alpha virt. eigenvalues --    2.56439   2.61675   2.61675   2.61684   2.66495
 Alpha virt. eigenvalues --    2.66495   2.67958   2.70428   2.70428   2.70935
 Alpha virt. eigenvalues --    2.78508   2.84829   2.84829   2.88649   2.94544
 Alpha virt. eigenvalues --    2.94634   2.94634   2.97623   2.97623   2.97668
 Alpha virt. eigenvalues --    3.01441   3.01441   3.04365   3.06193   3.07555
 Alpha virt. eigenvalues --    3.07555   3.08639   3.08639   3.09341   3.15398
 Alpha virt. eigenvalues --    3.15398   3.15687   3.17444   3.18972   3.18972
 Alpha virt. eigenvalues --    3.23301   3.25382   3.25382   3.28862   3.28862
 Alpha virt. eigenvalues --    3.29672   3.33103   3.34956   3.34956   3.42285
 Alpha virt. eigenvalues --    3.42285   3.43291   3.48620   3.48620   3.53962
 Alpha virt. eigenvalues --    3.54083   3.54083   3.60008   3.60379   3.60379
 Alpha virt. eigenvalues --    3.63116   3.63601   3.63601   3.65838   3.65838
 Alpha virt. eigenvalues --    3.69783   3.69783   3.70562   3.70708   3.75210
 Alpha virt. eigenvalues --    3.75877   3.75877   3.84466   3.87400   3.87400
 Alpha virt. eigenvalues --    3.91527  24.25934  24.31574  24.31574  24.50738
 Alpha virt. eigenvalues --   24.50738  24.51243  24.54552  24.55834  24.55834
 Alpha virt. eigenvalues --   24.77631  24.79322  24.79322  24.79920  24.80811
 Alpha virt. eigenvalues --   24.80811  24.83346  25.05346  25.06151  25.06151
          Condensed to atoms (all electrons):
              1          2          3          4          5          6
     1  C    5.858597   0.483255   0.145812  -0.054613  -0.041087   0.007232
     2  H    0.483255   0.515294  -0.071989  -0.001088   0.005310   0.001485
     3  C    0.145812  -0.071989   5.357959   0.484140   0.479524  -0.065773
     4  C   -0.054613  -0.001088   0.484140   5.058585  -0.068553   0.463633
     5  C   -0.041087   0.005310   0.479524  -0.068553   5.114425  -0.029452
     6  C    0.007232   0.001485  -0.065773   0.463633  -0.029452   5.055052
     7  H    0.000491   0.001476  -0.048759   0.399209   0.004437  -0.036071
     8  C    0.004214  -0.000241  -0.067581  -0.031802   0.469115  -0.075870
     9  H   -0.000794  -0.000119  -0.042596   0.004177   0.392247  -0.000226
    10  C    0.001166  -0.000011  -0.016426  -0.087602  -0.093805   0.490346
    11  H   -0.000371  -0.000026   0.006682  -0.039639  -0.000533   0.397075
    12  H   -0.000337   0.000014   0.006125  -0.000380  -0.037817   0.005934
    13  H   -0.000017  -0.000001  -0.001541   0.007435   0.007823  -0.042932
    14  C    0.145812  -0.071989  -0.097575   0.005667  -0.018517  -0.000775
    15  C   -0.041087   0.005310  -0.008230  -0.000166  -0.005103   0.000027
    16  C   -0.054613  -0.001088  -0.001088   0.000838   0.000282  -0.000034
    17  C    0.004214  -0.000241   0.000686   0.000022  -0.001077   0.000000
    18  H   -0.000794  -0.000119  -0.000805  -0.000018   0.000746   0.000003
    19  C    0.007232   0.001485  -0.000631   0.000003   0.000379   0.000002
    20  H    0.000491   0.001476   0.000944   0.000233   0.000220  -0.000005
    21  C    0.001166  -0.000011   0.000039  -0.000001   0.000069   0.000000
    22  H   -0.000337   0.000014  -0.000003   0.000000   0.000016   0.000000
    23  H   -0.000371  -0.000026   0.000023   0.000000   0.000003   0.000000
    24  H   -0.000017  -0.000001   0.000000   0.000000  -0.000001   0.000000
    25  C    0.145812  -0.071989  -0.097575  -0.001088  -0.008230  -0.000631
    26  C   -0.054613  -0.001088   0.005667   0.000838  -0.000166   0.000003
    27  C   -0.041087   0.005310  -0.018517   0.000282  -0.005103   0.000379
    28  C    0.007232   0.001485  -0.000775  -0.000034   0.000027   0.000002
    29  H    0.000491   0.001476   0.000484   0.000044  -0.000031   0.000001
    30  C    0.004214  -0.000241   0.000113  -0.000164  -0.000018  -0.000009
    31  H   -0.000794  -0.000119  -0.001991  -0.000867   0.001467  -0.000190
    32  C    0.001166  -0.000011   0.000096  -0.000009  -0.000017   0.000000
    33  H   -0.000371  -0.000026   0.000011   0.000001   0.000000   0.000000
    34  H   -0.000337   0.000014   0.000029   0.000007   0.000019   0.000001
    35  H   -0.000017  -0.000001  -0.000001   0.000000   0.000000   0.000000
              7          8          9         10         11         12
     1  C    0.000491   0.004214  -0.000794   0.001166  -0.000371  -0.000337
     2  H    0.001476  -0.000241  -0.000119  -0.000011  -0.000026   0.000014
     3  C   -0.048759  -0.067581  -0.042596  -0.016426   0.006682   0.006125
     4  C    0.399209  -0.031802   0.004177  -0.087602  -0.039639  -0.000380
     5  C    0.004437   0.469115   0.392247  -0.093805  -0.000533  -0.037817
     6  C   -0.036071  -0.075870  -0.000226   0.490346   0.397075   0.005934
     7  H    0.507701  -0.000423  -0.000239   0.005358  -0.004230   0.000022
     8  C   -0.000423   5.051773  -0.029782   0.496694   0.006119   0.396179
     9  H   -0.000239  -0.029782   0.474263   0.004622   0.000018  -0.003310
    10  C    0.005358   0.496694   0.004622   5.033005  -0.040642  -0.040230
    11  H   -0.004230   0.006119   0.000018  -0.040642   0.517974  -0.000211
    12  H    0.000022   0.396179  -0.003310  -0.040230  -0.000211   0.515694
    13  H   -0.000179  -0.042465  -0.000174   0.399529  -0.004496  -0.004403
    14  C    0.000484   0.000113  -0.001991   0.000096   0.000011   0.000029
    15  C   -0.000031  -0.000018   0.001467  -0.000017   0.000000   0.000019
    16  C    0.000044  -0.000164  -0.000867  -0.000009   0.000001   0.000007
    17  C    0.000000  -0.000022   0.000919   0.000000   0.000000   0.000000
    18  H    0.000000   0.000045   0.000224   0.000000   0.000000  -0.000007
    19  C    0.000001  -0.000009  -0.000190   0.000000   0.000000   0.000001
    20  H   -0.000001   0.000007  -0.000038  -0.000009   0.000000   0.000000
    21  C    0.000000   0.000005   0.000002   0.000000   0.000000  -0.000001
    22  H    0.000000   0.000001   0.000007   0.000000   0.000000   0.000000
    23  H    0.000000   0.000000   0.000003   0.000000   0.000000   0.000000
    24  H    0.000000   0.000000   0.000000   0.000000   0.000000   0.000000
    25  C    0.000944   0.000686  -0.000805   0.000039   0.000023  -0.000003
    26  C    0.000233   0.000022  -0.000018  -0.000001   0.000000   0.000000
    27  C    0.000220  -0.001077   0.000746   0.000069   0.000003   0.000016
    28  C   -0.000005   0.000000   0.000003   0.000000   0.000000   0.000000
    29  H   -0.000001   0.000000   0.000000   0.000000   0.000000   0.000000
    30  C    0.000007  -0.000022   0.000045   0.000005   0.000000   0.000001
    31  H   -0.000038   0.000919   0.000224   0.000002   0.000003   0.000007
    32  C   -0.000009   0.000000   0.000000   0.000000   0.000000   0.000000
    33  H    0.000000   0.000000   0.000000   0.000000   0.000000   0.000000
    34  H    0.000000   0.000000  -0.000007  -0.000001   0.000000   0.000000
    35  H    0.000000   0.000000   0.000000   0.000000   0.000000   0.000000
             13         14         15         16         17         18
     1  C   -0.000017   0.145812  -0.041087  -0.054613   0.004214  -0.000794
     2  H   -0.000001  -0.071989   0.005310  -0.001088  -0.000241  -0.000119
     3  C   -0.001541  -0.097575  -0.008230  -0.001088   0.000686  -0.000805
     4  C    0.007435   0.005667  -0.000166   0.000838   0.000022  -0.000018
     5  C    0.007823  -0.018517  -0.005103   0.000282  -0.001077   0.000746
     6  C   -0.042932  -0.000775   0.000027  -0.000034   0.000000   0.000003
     7  H   -0.000179   0.000484  -0.000031   0.000044   0.000000   0.000000
     8  C   -0.042465   0.000113  -0.000018  -0.000164  -0.000022   0.000045
     9  H   -0.000174  -0.001991   0.001467  -0.000867   0.000919   0.000224
    10  C    0.399529   0.000096  -0.000017  -0.000009   0.000000   0.000000
    11  H   -0.004496   0.000011   0.000000   0.000001   0.000000   0.000000
    12  H   -0.004403   0.000029   0.000019   0.000007   0.000000  -0.000007
    13  H    0.517923  -0.000001   0.000000   0.000000   0.000000   0.000000
    14  C   -0.000001   5.357959   0.479524   0.484140  -0.067581  -0.042596
    15  C    0.000000   0.479524   5.114425  -0.068553   0.469115   0.392247
    16  C    0.000000   0.484140  -0.068553   5.058585  -0.031802   0.004177
    17  C    0.000000  -0.067581   0.469115  -0.031802   5.051773  -0.029782
    18  H    0.000000  -0.042596   0.392247   0.004177  -0.029782   0.474263
    19  C    0.000000  -0.065773  -0.029452   0.463633  -0.075870  -0.000226
    20  H    0.000000  -0.048759   0.004437   0.399209  -0.000423  -0.000239
    21  C    0.000000  -0.016426  -0.093805  -0.087602   0.496694   0.004622
    22  H    0.000000   0.006125  -0.037817  -0.000380   0.396179  -0.003310
    23  H    0.000000   0.006682  -0.000533  -0.039639   0.006119   0.000018
    24  H    0.000000  -0.001541   0.007823   0.007435  -0.042465  -0.000174
    25  C    0.000000  -0.097575  -0.018517   0.005667   0.000113  -0.001991
    26  C    0.000000  -0.001088   0.000282   0.000838  -0.000164  -0.000867
    27  C   -0.000001  -0.008230  -0.005103  -0.000166  -0.000018   0.001467
    28  C    0.000000  -0.000631   0.000379   0.000003  -0.000009  -0.000190
    29  H    0.000000   0.000944   0.000220   0.000233   0.000007  -0.000038
    30  C    0.000000   0.000686  -0.001077   0.000022  -0.000022   0.000919
    31  H    0.000000  -0.000805   0.000746  -0.000018   0.000045   0.000224
    32  C    0.000000   0.000039   0.000069  -0.000001   0.000005   0.000002
    33  H    0.000000   0.000023   0.000003   0.000000   0.000000   0.000003
    34  H    0.000000  -0.000003   0.000016   0.000000   0.000001   0.000007
    35  H    0.000000   0.000000  -0.000001   0.000000   0.000000   0.000000
             19         20         21         22         23         24
     1  C    0.007232   0.000491   0.001166  -0.000337  -0.000371  -0.000017
     2  H    0.001485   0.001476  -0.000011   0.000014  -0.000026  -0.000001
     3  C   -0.000631   0.000944   0.000039  -0.000003   0.000023   0.000000
     4  C    0.000003   0.000233  -0.000001   0.000000   0.000000   0.000000
     5  C    0.000379   0.000220   0.000069   0.000016   0.000003  -0.000001
     6  C    0.000002  -0.000005   0.000000   0.000000   0.000000   0.000000
     7  H    0.000001  -0.000001   0.000000   0.000000   0.000000   0.000000
     8  C   -0.000009   0.000007   0.000005   0.000001   0.000000   0.000000
     9  H   -0.000190  -0.000038   0.000002   0.000007   0.000003   0.000000
    10  C    0.000000  -0.000009   0.000000   0.000000   0.000000   0.000000
    11  H    0.000000   0.000000   0.000000   0.000000   0.000000   0.000000
    12  H    0.000001   0.000000  -0.000001   0.000000   0.000000   0.000000
    13  H    0.000000   0.000000   0.000000   0.000000   0.000000   0.000000
    14  C   -0.065773  -0.048759  -0.016426   0.006125   0.006682  -0.001541
    15  C   -0.029452   0.004437  -0.093805  -0.037817  -0.000533   0.007823
    16  C    0.463633   0.399209  -0.087602  -0.000380  -0.039639   0.007435
    17  C   -0.075870  -0.000423   0.496694   0.396179   0.006119  -0.042465
    18  H   -0.000226  -0.000239   0.004622  -0.003310   0.000018  -0.000174
    19  C    5.055052  -0.036071   0.490346   0.005934   0.397075  -0.042932
    20  H   -0.036071   0.507701   0.005358   0.000022  -0.004230  -0.000179
    21  C    0.490346   0.005358   5.033005  -0.040230  -0.040642   0.399529
    22  H    0.005934   0.000022  -0.040230   0.515694  -0.000211  -0.004403
    23  H    0.397075  -0.004230  -0.040642  -0.000211   0.517974  -0.004496
    24  H   -0.042932  -0.000179   0.399529  -0.004403  -0.004496   0.517923
    25  C   -0.000775   0.000484   0.000096   0.000029   0.000011  -0.000001
    26  C   -0.000034   0.000044  -0.000009   0.000007   0.000001   0.000000
    27  C    0.000027  -0.000031  -0.000017   0.000019   0.000000   0.000000
    28  C    0.000002   0.000001   0.000000   0.000001   0.000000   0.000000
    29  H   -0.000005  -0.000001  -0.000009   0.000000   0.000000   0.000000
    30  C    0.000000   0.000000   0.000000   0.000000   0.000000   0.000000
    31  H    0.000003   0.000000   0.000000  -0.000007   0.000000   0.000000
    32  C    0.000000   0.000000   0.000000  -0.000001   0.000000   0.000000
    33  H    0.000000   0.000000   0.000000   0.000000   0.000000   0.000000
    34  H    0.000000   0.000000   0.000000   0.000000   0.000000   0.000000
    35  H    0.000000   0.000000   0.000000   0.000000   0.000000   0.000000
             25         26         27         28         29         30
     1  C    0.145812  -0.054613  -0.041087   0.007232   0.000491   0.004214
     2  H   -0.071989  -0.001088   0.005310   0.001485   0.001476  -0.000241
     3  C   -0.097575   0.005667  -0.018517  -0.000775   0.000484   0.000113
     4  C   -0.001088   0.000838   0.000282  -0.000034   0.000044  -0.000164
     5  C   -0.008230  -0.000166  -0.005103   0.000027  -0.000031  -0.000018
     6  C   -0.000631   0.000003   0.000379   0.000002   0.000001  -0.000009
     7  H    0.000944   0.000233   0.000220  -0.000005  -0.000001   0.000007
     8  C    0.000686   0.000022  -0.001077   0.000000   0.000000  -0.000022
     9  H   -0.000805  -0.000018   0.000746   0.000003   0.000000   0.000045
    10  C    0.000039  -0.000001   0.000069   0.000000   0.000000   0.000005
    11  H    0.000023   0.000000   0.000003   0.000000   0.000000   0.000000
    12  H   -0.000003   0.000000   0.000016   0.000000   0.000000   0.000001
    13  H    0.000000   0.000000  -0.000001   0.000000   0.000000   0.000000
    14  C   -0.097575  -0.001088  -0.008230  -0.000631   0.000944   0.000686
    15  C   -0.018517   0.000282  -0.005103   0.000379   0.000220  -0.001077
    16  C    0.005667   0.000838  -0.000166   0.000003   0.000233   0.000022
    17  C    0.000113  -0.000164  -0.000018  -0.000009   0.000007  -0.000022
    18  H   -0.001991  -0.000867   0.001467  -0.000190  -0.000038   0.000919
    19  C   -0.000775  -0.000034   0.000027   0.000002  -0.000005   0.000000
    20  H    0.000484   0.000044  -0.000031   0.000001  -0.000001   0.000000
    21  C    0.000096  -0.000009  -0.000017   0.000000  -0.000009   0.000000
    22  H    0.000029   0.000007   0.000019   0.000001   0.000000   0.000000
    23  H    0.000011   0.000001   0.000000   0.000000   0.000000   0.000000
    24  H   -0.000001   0.000000   0.000000   0.000000   0.000000   0.000000
    25  C    5.357959   0.484140   0.479524  -0.065773  -0.048759  -0.067581
    26  C    0.484140   5.058585  -0.068553   0.463633   0.399209  -0.031802
    27  C    0.479524  -0.068553   5.114425  -0.029452   0.004437   0.469115
    28  C   -0.065773   0.463633  -0.029452   5.055052  -0.036071  -0.075870
    29  H   -0.048759   0.399209   0.004437  -0.036071   0.507701  -0.000423
    30  C   -0.067581  -0.031802   0.469115  -0.075870  -0.000423   5.051773
    31  H   -0.042596   0.004177   0.392247  -0.000226  -0.000239  -0.029782
    32  C   -0.016426  -0.087602  -0.093805   0.490346   0.005358   0.496694
    33  H    0.006682  -0.039639  -0.000533   0.397075  -0.004230   0.006119
    34  H    0.006125  -0.000380  -0.037817   0.005934   0.000022   0.396179
    35  H   -0.001541   0.007435   0.007823  -0.042932  -0.000179  -0.042465
             31         32         33         34         35
     1  C   -0.000794   0.001166  -0.000371  -0.000337  -0.000017
     2  H   -0.000119  -0.000011  -0.000026   0.000014  -0.000001
     3  C   -0.001991   0.000096   0.000011   0.000029  -0.000001
     4  C   -0.000867  -0.000009   0.000001   0.000007   0.000000
     5  C    0.001467  -0.000017   0.000000   0.000019   0.000000
     6  C   -0.000190   0.000000   0.000000   0.000001   0.000000
     7  H   -0.000038  -0.000009   0.000000   0.000000   0.000000
     8  C    0.000919   0.000000   0.000000   0.000000   0.000000
     9  H    0.000224   0.000000   0.000000  -0.000007   0.000000
    10  C    0.000002   0.000000   0.000000  -0.000001   0.000000
    11  H    0.000003   0.000000   0.000000   0.000000   0.000000
    12  H    0.000007   0.000000   0.000000   0.000000   0.000000
    13  H    0.000000   0.000000   0.000000   0.000000   0.000000
    14  C   -0.000805   0.000039   0.000023  -0.000003   0.000000
    15  C    0.000746   0.000069   0.000003   0.000016  -0.000001
    16  C   -0.000018  -0.000001   0.000000   0.000000   0.000000
    17  C    0.000045   0.000005   0.000000   0.000001   0.000000
    18  H    0.000224   0.000002   0.000003   0.000007   0.000000
    19  C    0.000003   0.000000   0.000000   0.000000   0.000000
    20  H    0.000000   0.000000   0.000000   0.000000   0.000000
    21  C    0.000000   0.000000   0.000000   0.000000   0.000000
    22  H   -0.000007  -0.000001   0.000000   0.000000   0.000000
    23  H    0.000000   0.000000   0.000000   0.000000   0.000000
    24  H    0.000000   0.000000   0.000000   0.000000   0.000000
    25  C   -0.042596  -0.016426   0.006682   0.006125  -0.001541
    26  C    0.004177  -0.087602  -0.039639  -0.000380   0.007435
    27  C    0.392247  -0.093805  -0.000533  -0.037817   0.007823
    28  C   -0.000226   0.490346   0.397075   0.005934  -0.042932
    29  H   -0.000239   0.005358  -0.004230   0.000022  -0.000179
    30  C   -0.029782   0.496694   0.006119   0.396179  -0.042465
    31  H    0.474263   0.004622   0.000018  -0.003310  -0.000174
    32  C    0.004622   5.033005  -0.040642  -0.040230   0.399529
    33  H    0.000018  -0.040642   0.517974  -0.000211  -0.004496
    34  H   -0.003310  -0.040230  -0.000211   0.515694  -0.004403
    35  H   -0.000174   0.399529  -0.004496  -0.004403   0.517923
 Mulliken atomic charges:
              1
     1  C   -0.526937
     2  H    0.197021
     3  C    0.053521
     4  C   -0.139088
     5  C   -0.166597
     6  C   -0.169210
     7  H    0.169358
     8  C   -0.176416
     9  H    0.202190
    10  C   -0.152177
    11  H    0.162240
    12  H    0.162652
    13  H    0.163500
    14  C    0.053521
    15  C   -0.166597
    16  C   -0.139088
    17  C   -0.176416
    18  H    0.202190
    19  C   -0.169210
    20  H    0.169358
    21  C   -0.152177
    22  H    0.162652
    23  H    0.162240
    24  H    0.163500
    25  C    0.053521
    26  C   -0.139088
    27  C   -0.166597
    28  C   -0.169210
    29  H    0.169358
    30  C   -0.176416
    31  H    0.202190
    32  C   -0.152177
    33  H    0.162240
    34  H    0.162652
    35  H    0.163500
 Sum of Mulliken atomic charges =   0.00000
 Mulliken charges with hydrogens summed into heavy atoms:
              1
     1  C   -0.329916
     3  C    0.053521
     4  C    0.030270
     5  C    0.035593
     6  C   -0.006970
     8  C   -0.013764
    10  C    0.011323
    14  C    0.053521
    15  C    0.035593
    16  C    0.030270
    17  C   -0.013764
    19  C   -0.006970
    21  C    0.011323
    25  C    0.053521
    26  C    0.030270
    27  C    0.035593
    28  C   -0.006970
    30  C   -0.013764
    32  C    0.011323
 Sum of Mulliken charges with hydrogens summed into heavy atoms =   0.00000
 Electronic spatial extent (au):  <R**2>=           4916.7784
 Charge=              0.0000 electrons
 Dipole moment (field-independent basis, Debye):
    X=              0.0000    Y=              0.0000    Z=              0.0251  Tot=              0.0251
 Quadrupole moment (field-independent basis, Debye-Ang):
   XX=           -111.4902   YY=           -111.4902   ZZ=           -104.6704
   XY=              0.0000   XZ=              0.0000   YZ=              0.0000
 Traceless Quadrupole moment (field-independent basis, Debye-Ang):
   XX=             -2.2733   YY=             -2.2733   ZZ=              4.5466
   XY=              0.0000   XZ=              0.0000   YZ=              0.0000
 Octapole moment (field-independent basis, Debye-Ang**2):
  XXX=             13.7248  YYY=             39.6069  ZZZ=              0.7785  XYY=            -13.7248
  XXY=            -39.6069  XXZ=             -3.5759  XZZ=              0.0000  YZZ=              0.0000
  YYZ=             -3.5759  XYZ=              0.0000
 Hexadecapole moment (field-independent basis, Debye-Ang**3):
 XXXX=          -2984.8338 YYYY=          -2984.8338 ZZZZ=           -747.0901 XXXY=              0.0000
 XXXZ=             75.9080 YYYX=              0.0000 YYYZ=            -17.4120 ZZZX=              0.0000
 ZZZY=              0.0000 XXYY=           -994.9446 XXZZ=           -612.6230 YYZZ=           -612.6230
 XXYZ=             17.4120 YYXZ=            -75.9080 ZZXY=              0.0000
 N-N= 1.290453331107D+03 E-N=-4.277007165587D+03  KE= 7.285962482572D+02
 PrsmSu:  requested number of processors reduced to:  10 ShMem   1 Linda.
 Calling FoFJK, ICntrl=      2127 FMM=F ISym2X=1 I1Cent= 0 IOpClX= 0 NMat=1 NMatS=1 NMatT=0.
 ***** Axes restored to original set *****
 -------------------------------------------------------------------
 Center     Atomic                   Forces (Hartrees/Bohr)
 Number     Number              X              Y              Z
 -------------------------------------------------------------------
      1        6           0.000000000    0.000000000   -0.022522695
      2        1           0.000000000    0.000000000    0.025923090
      3        6           0.013259191   -0.001771043   -0.003207939
      4        6          -0.001129667   -0.002722228   -0.005430586
      5        6          -0.004366437    0.007101411    0.006232916
      6        6           0.007008506   -0.007849540   -0.007772016
      7        1           0.005783214    0.005754368    0.015298819
      8        6           0.004427996    0.002844809    0.011188124
      9        1           0.014030327   -0.011228986   -0.012024187
     10        6           0.012549528   -0.003706675    0.003730174
     11        1          -0.009025479    0.009650055    0.010128078
     12        1          -0.006097387   -0.005117783   -0.014668956
     13        1          -0.015420054    0.004651962   -0.004607891
     14        6          -0.005095828    0.012368318   -0.003207939
     15        6          -0.003966784   -0.007332151    0.006232916
     16        6           0.002922352    0.000382794   -0.005430586
     17        6          -0.004677675    0.002412353    0.011188124
     18        1           0.002709423    0.017765113   -0.012024187
     19        6           0.003293648    0.009994314   -0.007772016
     20        1          -0.007875036    0.002131226    0.015298819
     21        6          -0.003064689    0.012721548    0.003730174
     22        1           0.007480824   -0.002721601   -0.014668956
     23        1          -0.003844453   -0.012641321    0.010128078
     24        1           0.003681309   -0.015680139   -0.004607891
     25        6          -0.008163364   -0.010597275   -0.003207939
     26        6          -0.001792685    0.002339434   -0.005430586
     27        6           0.008333221    0.000230740    0.006232916
     28        6          -0.010302154   -0.002144775   -0.007772016
     29        1           0.002091822   -0.007885594    0.015298819
     30        6           0.000249679   -0.005257162    0.011188124
     31        1          -0.016739750   -0.006536127   -0.012024187
     32        6          -0.009484839   -0.009014873    0.003730174
     33        1           0.012869932    0.002991266    0.010128078
     34        1          -0.001383436    0.007839384   -0.014668956
     35        1           0.011738744    0.011028177   -0.004607891
 -------------------------------------------------------------------
 Cartesian Forces:  Max     0.025923090 RMS     0.009011897

 GradGradGradGradGradGradGradGradGradGradGradGradGradGradGradGradGradGrad
 Berny optimization.
 Internal  Forces:  Max     0.025923090 RMS     0.006579329
 Search for a local minimum.
 Step number   1 out of a maximum of  197
 All quantities printed in internal units (Hartrees-Bohrs-Radians)
 Mixed Optimization -- RFO/linear search
 Second derivative matrix not updated -- first step.
     Eigenvalues ---    0.00651   0.00651   0.00651   0.01538   0.01538
     Eigenvalues ---    0.01538   0.02143   0.02143   0.02143   0.02171
     Eigenvalues ---    0.02171   0.02171   0.02182   0.02182   0.02182
     Eigenvalues ---    0.02201   0.02201   0.02201   0.02213   0.02213
     Eigenvalues ---    0.02213   0.02215   0.02215   0.02215   0.02216
     Eigenvalues ---    0.02216   0.02216   0.02218   0.02218   0.02218
     Eigenvalues ---    0.04657   0.06497   0.06497   0.15999   0.15999
     Eigenvalues ---    0.15999   0.16000   0.16000   0.16000   0.16000
     Eigenvalues ---    0.16000   0.16000   0.16000   0.16000   0.16000
     Eigenvalues ---    0.16000   0.16000   0.16000   0.19006   0.19006
     Eigenvalues ---    0.22000   0.22000   0.22000   0.22000   0.22000
     Eigenvalues ---    0.22000   0.23478   0.23478   0.23478   0.25000
     Eigenvalues ---    0.25000   0.25000   0.31291   0.31480   0.31480
     Eigenvalues ---    0.31480   0.33903   0.33903   0.33903   0.34106
     Eigenvalues ---    0.34106   0.34106   0.34259   0.34259   0.34259
     Eigenvalues ---    0.34260   0.34260   0.34260   0.34283   0.34283
     Eigenvalues ---    0.34283   0.42458   0.42458   0.42458   0.42576
     Eigenvalues ---    0.42576   0.42576   0.46396   0.46396   0.46396
     Eigenvalues ---    0.46776   0.46776   0.46776   0.47229   0.47229
     Eigenvalues ---    0.47229   0.47303   0.47303   0.473031000.00000
     Eigenvalues --- 1000.000001000.000001000.000001000.000001000.00000
     Eigenvalues --- 1000.000001000.000001000.000001000.000001000.00000
     Eigenvalues --- 1000.000001000.000001000.000001000.000001000.00000
     Eigenvalues --- 1000.000001000.000001000.000001000.000001000.00000
     Eigenvalues --- 1000.000001000.000001000.000001000.000001000.00000
     Eigenvalues --- 1000.000001000.000001000.000001000.000001000.00000
     Eigenvalues --- 1000.000001000.000001000.000001000.000001000.00000
     Eigenvalues --- 1000.000001000.000001000.000001000.000001000.00000
     Eigenvalues --- 1000.000001000.000001000.000001000.000001000.00000
     Eigenvalues --- 1000.000001000.000001000.000001000.000001000.00000
     Eigenvalues --- 1000.000001000.000001000.000001000.000001000.00000
     Eigenvalues --- 1000.000001000.000001000.000001000.000001000.00000
     Eigenvalues --- 1000.000001000.000001000.000001000.000001000.00000
     Eigenvalues --- 1000.000001000.000001000.000001000.000001000.00000
     Eigenvalues --- 1000.000001000.000001000.000001000.000001000.00000
     Eigenvalues --- 1000.000001000.000001000.000001000.000001000.00000
     Eigenvalues --- 1000.000001000.000001000.000001000.000001000.00000
     Eigenvalues --- 1000.000001000.00000
 RFO step:  Lambda=-2.72492513D-02 EMin= 6.50721679D-03
 Linear search not attempted -- first point.
 Maximum step size (   0.300) exceeded in Quadratic search.
    -- Step size scaled by   0.780
 Iteration  1 RMS(Cart)=  0.10472218 RMS(Int)=  0.00169669
 Iteration  2 RMS(Cart)=  0.00454611 RMS(Int)=  0.00032154
 Iteration  3 RMS(Cart)=  0.00000486 RMS(Int)=  0.00032153
 Iteration  4 RMS(Cart)=  0.00000000 RMS(Int)=  0.00032153
 ClnCor:  largest displacement from symmetrization is 1.10D-10 for atom    24.
 Variable       Old X    -DE/DX   Delta X   Delta X   Delta X     New X
                                 (Linear)    (Quad)   (Total)
    R1        2.12160  -0.02592   0.00000  -0.05945  -0.05945   2.06214
    R2        2.85105   0.01966   0.00000   0.04484   0.04484   2.89589
    R3        2.85105   0.01966   0.00000   0.04484   0.04484   2.89589
    R4        2.85105   0.01966   0.00000   0.04484   0.04484   2.89589
    R5        2.64105  -0.00445   0.00000  -0.00717  -0.00715   2.63390
    R6        2.63722  -0.00235   0.00000  -0.00367  -0.00366   2.63356
    R7        2.62639  -0.00372   0.00000  -0.00589  -0.00589   2.62050
    R8        2.07151  -0.01732   0.00000  -0.03669  -0.03669   2.03482
    R9        2.62767  -0.00302   0.00000  -0.00461  -0.00462   2.62305
   R10        2.07494  -0.02146   0.00000  -0.04570  -0.04570   2.02924
   R11        2.62836  -0.00624   0.00000  -0.00982  -0.00982   2.61853
   R12        2.06896  -0.01665   0.00000  -0.03512  -0.03512   2.03384
   R13        2.62716  -0.00583   0.00000  -0.00905  -0.00907   2.61809
   R14        2.06894  -0.01669   0.00000  -0.03520  -0.03520   2.03374
   R15        2.06855  -0.01675   0.00000  -0.03531  -0.03531   2.03324
   R16        2.63722  -0.00235   0.00000  -0.00367  -0.00366   2.63356
   R17        2.64105  -0.00445   0.00000  -0.00717  -0.00715   2.63390
   R18        2.62767  -0.00302   0.00000  -0.00461  -0.00462   2.62305
   R19        2.07494  -0.02146   0.00000  -0.04570  -0.04570   2.02924
   R20        2.62639  -0.00372   0.00000  -0.00589  -0.00589   2.62050
   R21        2.07151  -0.01732   0.00000  -0.03669  -0.03669   2.03482
   R22        2.62716  -0.00583   0.00000  -0.00905  -0.00907   2.61809
   R23        2.06894  -0.01669   0.00000  -0.03520  -0.03520   2.03374
   R24        2.62836  -0.00624   0.00000  -0.00982  -0.00982   2.61853
   R25        2.06896  -0.01665   0.00000  -0.03512  -0.03512   2.03384
   R26        2.06855  -0.01675   0.00000  -0.03531  -0.03531   2.03324
   R27        2.64105  -0.00445   0.00000  -0.00717  -0.00715   2.63390
   R28        2.63722  -0.00235   0.00000  -0.00367  -0.00366   2.63356
   R29        2.62639  -0.00372   0.00000  -0.00589  -0.00589   2.62050
   R30        2.07151  -0.01732   0.00000  -0.03669  -0.03669   2.03482
   R31        2.62767  -0.00302   0.00000  -0.00461  -0.00462   2.62305
   R32        2.07494  -0.02146   0.00000  -0.04570  -0.04570   2.02924
   R33        2.62836  -0.00624   0.00000  -0.00982  -0.00982   2.61853
   R34        2.06896  -0.01665   0.00000  -0.03512  -0.03512   2.03384
   R35        2.62716  -0.00583   0.00000  -0.00905  -0.00907   2.61809
   R36        2.06894  -0.01669   0.00000  -0.03520  -0.03520   2.03374
   R37        2.06855  -0.01675   0.00000  -0.03531  -0.03531   2.03324
    A1        1.86696  -0.00350   0.00000  -0.03701  -0.03629   1.83067
    A2        1.86696  -0.00350   0.00000  -0.03701  -0.03629   1.83067
    A3        1.86696  -0.00350   0.00000  -0.03701  -0.03629   1.83067
    A4        1.95221   0.00316   0.00000   0.03340   0.03115   1.98336
    A5        1.95221   0.00316   0.00000   0.03340   0.03115   1.98336
    A6        1.95221   0.00316   0.00000   0.03340   0.03115   1.98336
    A7        2.07451  -0.00234   0.00000  -0.00642  -0.00643   2.06808
    A8        2.12862   0.01008   0.00000   0.02853   0.02852   2.15714
    A9        2.08005  -0.00773   0.00000  -0.02211  -0.02209   2.05796
   A10        2.10020   0.00548   0.00000   0.01654   0.01656   2.11675
   A11        2.09424  -0.00349   0.00000  -0.01140  -0.01141   2.08283
   A12        2.08874  -0.00199   0.00000  -0.00515  -0.00516   2.08358
   A13        2.10067   0.00331   0.00000   0.01031   0.01031   2.11097
   A14        2.08625   0.00074   0.00000   0.00481   0.00481   2.09105
   A15        2.09623  -0.00405   0.00000  -0.01516  -0.01516   2.08107
   A16        2.09749  -0.00005   0.00000  -0.00093  -0.00093   2.09656
   A17        2.09154   0.00013   0.00000   0.00092   0.00093   2.09247
   A18        2.09415  -0.00009   0.00000   0.00000   0.00000   2.09416
   A19        2.09758   0.00127   0.00000   0.00383   0.00380   2.10138
   A20        2.09041  -0.00053   0.00000  -0.00151  -0.00150   2.08892
   A21        2.09519  -0.00073   0.00000  -0.00233  -0.00232   2.09287
   A22        2.09038  -0.00227   0.00000  -0.00765  -0.00768   2.08271
   A23        2.09614   0.00112   0.00000   0.00378   0.00379   2.09992
   A24        2.09667   0.00114   0.00000   0.00387   0.00388   2.10055
   A25        2.12862   0.01008   0.00000   0.02853   0.02852   2.15714
   A26        2.07451  -0.00234   0.00000  -0.00642  -0.00643   2.06808
   A27        2.08005  -0.00773   0.00000  -0.02211  -0.02209   2.05796
   A28        2.10067   0.00331   0.00000   0.01031   0.01031   2.11097
   A29        2.08625   0.00074   0.00000   0.00481   0.00481   2.09105
   A30        2.09623  -0.00405   0.00000  -0.01516  -0.01516   2.08107
   A31        2.10020   0.00548   0.00000   0.01654   0.01656   2.11675
   A32        2.09424  -0.00349   0.00000  -0.01140  -0.01141   2.08283
   A33        2.08874  -0.00199   0.00000  -0.00515  -0.00516   2.08358
   A34        2.09758   0.00127   0.00000   0.00383   0.00380   2.10138
   A35        2.09041  -0.00053   0.00000  -0.00151  -0.00150   2.08892
   A36        2.09519  -0.00073   0.00000  -0.00233  -0.00232   2.09287
   A37        2.09749  -0.00005   0.00000  -0.00093  -0.00093   2.09656
   A38        2.09154   0.00013   0.00000   0.00092   0.00093   2.09247
   A39        2.09415  -0.00009   0.00000   0.00000   0.00000   2.09416
   A40        2.09038  -0.00227   0.00000  -0.00765  -0.00768   2.08271
   A41        2.09667   0.00114   0.00000   0.00387   0.00388   2.10055
   A42        2.09614   0.00112   0.00000   0.00378   0.00379   2.09992
   A43        2.07451  -0.00234   0.00000  -0.00642  -0.00643   2.06808
   A44        2.12862   0.01008   0.00000   0.02853   0.02852   2.15714
   A45        2.08005  -0.00773   0.00000  -0.02211  -0.02209   2.05796
   A46        2.10020   0.00548   0.00000   0.01654   0.01656   2.11675
   A47        2.09424  -0.00349   0.00000  -0.01140  -0.01141   2.08283
   A48        2.08874  -0.00199   0.00000  -0.00515  -0.00516   2.08358
   A49        2.10067   0.00331   0.00000   0.01031   0.01031   2.11097
   A50        2.08625   0.00074   0.00000   0.00481   0.00481   2.09105
   A51        2.09623  -0.00405   0.00000  -0.01516  -0.01516   2.08107
   A52        2.09749  -0.00005   0.00000  -0.00093  -0.00093   2.09656
   A53        2.09154   0.00013   0.00000   0.00092   0.00093   2.09247
   A54        2.09415  -0.00009   0.00000   0.00000   0.00000   2.09416
   A55        2.09758   0.00127   0.00000   0.00383   0.00380   2.10138
[...]
 00057146,-0.00008289,-0.00001946,-0.00023496,-0.00096472,-0.00041868,0
 .00043403,0.00024511,-0.00019395,-0.00007523,-0.00014297,-0.00005291,0
 .00023251,-0.00010016,0.00001787,-0.00014622,0.00003239,0.00002083,0.0
 0000475,0.00022816,-0.00012047,0.00008995,0.00003600,0.00012609,-0.000
 00667,0.00003956,0.00012386,0.00010790,-0.00002035,0.00000670,0.000030
 89,-0.00000349,-0.00000670,-0.00001995,-0.00003803,0.00000621,0.000001
 13,0.00050849,0.00041401,-0.00081199,0.00021380,0.00013991,-0.00019945
 ,-0.00007948,0.00036971,0.00013871,-0.00005681,0.00000465,0.00008995,-
 0.00007159,0.00007395,0.00008478,0.00002359,-0.00002033,-0.00006550,-0
 .00003048,-0.00001166,0.00004893,-0.00002167,-0.00004947,0.00003973,-0
 .00000568,0.00002123,-0.00000134,-0.00000746,0.00000681,0.00001417,-0.
 00000407,-0.00002390,0.00000949,0.03172743,0.02328840,0.00682664,-0.01
 581458,-0.00954844,-0.00732590,0.04425295,0.08380855,-0.14795893,-0.02
 634730,0.01980705,-0.03408990,0.00023421,-0.00090498,0.00029802,0.1624
 8761,-0.26771574,0.61510579,-0.00138369,0.00125600,0.00133265,-0.00013
 198,-0.00006103,0.00002723,-0.00080072,-0.00151721,0.00184764,0.000136
 09,-0.00054611,0.00012359,-0.00073478,-0.00078230,0.00055323,-0.000091
 15,0.00008566,-0.00004880,0.00003327,0.00003926,-0.00004385,0.00006174
 ,-0.00022671,-0.00002824,0.00008370,0.00022610,-0.00002109,-0.00007033
 ,0.00021520,0.00005465,-0.00000508,-0.00000967,-0.00000738,0.00002273,
 0.00001765,0.00000309,0.00001245,0.00000552,0.00000008,0.00041363,0.00
 013599,-0.00036282,0.00027824,0.00022116,-0.00012784,-0.00004136,0.000
 16015,0.00010507,-0.00003297,-0.00003477,0.00009119,-0.00028647,-0.000
 01238,-0.00001712,-0.00000084,-0.00001455,-0.00002234,-0.00001016,-0.0
 0001278,0.00001471,-0.00001299,-0.00000066,0.00000438,-0.00001182,0.00
 002110,0.00000158,-0.00001008,0.00000799,0.00000449,-0.00000733,-0.000
 01350,0.00000447,0.00071669,-0.00231734,-0.00069043,0.00284752,-0.0019
 3042,-0.00168241,-0.27852282,-0.02192534,-0.14587158,0.00033035,0.0000
 1109,0.00096203,-0.00005555,-0.00006942,0.00000443,-0.01387624,0.00128
 498,-0.01621012,0.29229841,0.00155814,-0.00157675,-0.00239355,0.000238
 37,0.00054924,-0.00027000,-0.00082550,-0.00069070,0.00077317,-0.000364
 25,0.00003398,0.00019340,-0.00029250,-0.00017987,0.00024239,0.00037628
 ,-0.00017142,0.00019158,0.00002335,0.00002362,-0.00016407,-0.00041291,
 0.00020419,-0.00009898,-0.00007303,-0.00032149,-0.00000212,0.00005325,
 -0.00025002,-0.00023321,0.00004835,-0.00000886,-0.00003786,0.00000620,
 0.00001508,0.00000944,0.00004888,-0.00000560,-0.00002451,-0.00042436,-
 0.00035956,0.00037799,-0.00021578,-0.00010332,0.00012797,0.00003837,-0
 .00016425,-0.00009544,0.00003135,-0.00001244,-0.00009422,0.00028675,0.
 00004868,0.00002414,-0.00001016,0.00002477,0.00005674,0.00000632,0.000
 00204,-0.00000992,0.00002183,0.00001761,-0.00002149,0.00000174,-0.0000
 0465,0.00001032,0.00001263,-0.00000021,-0.00000725,0.00000360,0.000021
 80,-0.00000260,0.01931497,0.00745434,0.01213455,-0.00234418,0.00135738
 ,0.00663157,-0.02185678,-0.06292149,-0.00083562,0.00012977,-0.00105526
 ,0.00015445,0.00095595,0.00005362,0.00060982,-0.02211267,0.00364110,-0
 .01460729,0.02950774,0.05566327,0.00035365,-0.00236136,-0.00116845,0.0
 0016356,0.00015255,0.00005924,0.00004847,0.00052924,-0.00002262,0.0002
 5788,-0.00065577,-0.00016869,0.00009761,-0.00005813,0.00063095,0.00009
 115,-0.00016639,-0.00010847,-0.00002059,0.00008771,-0.00006016,0.00025
 696,-0.00003673,0.00008478,-0.00001235,-0.00002690,-0.00004281,-0.0000
 6175,0.00020615,0.00006637,-0.00001451,0.00003481,-0.00000064,-0.00005
 314,-0.00003721,-0.00003664,-0.00004420,0.00000533,-0.00000778,-0.0002
 0244,-0.00018759,0.00032588,-0.00003489,-0.00005882,0.00009838,0.00004
 154,-0.00008846,-0.00005980,0.00003778,0.00004439,-0.00000667,0.000008
 71,0.00001933,-0.00004281,0.00001982,0.00000173,0.00000220,-0.00001323
 ,0.00000480,-0.00003721,-0.00000937,-0.00001761,0.00000275,0.00000545,
 -0.00001450,-0.00001107,0.00000211,-0.00000645,-0.00000326,-0.00000290
 ,0.00000162,-0.00000887,-0.02530256,-0.00340539,-0.00936027,-0.0020067
 3,0.00687389,-0.00088947,-0.14381497,-0.00086771,-0.15563936,0.0010444
 3,0.00030182,-0.00057562,-0.00114322,-0.00023468,-0.00074808,0.0103022
 6,0.00274471,0.00992489,0.15835528,-0.00423397,0.15560425,0.00031659,0
 .00143506,-0.00033445,-0.00021194,-0.00002851,0.00062649,0.00022995,-0
 .00037229,-0.00023538,-0.00035308,-0.00005358,0.00001060,0.00017703,-0
 .00003743,0.00024569,0.00027435,-0.00002927,0.00016050,0.00001128,0.00
 000721,-0.00004803,-0.00018961,0.00015902,0.00005367,0.00001913,0.0000
 1921,0.00001994,-0.00005157,-0.00012649,-0.00025118,-0.00002460,0.0000
 0871,0.00002176,-0.00002135,-0.00000171,-0.00002001,-0.00002280,0.0000
 0077,-0.00000232,0.00041558,0.00035322,0.00029432,0.00012615,-0.000070
 84,0.00012943,0.00019085,-0.00033686,-0.00001699,-0.00006028,-0.000288
 36,0.00008749,-0.00032134,-0.00007028,0.00020941,-0.00014536,0.0001071
 7,0.00014197,0.00000253,0.00002009,-0.00000105,0.00012107,0.00002681,-
 0.00017886,0.00002160,-0.00004777,-0.00002205,-0.00001882,-0.00002360,
 -0.00002074,0.00000160,-0.00001840,0.00000258,-0.03701355,0.02029167,-
 0.04688743,0.06157016,0.00601334,0.03114345,-0.05131886,-0.05790972,0.
 02171777,-0.15010497,-0.03512285,-0.01043215,-0.00161394,-0.00630515,-
 0.00072510,-0.29141074,-0.01323492,-0.14461949,-0.00005481,-0.00553129
 ,-0.00028195,0.67966196,0.00084074,-0.00136599,0.00013982,-0.00014301,
 -0.00009548,-0.00046939,-0.00001136,-0.00002549,0.00027266,0.00008469,
 -0.00001650,-0.00009684,-0.00013833,0.00006955,0.00001791,-0.00007139,
 0.00002175,-0.00009887,0.00004183,-0.00005098,0.00001803,0.00008744,-0
 .00005024,0.00000597,-0.00000328,-0.00001451,0.00000069,-0.00004963,0.
 00007694,0.00004936,-0.00003690,0.00000327,0.00001337,-0.00001890,-0.0
 0000666,-0.00000534,-0.00001280,-0.00000228,0.00000017,-0.00102442,0.0
 0007490,0.00003461,-0.00006348,-0.00018025,0.00009950,0.00000523,-0.00
 006869,-0.00022450,0.00005207,0.00016311,-0.00009619,0.00009168,0.0000
 0099,-0.00004960,0.00010020,-0.00007139,-0.00000985,-0.00001396,0.0000
 2610,-0.00000790,-0.00005005,-0.00009570,0.00008161,0.00000017,-0.0000
 2773,-0.00002839,0.00002049,-0.00003417,0.00000847,0.00000864,-0.00000
 212,-0.00000894,0.02078144,-0.01198664,0.02253328,-0.03423831,-0.03181
 778,0.02346060,-0.01732342,0.02478904,-0.03105085,0.01663627,-0.195847
 39,0.14491026,-0.00596002,0.00192148,0.00386091,-0.06558856,-0.1286200
 6,0.00142096,-0.00558040,0.00098606,0.00475955,0.22356921,0.52499814,0
 .00001382,0.00176949,-0.00115341,0.00024110,0.00029097,0.00096818,0.00
 022095,-0.00015111,-0.00051962,-0.00038690,-0.00011932,0.00010568,0.00
 038079,-0.00011452,0.00023180,0.00033345,-0.00007344,0.00024532,0.0000
 0152,0.00004729,-0.00008394,-0.00027583,0.00020472,0.00003973,0.000016
 42,0.00001454,0.00000275,0.00001876,-0.00019570,-0.00027670,0.00000301
 ,0.00000621,0.00000988,0.00000509,0.00000578,-0.00000760,-0.00000726,0
 .00000074,-0.00000719,0.00118472,0.00006526,0.00037603,0.00026032,0.00
 033542,0.00007311,0.00017130,-0.00033866,0.00028443,-0.00004561,-0.000
 46577,0.00010790,-0.00022929,0.00006927,0.00006637,-0.00026543,0.00020
 568,0.00018608,0.00000628,-0.00000931,0.00000558,0.00016834,0.00019285
 ,-0.00027670,0.00001401,0.00002647,0.00004701,-0.00003863,0.00001638,-
 0.00002640,-0.00000791,0.00000081,0.00000410,-0.04788347,0.02091708,-0
 .07029880,0.08041996,0.05395536,0.00650373,-0.02683167,-0.06206179,0.0
 6269520,-0.07148619,0.10437954,-0.26232747,-0.00127531,0.00342333,0.00
 405975,-0.08400634,0.04201943,-0.19712946,0.00005684,0.00505070,0.0032
 9742,0.12856392,-0.23793383,0.55411120,-0.00067473,0.00038305,-0.00082
 668,-0.00000944,-0.00001556,0.00006391,0.00001361,-0.00030454,0.000184
 89,-0.00005943,-0.00001297,-0.00006057,-0.00010304,0.00005478,0.000007
 62,0.00000470,-0.00000515,-0.00002602,0.00001614,-0.00001117,-0.000001
 47,0.00002710,0.00001231,-0.00000217,0.00000625,0.00000143,0.00000453,
 -0.00003168,0.00001618,0.00000513,-0.00001983,0.00001608,0.00000413,-0
 .00001461,-0.00000192,-0.00001302,-0.00001496,0.00000302,-0.00000274,-
 0.00012851,0.00013908,0.00008536,0.00004220,-0.00003477,-0.00003754,0.
 00005667,-0.00009072,-0.00002519,-0.00001112,-0.00000155,0.00001598,-0
 .00002467,0.00002098,0.00003741,0.00000509,-0.00001573,0.00001635,-0.0
 0001054,0.00001411,-0.00000599,0.00000851,-0.00002782,0.00000387,0.000
 00344,-0.00000891,-0.00001648,-0.00000838,-0.00002269,0.00000077,-0.00
 000041,-0.00001708,-0.00000413,0.00019733,-0.00590065,-0.00003159,-0.0
 1437722,0.00126786,-0.01710475,0.00033241,-0.00005123,0.00103615,-0.27
 359430,-0.02702651,-0.14349572,-0.00005369,0.00158282,0.00214145,0.003
 14058,-0.00182223,-0.00216746,-0.00031572,0.00041321,0.00025186,0.0014
 2564,-0.00348135,0.00093284,0.28441452,-0.00074008,0.00015235,-0.00073
 333,0.00005464,0.00007658,-0.00000214,-0.00011127,-0.00036505,0.000054
 16,-0.00006250,0.00002754,0.00001711,-0.00002982,0.00002877,0.00000291
 ,0.00005053,0.00000184,0.00000518,0.00000447,-0.00000216,-0.00000035,-
 0.00002566,0.00004114,-0.00000987,-0.00000320,-0.00001654,0.00000506,-
 0.00002791,-0.00002131,-0.00004164,-0.00000344,0.00000274,0.00000418,-
 0.00001002,0.00000014,-0.00000839,-0.00000584,-0.00000099,-0.00000018,
 -0.00011371,0.00005879,0.00004672,0.00002986,-0.00004163,-0.00000315,0
 .00001235,-0.00005574,-0.00002092,0.00001435,-0.00001123,0.00001427,-0
 .00003704,0.00001073,-0.00000484,0.00001041,-0.00000257,0.00001406,-0.
 00000509,0.00000813,-0.00001224,0.00001778,-0.00002984,-0.00000572,-0.
 00000237,-0.00001269,-0.00001933,-0.00000317,-0.00000871,-0.00000319,-
 0.00000539,-0.00000618,-0.00000526,-0.00535043,0.00109383,0.00504113,-
 0.02174486,0.00383322,-0.01490430,0.00007933,-0.00109279,0.00026862,-0
 .02693437,-0.06353642,-0.00348155,0.00236459,-0.00168212,-0.00226035,-
 0.00217714,0.00152266,0.00671837,0.00035677,-0.00052233,-0.00057570,0.
 01939578,0.00736365,0.01287574,0.03272924,0.05470358,0.00044817,-0.000
 01810,0.00021795,-0.00002077,-0.00002904,-0.00004029,0.00000174,-0.000
 01018,-0.00008307,-0.00002340,-0.00000162,0.00003059,0.00001397,-0.000
 01089,0.00003697,0.00003551,-0.00001534,0.00001370,0.00000743,0.000004
 36,-0.00001780,-0.00002426,0.00001104,0.00001417,0.00000403,0.00000751
 ,-0.00000326,0.00000303,-0.00002220,-0.00002640,0.00000238,0.00000227,
 0.00000196,-0.00000042,0.00000266,-0.00000640,-0.00000342,0.00000273,-
 0.00000373,-0.00010358,-0.00004910,0.00002033,0.00001648,-0.00002383,-
 0.00001370,-0.00000658,0.00000017,-0.00004488,0.00000026,0.00001333,0.
 00003089,-0.00002910,0.00002532,-0.00000064,0.00001535,-0.00000914,-0.
 00000618,0.00000260,0.00000495,-0.00000358,0.00000070,-0.00002553,0.00
 000988,-0.00000203,-0.00000916,-0.00001894,0.00000155,-0.00000567,0.00
 000196,-0.00000323,-0.00000884,-0.00000264,-0.00026866,0.00482350,0.00
 329785,0.00994922,0.00315554,0.00975189,0.00102881,0.00024930,-0.00044
 107,-0.14369015,-0.00360805,-0.15684458,0.00123973,-0.00280227,-0.0009
 0416,-0.00179080,0.00694620,-0.00093629,0.00025371,-0.00054180,-0.0004
 2460,-0.02595533,-0.00504183,-0.00887163,0.15797698,-0.00075919,0.1567
 5504,0.00049306,-0.00032308,0.00089710,-0.00014802,-0.00017259,0.00013
 732,0.00015707,0.00001948,-0.00000210,-0.00004122,0.00001953,-0.000011
 32,0.00001593,0.00001788,-0.00002381,0.00001495,0.00001507,0.00000345,
 0.00000207,-0.00001476,0.00000789,-0.00002145,0.00002023,-0.00001554,0
 .00000345,-0.00001228,0.00000983,-0.00003601,0.00001451,-0.00002993,-0
 .00001354,-0.00000090,0.00000895,-0.00001119,-0.00000885,0.00000130,-0
 .00000831,-0.00000602,0.00000351,-0.00012189,-0.00000610,0.00005545,0.
 00001681,0.00000161,-0.00002857,-0.00000296,-0.00005246,-0.00002002,0.
 00000798,-0.00000210,-0.00000406,0.00000666,-0.00000838,-0.00000565,0.
 00000889,-0.00001244,0.00000638,-0.00000139,0.00000666,-0.00000680,-0.
 00000140,-0.00000980,0.00000246,0.00000149,0.00000153,-0.00000121,0.00
 000163,-0.00000745,0.00000251,-0.00000051,-0.00000266,-0.00000212,-0.0
 0173403,-0.00607490,-0.00098702,-0.00127498,-0.00030731,0.00015911,0.0
 0867680,-0.01668018,0.02190892,-0.00305483,-0.00354313,-0.00511568,-0.
 00016827,0.00042185,0.00034203,-0.07438868,0.01796138,-0.04046723,0.00
 010170,0.00230444,0.00122156,0.00209128,0.01969980,-0.02562370,-0.0001
 7193,0.00090400,-0.00116188,0.06960297,0.00045260,-0.00034783,0.000737
 56,-0.00022022,-0.00027238,0.00008515,0.00027147,-0.00004152,0.0000246
 9,-0.00001040,0.00003736,-0.00000470,-0.00009001,0.00005398,-0.0000313
 8,-0.00001070,-0.00000833,-0.00002030,0.00000937,-0.00001492,-0.000022
 80,0.00002386,-0.00000485,-0.00001553,0.00000707,-0.00001992,0.0000119
 7,-0.00003343,0.00002988,-0.00000110,-0.00000743,0.00000429,0.00000282
 ,-0.00002434,-0.00001345,-0.00001021,-0.00001384,-0.00000065,0.0000003
 1,-0.00016102,0.00011248,0.00015783,-0.00003645,-0.00011462,-0.0000192
 1,0.00005206,-0.00011197,-0.00006247,-0.00001440,0.00001079,0.00000637
 ,0.00000307,0.00003115,0.00006463,-0.00000209,-0.00000590,0.00000497,0
 .00001472,0.00001673,-0.00001276,0.00000739,-0.00002661,-0.00000730,0.
 00001702,-0.00002613,-0.00001456,0.00000065,-0.00001609,-0.00000097,0.
 00000528,-0.00001040,-0.00000059,-0.00606838,0.00188538,0.00320969,-0.
 00028856,-0.00031984,-0.00097039,0.00629691,-0.00806334,0.02067417,-0.
 00328055,0.00479249,0.00231724,0.00043608,-0.00060677,-0.00041850,0.01
 798085,-0.16519795,0.14969956,0.00146417,-0.00164298,-0.00278861,-0.00
 345172,0.00700045,-0.00427318,-0.00004937,0.00005142,-0.00020215,-0.01
 560765,0.16454176,-0.00045519,-0.00014600,-0.00029391,0.00005180,0.000
 08050,-0.00006466,-0.00006852,0.00009781,-0.00001648,0.00007120,-0.000
 00410,0.00001639,0.00000360,-0.00001822,-0.00003752,-0.00004204,-0.000
 00708,0.00000236,-0.00001769,0.00002117,-0.00000283,0.00001903,-0.0000
 2995,-0.00000134,-0.00000972,-0.00000379,-0.00001107,0.00003561,-0.000
 00490,0.00004701,0.00002498,-0.00000461,-0.00001894,0.00001322,0.00000
 623,0.00000611,0.00001880,0.00000400,0.00000003,0.00015743,-0.00000302
 ,-0.00003217,-0.00002849,0.00002031,0.00004327,-0.00000889,0.00004644,
 0.00004700,0.00001844,-0.00000921,-0.00001995,0.00000662,-0.00000740,-
 0.00003664,-0.00001284,0.00001661,-0.00000190,0.00000121,-0.00001050,-
 0.00000059,0.00000538,0.00002001,-0.00000760,-0.00000949,0.00000398,0.
 00000611,-0.00000076,0.00001547,-0.00000640,-0.00000159,0.00001363,0.0
 0000119,-0.00062058,0.00371659,0.00384414,0.00028754,-0.00094420,0.000
 36807,-0.00495235,0.00285037,-0.00161177,-0.00548957,0.00204809,0.0023
 3440,0.00033821,-0.00042668,-0.00051142,-0.04024858,0.14957518,-0.2541
 1849,0.00194819,-0.00224291,-0.00089867,0.00122928,0.01359288,-0.00926
 313,-0.00000187,0.00053800,-0.00072527,0.04657350,-0.16601618,0.261876
 80,-0.00011749,0.00043788,0.00028449,-0.00001169,-0.00007731,0.0001153
 0,0.00004516,-0.00005833,0.00002943,-0.00000784,-0.00002797,-0.0000304
 8,-0.00005724,0.00000546,0.00004212,0.00000630,-0.00001127,-0.00001872
 ,0.00001526,-0.00000473,-0.00000537,0.00003038,-0.00001049,0.00002273,
 0.00001023,0.00002364,0.00000005,-0.00000542,0.00001435,0.00000326,-0.
 00001447,0.00000897,0.00000927,-0.00000679,-0.00000097,-0.00001101,-0.
 00001505,0.00000287,-0.00000290,0.00000407,0.00008034,-0.00001080,0.00
 002896,-0.00000876,-0.00004036,0.00000815,-0.00000676,-0.00001500,-0.0
 0001887,0.00000404,0.00002440,-0.00002465,0.00001590,0.00002671,0.0000
 0590,-0.00000602,-0.00000607,-0.00000062,0.00000579,0.00000053,-0.0000
 0220,-0.00001267,0.00000427,0.00000603,-0.00000226,-0.00000594,-0.0000
 0326,-0.00000978,0.00000407,0.00000119,-0.00001225,-0.00000053,-0.0002
 0456,0.00095541,-0.00051370,0.00260646,-0.00130795,-0.00321067,-0.0018
 2975,-0.00192105,-0.00611079,0.00820835,0.00587239,-0.00443233,0.00013
 903,0.00023094,-0.00009763,-0.01386152,-0.02212414,0.01109063,-0.00087
 965,-0.00091809,0.00045871,-0.21371915,-0.14821036,0.04535010,-0.00007
 002,0.00136921,0.00208197,-0.00000214,0.00232802,0.00116414,0.21973688
 ,0.00026967,-0.00054592,-0.00042914,0.00000180,0.00005010,-0.00013070,
 0.00000805,-0.00006402,-0.00000060,-0.00002963,-0.00002342,0.00001538,
 -0.00002418,0.00001578,0.00003101,0.00001416,-0.00001877,-0.00000771,0
 .00000877,-0.00000083,-0.00001711,0.00000983,0.00000471,0.00000842,0.0
 0000654,0.00000424,-0.00000332,-0.00001269,0.00000490,-0.00000726,-0.0
 0000273,0.00000788,0.00000162,-0.00000890,-0.00000412,-0.00000819,-0.0
 0000908,0.00000303,-0.00000335,-0.00014256,-0.00001951,0.00008957,0.00
 001248,-0.00004695,-0.00001587,0.00003076,-0.00005280,-0.00004293,-0.0
 0001508,0.00001958,0.00002983,-0.00002746,0.00003149,0.00003561,0.0000
 0880,-0.00001159,0.00000018,0.00000450,0.00000903,-0.00000497,0.000000
 90,-0.00002288,0.00000592,0.00000555,-0.00001499,-0.00001828,-0.000000
 91,-0.00001269,0.00000160,-0.00000030,-0.00001322,-0.00000201,0.001055
 37,0.00000073,-0.00026841,-0.00093079,0.00268001,0.00634281,-0.0023580
 2,0.00499346,0.00283235,-0.01707864,-0.00796278,0.00196544,-0.00068613
 ,-0.00064221,0.00014960,0.00112930,0.00317623,0.00323362,0.00003804,-0
 .00010559,0.00005433,-0.14834622,-0.19711535,0.05986359,0.00224776,-0.
 00156882,-0.00205497,0.00144508,-0.00170174,-0.00278853,0.16337598,0.1
 9894700,0.00030380,-0.00050174,-0.00029645,-0.00007078,0.00002381,-0.0
 0003242,-0.00004415,0.00003831,0.00000976,0.00001819,-0.00004179,0.000
 01033,0.00002908,-0.00002070,0.00003937,-0.00000338,-0.00000520,0.0000
 0010,-0.00000865,0.00001257,-0.00000195,0.00001837,-0.00000518,0.00000
 949,0.00000001,0.00000517,-0.00000887,0.00000646,0.00000670,0.00000410
 ,0.00000662,-0.00000095,-0.00000264,0.00000157,-0.00000154,0.00000119,
 0.00000201,0.00000055,0.00000083,-0.00002701,-0.00008038,0.00006362,0.
 00001762,0.00000187,0.00001432,0.00001337,-0.00002972,0.00000368,0.000
 00334,-0.00000726,0.00000113,-0.00002127,0.00001218,-0.00000778,-0.000
 00422,-0.00000364,0.00001222,-0.00000520,-0.00000279,-0.00000368,0.000
 00131,0.00000192,-0.00000719,-0.00000149,-0.00000320,0.00000003,0.0000
 0121,0.00000247,-0.00000373,-0.00000146,0.00000418,0.00000083,-0.00046
 811,-0.00018075,-0.00113696,-0.00369139,0.00606429,-0.00136030,-0.0056
 2389,0.00309876,0.00107611,0.02252153,0.01997999,-0.00083327,0.0010339
 7,0.00089596,-0.00036583,-0.01578685,-0.01471875,0.01020947,-0.0006145
 1,-0.00067143,0.00022490,0.04537425,0.05984173,-0.08317919,0.00105416,
 -0.00275388,-0.00076405,0.00216538,-0.00210408,-0.00091213,-0.04619991
 ,-0.06885752,0.07723499||0.,0.,0.00004370,0.,0.,0.00001802,0.00001757,
 -0.00002384,-0.00007200,-0.00004343,0.00003839,0.00001449,0.00006546,-
 0.00001163,0.00004779,0.00004618,0.00000129,0.00004076,-0.00000227,-0.
 00001133,-0.00001152,-0.00006789,0.00002701,0.00000540,-0.00000914,0.0
 0000941,0.00000588,-0.00000429,-0.00003220,-0.00005554,-0.00000206,-0.
 00000737,-0.00000794,0.00000947,0.00000510,0.00000442,0.00001214,0.000
 00266,0.00000770,0.00001186,0.00002714,-0.00007200,-0.00002266,0.00006
 250,0.00004779,-0.00001154,-0.00005681,0.00001449,0.00001055,-0.000072
 30,0.00000540,-0.00000358,-0.00001263,0.00000588,-0.00002420,0.0000393
 5,0.00004076,0.00001094,0.00000369,-0.00001152,0.00003003,0.00001238,-
 0.00005554,-0.00000915,0.00000565,0.00000442,0.00000741,0.00000190,-0.
 00000794,-0.00000838,0.00000918,0.00000770,-0.00002943,-0.00000330,-0.
 00007200,0.00005496,0.00001841,0.00001449,-0.00004280,-0.00005087,0.00
 004779,-0.00002198,-0.00004064,0.00004076,-0.00000867,0.00000763,-0.00
 001152,0.00005734,0.00004529,0.00000540,0.00001273,0.00000321,0.000005
 88,-0.00002574,0.00001982,-0.00005554,-0.00000535,0.00000547,-0.000007
 94,-0.00000032,-0.00001075,0.00000442,-0.00000377,-0.00001185,0.000007
 70|||@


 VIRTUE IS LEARNED AT YOUR MOTHER'S KNEE,
 VICES ARE PICKED UP AT SOME OTHER JOINT.
 Job cpu time:  0 days  0 hours  3 minutes 23.0 seconds.
 File lengths (MBytes):  RWF=    178 Int=      0 D2E=      0 Chk=      7 Scr=      1
 Normal termination of Gaussian 09 at Tue Sep 07 07:44:53 2021.
